<event>
 7    1  0.4852251E-009  0.1190029E+03  0.7561462E-02  0.1244751E+00
         -3   -1    0    0    0  501 -0.00000000000E+00  0.00000000000E+00  0.13219265336E+03  0.13219265336E+03  0.00000000000E+00 0.  1.
          3   -1    0    0  501    0  0.00000000000E+00 -0.00000000000E+00 -0.16053236244E+03  0.16053236244E+03  0.00000000000E+00 0. -1.
         25    2    1    2    0    0  0.94434251617E+02 -0.93092504953E+01 -0.35293158153E+02  0.16092449087E+03  0.12508634909E+03 0.  0.
          5    1    3    3  502    0 -0.28343221515E+01 -0.39891149719E+02  0.19945654092E+02  0.44884727080E+02  0.41800000000E+01 0. -1.
         -5    1    3    3    0  502  0.97268573769E+02  0.30581899224E+02 -0.55238812244E+02  0.11603976379E+03  0.41800000000E+01 0. -1.
        -11    1    1    2    0    0 -0.61661037775E+02 -0.61731959271E-01  0.48219751881E+02  0.78276636756E+02  0.00000000000E+00 0.  1.
         11    1    1    2    0    0 -0.32773213842E+02  0.93709824546E+01 -0.41266302803E+02  0.53523888169E+02  0.00000000000E+00 0. -1.
</event>
<event>
 7    1  0.2745201E-009  0.1092880E+03  0.7561462E-02  0.1261894E+00
          1   -1    0    0  501    0  0.00000000000E+00  0.00000000000E+00  0.28287925878E+03  0.28287925878E+03  0.00000000000E+00 0. -1.
         -1   -1    0    0    0  501 -0.00000000000E+00 -0.00000000000E+00 -0.62368579149E+02  0.62368579149E+02  0.00000000000E+00 0.  1.
         25    2    1    2    0    0 -0.72158095675E+02 -0.31186086687E+01  0.87594404771E+02  0.16892599428E+03  0.12508675111E+03 0.  0.
          5    1    3    3  502    0 -0.57458555865E+02 -0.51814876560E+02  0.13037024360E+02  0.78572918230E+02  0.41800000000E+01 0. -1.
         -5    1    3    3    0  502 -0.14699539810E+02  0.48696267891E+02  0.74557380411E+02  0.90353076045E+02  0.41800000000E+01 0. -1.
        -11    1    1    2    0    0 -0.53237440182E+01 -0.10133977703E+02 -0.86823416749E+01  0.14367421878E+02  0.00000000000E+00 0.  1.
         11    1    1    2    0    0  0.77481839694E+02  0.13252586372E+02  0.14159861653E+03  0.16195442177E+03  0.00000000000E+00 0. -1.
</event>
<event>
 7    1  0.2714042E-009  0.1020087E+03  0.7561462E-02  0.1276128E+00
          1   -1    0    0  501    0  0.00000000000E+00  0.00000000000E+00  0.49997543342E+03  0.49997543342E+03  0.00000000000E+00 0. -1.
         -1   -1    0    0    0  501 -0.00000000000E+00 -0.00000000000E+00 -0.31562696655E+02  0.31562696655E+02  0.00000000000E+00 0.  1.
         25    2    1    2    0    0  0.23729136755E+02 -0.99306792322E+01  0.13985873766E+03  0.18939376434E+03  0.12509133123E+03 0.  0.
          5    1    3    3  502    0 -0.17023386295E+02 -0.49396694852E+02  0.18884476135E+02  0.55712879859E+02  0.41800000000E+01 0.  1.
         -5    1    3    3    0  502  0.40752523050E+02  0.39466015620E+02  0.12097426153E+03  0.13368088448E+03  0.41800000000E+01 0.  1.
        -11    1    1    2    0    0  0.54376888205E+01  0.47133108958E+02  0.18603090189E+03  0.19198592365E+03  0.00000000000E+00 0. -1.
         11    1    1    2    0    0 -0.29166825575E+02 -0.37202429725E+02  0.14252309721E+03  0.15015844209E+03  0.00000000000E+00 0.  1.
</event>
<event>
 7    1  0.2714042E-009  0.9388839E+02  0.7561462E-02  0.1293700E+00
         -1   -1    0    0    0  501 -0.00000000000E+00  0.00000000000E+00  0.31668211505E+03  0.31668211505E+03  0.00000000000E+00 0.  1.
          1   -1    0    0  501    0  0.00000000000E+00 -0.00000000000E+00 -0.55272473888E+02  0.55272473888E+02  0.00000000000E+00 0. -1.
         25    2    1    2    0    0 -0.58981594513E+02  0.24687533401E+02  0.19887870891E+03  0.24349987924E+03  0.12510454642E+03 0.  0.
          5    1    3    3  502    0 -0.36774729425E+02  0.40252280297E+02  0.13797294519E+02  0.56395607359E+02  0.41800000000E+01 0. -1.
         -5    1    3    3    0  502 -0.22206865088E+02 -0.15564746896E+02  0.18508141439E+03  0.18710427188E+03  0.41800000000E+01 0. -1.
        -11    1    1    2    0    0 -0.21668816480E+02 -0.14134606264E+01 -0.30556338854E+01  0.21928802454E+02  0.00000000000E+00 0. -1.
         11    1    1    2    0    0  0.80650410993E+02 -0.23274072774E+02  0.65586566141E+02  0.10652590725E+03  0.00000000000E+00 0.  1.
</event>
<event>
 7    1  0.2714042E-009  0.8748193E+02  0.7561462E-02  0.1309067E+00
          2   -1    0    0  501    0  0.00000000000E+00  0.00000000000E+00  0.15067371700E+03  0.15067371700E+03  0.00000000000E+00 0. -1.
         -2   -1    0    0    0  501 -0.00000000000E+00 -0.00000000000E+00 -0.93753900077E+02  0.93753900077E+02  0.00000000000E+00 0.  1.
         25    2    1    2    0    0  0.32814948295E+02  0.24332037563E+02  0.22709979554E+00  0.13159299225E+03  0.12509114738E+03 0.  0.
          5    1    3    3  502    0  0.43360298837E+02 -0.42022045654E+02 -0.15466342517E+02  0.62471177250E+02  0.41800000000E+01 0.  1.
         -5    1    3    3    0  502 -0.10545350542E+02  0.66354083217E+02  0.15693442313E+02  0.69121815002E+02  0.41800000000E+01 0.  1.
        -11    1    1    2    0    0 -0.18389916487E+02  0.50703667046E+00  0.76019599282E+02  0.78213973109E+02  0.00000000000E+00 0. -1.
         11    1    1    2    0    0 -0.14425031808E+02 -0.24839074233E+02 -0.19326882154E+02  0.34620651716E+02  0.00000000000E+00 0.  1.
</event>
<event>
 7    1  0.2714042E-009  0.1271498E+03  0.7561462E-02  0.1231747E+00
          2   -1    0    0  501    0  0.00000000000E+00  0.00000000000E+00  0.60242501106E+02  0.60242501106E+02  0.00000000000E+00 0. -1.
         -2   -1    0    0    0  501 -0.00000000000E+00 -0.00000000000E+00 -0.40352485806E+03  0.40352485806E+03  0.00000000000E+00 0.  1.
         25    2    1    2    0    0  0.14591854596E+02 -0.71738722121E+02 -0.30981808902E+03  0.34204428819E+03  0.12509068841E+03 0.  0.
          5    1    3    3  502    0 -0.42867413938E+02  0.74343024609E+01 -0.64567901266E+02  0.77970316818E+02  0.41800000000E+01 0. -1.
         -5    1    3    3    0  502  0.57459268535E+02 -0.79173024582E+02 -0.24525018775E+03  0.26407397137E+03  0.41800000000E+01 0. -1.
        -11    1    1    2    0    0 -0.50274505758E+02  0.33719422788E+02 -0.34295350833E+02  0.69575114022E+02  0.00000000000E+00 0.  1.
         11    1    1    2    0    0  0.35682651162E+02  0.38019299333E+02  0.83108290014E+00  0.52147956954E+02  0.00000000000E+00 0. -1.
</event>
<event>
 7    1  0.2714042E-009  0.1764503E+03  0.7561462E-02  0.1171283E+00
          2   -1    0    0  501    0  0.00000000000E+00  0.00000000000E+00  0.50379563206E+02  0.50379563206E+02  0.00000000000E+00 0. -1.
         -2   -1    0    0    0  501 -0.00000000000E+00 -0.00000000000E+00 -0.15138848236E+04  0.15138848236E+04  0.00000000000E+00 0.  1.
         25    2    1    2    0    0  0.14738504349E+03  0.67840689171E+02 -0.13039408319E+04  0.13199371294E+04  0.12509045665E+03 0.  0.
          5    1    3    3  502    0  0.13949335816E+03  0.83840481411E+02 -0.12771183226E+04  0.12874534188E+04  0.41800000000E+01 0. -1.
         -5    1    3    3    0  502  0.78916853288E+01 -0.15999792240E+02 -0.26822509313E+02  0.32483710608E+02  0.41800000000E+01 0. -1.
        -11    1    1    2    0    0 -0.13779288315E+01 -0.17167871237E+02  0.56188485392E+01  0.18116455216E+02  0.00000000000E+00 0. -1.
         11    1    1    2    0    0 -0.14600711466E+03 -0.50672817934E+02 -0.16518327702E+03  0.22621080216E+03  0.00000000000E+00 0.  1.
</event>
<event>
 7    1  0.2714042E-009  0.1119826E+03  0.7561462E-02  0.1256942E+00
          1   -1    0    0  501    0  0.00000000000E+00  0.00000000000E+00  0.31535955891E+03  0.31535955891E+03  0.00000000000E+00 0. -1.
         -1   -1    0    0    0  501 -0.00000000000E+00 -0.00000000000E+00 -0.75936124062E+02  0.75936124062E+02  0.00000000000E+00 0.  1.
         25    2    1    2    0    0 -0.22314156423E+02  0.61433961253E+02  0.24135199049E+03  0.27958872651E+03  0.12508804702E+03 0.  0.
          5    1    3    3  502    0 -0.13273314051E+02 -0.34469440448E+02  0.31800253435E+02  0.48918827758E+02  0.41800000000E+01 0. -1.
         -5    1    3    3    0  502 -0.90408423725E+01  0.95903401701E+02  0.20955173706E+03  0.23066989876E+03  0.41800000000E+01 0. -1.
        -11    1    1    2    0    0 -0.20377596304E+02 -0.77917800328E+01 -0.30445771801E+02  0.37455350589E+02  0.00000000000E+00 0.  1.
         11    1    1    2    0    0  0.42691752727E+02 -0.53642181220E+02  0.28517216159E+02  0.74251605871E+02  0.00000000000E+00 0. -1.
</event>
<event>
 7    1  0.3393039E-009  0.1510335E+03  0.7561462E-02  0.1199209E+00
          2   -1    0    0  501    0  0.00000000000E+00  0.00000000000E+00  0.11238598903E+04  0.11238598903E+04  0.00000000000E+00 0. -1.
         -2   -1    0    0    0  501 -0.00000000000E+00 -0.00000000000E+00 -0.29905970178E+02  0.29905970178E+02  0.00000000000E+00 0.  1.
         25    2    1    2    0    0 -0.66379143391E+02  0.12716715805E+03  0.68462579426E+03  0.71058950598E+03  0.12508913256E+03 0.  0.
          5    1    3    3  502    0 -0.29669807761E+01  0.74158909689E+02  0.12941345667E+03  0.14924363312E+03  0.41800000000E+01 0.  1.
         -5    1    3    3    0  502 -0.63412162615E+02  0.53008248359E+02  0.55521233759E+03  0.56134587286E+03  0.41800000000E+01 0.  1.
        -11    1    1    2    0    0  0.33966632575E+02 -0.43093481831E+02  0.55459828107E+02  0.78016490811E+02  0.00000000000E+00 0.  1.
         11    1    1    2    0    0  0.32412510816E+02 -0.84073676217E+02  0.35386829776E+03  0.36515986369E+03  0.00000000000E+00 0. -1.
</event>
<event>
 7    1  0.2714042E-009  0.7475244E+02  0.7561462E-02  0.1344639E+00
         -1   -1    0    0    0  501 -0.00000000000E+00  0.00000000000E+00  0.71846607037E+02  0.71846607037E+02  0.00000000000E+00 0.  1.
          1   -1    0    0  501    0  0.00000000000E+00 -0.00000000000E+00 -0.17385086308E+03  0.17385086308E+03  0.00000000000E+00 0. -1.
         25    2    1    2    0    0 -0.18129869907E+02 -0.45222005428E+01 -0.74050732067E+02  0.14655835758E+03  0.12508676499E+03 0.  0.
          5    1    3    3  502    0  0.24941372476E+02  0.16393784541E+02  0.23230203097E+02  0.38051845796E+02  0.41800000000E+01 0.  1.
         -5    1    3    3    0  502 -0.43071242383E+02 -0.20915985084E+02 -0.97280935164E+02  0.10850651178E+03  0.41800000000E+01 0.  1.
        -11    1    1    2    0    0 -0.25866208606E+02  0.82494468766E+01  0.20175022506E+02  0.33825222165E+02  0.00000000000E+00 0.  1.
         11    1    1    2    0    0  0.43996078513E+02 -0.37272463337E+01 -0.48128546485E+02  0.65313890379E+02  0.00000000000E+00 0. -1.
</event>
<event>
 7    1  0.2714042E-009  0.9581788E+02  0.7561462E-02  0.1289345E+00
          3   -1    0    0  501    0  0.00000000000E+00  0.00000000000E+00  0.31218854390E+03  0.31218854390E+03  0.00000000000E+00 0. -1.
         -3   -1    0    0    0  501 -0.00000000000E+00 -0.00000000000E+00 -0.64143801627E+02  0.64143801627E+02  0.00000000000E+00 0.  1.
         25    2    1    2    0    0  0.46688502522E+01  0.59670463567E+02  0.37328533807E+02  0.14360400544E+03  0.12508528514E+03 0.  0.
          5    1    3    3  502    0 -0.31051424594E+02  0.51515631066E+02  0.71360869616E+02  0.93423216203E+02  0.41800000000E+01 0. -1.
         -5    1    3    3    0  502  0.35720274846E+02  0.81548325011E+01 -0.34032335809E+02  0.50180789241E+02  0.41800000000E+01 0. -1.
        -11    1    1    2    0    0 -0.37720444925E+02 -0.19561426372E+02  0.61756884980E+02  0.74962618748E+02  0.00000000000E+00 0.  1.
         11    1    1    2    0    0  0.33051594673E+02 -0.40109037195E+02  0.14895932349E+03  0.15776572134E+03  0.00000000000E+00 0. -1.
</event>
<event>
 7    1  0.2714042E-009  0.9256206E+02  0.7561462E-02  0.1296763E+00
         -2   -1    0    0    0  501 -0.00000000000E+00  0.00000000000E+00  0.43315968421E+02  0.43315968421E+02  0.00000000000E+00 0.  1.
          2   -1    0    0  501    0  0.00000000000E+00 -0.00000000000E+00 -0.36515984277E+03  0.36515984277E+03  0.00000000000E+00 0. -1.
         25    2    1    2    0    0 -0.54984258278E+02  0.72228378406E+01 -0.13134825773E+03  0.18966989011E+03  0.12508742687E+03 0.  0.
          5    1    3    3  502    0 -0.33504353867E+01  0.26180517135E+02 -0.13182385788E+03  0.13450519247E+03  0.41800000000E+01 0.  1.
         -5    1    3    3    0  502 -0.51633822891E+02 -0.18957679294E+02  0.47560014754E+00  0.55164697643E+02  0.41800000000E+01 0.  1.
        -11    1    1    2    0    0  0.55948709593E+02 -0.41053005303E+02 -0.15465981694E+03  0.16951479677E+03  0.00000000000E+00 0. -1.
         11    1    1    2    0    0 -0.96445131506E+00  0.33830167463E+02 -0.35835799679E+02  0.49291124308E+02  0.00000000000E+00 0.  1.
</event>
<event>
 7    1  0.2714042E-009  0.1027700E+03  0.7561462E-02  0.1274577E+00
         -3   -1    0    0    0  501 -0.00000000000E+00  0.00000000000E+00  0.31556707719E+03  0.31556707719E+03  0.00000000000E+00 0.  1.
          3   -1    0    0  501    0  0.00000000000E+00 -0.00000000000E+00 -0.91548859628E+02  0.91548859628E+02  0.00000000000E+00 0. -1.
         25    2    1    2    0    0 -0.74905402323E+02  0.38213467484E+02  0.26227046941E+01  0.15074245981E+03  0.12508126244E+03 0.  0.
          5    1    3    3  502    0 -0.14657563966E+02  0.19523245164E+02 -0.58053932139E+02  0.63116818043E+02  0.41800000000E+01 0.  1.
         -5    1    3    3    0  502 -0.60247838357E+02  0.18690222320E+02  0.60676636833E+02  0.87625641763E+02  0.41800000000E+01 0.  1.
        -11    1    1    2    0    0  0.52917041332E+02 -0.64404464544E+02  0.19830200137E+03  0.21510888421E+03  0.00000000000E+00 0.  1.
         11    1    1    2    0    0  0.21988360991E+02  0.26190997060E+02  0.23093511497E+02  0.41264592805E+02  0.00000000000E+00 0. -1.
</event>
<event>
 7    1  0.2714042E-009  0.1624491E+03  0.7561462E-02  0.1185959E+00
          1   -1    0    0  501    0  0.00000000000E+00  0.00000000000E+00  0.21132941210E+03  0.21132941210E+03  0.00000000000E+00 0. -1.
         -1   -1    0    0    0  501 -0.00000000000E+00 -0.00000000000E+00 -0.45375081167E+03  0.45375081167E+03  0.00000000000E+00 0.  1.
         25    2    1    2    0    0 -0.13452036375E+03 -0.68262370406E+02  0.14205954675E+03  0.24204200737E+03  0.12509172247E+03 0.  0.
          5    1    3    3  502    0 -0.35549379559E+02 -0.11409048059E+02  0.11996468429E+03  0.12570967600E+03  0.41800000000E+01 0. -1.
         -5    1    3    3    0  502 -0.98970984192E+02 -0.56853322347E+02  0.22094862463E+02  0.11633233137E+03  0.41800000000E+01 0. -1.
        -11    1    1    2    0    0  0.84490326936E+02  0.85495238426E+02 -0.22630304233E+03  0.25624425477E+03  0.00000000000E+00 0.  1.
         11    1    1    2    0    0  0.50030036815E+02 -0.17232868021E+02 -0.15817790399E+03  0.16679396162E+03  0.00000000000E+00 0. -1.
</event>
<event>
 7    1  0.2714042E-009  0.1063146E+03  0.7561462E-02  0.1267551E+00
         -1   -1    0    0    0  501 -0.00000000000E+00  0.00000000000E+00  0.35655473550E+02  0.35655473550E+02  0.00000000000E+00 0.  1.
          1   -1    0    0  501    0  0.00000000000E+00 -0.00000000000E+00 -0.59597142313E+03  0.59597142313E+03  0.00000000000E+00 0. -1.
         25    2    1    2    0    0  0.29262642725E+01  0.70573605281E+02 -0.43619848485E+03  0.45924425699E+03  0.12508785958E+03 0.  0.
          5    1    3    3  502    0 -0.24674162816E+02 -0.11375171715E+01 -0.11385054400E+02  0.27517269481E+02  0.41800000000E+01 0. -1.
         -5    1    3    3    0  502  0.27600427089E+02  0.71711122452E+02 -0.42481343045E+03  0.43172698751E+03  0.41800000000E+01 0. -1.
        -11    1    1    2    0    0  0.88990917695E+01 -0.88610969268E+02 -0.67350926263E+02  0.11165681787E+03  0.00000000000E+00 0.  1.
         11    1    1    2    0    0 -0.11825356042E+02  0.18037363987E+02 -0.56766538471E+02  0.60725821815E+02  0.00000000000E+00 0. -1.
</event>
<event>
 7    1  0.2714042E-009  0.2894937E+03  0.7561462E-02  0.1090614E+00
         -1   -1    0    0    0  501 -0.00000000000E+00  0.00000000000E+00  0.24186330511E+03  0.24186330511E+03  0.00000000000E+00 0.  1.
          1   -1    0    0  501    0  0.00000000000E+00 -0.00000000000E+00 -0.41897278253E+03  0.41897278253E+03  0.00000000000E+00 0. -1.
         25    2    1    2    0    0 -0.23628879343E+03 -0.14528969287E+03  0.24326258841E+02  0.30525634610E+03  0.12509269049E+03 0.  0.
          5    1    3    3  502    0 -0.16646351417E+03 -0.35015121097E+02  0.36738760331E+02  0.17407862926E+03  0.41800000000E+01 0.  1.
         -5    1    3    3    0  502 -0.69825279260E+02 -0.11027457177E+03 -0.12412501490E+02  0.13117771684E+03  0.41800000000E+01 0.  1.
        -11    1    1    2    0    0  0.10002105671E+03  0.48949965241E+02 -0.13733530867E+03  0.17680864766E+03  0.00000000000E+00 0. -1.
         11    1    1    2    0    0  0.13626773672E+03  0.96339727627E+02 -0.64100427593E+02  0.17877109388E+03  0.00000000000E+00 0.  1.
</event>
<event>
 7    1  0.2714042E-009  0.2539588E+03  0.7561462E-02  0.1110828E+00
          1   -1    0    0  501    0  0.00000000000E+00  0.00000000000E+00  0.29164386009E+03  0.29164386009E+03  0.00000000000E+00 0. -1.
         -1   -1    0    0    0  501 -0.00000000000E+00 -0.00000000000E+00 -0.27106567350E+03  0.27106567350E+03  0.00000000000E+00 0.  1.
         25    2    1    2    0    0 -0.14307521676E+03 -0.19025761182E+03 -0.92434338127E+02  0.28435937329E+03  0.12509064638E+03 0.  0.
          5    1    3    3  502    0 -0.51922142270E+02 -0.16671984536E+03 -0.61368865135E+02  0.18513515523E+03  0.41800000000E+01 0.  1.
         -5    1    3    3    0  502 -0.91153074488E+02 -0.23537766458E+02 -0.31065472993E+02  0.99224218065E+02  0.41800000000E+01 0.  1.
        -11    1    1    2    0    0  0.86110537108E+02  0.13141978338E+03  0.26704859346E+02  0.15937168374E+03  0.00000000000E+00 0.  1.
         11    1    1    2    0    0  0.56964679649E+02  0.58837828430E+02  0.86307665371E+02  0.11897847656E+03  0.00000000000E+00 0. -1.
</event>
<event>
 7    1  0.2714042E-009  0.1239491E+03  0.7561462E-02  0.1236721E+00
          1   -1    0    0  501    0  0.00000000000E+00  0.00000000000E+00  0.38202770462E+03  0.38202770462E+03  0.00000000000E+00 0. -1.
         -1   -1    0    0    0  501 -0.00000000000E+00 -0.00000000000E+00 -0.51477265268E+02  0.51477265268E+02  0.00000000000E+00 0.  1.
         25    2    1    2    0    0 -0.75155384378E+02  0.17281267043E+02  0.11269133830E+03  0.18518331788E+03  0.12508616830E+03 0.  0.
          5    1    3    3  502    0 -0.91729876055E+02  0.53885195720E+02  0.84408002652E+02  0.13586820007E+03  0.41800000000E+01 0.  1.
         -5    1    3    3    0  502  0.16574491677E+02 -0.36603928677E+02  0.28283335648E+02  0.49315117807E+02  0.41800000000E+01 0.  1.
        -11    1    1    2    0    0  0.59701908703E+02 -0.41212211596E+02  0.20425071451E+03  0.21675128296E+03  0.00000000000E+00 0. -1.
         11    1    1    2    0    0  0.15453475675E+02  0.23930944553E+02  0.13608386540E+02  0.31570369048E+02  0.00000000000E+00 0.  1.
</event>
<event>
 7    1  0.2714042E-009  0.1172244E+03  0.7561462E-02  0.1247748E+00
          2   -1    0    0  501    0  0.00000000000E+00  0.00000000000E+00  0.45600161757E+03  0.45600161757E+03  0.00000000000E+00 0. -1.
         -2   -1    0    0    0  501 -0.00000000000E+00 -0.00000000000E+00 -0.46743805890E+02  0.46743805890E+02  0.00000000000E+00 0.  1.
         25    2    1    2    0    0  0.23560446904E+02  0.56813297229E+02  0.92322339404E+02  0.16719819640E+03  0.12509587174E+03 0.  0.
          5    1    3    3  502    0 -0.40481644514E+02  0.57631239267E+02  0.69617504389E+02  0.99117065127E+02  0.41800000000E+01 0.  1.
         -5    1    3    3    0  502  0.64042091418E+02 -0.81794203781E+00  0.22704835015E+02  0.68081131273E+02  0.41800000000E+01 0.  1.
        -11    1    1    2    0    0 -0.42308722032E+02 -0.26442171841E+01  0.68270742494E+02  0.80361148108E+02  0.00000000000E+00 0. -1.
         11    1    1    2    0    0  0.18748275128E+02 -0.54169080045E+02  0.24866472979E+03  0.25518607896E+03  0.00000000000E+00 0.  1.
</event>
<event>
 7    1  0.2714042E-009  0.1206136E+03  0.7561462E-02  0.1242088E+00
         -1   -1    0    0    0  501 -0.00000000000E+00  0.00000000000E+00  0.29086169401E+02  0.29086169401E+02  0.00000000000E+00 0.  1.
          1   -1    0    0  501    0  0.00000000000E+00 -0.00000000000E+00 -0.52681510524E+03  0.52681510524E+03  0.00000000000E+00 0. -1.
         25    2    1    2    0    0 -0.60856086646E+02 -0.26567742145E+02 -0.27026304657E+03  0.30512239929E+03  0.12509298940E+03 0.  0.
          5    1    3    3  502    0 -0.26877040310E+02  0.49937058789E+02 -0.92315613277E+02  0.10842384420E+03  0.41800000000E+01 0.  1.
         -5    1    3    3    0  502 -0.33979046336E+02 -0.76504800934E+02 -0.17794743330E+03  0.19669855509E+03  0.41800000000E+01 0.  1.
        -11    1    1    2    0    0 -0.41905346735E+01 -0.20073943809E+02 -0.21048920263E+02  0.29386746080E+02  0.00000000000E+00 0.  1.
         11    1    1    2    0    0  0.65046621319E+02  0.46641685954E+02 -0.20641696900E+03  0.22139212928E+03  0.00000000000E+00 0. -1.
</event>
<event>
 7    1  0.2714042E-009  0.1025676E+03  0.7561462E-02  0.1274987E+00
          2   -1    0    0  501    0  0.00000000000E+00  0.00000000000E+00  0.13424812267E+03  0.13424812267E+03  0.00000000000E+00 0. -1.
         -2   -1    0    0    0  501 -0.00000000000E+00 -0.00000000000E+00 -0.13270859724E+03  0.13270859724E+03  0.00000000000E+00 0.  1.
         25    2    1    2    0    0 -0.37557598555E+02 -0.66932914797E+02  0.14503670687E+02  0.14747318894E+03  0.12508955472E+03 0.  0.
          5    1    3    3  502    0 -0.51820646370E+00 -0.44572535981E+02  0.66208421130E+02  0.79925008165E+02  0.41800000000E+01 0.  1.
         -5    1    3    3    0  502 -0.37039392091E+02 -0.22360378816E+02 -0.51704750442E+02  0.67548180772E+02  0.41800000000E+01 0.  1.
        -11    1    1    2    0    0  0.90026144480E+01  0.83433303028E+02  0.34878671690E+00  0.83918322035E+02  0.00000000000E+00 0. -1.
         11    1    1    2    0    0  0.28554984107E+02 -0.16500388231E+02 -0.13312931970E+02  0.35565208937E+02  0.00000000000E+00 0.  1.
</event>
<event>
 7    1  0.2714042E-009  0.1703515E+03  0.7561462E-02  0.1177482E+00
          2   -1    0    0  501    0  0.00000000000E+00  0.00000000000E+00  0.13696001174E+04  0.13696001174E+04  0.00000000000E+00 0. -1.
         -2   -1    0    0    0  501 -0.00000000000E+00 -0.00000000000E+00 -0.25237012041E+02  0.25237012041E+02  0.00000000000E+00 0.  1.
         25    2    1    2    0    0 -0.69314732480E+02  0.13250981176E+03  0.75551630370E+03  0.78026677200E+03  0.12509183818E+03 0.  0.
          5    1    3    3  502    0 -0.74655586836E+02  0.71515824189E+02  0.24329421768E+03  0.26438138836E+03  0.41800000000E+01 0.  1.
         -5    1    3    3    0  502  0.53408543558E+01  0.60993987573E+02  0.51222208602E+03  0.51588538364E+03  0.41800000000E+01 0.  1.
        -11    1    1    2    0    0  0.82103632104E+02 -0.58632759612E+02  0.32873442816E+03  0.34386789784E+03  0.00000000000E+00 0.  1.
         11    1    1    2    0    0 -0.12788899624E+02 -0.73877052149E+02  0.26011237344E+03  0.27070245955E+03  0.00000000000E+00 0. -1.
</event>
<event>
 7    1  0.2714042E-009  0.1211717E+03  0.7561462E-02  0.1241176E+00
          4   -1    0    0  501    0  0.00000000000E+00  0.00000000000E+00  0.10364400079E+03  0.10364400079E+03  0.00000000000E+00 0. -1.
         -4   -1    0    0    0  501 -0.00000000000E+00 -0.00000000000E+00 -0.16248232972E+03  0.16248232972E+03  0.00000000000E+00 0.  1.
         25    2    1    2    0    0  0.53517301510E+02 -0.43574142763E+02 -0.23256862159E+02  0.14474534311E+03  0.12509006849E+03 0.  0.
          5    1    3    3  502    0 -0.31741325559E+02 -0.30409139339E+02  0.19619717742E+02  0.48318042467E+02  0.41800000000E+01 0.  1.
         -5    1    3    3    0  502  0.85258627069E+02 -0.13165003423E+02 -0.42876579900E+02  0.96427300641E+02  0.41800000000E+01 0.  1.
        -11    1    1    2    0    0 -0.47545794443E+02  0.70058410868E+02 -0.12183995140E+02  0.85540827913E+02  0.00000000000E+00 0.  1.
         11    1    1    2    0    0 -0.59715070673E+01 -0.26484268105E+02 -0.23397471633E+02  0.35840159494E+02  0.00000000000E+00 0. -1.
</event>
<event>
 7    1  0.2714042E-009  0.2255723E+03  0.7561462E-02  0.1129796E+00
          1   -1    0    0  501    0  0.00000000000E+00  0.00000000000E+00  0.50832623651E+03  0.50832623651E+03  0.00000000000E+00 0. -1.
         -1   -1    0    0    0  501 -0.00000000000E+00 -0.00000000000E+00 -0.12192685366E+03  0.12192685366E+03  0.00000000000E+00 0.  1.
         25    2    1    2    0    0  0.40371011907E+02 -0.19826163807E+03  0.76403072413E+02  0.24984493401E+03  0.12509023082E+03 0.  0.
          5    1    3    3  502    0  0.49303692461E+02 -0.11681202714E+02  0.20522786087E+02  0.54826651693E+02  0.41800000000E+01 0. -1.
         -5    1    3    3    0  502 -0.89326805543E+01 -0.18658043536E+03  0.55880286326E+02  0.19501828232E+03  0.41800000000E+01 0. -1.
        -11    1    1    2    0    0  0.17648810196E+02  0.77533242101E+02  0.71813266898E+02  0.10714489925E+03  0.00000000000E+00 0.  1.
         11    1    1    2    0    0 -0.58019822102E+02  0.12072839597E+03  0.23818304354E+03  0.27326325691E+03  0.00000000000E+00 0. -1.
</event>
<event>
 7    1  0.2714042E-009  0.8642891E+02  0.7561462E-02  0.1311738E+00
          1   -1    0    0  501    0  0.00000000000E+00  0.00000000000E+00  0.58914656273E+02  0.58914656273E+02  0.00000000000E+00 0. -1.
         -1   -1    0    0    0  501 -0.00000000000E+00 -0.00000000000E+00 -0.22177251463E+03  0.22177251463E+03  0.00000000000E+00 0.  1.
         25    2    1    2    0    0 -0.19025625060E+02 -0.22998018875E+02 -0.10056093292E+03  0.16325190196E+03  0.12509116269E+03 0.  0.
          5    1    3    3  502    0 -0.12987916961E+02 -0.66024379185E+02 -0.98744916738E+02  0.11956561218E+03  0.41800000000E+01 0. -1.
         -5    1    3    3    0  502 -0.60377080988E+01  0.43026360310E+02 -0.18160161845E+01  0.43686289787E+02  0.41800000000E+01 0. -1.
        -11    1    1    2    0    0  0.19961265045E+02 -0.14252728841E+02 -0.74334626423E+02  0.78276618904E+02  0.00000000000E+00 0.  1.
         11    1    1    2    0    0 -0.93563998484E+00  0.37250747716E+02  0.12037700987E+02  0.39158650036E+02  0.00000000000E+00 0. -1.
</event>
<event>
 7    1  0.2714042E-009  0.1001412E+03  0.7561462E-02  0.1279999E+00
          1   -1    0    0  501    0  0.00000000000E+00  0.00000000000E+00  0.14851505416E+04  0.14851505416E+04  0.00000000000E+00 0. -1.
         -1   -1    0    0    0  501 -0.00000000000E+00 -0.00000000000E+00 -0.20442023836E+02  0.20442023836E+02  0.00000000000E+00 0.  1.
         25    2    1    2    0    0 -0.44213792379E+01  0.46670923631E+02  0.13285411466E+04  0.13352408409E+04  0.12509516886E+03 0.  0.
          5    1    3    3  502    0 -0.83357539495E+01 -0.26319481576E+02  0.83422848988E+02  0.87971836616E+02  0.41800000000E+01 0.  1.
         -5    1    3    3    0  502  0.39143747116E+01  0.72990405208E+02  0.12451182976E+04  0.12472690043E+04  0.41800000000E+01 0.  1.
        -11    1    1    2    0    0  0.46429358563E+01  0.26031524760E+02  0.19380959351E+02  0.32784428012E+02  0.00000000000E+00 0.  1.
         11    1    1    2    0    0 -0.22155661835E+00 -0.72702448392E+02  0.11678641178E+03  0.13756729650E+03  0.00000000000E+00 0. -1.
</event>
<event>
 7    1  0.2714042E-009  0.9032743E+02  0.7561462E-02  0.1302061E+00
          1   -1    0    0  501    0  0.00000000000E+00  0.00000000000E+00  0.59031388034E+03  0.59031388034E+03  0.00000000000E+00 0. -1.
         -1   -1    0    0    0  501 -0.00000000000E+00 -0.00000000000E+00 -0.26947196628E+02  0.26947196628E+02  0.00000000000E+00 0.  1.
         25    2    1    2    0    0  0.31389766430E+01 -0.38948497651E+02  0.44504458859E+03  0.46393803994E+03  0.12508789079E+03 0.  0.
          5    1    3    3  502    0  0.27196398181E+02 -0.50107652359E+02  0.42872649100E+03  0.43252086352E+03  0.41800000000E+01 0. -1.
         -5    1    3    3    0  502 -0.24057421538E+02  0.11159154708E+02  0.16318097596E+02  0.31417176417E+02  0.41800000000E+01 0. -1.
        -11    1    1    2    0    0  0.32891123778E+02  0.49200591596E+02  0.62286680602E+02  0.85919467044E+02  0.00000000000E+00 0.  1.
         11    1    1    2    0    0 -0.36030100421E+02 -0.10252093945E+02  0.56035414518E+02  0.67403569986E+02  0.00000000000E+00 0. -1.
</event>
<event>
 7    1  0.2714042E-009  0.1650002E+03  0.7561462E-02  0.1183164E+00
         -3   -1    0    0    0  501 -0.00000000000E+00  0.00000000000E+00  0.60855797396E+03  0.60855797396E+03  0.00000000000E+00 0.  1.
          3   -1    0    0  501    0  0.00000000000E+00 -0.00000000000E+00 -0.59815108917E+02  0.59815108917E+02  0.00000000000E+00 0. -1.
         25    2    1    2    0    0  0.15168655250E+03 -0.56939256235E+01  0.21251133041E+03  0.28956831970E+03  0.12509002845E+03 0.  0.
          5    1    3    3  502    0  0.97305868273E+01 -0.86833718291E+01 -0.15653458253E+02  0.20798760098E+02  0.41800000000E+01 0.  1.
         -5    1    3    3    0  502  0.14195596567E+03  0.29894462056E+01  0.22816478867E+03  0.26876955960E+03  0.41800000000E+01 0.  1.
        -11    1    1    2    0    0 -0.34483945848E+02 -0.36006815454E+02  0.10494310550E+03  0.11618385719E+03  0.00000000000E+00 0.  1.
         11    1    1    2    0    0 -0.11720260665E+03  0.41700741077E+02  0.23128842913E+03  0.26262090599E+03  0.00000000000E+00 0. -1.
</event>
<event>
 7    1  0.2714042E-009  0.7302190E+02  0.7561462E-02  0.1350108E+00
         -2   -1    0    0    0  501 -0.00000000000E+00  0.00000000000E+00  0.77670510399E+02  0.77670510399E+02  0.00000000000E+00 0. -1.
          2   -1    0    0  501    0  0.00000000000E+00 -0.00000000000E+00 -0.16372123570E+03  0.16372123570E+03  0.00000000000E+00 0.  1.
         25    2    1    2    0    0  0.70359733183E+01  0.23055775477E+02 -0.26728818206E+02  0.13017149372E+03  0.12509642021E+03 0.  0.
          5    1    3    3  502    0  0.43309019427E+02  0.18868445139E+02 -0.62786354590E+02  0.78684738726E+02  0.41800000000E+01 0. -1.
         -5    1    3    3    0  502 -0.36273046109E+02  0.41873303382E+01  0.36057536384E+02  0.51486754991E+02  0.41800000000E+01 0. -1.
        -11    1    1    2    0    0 -0.32067818403E+02 -0.16117864976E+02  0.99450922811E+01  0.37242924281E+02  0.00000000000E+00 0. -1.
         11    1    1    2    0    0  0.25031845084E+02 -0.69379105006E+01 -0.69266999381E+02  0.73977328106E+02  0.00000000000E+00 0.  1.
</event>
<event>
 7    1  0.2714042E-009  0.1346763E+03  0.7561462E-02  0.1220677E+00
          2   -1    0    0  501    0  0.00000000000E+00  0.00000000000E+00  0.58942241759E+03  0.58942241759E+03  0.00000000000E+00 0. -1.
         -2   -1    0    0    0  501 -0.00000000000E+00 -0.00000000000E+00 -0.73396560683E+02  0.73396560683E+02  0.00000000000E+00 0.  1.
         25    2    1    2    0    0 -0.11964270926E+02 -0.10926214346E+03  0.47359938299E+02  0.17312483207E+03  0.12509150232E+03 0.  0.
          5    1    3    3  502    0  0.30285262987E+02 -0.51256254683E+02 -0.30611620251E+02  0.67074171577E+02  0.41800000000E+01 0. -1.
         -5    1    3    3    0  502 -0.42249533914E+02 -0.58005888779E+02  0.77971558550E+02  0.10605066050E+03  0.41800000000E+01 0. -1.
        -11    1    1    2    0    0  0.94382976374E+01 -0.12686989995E+02  0.25122884630E+02  0.29685021637E+02  0.00000000000E+00 0.  1.
         11    1    1    2    0    0  0.25259732887E+01  0.12194913346E+03  0.44354303398E+03  0.46000912456E+03  0.00000000000E+00 0. -1.
</event>
<event>
 7    1  0.2714042E-009  0.2102189E+03  0.7561462E-02  0.1141393E+00
          1   -1    0    0  501    0  0.00000000000E+00  0.00000000000E+00  0.14469586116E+04  0.14469586116E+04  0.00000000000E+00 0. -1.
         -1   -1    0    0    0  501 -0.00000000000E+00 -0.00000000000E+00 -0.95715507311E+02  0.95715507311E+02  0.00000000000E+00 0.  1.
         25    2    1    2    0    0 -0.10569723803E+03  0.16981893544E+03  0.12942340298E+04  0.13155612109E+04  0.12509675773E+03 0.  0.
          5    1    3    3  502    0  0.84964218077E+01  0.29165691352E+02  0.49893858149E+03  0.49987999284E+03  0.41800000000E+01 0.  1.
         -5    1    3    3    0  502 -0.11419365983E+03  0.14065324409E+03  0.79529544831E+03  0.81568121807E+03  0.41800000000E+01 0.  1.
        -11    1    1    2    0    0  0.11287314325E+03 -0.15186390458E+03  0.72199796712E+02  0.20252358536E+03  0.00000000000E+00 0. -1.
         11    1    1    2    0    0 -0.71759052268E+01 -0.17955030868E+02 -0.15190722186E+02  0.24589322680E+02  0.00000000000E+00 0.  1.
</event>
<event>
 7    1  0.2714042E-009  0.8235284E+02  0.7561462E-02  0.1322504E+00
          2   -1    0    0  501    0  0.00000000000E+00  0.00000000000E+00  0.10954656366E+03  0.10954656366E+03  0.00000000000E+00 0. -1.
         -2   -1    0    0    0  501 -0.00000000000E+00 -0.00000000000E+00 -0.12835402127E+03  0.12835402127E+03  0.00000000000E+00 0.  1.
         25    2    1    2    0    0  0.18292730609E+02  0.43050380336E+02 -0.31343271726E+02  0.13717825262E+03  0.12509001986E+03 0.  0.
          5    1    3    3  502    0 -0.43683372043E+02  0.61865195141E+01 -0.45562116072E+02  0.63560119869E+02  0.41800000000E+01 0. -1.
         -5    1    3    3    0  502  0.61976102652E+02  0.36863860822E+02  0.14218844347E+02  0.73618132747E+02  0.41800000000E+01 0. -1.
        -11    1    1    2    0    0 -0.87575589027E+01 -0.80999972883E+01 -0.37271067005E+02  0.39133581866E+02  0.00000000000E+00 0.  1.
         11    1    1    2    0    0 -0.95351717065E+01 -0.34950383047E+02  0.49806881121E+02  0.61588750447E+02  0.00000000000E+00 0. -1.
</event>
<event>
 7    1  0.2714042E-009  0.1234297E+03  0.7561462E-02  0.1237544E+00
          3   -1    0    0  501    0  0.00000000000E+00  0.00000000000E+00  0.23212214670E+02  0.23212214670E+02  0.00000000000E+00 0. -1.
         -3   -1    0    0    0  501 -0.00000000000E+00 -0.00000000000E+00 -0.10962293366E+04  0.10962293366E+04  0.00000000000E+00 0.  1.
         25    2    1    2    0    0  0.90175542704E+01 -0.11325378039E+03 -0.68052014757E+03  0.70118648202E+03  0.12508827390E+03 0.  0.
          5    1    3    3  502    0 -0.15090361021E+02 -0.49782124370E+01 -0.58438270506E+01  0.17439160227E+02  0.41800000000E+01 0.  1.
         -5    1    3    3    0  502  0.24107915292E+02 -0.10827556795E+03 -0.67467632051E+03  0.68374732179E+03  0.41800000000E+01 0.  1.
        -11    1    1    2    0    0 -0.19586338166E+02  0.32245347377E+02 -0.34730048684E+02  0.51279268246E+02  0.00000000000E+00 0. -1.
         11    1    1    2    0    0  0.10568783896E+02  0.81008433011E+02 -0.35776692567E+03  0.36697580100E+03  0.00000000000E+00 0.  1.
</event>
<event>
 7    1  0.2714042E-009  0.6436747E+02  0.7561462E-02  0.1380367E+00
          3   -1    0    0  501    0  0.00000000000E+00  0.00000000000E+00  0.10144116604E+03  0.10144116604E+03  0.00000000000E+00 0. -1.
         -3   -1    0    0    0  501 -0.00000000000E+00 -0.00000000000E+00 -0.19479489463E+03  0.19479489463E+03  0.00000000000E+00 0.  1.
         25    2    1    2    0    0 -0.67383985782E+01  0.16047513120E+02  0.40328572204E+02  0.13257775175E+03  0.12509011883E+03 0.  0.
          5    1    3    3  502    0 -0.21106037152E+02  0.62827464974E+01  0.83181759921E+02  0.86148797388E+02  0.41800000000E+01 0. -1.
         -5    1    3    3    0  502  0.14367638574E+02  0.97647666228E+01 -0.42853187717E+02  0.46428954360E+02  0.41800000000E+01 0. -1.
        -11    1    1    2    0    0 -0.33224766426E+02 -0.31330399511E+02 -0.97344264625E+02  0.10752388057E+03  0.00000000000E+00 0.  1.
         11    1    1    2    0    0  0.39963165004E+02  0.15282886391E+02 -0.36338036172E+02  0.56134428352E+02  0.00000000000E+00 0. -1.
</event>
<event>
 7    1  0.3261860E-009  0.1378426E+03  0.7561462E-02  0.1216262E+00
          1   -1    0    0  501    0  0.00000000000E+00  0.00000000000E+00  0.33939952205E+03  0.33939952205E+03  0.00000000000E+00 0. -1.
         -1   -1    0    0    0  501 -0.00000000000E+00 -0.00000000000E+00 -0.77241799657E+02  0.77241799657E+02  0.00000000000E+00 0.  1.
         25    2    1    2    0    0  0.11254678030E+02 -0.11781484141E+03  0.16402915656E+03  0.23782352057E+03  0.12508980014E+03 0.  0.
          5    1    3    3  502    0  0.47415466589E+02 -0.21890389411E+02  0.11006454826E+03  0.12189787859E+03  0.41800000000E+01 0. -1.
         -5    1    3    3    0  502 -0.36160788559E+02 -0.95924451994E+02  0.53964608303E+02  0.11592564198E+03  0.41800000000E+01 0. -1.
        -11    1    1    2    0    0  0.63215717232E+01  0.58207867424E+02  0.10084984471E+03  0.11661393260E+03  0.00000000000E+00 0. -1.
         11    1    1    2    0    0 -0.17576249754E+02  0.59606973981E+02 -0.27212788751E+01  0.62203868540E+02  0.00000000000E+00 0.  1.
</event>
<event>
 7    1  0.2714042E-009  0.1040896E+03  0.7561462E-02  0.1271924E+00
          2   -1    0    0  501    0  0.00000000000E+00  0.00000000000E+00  0.67756116982E+03  0.67756116982E+03  0.00000000000E+00 0. -1.
         -2   -1    0    0    0  501 -0.00000000000E+00 -0.00000000000E+00 -0.35680149119E+02  0.35680149119E+02  0.00000000000E+00 0.  1.
         25    2    1    2    0    0  0.39418122608E+02  0.45421678196E+02  0.56054691703E+03  0.57747546187E+03  0.12509254829E+03 0.  0.
          5    1    3    3  502    0  0.61438709606E+02  0.17831838996E+02  0.12501407207E+03  0.14049441319E+03  0.41800000000E+01 0. -1.
         -5    1    3    3    0  502 -0.22020586998E+02  0.27589839200E+02  0.43553284495E+03  0.43698104869E+03  0.41800000000E+01 0. -1.
        -11    1    1    2    0    0 -0.34556745983E+02 -0.72868791249E+02  0.63834569486E+02  0.10285369071E+03  0.00000000000E+00 0.  1.
         11    1    1    2    0    0 -0.48613766252E+01  0.27447113053E+02  0.17499534195E+02  0.32912166363E+02  0.00000000000E+00 0. -1.
</event>
<event>
 7    1  0.2714042E-009  0.1280239E+03  0.7561462E-02  0.1230418E+00
         -2   -1    0    0    0  501 -0.00000000000E+00  0.00000000000E+00  0.14280474141E+03  0.14280474141E+03  0.00000000000E+00 0.  1.
          2   -1    0    0  501    0  0.00000000000E+00 -0.00000000000E+00 -0.14351992370E+03  0.14351992370E+03  0.00000000000E+00 0. -1.
         25    2    1    2    0    0 -0.59218019752E+02  0.56102706395E+02  0.37869799199E+02  0.15406845890E+03  0.12509468738E+03 0.  0.
          5    1    3    3  502    0 -0.74379564348E+02 -0.40604875189E+01 -0.10425298902E+02  0.75332372913E+02  0.41800000000E+01 0. -1.
         -5    1    3    3    0  502  0.15161544597E+02  0.60163193914E+02  0.48295098101E+02  0.78736085990E+02  0.41800000000E+01 0. -1.
        -11    1    1    2    0    0  0.38140522525E+02  0.18027932421E+02 -0.35483121499E+02  0.55124928274E+02  0.00000000000E+00 0.  1.
         11    1    1    2    0    0  0.21077497226E+02 -0.74130638816E+02 -0.31018599827E+01  0.77131277935E+02  0.00000000000E+00 0. -1.
</event>
<event>
 7    1  0.2714042E-009  0.1178749E+03  0.7561462E-02  0.1246645E+00
          2   -1    0    0  501    0  0.00000000000E+00  0.00000000000E+00  0.90868880773E+03  0.90868880773E+03  0.00000000000E+00 0.  1.
         -2   -1    0    0    0  501 -0.00000000000E+00 -0.00000000000E+00 -0.19797089679E+02  0.19797089679E+02  0.00000000000E+00 0. -1.
         25    2    1    2    0    0 -0.41576707850E+01  0.79324840651E+02  0.51854983134E+03  0.53930652910E+03  0.12509151918E+03 0.  0.
          5    1    3    3  502    0 -0.16391415142E+02 -0.14628991838E+02  0.15059516524E+02  0.26961960806E+02  0.41800000000E+01 0.  1.
         -5    1    3    3    0  502  0.12233744357E+02  0.93953832489E+02  0.50349031482E+03  0.51234456829E+03  0.41800000000E+01 0.  1.
        -11    1    1    2    0    0  0.37088412003E+01 -0.98898323889E+02  0.32637547506E+03  0.34105070692E+03  0.00000000000E+00 0.  1.
         11    1    1    2    0    0  0.44882958473E+00  0.19573483239E+02  0.43966411644E+02  0.48128661387E+02  0.00000000000E+00 0. -1.
</event>
<event>
 7    1  0.2714042E-009  0.7859136E+02  0.7561462E-02  0.1333097E+00
         -2   -1    0    0    0  501 -0.00000000000E+00  0.00000000000E+00  0.20914522304E+03  0.20914522304E+03  0.00000000000E+00 0.  1.
          2   -1    0    0  501    0  0.00000000000E+00 -0.00000000000E+00 -0.87797467472E+02  0.87797467472E+02  0.00000000000E+00 0. -1.
         25    2    1    2    0    0 -0.45291824138E+02  0.22837235827E+02  0.13536393949E+03  0.19117089088E+03  0.12510005887E+03 0.  0.
          5    1    3    3  502    0 -0.43795095717E+02  0.23348072505E+02 -0.56148580940E+01  0.50121272231E+02  0.41800000000E+01 0.  1.
         -5    1    3    3    0  502 -0.14967284210E+01 -0.51083667835E+00  0.14097879759E+03  0.14104961864E+03  0.41800000000E+01 0.  1.
        -11    1    1    2    0    0  0.69078188460E+02 -0.33580415908E+02 -0.14915393341E+01  0.76822295872E+02  0.00000000000E+00 0.  1.
         11    1    1    2    0    0 -0.23786364322E+02  0.10743180081E+02 -0.12524644594E+02  0.28949503763E+02  0.00000000000E+00 0. -1.
</event>
<event>
 7    1  0.2714042E-009  0.1112498E+03  0.7561462E-02  0.1258273E+00
          2   -1    0    0  501    0  0.00000000000E+00  0.00000000000E+00  0.41237547643E+02  0.41237547643E+02  0.00000000000E+00 0. -1.
         -2   -1    0    0    0  501 -0.00000000000E+00 -0.00000000000E+00 -0.46729225497E+03  0.46729225497E+03  0.00000000000E+00 0.  1.
         25    2    1    2    0    0  0.55263909830E+01  0.78178686052E+02 -0.29621227171E+03  0.33095673600E+03  0.12509277855E+03 0.  0.
          5    1    3    3  502    0  0.53627500822E+01  0.89495374633E+02 -0.99989975759E+02  0.13436386725E+03  0.41800000000E+01 0. -1.
         -5    1    3    3    0  502  0.16364090085E+00 -0.11316688581E+02 -0.19622229595E+03  0.19659286876E+03  0.41800000000E+01 0. -1.
        -11    1    1    2    0    0 -0.35503104867E+02 -0.83041607310E+02 -0.10358343731E+03  0.13742600731E+03  0.00000000000E+00 0. -1.
         11    1    1    2    0    0  0.29976713884E+02  0.48629212580E+01 -0.26258998315E+02  0.40147059307E+02  0.00000000000E+00 0.  1.
</event>
<event>
 7    1  0.2714042E-009  0.1102345E+03  0.7561462E-02  0.1260136E+00
          3   -1    0    0  501    0  0.00000000000E+00  0.00000000000E+00  0.37162163642E+03  0.37162163642E+03  0.00000000000E+00 0. -1.
         -3   -1    0    0    0  501 -0.00000000000E+00 -0.00000000000E+00 -0.44526395089E+02  0.44526395089E+02  0.00000000000E+00 0.  1.
         25    2    1    2    0    0 -0.89430816131E+01 -0.54150193949E+02  0.11375179963E+03  0.17776283629E+03  0.12509169370E+03 0.  0.
          5    1    3    3  502    0  0.38693267667E+02 -0.57289217778E+02  0.10961586444E+03  0.12966238303E+03  0.41800000000E+01 0.  1.
         -5    1    3    3    0  502 -0.47636349280E+02  0.31390238297E+01  0.41359351822E+01  0.48100453253E+02  0.41800000000E+01 0.  1.
        -11    1    1    2    0    0 -0.35189065742E+02  0.46791972659E+02  0.91928897530E+02  0.10898936303E+03  0.00000000000E+00 0.  1.
         11    1    1    2    0    0  0.44132147355E+02  0.73582212899E+01  0.12141454418E+03  0.12939583219E+03  0.00000000000E+00 0. -1.
</event>
<event>
 7    1  0.2714042E-009  0.1362694E+03  0.7561462E-02  0.1218439E+00
          3   -1    0    0  501    0  0.00000000000E+00  0.00000000000E+00  0.21932192331E+03  0.21932192331E+03  0.00000000000E+00 0. -1.
         -3   -1    0    0    0  501 -0.00000000000E+00 -0.00000000000E+00 -0.10219832909E+03  0.10219832909E+03  0.00000000000E+00 0.  1.
         25    2    1    2    0    0 -0.80547039360E+02 -0.48821804544E+02  0.17627705640E+02  0.15757213368E+03  0.12508735810E+03 0.  0.
          5    1    3    3  502    0  0.23946486218E+02  0.17571468615E+02 -0.80721301338E+01  0.31061590371E+02  0.41800000000E+01 0.  1.
         -5    1    3    3    0  502 -0.10449352558E+03 -0.66393273159E+02  0.25699835774E+02  0.12651054331E+03  0.41800000000E+01 0.  1.
        -11    1    1    2    0    0  0.41016586358E+02  0.64259154069E+02  0.28799517505E+02  0.81492401159E+02  0.00000000000E+00 0.  1.
         11    1    1    2    0    0  0.39530453002E+02 -0.15437349525E+02  0.70696371083E+02  0.82455717565E+02  0.00000000000E+00 0. -1.
</event>
<event>
 7    1  0.2714042E-009  0.1470737E+03  0.7561462E-02  0.1204116E+00
         -2   -1    0    0    0  501 -0.00000000000E+00  0.00000000000E+00  0.74665256154E+02  0.74665256154E+02  0.00000000000E+00 0.  1.
          2   -1    0    0  501    0  0.00000000000E+00 -0.00000000000E+00 -0.38147940292E+03  0.38147940292E+03  0.00000000000E+00 0. -1.
         25    2    1    2    0    0 -0.50302696185E+02  0.90720780253E+02 -0.60158991895E+02  0.17328122941E+03  0.12508660578E+03 0.  0.
          5    1    3    3  502    0  0.34902560922E+02 -0.63120321434E+00 -0.14449867429E+01  0.35187321056E+02  0.41800000000E+01 0. -1.
         -5    1    3    3    0  502 -0.85205257107E+02  0.91351983467E+02 -0.58714005152E+02  0.13809390835E+03  0.41800000000E+01 0. -1.
        -11    1    1    2    0    0  0.15116901865E+02 -0.97074583458E+02 -0.20898852168E+03  0.23092898837E+03  0.00000000000E+00 0. -1.
         11    1    1    2    0    0  0.35185794319E+02  0.63538032057E+01 -0.37666633190E+02  0.51934441298E+02  0.00000000000E+00 0.  1.
</event>
<event>
 7    1  0.2714042E-009  0.8673337E+02  0.7561462E-02  0.1310961E+00
         -2   -1    0    0    0  501 -0.00000000000E+00  0.00000000000E+00  0.73581105750E+02  0.73581105750E+02  0.00000000000E+00 0.  1.
          2   -1    0    0  501    0  0.00000000000E+00 -0.00000000000E+00 -0.16438373351E+03  0.16438373351E+03  0.00000000000E+00 0. -1.
         25    2    1    2    0    0  0.73865760146E+01 -0.52052032406E+01 -0.59654003633E+02  0.13888088566E+03  0.12509054563E+03 0.  0.
          5    1    3    3  502    0 -0.55672370450E+02 -0.18971189908E+02 -0.16864430869E+02  0.61328625507E+02  0.41800000000E+01 0.  1.
         -5    1    3    3    0  502  0.63058946464E+02  0.13765986668E+02 -0.42789572764E+02  0.77552260157E+02  0.41800000000E+01 0.  1.
        -11    1    1    2    0    0  0.21007964932E+02  0.41183088798E+01  0.26944510842E+02  0.34413685114E+02  0.00000000000E+00 0.  1.
         11    1    1    2    0    0 -0.28394540947E+02  0.10868943608E+01 -0.58093134972E+02  0.64670268484E+02  0.00000000000E+00 0. -1.
</event>
<event>
 7    1  0.2714042E-009  0.1395815E+03  0.7561462E-02  0.1213893E+00
         -1   -1    0    0    0  501 -0.00000000000E+00  0.00000000000E+00  0.16463857935E+03  0.16463857935E+03  0.00000000000E+00 0.  1.
          1   -1    0    0  501    0  0.00000000000E+00 -0.00000000000E+00 -0.44610949560E+03  0.44610949560E+03  0.00000000000E+00 0. -1.
         25    2    1    2    0    0 -0.54148664304E+02  0.82542356973E+02  0.11213298150E+03  0.19484876146E+03  0.12508763233E+03 0.  0.
          5    1    3    3  502    0  0.23833563936E+02  0.77288613515E+02  0.53733935961E+02  0.97192473077E+02  0.41800000000E+01 0. -1.
         -5    1    3    3    0  502 -0.77982228239E+02  0.52537434588E+01  0.58399045538E+02  0.97656288385E+02  0.41800000000E+01 0. -1.
        -11    1    1    2    0    0 -0.16250772388E+02 -0.19690589845E+02 -0.26254760628E+02  0.36621296909E+02  0.00000000000E+00 0.  1.
         11    1    1    2    0    0  0.70399436692E+02 -0.62851767128E+02 -0.36734913712E+03  0.37927801658E+03  0.00000000000E+00 0. -1.
</event>
<event>
 7    1  0.2714042E-009  0.6640022E+02  0.7561462E-02  0.1372781E+00
         -1   -1    0    0    0  501 -0.00000000000E+00  0.00000000000E+00  0.19451683565E+02  0.19451683565E+02  0.00000000000E+00 0.  1.
          1   -1    0    0  501    0  0.00000000000E+00 -0.00000000000E+00 -0.12683247339E+04  0.12683247339E+04  0.00000000000E+00 0. -1.
         25    2    1    2    0    0 -0.28407149377E+02  0.58202091658E+02 -0.10548087080E+04  0.10641727321E+04  0.12509094213E+03 0.  0.
          5    1    3    3  502    0 -0.20877578703E+02  0.40027329198E+02 -0.10348352036E+04  0.10358278966E+04  0.41800000000E+01 0. -1.
         -5    1    3    3    0  502 -0.75295706748E+01  0.18174762460E+02 -0.19973504404E+02  0.28344835565E+02  0.41800000000E+01 0. -1.
        -11    1    1    2    0    0  0.58056949418E+01 -0.32964810311E+02 -0.18572076874E+03  0.18871297983E+03  0.00000000000E+00 0. -1.
         11    1    1    2    0    0  0.22601454436E+02 -0.25237281347E+02 -0.83435736735E+01  0.34890705554E+02  0.00000000000E+00 0.  1.
</event>
<event>
 7    1  0.2714042E-009  0.1222623E+03  0.7561462E-02  0.1239411E+00
         -2   -1    0    0    0  501 -0.00000000000E+00  0.00000000000E+00  0.27060517301E+02  0.27060517301E+02  0.00000000000E+00 0.  1.
          2   -1    0    0  501    0  0.00000000000E+00 -0.00000000000E+00 -0.10193751900E+04  0.10193751900E+04  0.00000000000E+00 0. -1.
         25    2    1    2    0    0 -0.30353504672E+02  0.97533492425E+02 -0.78138933459E+03  0.79790428853E+03  0.12509134287E+03 0.  0.
          5    1    3    3  502    0 -0.21626709706E+02 -0.74518860013E+01 -0.43980836883E+03  0.44042265936E+03  0.41800000000E+01 0. -1.
         -5    1    3    3    0  502 -0.87267949653E+01  0.10498537843E+03 -0.34158096575E+03  0.35748162918E+03  0.41800000000E+01 0. -1.
        -11    1    1    2    0    0  0.14428128060E+02  0.24174513459E+01 -0.54838092934E-01  0.14629352602E+02  0.00000000000E+00 0.  1.
         11    1    1    2    0    0  0.15925376612E+02 -0.99950943771E+02 -0.21087050006E+03  0.23390206621E+03  0.00000000000E+00 0. -1.
</event>
<event>
 7    1  0.2714042E-009  0.1747223E+03  0.7561462E-02  0.1173011E+00
         -2   -1    0    0    0  501 -0.00000000000E+00  0.00000000000E+00  0.38017736340E+02  0.38017736340E+02  0.00000000000E+00 0.  1.
          2   -1    0    0  501    0  0.00000000000E+00 -0.00000000000E+00 -0.90023571212E+03  0.90023571212E+03  0.00000000000E+00 0. -1.
         25    2    1    2    0    0 -0.11218107598E+03 -0.90687557700E+02 -0.57123809785E+03  0.60230341297E+03  0.12509040694E+03 0.  0.
          5    1    3    3  502    0 -0.11495829276E+03 -0.11148935280E+03 -0.54697983599E+03  0.56995587394E+03  0.41800000000E+01 0.  1.
         -5    1    3    3    0  502  0.27772167803E+01  0.20801795102E+02 -0.24258261857E+02  0.32347539023E+02  0.41800000000E+01 0.  1.
        -11    1    1    2    0    0  0.95063790232E+02  0.22694276969E+02 -0.17377550259E+03  0.19937422030E+03  0.00000000000E+00 0.  1.
         11    1    1    2    0    0  0.17117285749E+02  0.67993280731E+02 -0.11720437534E+03  0.13657581519E+03  0.00000000000E+00 0. -1.
</event>
<event>
 7    1  0.2714042E-009  0.1691105E+03  0.7561462E-02  0.1178779E+00
          3   -1    0    0  501    0  0.00000000000E+00  0.00000000000E+00  0.40423698806E+03  0.40423698806E+03  0.00000000000E+00 0. -1.
         -3   -1    0    0    0  501 -0.00000000000E+00 -0.00000000000E+00 -0.11351149979E+03  0.11351149979E+03  0.00000000000E+00 0.  1.
         25    2    1    2    0    0 -0.17808633263E+02  0.14928923897E+03  0.28409046676E+03  0.34490597257E+03  0.12509321453E+03 0.  0.
          5    1    3    3  502    0  0.23644205910E+02  0.22349307377E+02  0.15741584149E+03  0.16079726230E+03  0.41800000000E+01 0.  1.
         -5    1    3    3    0  502 -0.41452839172E+02  0.12693993159E+03  0.12667462527E+03  0.18410871027E+03  0.41800000000E+01 0.  1.
        -11    1    1    2    0    0  0.51100231797E+02 -0.79722164106E+02  0.12413399395E+02  0.95503662883E+02  0.00000000000E+00 0. -1.
         11    1    1    2    0    0 -0.33291598535E+02 -0.69567074862E+02 -0.57783778839E+01  0.77338852389E+02  0.00000000000E+00 0.  1.
</event>
<event>
 7    1  0.2714042E-009  0.2202679E+03  0.7561462E-02  0.1133683E+00
          1   -1    0    0  501    0  0.00000000000E+00  0.00000000000E+00  0.62401732221E+03  0.62401732221E+03  0.00000000000E+00 0. -1.
         -1   -1    0    0    0  501 -0.00000000000E+00 -0.00000000000E+00 -0.11450379118E+03  0.11450379118E+03  0.00000000000E+00 0.  1.
         25    2    1    2    0    0 -0.17938111446E+03 -0.12386555375E+03  0.10965573736E+03  0.27421314785E+03  0.12509280590E+03 0.  0.
          5    1    3    3  502    0 -0.58394275498E+02 -0.18874688000E+02 -0.23518078216E+02  0.65853759657E+02  0.41800000000E+01 0.  1.
         -5    1    3    3    0  502 -0.12098683896E+03 -0.10499086575E+03  0.13317381558E+03  0.20835938819E+03  0.41800000000E+01 0.  1.
        -11    1    1    2    0    0  0.49807438916E+02  0.24588422908E+02  0.37896711220E+02  0.67242339591E+02  0.00000000000E+00 0.  1.
         11    1    1    2    0    0  0.12957367554E+03  0.99277130840E+02  0.36196108246E+03  0.39706562595E+03  0.00000000000E+00 0. -1.
</event>
<event>
 7    1  0.2714042E-009  0.1021705E+03  0.7561462E-02  0.1275797E+00
         -1   -1    0    0    0  501 -0.00000000000E+00  0.00000000000E+00  0.85714939591E+02  0.85714939591E+02  0.00000000000E+00 0.  1.
          1   -1    0    0  501    0  0.00000000000E+00 -0.00000000000E+00 -0.23551731188E+03  0.23551731188E+03  0.00000000000E+00 0. -1.
         25    2    1    2    0    0  0.17722863219E+02  0.75367822279E+02 -0.30869402781E+02  0.15032109804E+03  0.12509637873E+03 0.  0.
          5    1    3    3  502    0  0.21824290500E+02  0.27089890848E+02  0.46933530407E+02  0.58569535754E+02  0.41800000000E+01 0.  1.
         -5    1    3    3    0  502 -0.41014272805E+01  0.48277931431E+02 -0.77802933188E+02  0.91751562285E+02  0.41800000000E+01 0.  1.
        -11    1    1    2    0    0  0.11456793923E+02 -0.88095203784E+02 -0.72776016314E+02  0.11484063570E+03  0.00000000000E+00 0.  1.
         11    1    1    2    0    0 -0.29179657143E+02  0.12727381506E+02 -0.46156953194E+02  0.56070517735E+02  0.00000000000E+00 0. -1.
</event>
<event>
 7    1  0.2714042E-009  0.1379163E+03  0.7561462E-02  0.1216160E+00
         -2   -1    0    0    0  501 -0.00000000000E+00  0.00000000000E+00  0.35194387542E+03  0.35194387542E+03  0.00000000000E+00 0. -1.
          2   -1    0    0  501    0  0.00000000000E+00 -0.00000000000E+00 -0.70045715933E+02  0.70045715933E+02  0.00000000000E+00 0.  1.
         25    2    1    2    0    0 -0.96424685382E+02 -0.49185022954E+02  0.10548270588E+03  0.19619389510E+03  0.12509419171E+03 0.  0.
          5    1    3    3  502    0  0.22311264175E+02 -0.13598174030E+02  0.57343891913E+02  0.63154550000E+02  0.41800000000E+01 0. -1.
         -5    1    3    3    0  502 -0.11873594956E+03 -0.35586848924E+02  0.48138813970E+02  0.13303934510E+03  0.41800000000E+01 0. -1.
        -11    1    1    2    0    0  0.22344802441E+02  0.46068766257E+02  0.12634957105E+03  0.13632987760E+03  0.00000000000E+00 0. -1.
         11    1    1    2    0    0  0.74079882940E+02  0.31162566969E+01  0.50065882551E+02  0.89465818656E+02  0.00000000000E+00 0.  1.
</event>
<event>
 7    1  0.2714042E-009  0.8565456E+02  0.7561462E-02  0.1313730E+00
         -2   -1    0    0    0  501 -0.00000000000E+00  0.00000000000E+00  0.63746900285E+02  0.63746900285E+02  0.00000000000E+00 0.  1.
          2   -1    0    0  501    0  0.00000000000E+00 -0.00000000000E+00 -0.20198322389E+03  0.20198322389E+03  0.00000000000E+00 0. -1.
         25    2    1    2    0    0  0.17740949026E+02  0.16630262441E+02 -0.10097723817E+03  0.16257751114E+03  0.12507492794E+03 0.  0.
          5    1    3    3  502    0 -0.72375658509E+01  0.55693279128E+02 -0.10143583122E+03  0.11602079105E+03  0.41800000000E+01 0. -1.
         -5    1    3    3    0  502  0.24978514877E+02 -0.39063016688E+02  0.45859305922E+00  0.46556720093E+02  0.41800000000E+01 0. -1.
        -11    1    1    2    0    0 -0.40658887006E+02 -0.95181549118E+00  0.15507136515E+02  0.43526110878E+02  0.00000000000E+00 0.  1.
         11    1    1    2    0    0  0.22917937980E+02 -0.15678446949E+02 -0.52766221959E+02  0.59626502160E+02  0.00000000000E+00 0. -1.
</event>
<event>
 7    1  0.2714042E-009  0.9739120E+02  0.7561462E-02  0.1285880E+00
         -4   -1    0    0    0  501 -0.00000000000E+00  0.00000000000E+00  0.38215249537E+02  0.38215249537E+02  0.00000000000E+00 0.  1.
          4   -1    0    0  501    0  0.00000000000E+00 -0.00000000000E+00 -0.63235723358E+03  0.63235723358E+03  0.00000000000E+00 0. -1.
         25    2    1    2    0    0  0.32709053618E+02  0.45843074949E+02 -0.52388759977E+03  0.54155273779E+03  0.12509868467E+03 0.  0.
          5    1    3    3  502    0  0.66495575782E+02  0.55345011882E+02 -0.23395684300E+03  0.24947546718E+03  0.41800000000E+01 0.  1.
         -5    1    3    3    0  502 -0.33786522164E+02 -0.95019369324E+01 -0.28993075677E+03  0.29207727061E+03  0.41800000000E+01 0.  1.
        -11    1    1    2    0    0 -0.88700713818E+01 -0.48067749213E+02  0.58592155874E+01  0.49229230017E+02  0.00000000000E+00 0.  1.
         11    1    1    2    0    0 -0.23838982236E+02  0.22246742636E+01 -0.76113599859E+02  0.79790515308E+02  0.00000000000E+00 0. -1.
</event>
<event>
 7    1  0.2714042E-009  0.8476514E+02  0.7561462E-02  0.1316048E+00
         -1   -1    0    0    0  501 -0.00000000000E+00  0.00000000000E+00  0.25901955635E+02  0.25901955635E+02  0.00000000000E+00 0.  1.
          1   -1    0    0  501    0  0.00000000000E+00 -0.00000000000E+00 -0.50476730456E+03  0.50476730456E+03  0.00000000000E+00 0. -1.
         25    2    1    2    0    0 -0.26642466024E+01 -0.18146202459E+02 -0.18240321749E+03  0.22193680051E+03  0.12509447148E+03 0.  0.
          5    1    3    3  502    0  0.39355395441E+02 -0.30174762467E+02 -0.16878076180E+03  0.17596528463E+03  0.41800000000E+01 0. -1.
         -5    1    3    3    0  502 -0.42019642044E+02  0.12028560008E+02 -0.13622455692E+02  0.45971515881E+02  0.41800000000E+01 0. -1.
        -11    1    1    2    0    0 -0.59717596080E+01  0.46158065080E+02 -0.24608583199E+03  0.25044852883E+03  0.00000000000E+00 0. -1.
         11    1    1    2    0    0  0.86360062104E+01 -0.28011862621E+02 -0.50376299434E+02  0.58283930851E+02  0.00000000000E+00 0.  1.
</event>
<event>
 7    1  0.2714042E-009  0.1842851E+03  0.7561462E-02  0.1163719E+00
          3   -1    0    0  501    0  0.00000000000E+00  0.00000000000E+00  0.84262893666E+02  0.84262893666E+02  0.00000000000E+00 0. -1.
         -3   -1    0    0    0  501 -0.00000000000E+00 -0.00000000000E+00 -0.46281201659E+03  0.46281201659E+03  0.00000000000E+00 0.  1.
         25    2    1    2    0    0  0.10697582332E+03  0.12197978715E+03 -0.15727213228E+03  0.25827265445E+03  0.12508934886E+03 0.  0.
          5    1    3    3  502    0  0.79640431839E+02  0.91665307023E+01 -0.29318273421E+02  0.85461437064E+02  0.41800000000E+01 0.  1.
         -5    1    3    3    0  502  0.27335391478E+02  0.11281325644E+03 -0.12795385886E+03  0.17281121739E+03  0.41800000000E+01 0.  1.
        -11    1    1    2    0    0 -0.30499447770E+02 -0.29234484661E+01 -0.92613906859E+02  0.97550492612E+02  0.00000000000E+00 0. -1.
         11    1    1    2    0    0 -0.76476375547E+02 -0.11905633868E+03 -0.12866308378E+03  0.19125176320E+03  0.00000000000E+00 0.  1.
</event>
<event>
 7    1  0.2714042E-009  0.1167275E+03  0.7561462E-02  0.1248595E+00
         -2   -1    0    0    0  501 -0.00000000000E+00  0.00000000000E+00  0.83969852132E+02  0.83969852132E+02  0.00000000000E+00 0.  1.
          2   -1    0    0  501    0  0.00000000000E+00 -0.00000000000E+00 -0.28806301218E+03  0.28806301218E+03  0.00000000000E+00 0. -1.
         25    2    1    2    0    0  0.20569274613E+02 -0.50424914512E+02 -0.22577083840E+03  0.26379185940E+03  0.12509159264E+03 0.  0.
          5    1    3    3  502    0  0.70916409969E+02 -0.25454860229E+02 -0.94479940739E+02  0.12091740451E+03  0.41800000000E+01 0. -1.
         -5    1    3    3    0  502 -0.50347135356E+02 -0.24970054283E+02 -0.13129089766E+03  0.14287445488E+03  0.41800000000E+01 0. -1.
        -11    1    1    2    0    0  0.16468491386E+02 -0.17650144319E+02  0.18958815044E+02  0.30694876949E+02  0.00000000000E+00 0.  1.
         11    1    1    2    0    0 -0.37037765999E+02  0.68075058831E+02  0.27188633087E+01  0.77546127967E+02  0.00000000000E+00 0. -1.
</event>
<event>
 7    1  0.2714042E-009  0.8302410E+02  0.7561462E-02  0.1320682E+00
         -1   -1    0    0    0  501 -0.00000000000E+00  0.00000000000E+00  0.26571791717E+03  0.26571791717E+03  0.00000000000E+00 0.  1.
          1   -1    0    0  501    0  0.00000000000E+00 -0.00000000000E+00 -0.71335733356E+02  0.71335733356E+02  0.00000000000E+00 0. -1.
         25    2    1    2    0    0  0.67196144821E+02  0.52940801528E+01  0.17118986202E+03  0.22247726260E+03  0.12508722696E+03 0.  0.
          5    1    3    3  502    0  0.25605434867E+02 -0.99200308786E+01 -0.14639526630E+02  0.31397984765E+02  0.41800000000E+01 0. -1.
         -5    1    3    3    0  502  0.41590709954E+02  0.15214111031E+02  0.18582938865E+03  0.19107927783E+03  0.41800000000E+01 0. -1.
        -11    1    1    2    0    0 -0.19939754150E+02  0.29146261130E+02 -0.21173938336E+02  0.41175648120E+02  0.00000000000E+00 0. -1.
         11    1    1    2    0    0 -0.47256390671E+02 -0.34440341283E+02  0.44366260125E+02  0.73400739808E+02  0.00000000000E+00 0.  1.
</event>
<event>
 7    1  0.2714042E-009  0.1382237E+03  0.7561462E-02  0.1215739E+00
          2   -1    0    0  501    0  0.00000000000E+00  0.00000000000E+00  0.20287595006E+03  0.20287595006E+03  0.00000000000E+00 0. -1.
         -2   -1    0    0    0  501 -0.00000000000E+00 -0.00000000000E+00 -0.12561294461E+03  0.12561294461E+03  0.00000000000E+00 0.  1.
         25    2    1    2    0    0  0.54357017894E+02  0.67295039654E+02  0.12104681918E+03  0.19437562542E+03  0.12508494541E+03 0.  0.
          5    1    3    3  502    0  0.73836955060E+02  0.92505301062E+02  0.10580207277E+03  0.15881019381E+03  0.41800000000E+01 0.  1.
         -5    1    3    3    0  502 -0.19479937167E+02 -0.25210261408E+02  0.15244746411E+02  0.35565431608E+02  0.41800000000E+01 0.  1.
        -11    1    1    2    0    0 -0.55963945406E+02  0.25455323909E+01 -0.11660463447E+02  0.57222454757E+02  0.00000000000E+00 0. -1.
         11    1    1    2    0    0  0.16069275123E+01 -0.69840572045E+02 -0.32123350282E+02  0.76890814490E+02  0.00000000000E+00 0.  1.
</event>
<event>
 7    1  0.2714042E-009  0.5284842E+02  0.7561462E-02  0.1430557E+00
         -3   -1    0    0    0  501 -0.00000000000E+00  0.00000000000E+00  0.38410554312E+02  0.38410554312E+02  0.00000000000E+00 0.  1.
          3   -1    0    0  501    0  0.00000000000E+00 -0.00000000000E+00 -0.32133157751E+03  0.32133157751E+03  0.00000000000E+00 0. -1.
         25    2    1    2    0    0  0.13745791765E+02 -0.42092878896E+01 -0.13066307987E+03  0.18145687219E+03  0.12508833330E+03 0.  0.
          5    1    3    3  502    0  0.20536941774E+02  0.23059516963E+01 -0.15426872262E+03  0.15570290482E+03  0.41800000000E+01 0.  1.
         -5    1    3    3    0  502 -0.67911500088E+01 -0.65152395859E+01  0.23605642752E+02  0.25753967365E+02  0.41800000000E+01 0.  1.
        -11    1    1    2    0    0 -0.33745961948E+02 -0.22785558455E+02 -0.27628199682E+02  0.49206595488E+02  0.00000000000E+00 0.  1.
         11    1    1    2    0    0  0.20000170183E+02  0.26994846345E+02 -0.12462974364E+03  0.12907866414E+03  0.00000000000E+00 0. -1.
</event>
<event>
 7    1  0.2714042E-009  0.9592382E+02  0.7561462E-02  0.1289109E+00
         -2   -1    0    0    0  501 -0.00000000000E+00  0.00000000000E+00  0.50230087157E+02  0.50230087157E+02  0.00000000000E+00 0.  1.
          2   -1    0    0  501    0  0.00000000000E+00 -0.00000000000E+00 -0.35275969977E+03  0.35275969977E+03  0.00000000000E+00 0. -1.
         25    2    1    2    0    0 -0.15017542714E+02 -0.16019404259E+02 -0.28102309048E+03  0.30838636971E+03  0.12508408266E+03 0.  0.
          5    1    3    3  502    0  0.47805513060E+02 -0.35744416774E+02 -0.11283252089E+03  0.12771718983E+03  0.41800000000E+01 0.  1.
         -5    1    3    3    0  502 -0.62823055774E+02  0.19725012514E+02 -0.16819056960E+03  0.18066917988E+03  0.41800000000E+01 0.  1.
        -11    1    1    2    0    0 -0.23767025825E+02  0.13096156473E+02 -0.42485074604E+02  0.50411927111E+02  0.00000000000E+00 0. -1.
         11    1    1    2    0    0  0.38784568539E+02  0.29232477863E+01  0.20978552471E+02  0.44191490110E+02  0.00000000000E+00 0.  1.
</event>
<event>
 7    1  0.2714042E-009  0.2079056E+03  0.7561462E-02  0.1143235E+00
         -1   -1    0    0    0  501 -0.00000000000E+00  0.00000000000E+00  0.51810162075E+03  0.51810162075E+03  0.00000000000E+00 0.  1.
          1   -1    0    0  501    0  0.00000000000E+00 -0.00000000000E+00 -0.12503027086E+03  0.12503027086E+03  0.00000000000E+00 0. -1.
         25    2    1    2    0    0  0.16152438612E+03  0.95133505404E+02  0.37148341167E+03  0.43449677078E+03  0.12508799909E+03 0.  0.
          5    1    3    3  502    0  0.13522525164E+03  0.12291614855E+03  0.33416091724E+03  0.38088743648E+03  0.41800000000E+01 0.  1.
         -5    1    3    3    0  502  0.26299134478E+02 -0.27782643145E+02  0.37322494425E+02  0.53609334304E+02  0.41800000000E+01 0.  1.
        -11    1    1    2    0    0 -0.12237660565E+03 -0.43794479446E+02 -0.20475035618E+02  0.13157969875E+03  0.00000000000E+00 0. -1.
         11    1    1    2    0    0 -0.39147780472E+02 -0.51339025958E+02  0.42062973845E+02  0.77055422073E+02  0.00000000000E+00 0.  1.
</event>
<event>
 7    1  0.2714042E-009  0.1485252E+03  0.7561462E-02  0.1202297E+00
         -2   -1    0    0    0  501 -0.00000000000E+00  0.00000000000E+00  0.28004078713E+02  0.28004078713E+02  0.00000000000E+00 0.  1.
          2   -1    0    0  501    0  0.00000000000E+00 -0.00000000000E+00 -0.11738919045E+04  0.11738919045E+04  0.00000000000E+00 0. -1.
         25    2    1    2    0    0 -0.11498884111E+03 -0.40685947442E+02 -0.85759722541E+03  0.87521288703E+03  0.12508723636E+03 0.  0.
          5    1    3    3  502    0 -0.10551824695E+03 -0.44043209682E+01 -0.33550744309E+03  0.35176158865E+03  0.41800000000E+01 0.  1.
         -5    1    3    3    0  502 -0.94705941553E+01 -0.36281626474E+02 -0.52208978232E+03  0.52345129838E+03  0.41800000000E+01 0.  1.
        -11    1    1    2    0    0  0.43360272702E+02  0.64869812898E+02 -0.14326290217E+03  0.16313327377E+03  0.00000000000E+00 0.  1.
         11    1    1    2    0    0  0.71628568403E+02 -0.24183865456E+02 -0.14502769817E+03  0.16354982236E+03  0.00000000000E+00 0. -1.
</event>
<event>
 7    1  0.2714042E-009  0.1897858E+03  0.7561462E-02  0.1158655E+00
          2   -1    0    0  501    0  0.00000000000E+00  0.00000000000E+00  0.27298251101E+03  0.27298251101E+03  0.00000000000E+00 0. -1.
         -2   -1    0    0    0  501 -0.00000000000E+00 -0.00000000000E+00 -0.15638901045E+03  0.15638901045E+03  0.00000000000E+00 0.  1.
         25    2    1    2    0    0  0.90713727902E+02 -0.14665626967E+03  0.98583578856E+02  0.23474722422E+03  0.12510194001E+03 0.  0.
          5    1    3    3  502    0  0.68308513367E+02 -0.19307183982E+02  0.74802550926E+02  0.10320714305E+03  0.41800000000E+01 0. -1.
         -5    1    3    3    0  502  0.22405214534E+02 -0.12734908569E+03  0.23781027930E+02  0.13154008117E+03  0.41800000000E+01 0. -1.
        -11    1    1    2    0    0 -0.67523046549E+02  0.63245480515E+02 -0.27897186607E+02  0.96631287073E+02  0.00000000000E+00 0.  1.
         11    1    1    2    0    0 -0.23190681353E+02  0.83410789155E+02  0.45907108305E+02  0.97993010169E+02  0.00000000000E+00 0. -1.
</event>
<event>
 7    1  0.2714042E-009  0.1166938E+03  0.7561462E-02  0.1248653E+00
          2   -1    0    0  501    0  0.00000000000E+00  0.00000000000E+00  0.24208156205E+03  0.24208156205E+03  0.00000000000E+00 0. -1.
         -2   -1    0    0    0  501 -0.00000000000E+00 -0.00000000000E+00 -0.69032078772E+02  0.69032078772E+02  0.00000000000E+00 0.  1.
         25    2    1    2    0    0  0.22005481394E+02  0.37494185750E+02  0.16175100680E+03  0.20904720143E+03  0.12508912442E+03 0.  0.
          5    1    3    3  502    0 -0.10410050429E+02  0.78848832787E+02  0.93873552128E+02  0.12310655454E+03  0.41800000000E+01 0.  1.
         -5    1    3    3    0  502  0.32415531823E+02 -0.41354647037E+02  0.67877454673E+02  0.85940646890E+02  0.41800000000E+01 0.  1.
        -11    1    1    2    0    0 -0.38466284392E+02 -0.61133198099E+02  0.39389890834E+01  0.72335596906E+02  0.00000000000E+00 0.  1.
         11    1    1    2    0    0  0.16460802997E+02  0.23639012350E+02  0.73594873943E+01  0.29730842485E+02  0.00000000000E+00 0. -1.
</event>
<event>
 7    1  0.2714042E-009  0.5063347E+02  0.7561462E-02  0.1441954E+00
          1   -1    0    0  501    0  0.00000000000E+00  0.00000000000E+00  0.10954974316E+03  0.10954974316E+03  0.00000000000E+00 0. -1.
         -1   -1    0    0    0  501 -0.00000000000E+00 -0.00000000000E+00 -0.11212610988E+03  0.11212610988E+03  0.00000000000E+00 0.  1.
         25    2    1    2    0    0 -0.92207553582E+01  0.22307145820E+02 -0.27324153068E+02  0.13029465856E+03  0.12508979824E+03 0.  0.
          5    1    3    3  502    0 -0.25455450899E+01  0.82066936797E+01  0.50202386837E+02  0.51103636515E+02  0.41800000000E+01 0. -1.
         -5    1    3    3    0  502 -0.66752102682E+01  0.14100452141E+02 -0.77526539905E+02  0.79191022043E+02  0.41800000000E+01 0. -1.
        -11    1    1    2    0    0  0.21851970713E+02  0.21086025029E+02  0.33642008192E+02  0.45320125670E+02  0.00000000000E+00 0. -1.
         11    1    1    2    0    0 -0.12631215355E+02 -0.43393170849E+02 -0.88942218500E+01  0.46061068811E+02  0.00000000000E+00 0.  1.
</event>
<event>
 7    1  0.2714042E-009  0.9774086E+02  0.7561462E-02  0.1285120E+00
          3   -1    0    0  501    0  0.00000000000E+00  0.00000000000E+00  0.28707491806E+03  0.28707491806E+03  0.00000000000E+00 0. -1.
         -3   -1    0    0    0  501 -0.00000000000E+00 -0.00000000000E+00 -0.51603000444E+02  0.51603000444E+02  0.00000000000E+00 0.  1.
         25    2    1    2    0    0 -0.41913776245E+02 -0.32472269682E+02  0.10785433205E+03  0.17346998242E+03  0.12509222566E+03 0.  0.
          5    1    3    3  502    0  0.20305590741E+02  0.15712145210E+02 -0.13086648630E+02  0.29119088152E+02  0.41800000000E+01 0. -1.
         -5    1    3    3    0  502 -0.62219366985E+02 -0.48184414892E+02  0.12094098068E+03  0.14435089426E+03  0.41800000000E+01 0. -1.
        -11    1    1    2    0    0  0.62245073732E+02  0.15419416333E+02  0.44754451386E+02  0.78199542983E+02  0.00000000000E+00 0.  1.
         11    1    1    2    0    0 -0.20331297487E+02  0.17052853349E+02  0.82863134175E+02  0.87008393102E+02  0.00000000000E+00 0. -1.
</event>
<event>
 7    1  0.2714042E-009  0.1026217E+03  0.7561462E-02  0.1274877E+00
         -2   -1    0    0    0  501 -0.00000000000E+00  0.00000000000E+00  0.79803406665E+02  0.79803406665E+02  0.00000000000E+00 0.  1.
          2   -1    0    0  501    0  0.00000000000E+00 -0.00000000000E+00 -0.14658764302E+03  0.14658764302E+03  0.00000000000E+00 0. -1.
         25    2    1    2    0    0 -0.18632914583E+02  0.10441269436E+02 -0.18496843866E+02  0.12822948230E+03  0.12507782091E+03 0.  0.
          5    1    3    3  502    0 -0.66204704002E+02 -0.17217625139E+02  0.39596315009E+01  0.68648820304E+02  0.41800000000E+01 0. -1.
         -5    1    3    3    0  502  0.47571789419E+02  0.27658894575E+02 -0.22456475367E+02  0.59580661993E+02  0.41800000000E+01 0. -1.
        -11    1    1    2    0    0 -0.30966938360E+02 -0.69970257077E+00 -0.33210744033E+02  0.45413592396E+02  0.00000000000E+00 0.  1.
         11    1    1    2    0    0  0.49599852943E+02 -0.97415668649E+01 -0.15076648453E+02  0.52747974990E+02  0.00000000000E+00 0. -1.
</event>
<event>
 7    1  0.2714042E-009  0.1640586E+03  0.7561462E-02  0.1184189E+00
         -1   -1    0    0    0  501 -0.00000000000E+00  0.00000000000E+00  0.82606810168E+02  0.82606810168E+02  0.00000000000E+00 0.  1.
          1   -1    0    0  501    0  0.00000000000E+00 -0.00000000000E+00 -0.46869194767E+03  0.46869194767E+03  0.00000000000E+00 0. -1.
         25    2    1    2    0    0 -0.10559519214E+03  0.92113694957E+02 -0.32032141824E+03  0.37133310595E+03  0.12508871726E+03 0.  0.
          5    1    3    3  502    0  0.19388880338E+02  0.48651321549E+02 -0.63681096555E+02  0.82556854517E+02  0.41800000000E+01 0.  1.
         -5    1    3    3    0  502 -0.12498407247E+03  0.43462373408E+02 -0.25664032169E+03  0.28877625143E+03  0.41800000000E+01 0.  1.
        -11    1    1    2    0    0  0.93257217476E+02 -0.91778636537E+02 -0.19751370579E+02  0.13232665406E+03  0.00000000000E+00 0.  1.
         11    1    1    2    0    0  0.12337974660E+02 -0.33505841970E+00 -0.46012348674E+02  0.47638997821E+02  0.00000000000E+00 0. -1.
</event>
<event>
 7    1  0.2714042E-009  0.1402133E+03  0.7561462E-02  0.1213042E+00
          2   -1    0    0  501    0  0.00000000000E+00  0.00000000000E+00  0.13732616732E+03  0.13732616732E+03  0.00000000000E+00 0. -1.
         -2   -1    0    0    0  501 -0.00000000000E+00 -0.00000000000E+00 -0.30950279369E+03  0.30950279369E+03  0.00000000000E+00 0.  1.
         25    2    1    2    0    0 -0.35512151395E+02 -0.10075150577E+03 -0.24025635795E+03  0.29117419111E+03  0.12508922104E+03 0.  0.
          5    1    3    3  502    0 -0.23483711491E+02  0.13622052716E+02 -0.31913435443E+01  0.27653247535E+02  0.41800000000E+01 0.  1.
         -5    1    3    3    0  502 -0.12028439903E+02 -0.11437355849E+03 -0.23706501441E+03  0.26352094358E+03  0.41800000000E+01 0.  1.
        -11    1    1    2    0    0 -0.29258327768E+02  0.34269754747E+02  0.35222433727E+02  0.57193405842E+02  0.00000000000E+00 0. -1.
         11    1    1    2    0    0  0.64770479162E+02  0.66481751023E+02  0.32857297860E+02  0.98461364061E+02  0.00000000000E+00 0.  1.
</event>
<event>
 7    1  0.2714042E-009  0.1623408E+03  0.7561462E-02  0.1186079E+00
         -4   -1    0    0    0  501 -0.00000000000E+00  0.00000000000E+00  0.45881659299E+03  0.45881659299E+03  0.00000000000E+00 0. -1.
          4   -1    0    0  501    0  0.00000000000E+00 -0.00000000000E+00 -0.70062716037E+02  0.70062716037E+02  0.00000000000E+00 0.  1.
         25    2    1    2    0    0 -0.82877908250E+02 -0.10970834794E+03  0.25865277022E+03  0.31851676448E+03  0.12508798674E+03 0.  0.
          5    1    3    3  502    0 -0.98987202254E+01  0.13177348273E+02  0.11350456856E+03  0.11477101835E+03  0.41800000000E+01 0.  1.
         -5    1    3    3    0  502 -0.72979188025E+02 -0.12288569622E+03  0.14514820166E+03  0.20374574613E+03  0.41800000000E+01 0.  1.
        -11    1    1    2    0    0  0.13969152525E+01  0.76810699588E+02  0.51703144021E+02  0.92601566105E+02  0.00000000000E+00 0. -1.
         11    1    1    2    0    0  0.81480992998E+02  0.32897648355E+02  0.78397962717E+02  0.11776097845E+03  0.00000000000E+00 0.  1.
</event>
<event>
 7    1  0.2714042E-009  0.1593371E+03  0.7561462E-02  0.1189447E+00
         -2   -1    0    0    0  501 -0.00000000000E+00  0.00000000000E+00  0.90307195680E+02  0.90307195680E+02  0.00000000000E+00 0. -1.
          2   -1    0    0  501    0  0.00000000000E+00 -0.00000000000E+00 -0.31256495461E+03  0.31256495461E+03  0.00000000000E+00 0.  1.
         25    2    1    2    0    0  0.63003957827E+02  0.12026672749E+03 -0.12228916483E+03  0.22143854704E+03  0.12508719294E+03 0.  0.
          5    1    3    3  502    0  0.61396979454E+02  0.14494964773E+03 -0.93035338164E+02  0.18290171134E+03  0.41800000000E+01 0. -1.
         -5    1    3    3    0  502  0.16069783727E+01 -0.24682920245E+02 -0.29253826661E+02  0.38536835698E+02  0.41800000000E+01 0. -1.
        -11    1    1    2    0    0 -0.42254014838E+02 -0.89928168810E+02 -0.10473830105E+03  0.14436962639E+03  0.00000000000E+00 0.  1.
         11    1    1    2    0    0 -0.20749942988E+02 -0.30338558679E+02  0.47697069487E+01  0.37063976866E+02  0.00000000000E+00 0. -1.
</event>
<event>
 7    1  0.2855928E-009  0.1117741E+03  0.7561462E-02  0.1257319E+00
          2   -1    0    0  501    0  0.00000000000E+00  0.00000000000E+00  0.26078190709E+03  0.26078190709E+03  0.00000000000E+00 0. -1.
         -2   -1    0    0    0  501 -0.00000000000E+00 -0.00000000000E+00 -0.10388421307E+03  0.10388421307E+03  0.00000000000E+00 0.  1.
         25    2    1    2    0    0  0.97235279414E+02 -0.39754169788E+02  0.12442032439E+02  0.16381915267E+03  0.12508723769E+03 0.  0.
          5    1    3    3  502    0  0.68916961681E+02 -0.58212916480E+01 -0.51249513429E+02  0.86182481228E+02  0.41800000000E+01 0.  1.
         -5    1    3    3    0  502  0.28318317732E+02 -0.33932878140E+02  0.63691545868E+02  0.77636671446E+02  0.41800000000E+01 0.  1.
        -11    1    1    2    0    0 -0.74577079045E+02  0.14567042784E+02  0.30359062891E+02  0.81826720293E+02  0.00000000000E+00 0.  1.
         11    1    1    2    0    0 -0.22658200369E+02  0.25187127004E+02  0.11409659868E+03  0.11902024719E+03  0.00000000000E+00 0. -1.
</event>
<event>
 7    1  0.2714042E-009  0.9916300E+02  0.7561462E-02  0.1282066E+00
         -1   -1    0    0    0  501 -0.00000000000E+00  0.00000000000E+00  0.91939366841E+02  0.91939366841E+02  0.00000000000E+00 0.  1.
          1   -1    0    0  501    0  0.00000000000E+00 -0.00000000000E+00 -0.19582350701E+03  0.19582350701E+03  0.00000000000E+00 0. -1.
         25    2    1    2    0    0  0.86687987446E+00  0.14414705864E+02  0.27358509522E+02  0.12885751533E+03  0.12508891233E+03 0.  0.
          5    1    3    3  502    0  0.24433368248E+02 -0.46634118577E+02  0.34214366634E+02  0.62927146634E+02  0.41800000000E+01 0.  1.
         -5    1    3    3    0  502 -0.23566488373E+02  0.61048824441E+02 -0.68558571113E+01  0.65930368697E+02  0.41800000000E+01 0.  1.
        -11    1    1    2    0    0  0.31351125807E+02 -0.30666049447E+02 -0.10643425067E+03  0.11511537427E+03  0.00000000000E+00 0. -1.
         11    1    1    2    0    0 -0.32218005682E+02  0.16251343583E+02 -0.24808399023E+02  0.43789984248E+02  0.00000000000E+00 0.  1.
</event>
<event>
 7    1  0.2714042E-009  0.1547337E+03  0.7561462E-02  0.1194774E+00
          1   -1    0    0  501    0  0.00000000000E+00  0.00000000000E+00  0.11989870916E+03  0.11989870916E+03  0.00000000000E+00 0. -1.
         -1   -1    0    0    0  501 -0.00000000000E+00 -0.00000000000E+00 -0.22158874270E+03  0.22158874270E+03  0.00000000000E+00 0.  1.
         25    2    1    2    0    0 -0.98725342652E+02  0.67001338095E+02 -0.78185837478E+02  0.18972655003E+03  0.12508903236E+03 0.  0.
          5    1    3    3  502    0  0.29987036731E+02  0.11121116483E+02 -0.18499637724E+02  0.37183472130E+02  0.41800000000E+01 0. -1.
         -5    1    3    3    0  502 -0.12871237938E+03  0.55880221612E+02 -0.59686199754E+02  0.15254307790E+03  0.41800000000E+01 0. -1.
        -11    1    1    2    0    0  0.65896007230E+02 -0.42767886250E+01  0.19591005590E+02  0.68879475824E+02  0.00000000000E+00 0. -1.
         11    1    1    2    0    0  0.32829335422E+02 -0.62724549470E+02 -0.43095201649E+02  0.82881425999E+02  0.00000000000E+00 0.  1.
</event>
<event>
 7    1  0.2714042E-009  0.1691037E+03  0.7561462E-02  0.1178786E+00
          1   -1    0    0  501    0  0.00000000000E+00  0.00000000000E+00  0.23007713977E+03  0.23007713977E+03  0.00000000000E+00 0. -1.
         -1   -1    0    0    0  501 -0.00000000000E+00 -0.00000000000E+00 -0.16903883205E+03  0.16903883205E+03  0.00000000000E+00 0.  1.
         25    2    1    2    0    0  0.96940985309E+02  0.10054884215E+03 -0.56924422923E+02  0.19594845207E+03  0.12509109342E+03 0.  0.
          5    1    3    3  502    0  0.92182411854E+02  0.12160012096E+03 -0.72515483727E+02  0.16899749777E+03  0.41800000000E+01 0.  1.
         -5    1    3    3    0  502  0.47585734554E+01 -0.21051278807E+02  0.15591060804E+02  0.26950954301E+02  0.41800000000E+01 0.  1.
        -11    1    1    2    0    0 -0.27229381345E+02  0.13125326455E+02  0.34432130282E+02  0.45817954982E+02  0.00000000000E+00 0. -1.
         11    1    1    2    0    0 -0.69711603965E+02 -0.11367416861E+03  0.83530600362E+02  0.15734956477E+03  0.00000000000E+00 0.  1.
</event>
<event>
 7    1  0.2714042E-009  0.9446181E+02  0.7561462E-02  0.1292393E+00
         -2   -1    0    0    0  501 -0.00000000000E+00  0.00000000000E+00  0.92678838033E+02  0.92678838033E+02  0.00000000000E+00 0.  1.
          2   -1    0    0  501    0  0.00000000000E+00 -0.00000000000E+00 -0.16778276360E+03  0.16778276360E+03  0.00000000000E+00 0. -1.
         25    2    1    2    0    0 -0.95888928479E+01 -0.48812128532E+02 -0.45283668672E+01  0.13469628773E+03  0.12509201839E+03 0.  0.
          5    1    3    3  502    0  0.26014856581E+02  0.12798994090E+02 -0.44270775101E+02  0.53084469863E+02  0.41800000000E+01 0.  1.
         -5    1    3    3    0  502 -0.35603749428E+02 -0.61611122622E+02  0.39742408234E+02  0.81611817872E+02  0.41800000000E+01 0.  1.
        -11    1    1    2    0    0 -0.11163723301E+02  0.62500152142E+02 -0.15522412676E+02  0.65359337749E+02  0.00000000000E+00 0.  1.
         11    1    1    2    0    0  0.20752616148E+02 -0.13688023610E+02 -0.55053146022E+02  0.60405976147E+02  0.00000000000E+00 0. -1.
</event>
<event>
 7    1  0.2714042E-009  0.1264757E+03  0.7561462E-02  0.1232781E+00
         -3   -1    0    0    0  501 -0.00000000000E+00  0.00000000000E+00  0.15708936159E+03  0.15708936159E+03  0.00000000000E+00 0.  1.
          3   -1    0    0  501    0  0.00000000000E+00 -0.00000000000E+00 -0.14536523548E+03  0.14536523548E+03  0.00000000000E+00 0. -1.
         25    2    1    2    0    0  0.38262734791E+01  0.10374077157E+03  0.18516948753E+02  0.16360831966E+03  0.12509203338E+03 0.  0.
          5    1    3    3  502    0  0.24427506561E+02  0.75184997610E+02 -0.44856514245E+02  0.90989374174E+02  0.41800000000E+01 0. -1.
         -5    1    3    3    0  502 -0.20601233082E+02  0.28555773959E+02  0.63373462998E+02  0.72618945485E+02  0.41800000000E+01 0. -1.
        -11    1    1    2    0    0 -0.38598043817E+02 -0.94902107560E+02 -0.93555079630E+01  0.10287732761E+03  0.00000000000E+00 0. -1.
         11    1    1    2    0    0  0.34771770338E+02 -0.88386640085E+01  0.25626853277E+01  0.35968949804E+02  0.00000000000E+00 0.  1.
</event>
<event>
 7    1  0.2714042E-009  0.1715907E+03  0.7561462E-02  0.1176199E+00
         -2   -1    0    0    0  501 -0.00000000000E+00  0.00000000000E+00  0.18791149219E+03  0.18791149219E+03  0.00000000000E+00 0.  1.
          2   -1    0    0  501    0  0.00000000000E+00 -0.00000000000E+00 -0.16081635029E+03  0.16081635029E+03  0.00000000000E+00 0. -1.
         25    2    1    2    0    0 -0.23809800641E+02  0.12789091070E+03  0.37467739608E+02  0.18432260184E+03  0.12509195974E+03 0.  0.
          5    1    3    3  502    0  0.10036219383E+02 -0.22903674565E+02  0.48363282598E+00  0.25357647935E+02  0.41800000000E+01 0. -1.
         -5    1    3    3    0  502 -0.33846020024E+02  0.15079458526E+03  0.36984106782E+02  0.15896495390E+03  0.41800000000E+01 0. -1.
        -11    1    1    2    0    0 -0.65519651390E+01 -0.13237276589E+03 -0.18288245488E+01  0.13254743300E+03  0.00000000000E+00 0.  1.
         11    1    1    2    0    0  0.30361765780E+02  0.44818551953E+01 -0.85437731647E+01  0.31857807633E+02  0.00000000000E+00 0. -1.
</event>
<event>
 7    1  0.2714042E-009  0.1871106E+03  0.7561462E-02  0.1161093E+00
         -2   -1    0    0    0  501 -0.00000000000E+00  0.00000000000E+00  0.33155270999E+02  0.33155270999E+02  0.00000000000E+00 0.  1.
          2   -1    0    0  501    0  0.00000000000E+00 -0.00000000000E+00 -0.13516552233E+04  0.13516552233E+04  0.00000000000E+00 0. -1.
         25    2    1    2    0    0 -0.15954797434E+03 -0.67351211516E+02 -0.84983487582E+03  0.87627570633E+03  0.12509218817E+03 0.  0.
          5    1    3    3  502    0 -0.91799602616E+02 -0.18309355105E+02 -0.19764082201E+03  0.21872760788E+03  0.41800000000E+01 0. -1.
         -5    1    3    3    0  502 -0.67748371725E+02 -0.49041856412E+02 -0.65219405381E+03  0.65754809845E+03  0.41800000000E+01 0. -1.
        -11    1    1    2    0    0  0.10160213391E+03 -0.77793525637E+01 -0.26251181604E+03  0.28159539326E+03  0.00000000000E+00 0. -1.
         11    1    1    2    0    0  0.57945840429E+02  0.75130564080E+02 -0.20615326045E+03  0.22693939472E+03  0.00000000000E+00 0.  1.
</event>
<event>
 7    1  0.2714042E-009  0.9687607E+02  0.7561462E-02  0.1287006E+00
         -2   -1    0    0    0  501 -0.00000000000E+00  0.00000000000E+00  0.33178990052E+02  0.33178990052E+02  0.00000000000E+00 0.  1.
          2   -1    0    0  501    0  0.00000000000E+00 -0.00000000000E+00 -0.44327093804E+03  0.44327093804E+03  0.00000000000E+00 0. -1.
         25    2    1    2    0    0 -0.16773499711E+02 -0.22014587349E+02 -0.14304495633E+03  0.19202778018E+03  0.12508723548E+03 0.  0.
          5    1    3    3  502    0 -0.47083823092E+02  0.13347178129E+02 -0.88360295264E+01  0.49905724909E+02  0.41800000000E+01 0.  1.
         -5    1    3    3    0  502  0.30310323381E+02 -0.35361765478E+02 -0.13420892680E+03  0.14212205527E+03  0.41800000000E+01 0.  1.
        -11    1    1    2    0    0  0.66722583594E+01  0.59080288582E+02 -0.15989640694E+03  0.17059267417E+03  0.00000000000E+00 0. -1.
         11    1    1    2    0    0  0.10101241351E+02 -0.37065701233E+02 -0.10715058473E+03  0.11382947375E+03  0.00000000000E+00 0.  1.
</event>
<event>
 7    1  0.2714042E-009  0.1281743E+03  0.7561462E-02  0.1230190E+00
         -2   -1    0    0    0  501 -0.00000000000E+00  0.00000000000E+00  0.44780563106E+02  0.44780563106E+02  0.00000000000E+00 0.  1.
          2   -1    0    0  501    0  0.00000000000E+00 -0.00000000000E+00 -0.47899522316E+03  0.47899522316E+03  0.00000000000E+00 0. -1.
         25    2    1    2    0    0  0.54682575045E+02 -0.70539330929E+02 -0.31029408751E+03  0.34625896826E+03  0.12508745396E+03 0.  0.
          5    1    3    3  502    0 -0.11216377034E+02 -0.62058457301E+02 -0.24495930418E+03  0.25298140711E+03  0.41800000000E+01 0. -1.
         -5    1    3    3    0  502  0.65898952079E+02 -0.84808736274E+01 -0.65334783326E+02  0.93277561154E+02  0.41800000000E+01 0. -1.
        -11    1    1    2    0    0  0.25134082002E+02  0.19766460181E+02 -0.24493520601E+02  0.40278624326E+02  0.00000000000E+00 0.  1.
         11    1    1    2    0    0 -0.79816657047E+02  0.50772870748E+02 -0.99427051949E+02  0.13723819368E+03  0.00000000000E+00 0. -1.
</event>
<event>
 7    1  0.2757445E-009  0.1124158E+03  0.7561462E-02  0.1256160E+00
         -2   -1    0    0    0  501 -0.00000000000E+00  0.00000000000E+00  0.31980211311E+02  0.31980211311E+02  0.00000000000E+00 0.  1.
          2   -1    0    0  501    0  0.00000000000E+00 -0.00000000000E+00 -0.71482406095E+03  0.71482406095E+03  0.00000000000E+00 0. -1.
         25    2    1    2    0    0 -0.93432980694E+02 -0.47592120586E+02 -0.38088397790E+03  0.41438516421E+03  0.12509087846E+03 0.  0.
          5    1    3    3  502    0 -0.46940964454E+02  0.19306678234E+01 -0.27688400871E+02  0.54692792623E+02  0.41800000000E+01 0.  1.
         -5    1    3    3    0  502 -0.46492016241E+02 -0.49522788410E+02 -0.35319557703E+03  0.35969237159E+03  0.41800000000E+01 0.  1.
        -11    1    1    2    0    0  0.61080949728E+02  0.13390224706E+02 -0.26579921857E+03  0.27305568138E+03  0.00000000000E+00 0. -1.
         11    1    1    2    0    0  0.32352030966E+02  0.34201895880E+02 -0.36160653175E+02  0.59363426682E+02  0.00000000000E+00 0.  1.
</event>
<event>
 7    1  0.2714042E-009  0.9376066E+02  0.7561462E-02  0.1293992E+00
         -2   -1    0    0    0  501 -0.00000000000E+00  0.00000000000E+00  0.77558612542E+02  0.77558612542E+02  0.00000000000E+00 0.  1.
          2   -1    0    0  501    0  0.00000000000E+00 -0.00000000000E+00 -0.23460727633E+03  0.23460727633E+03  0.00000000000E+00 0. -1.
         25    2    1    2    0    0  0.54374281673E+02 -0.57350016710E+02 -0.71747308052E+02  0.16444108357E+03  0.12509039463E+03 0.  0.
          5    1    3    3  502    0  0.93018330150E+01 -0.34918906168E+02 -0.10010332231E+03  0.10650822335E+03  0.41800000000E+01 0.  1.
         -5    1    3    3    0  502  0.45072448658E+02 -0.22431110541E+02  0.28356014254E+02  0.57932860214E+02  0.41800000000E+01 0.  1.
        -11    1    1    2    0    0  0.12115522427E+01  0.43265503467E+02  0.19395369894E+01  0.43325898177E+02  0.00000000000E+00 0.  1.
         11    1    1    2    0    0 -0.55585833916E+02  0.14084513242E+02 -0.87240892721E+02  0.10439890712E+03  0.00000000000E+00 0. -1.
</event>
<event>
 7    1  0.2714042E-009  0.1018537E+03  0.7561462E-02  0.1276446E+00
         -1   -1    0    0    0  501 -0.00000000000E+00  0.00000000000E+00  0.53940124133E+02  0.53940124133E+02  0.00000000000E+00 0.  1.
          1   -1    0    0  501    0  0.00000000000E+00 -0.00000000000E+00 -0.26293711066E+03  0.26293711066E+03  0.00000000000E+00 0. -1.
         25    2    1    2    0    0 -0.37050053103E+02  0.31098846739E+02 -0.10437904414E+03  0.16994704966E+03  0.12508864908E+03 0.  0.
          5    1    3    3  502    0  0.10594064766E+02  0.70426776001E+02 -0.46283656321E+02  0.85040074251E+02  0.41800000000E+01 0.  1.
         -5    1    3    3    0  502 -0.47644117869E+02 -0.39327929262E+02 -0.58095387818E+02  0.84906975409E+02  0.41800000000E+01 0.  1.
        -11    1    1    2    0    0  0.40940475689E+02 -0.42131530585E+02 -0.11636390494E+03  0.13035239465E+03  0.00000000000E+00 0. -1.
         11    1    1    2    0    0 -0.38904225859E+01  0.11032683846E+02  0.11745962554E+02  0.16577790476E+02  0.00000000000E+00 0.  1.
</event>
<event>
 7    1  0.2714042E-009  0.6065674E+02  0.7561462E-02  0.1395096E+00
         -2   -1    0    0    0  501 -0.00000000000E+00  0.00000000000E+00  0.67037996983E+02  0.67037996983E+02  0.00000000000E+00 0. -1.
          2   -1    0    0  501    0  0.00000000000E+00 -0.00000000000E+00 -0.23558134048E+03  0.23558134048E+03  0.00000000000E+00 0.  1.
         25    2    1    2    0    0 -0.27891067700E+02 -0.79053875787E+01 -0.16411046271E+03  0.20837397888E+03  0.12508822604E+03 0.  0.
          5    1    3    3  502    0 -0.32670415390E+02 -0.63113692447E+01 -0.18420868053E+03  0.18723648097E+03  0.41800000000E+01 0. -1.
         -5    1    3    3    0  502  0.47793476904E+01 -0.15940183341E+01  0.20098217814E+02  0.21137497914E+02  0.41800000000E+01 0. -1.
        -11    1    1    2    0    0  0.54351385754E+02  0.42136076500E+01 -0.25536532697E+02  0.60199187079E+02  0.00000000000E+00 0.  1.
         11    1    1    2    0    0 -0.26460318054E+02  0.36917799287E+01  0.21103651908E+02  0.34046171508E+02  0.00000000000E+00 0. -1.
</event>
<event>
 7    1  0.2714042E-009  0.1344754E+03  0.7561462E-02  0.1220962E+00
         -1   -1    0    0    0  501 -0.00000000000E+00  0.00000000000E+00  0.47591993186E+02  0.47591993186E+02  0.00000000000E+00 0.  1.
          1   -1    0    0  501    0  0.00000000000E+00 -0.00000000000E+00 -0.52971745827E+03  0.52971745827E+03  0.00000000000E+00 0. -1.
         25    2    1    2    0    0  0.38464234932E+02 -0.44692190895E+02 -0.12052992206E+03  0.18344144042E+03  0.12508561330E+03 0.  0.
          5    1    3    3  502    0 -0.32331263661E+02 -0.12286060009E+02 -0.95332947032E+02  0.10149926635E+03  0.41800000000E+01 0. -1.
         -5    1    3    3    0  502  0.70795498594E+02 -0.32406130886E+02 -0.25196975024E+02  0.81942174065E+02  0.41800000000E+01 0. -1.
        -11    1    1    2    0    0  0.54837752997E+02  0.61152970199E+01 -0.12892918235E+03  0.14024018708E+03  0.00000000000E+00 0.  1.
         11    1    1    2    0    0 -0.93301987930E+02  0.38576893876E+02 -0.23266636068E+03  0.25362782395E+03  0.00000000000E+00 0. -1.
</event>
<event>
 7    1  0.2714042E-009  0.9740684E+02  0.7561462E-02  0.1285845E+00
          1   -1    0    0  501    0  0.00000000000E+00  0.00000000000E+00  0.62262869983E+03  0.62262869983E+03  0.00000000000E+00 0. -1.
         -1   -1    0    0    0  501 -0.00000000000E+00 -0.00000000000E+00 -0.19134258142E+02  0.19134258142E+02  0.00000000000E+00 0.  1.
         25    2    1    2    0    0 -0.19420944393E+01 -0.10289291855E+02  0.39107419726E+03  0.41072698199E+03  0.12509190507E+03 0.  0.
          5    1    3    3  502    0  0.52716541975E+02  0.95215165189E+01  0.96589756262E+02  0.11052939197E+03  0.41800000000E+01 0. -1.
         -5    1    3    3    0  502 -0.54658636415E+02 -0.19810808374E+02  0.29448444100E+03  0.30019759002E+03  0.41800000000E+01 0. -1.
        -11    1    1    2    0    0 -0.37098757816E+02  0.20572116895E+02  0.60823330447E+02  0.74155292135E+02  0.00000000000E+00 0.  1.
         11    1    1    2    0    0  0.39040852255E+02 -0.10282825041E+02  0.15159691398E+03  0.15688068385E+03  0.00000000000E+00 0. -1.
</event>
<event>
 7    1  0.2714042E-009  0.1027987E+03  0.7561462E-02  0.1274518E+00
         -2   -1    0    0    0  501 -0.00000000000E+00  0.00000000000E+00  0.10558196479E+03  0.10558196479E+03  0.00000000000E+00 0.  1.
          2   -1    0    0  501    0  0.00000000000E+00 -0.00000000000E+00 -0.17862042116E+03  0.17862042116E+03  0.00000000000E+00 0. -1.
         25    2    1    2    0    0 -0.77713570295E+02  0.25245775139E+02 -0.66560329860E+02  0.16356642224E+03  0.12508776440E+03 0.  0.
          5    1    3    3  502    0 -0.51892748051E+02  0.36403359439E+01  0.30707430764E+02  0.60551862483E+02  0.41800000000E+01 0.  1.
         -5    1    3    3    0  502 -0.25820822244E+02  0.21605439195E+02 -0.97267760624E+02  0.10301455975E+03  0.41800000000E+01 0.  1.
        -11    1    1    2    0    0 -0.10826532462E+02  0.17954542398E+02  0.47007563964E+01  0.21486658851E+02  0.00000000000E+00 0. -1.
         11    1    1    2    0    0  0.88540102756E+02 -0.43200317537E+02 -0.11178882905E+02  0.99149304861E+02  0.00000000000E+00 0.  1.
</event>
<event>
 7    1  0.2714042E-009  0.1470040E+03  0.7561462E-02  0.1204204E+00
          2   -1    0    0  501    0  0.00000000000E+00  0.00000000000E+00  0.14463011336E+04  0.14463011336E+04  0.00000000000E+00 0. -1.
         -2   -1    0    0    0  501 -0.00000000000E+00 -0.00000000000E+00 -0.15480201364E+02  0.15480201364E+02  0.00000000000E+00 0.  1.
         25    2    1    2    0    0  0.88938927847E+01 -0.10129850172E+03  0.72618376824E+03  0.74386203564E+03  0.12508946815E+03 0.  0.
          5    1    3    3  502    0  0.48368878783E+02 -0.10611981958E+03  0.60795954945E+03  0.61905835808E+03  0.41800000000E+01 0.  1.
         -5    1    3    3    0  502 -0.39474985999E+02  0.48213178635E+01  0.11822421879E+03  0.12480367757E+03  0.41800000000E+01 0.  1.
        -11    1    1    2    0    0 -0.88224830917E+00  0.11841794024E+03  0.61811913163E+03  0.62936066593E+03  0.00000000000E+00 0. -1.
         11    1    1    2    0    0 -0.80116444755E+01 -0.17119438525E+02  0.86518032336E+02  0.88558633356E+02  0.00000000000E+00 0.  1.
</event>
<event>
 7    1  0.2714042E-009  0.9320041E+02  0.7561462E-02  0.1295281E+00
         -1   -1    0    0    0  501 -0.00000000000E+00  0.00000000000E+00  0.38523432011E+03  0.38523432011E+03  0.00000000000E+00 0.  1.
          1   -1    0    0  501    0  0.00000000000E+00 -0.00000000000E+00 -0.39229301283E+02  0.39229301283E+02  0.00000000000E+00 0. -1.
         25    2    1    2    0    0  0.80178302347E+01  0.37451877187E+02  0.27439317357E+03  0.30398407489E+03  0.12509106835E+03 0.  0.
          5    1    3    3  502    0 -0.18654377910E+02 -0.42188860844E+02  0.86156026244E+02  0.97817273795E+02  0.41800000000E+01 0. -1.
         -5    1    3    3    0  502  0.26672208144E+02  0.79640738031E+02  0.18823714732E+03  0.20616680109E+03  0.41800000000E+01 0. -1.
        -11    1    1    2    0    0  0.14018087991E+02 -0.29325741890E+02 -0.11217182966E+02  0.34385042126E+02  0.00000000000E+00 0. -1.
         11    1    1    2    0    0 -0.22035918226E+02 -0.81261352967E+01  0.82829028224E+02  0.86094504375E+02  0.00000000000E+00 0.  1.
</event>
<event>
 7    1  0.2714042E-009  0.1374064E+03  0.7561462E-02  0.1216862E+00
          3   -1    0    0  501    0  0.00000000000E+00  0.00000000000E+00  0.10436710044E+03  0.10436710044E+03  0.00000000000E+00 0. -1.
         -3   -1    0    0    0  501 -0.00000000000E+00 -0.00000000000E+00 -0.41451258315E+03  0.41451258315E+03  0.00000000000E+00 0.  1.
         25    2    1    2    0    0 -0.79493247511E+02 -0.96791967736E+02 -0.57272724674E+01  0.17711656832E+03  0.12509842408E+03 0.  0.
          5    1    3    3  502    0 -0.15485490651E+02 -0.43747369491E+02  0.56468270731E+02  0.73210455247E+02  0.41800000000E+01 0. -1.
         -5    1    3    3    0  502 -0.64007756860E+02 -0.53044598245E+02 -0.62195543198E+02  0.10390611308E+03  0.41800000000E+01 0. -1.
        -11    1    1    2    0    0  0.33631189896E+02 -0.43657757040E+01 -0.13491280900E+03  0.13910996717E+03  0.00000000000E+00 0.  1.
         11    1    1    2    0    0  0.45862057615E+02  0.10115774344E+03 -0.16950540124E+03  0.20265314810E+03  0.00000000000E+00 0. -1.
</event>
<event>
 7    1  0.2714042E-009  0.1055073E+03  0.7561462E-02  0.1269123E+00
          2   -1    0    0  501    0  0.00000000000E+00  0.00000000000E+00  0.80742564689E+03  0.80742564689E+03  0.00000000000E+00 0. -1.
         -2   -1    0    0    0  501 -0.00000000000E+00 -0.00000000000E+00 -0.18589835744E+02  0.18589835744E+02  0.00000000000E+00 0.  1.
         25    2    1    2    0    0 -0.26882049265E+01  0.38441263075E+02  0.30433944188E+03  0.33129344626E+03  0.12509154447E+03 0.  0.
          5    1    3    3  502    0  0.69702176917E+01  0.73723725359E+02  0.27314722409E+03  0.28303824837E+03  0.41800000000E+01 0. -1.
         -5    1    3    3    0  502 -0.96584226182E+01 -0.35282462283E+02  0.31192217794E+02  0.48255197888E+02  0.41800000000E+01 0. -1.
        -11    1    1    2    0    0 -0.44511608932E+02 -0.24506071508E+02  0.23911125254E+03  0.24445044889E+03  0.00000000000E+00 0.  1.
         11    1    1    2    0    0  0.47199813858E+02 -0.13935191567E+02  0.24538511672E+03  0.25027158748E+03  0.00000000000E+00 0. -1.
</event>
<event>
 7    1  0.2714042E-009  0.1034578E+03  0.7561462E-02  0.1273188E+00
          1   -1    0    0  501    0  0.00000000000E+00  0.00000000000E+00  0.95474993165E+02  0.95474993165E+02  0.00000000000E+00 0. -1.
         -1   -1    0    0    0  501 -0.00000000000E+00 -0.00000000000E+00 -0.18321129822E+03  0.18321129822E+03  0.00000000000E+00 0.  1.
         25    2    1    2    0    0 -0.53298585337E+02  0.28470139427E+02  0.67544422419E+00  0.13892496291E+03  0.12509356920E+03 0.  0.
          5    1    3    3  502    0 -0.81233430324E+02  0.54960870976E+02 -0.10214431136E+02  0.98698401933E+02  0.41800000000E+01 0. -1.
         -5    1    3    3    0  502  0.27934844987E+02 -0.26490731549E+02  0.10889875360E+02  0.40226560974E+02  0.41800000000E+01 0. -1.
        -11    1    1    2    0    0  0.38245359364E+02 -0.36581089014E+02 -0.33842139791E+01  0.53031466985E+02  0.00000000000E+00 0. -1.
         11    1    1    2    0    0  0.15053225973E+02  0.81109495863E+01 -0.85027535303E+02  0.86729861496E+02  0.00000000000E+00 0.  1.
</event>
<event>
 7    1  0.2714042E-009  0.1318387E+03  0.7561462E-02  0.1224753E+00
          1   -1    0    0  501    0  0.00000000000E+00  0.00000000000E+00  0.37730517073E+03  0.37730517073E+03  0.00000000000E+00 0. -1.
         -1   -1    0    0    0  501 -0.00000000000E+00 -0.00000000000E+00 -0.49287163530E+02  0.49287163530E+02  0.00000000000E+00 0.  1.
         25    2    1    2    0    0 -0.75459743647E+02 -0.24652781409E+02  0.13585929317E+03  0.20101703070E+03  0.12509263186E+03 0.  0.
          5    1    3    3  502    0 -0.99526146434E+02 -0.50776200356E+02  0.11030143112E+03  0.15705907950E+03  0.41800000000E+01 0. -1.
         -5    1    3    3    0  502  0.24066402787E+02  0.26123418946E+02  0.25557862052E+02  0.43957951194E+02  0.41800000000E+01 0. -1.
        -11    1    1    2    0    0  0.15095746219E+02  0.48806175547E+02  0.64200063996E+02  0.82046161047E+02  0.00000000000E+00 0.  1.
         11    1    1    2    0    0  0.60363997428E+02 -0.24153394138E+02  0.12795865003E+03  0.14352914252E+03  0.00000000000E+00 0. -1.
</event>
<event>
 7    1  0.2714042E-009  0.1774320E+03  0.7561462E-02  0.1170312E+00
          2   -1    0    0  501    0  0.00000000000E+00  0.00000000000E+00  0.64915076868E+03  0.64915076868E+03  0.00000000000E+00 0. -1.
         -2   -1    0    0    0  501 -0.00000000000E+00 -0.00000000000E+00 -0.11043296673E+03  0.11043296673E+03  0.00000000000E+00 0.  1.
         25    2    1    2    0    0 -0.17447786900E+03  0.28165315831E+02  0.51527526144E+03  0.55892415694E+03  0.12510717956E+03 0.  0.
          5    1    3    3  502    0 -0.59803314187E+01  0.40921126568E+00  0.20176730091E+03  0.20189959865E+03  0.41800000000E+01 0.  1.
         -5    1    3    3    0  502 -0.16849753758E+03  0.27756104565E+02  0.31350796053E+03  0.35702455829E+03  0.41800000000E+01 0.  1.
        -11    1    1    2    0    0  0.11224983136E+03 -0.18260443239E+02 -0.30464928917E+02  0.11773521275E+03  0.00000000000E+00 0.  1.
         11    1    1    2    0    0  0.62228037634E+02 -0.99048725922E+01  0.53907469423E+02  0.82924365710E+02  0.00000000000E+00 0. -1.
</event>
<event>
 7    1  0.2714042E-009  0.1092822E+03  0.7561462E-02  0.1261905E+00
          2   -1    0    0  501    0  0.00000000000E+00  0.00000000000E+00  0.11634177410E+03  0.11634177410E+03  0.00000000000E+00 0. -1.
         -2   -1    0    0    0  501 -0.00000000000E+00 -0.00000000000E+00 -0.12122569617E+03  0.12122569617E+03  0.00000000000E+00 0.  1.
         25    2    1    2    0    0  0.29104562906E+02 -0.30040739322E+02 -0.31699388612E+02  0.13565436361E+03  0.12509090106E+03 0.  0.
          5    1    3    3  502    0  0.60533118258E+02 -0.60019728604E+02 -0.34209532635E+02  0.91947760989E+02  0.41800000000E+01 0. -1.
         -5    1    3    3    0  502 -0.31428555352E+02  0.29978989282E+02  0.25101440229E+01  0.43706602623E+02  0.41800000000E+01 0. -1.
        -11    1    1    2    0    0  0.26565729161E+02  0.52197399259E+00 -0.10625563249E+02  0.28616656288E+02  0.00000000000E+00 0.  1.
         11    1    1    2    0    0 -0.55670292067E+02  0.29518765329E+02  0.37441029789E+02  0.73296450372E+02  0.00000000000E+00 0. -1.
</event>
<event>
 7    1  0.2714042E-009  0.1000859E+03  0.7561462E-02  0.1280115E+00
          2   -1    0    0  501    0  0.00000000000E+00  0.00000000000E+00  0.13388908516E+04  0.13388908516E+04  0.00000000000E+00 0. -1.
         -2   -1    0    0    0  501 -0.00000000000E+00 -0.00000000000E+00 -0.16526392490E+02  0.16526392490E+02  0.00000000000E+00 0.  1.
         25    2    1    2    0    0  0.42204204647E+02  0.14751913458E+02  0.11389363129E+04  0.11466565546E+04  0.12508603199E+03 0.  0.
          5    1    3    3  502    0 -0.20645594129E+02 -0.36165378969E+02  0.20585240007E+03  0.21006393838E+03  0.41800000000E+01 0.  1.
         -5    1    3    3    0  502  0.62849798776E+02  0.50917292426E+02  0.93308391288E+03  0.93659261621E+03  0.41800000000E+01 0.  1.
        -11    1    1    2    0    0 -0.38005356257E+02  0.19569025788E+02  0.16319113575E+03  0.16869706774E+03  0.00000000000E+00 0. -1.
         11    1    1    2    0    0 -0.41988483898E+01 -0.34320939246E+02  0.20237010414E+02  0.40063621766E+02  0.00000000000E+00 0.  1.
</event>
<event>
 7    1  0.2714042E-009  0.8139798E+02  0.7561462E-02  0.1325130E+00
         -2   -1    0    0    0  501 -0.00000000000E+00  0.00000000000E+00  0.26313616862E+02  0.26313616862E+02  0.00000000000E+00 0.  1.
          2   -1    0    0  501    0  0.00000000000E+00 -0.00000000000E+00 -0.43008218658E+03  0.43008218658E+03  0.00000000000E+00 0. -1.
         25    2    1    2    0    0 -0.14376908909E+02  0.94084397122E+01 -0.26928394125E+03  0.29741408168E+03  0.12508429446E+03 0.  0.
          5    1    3    3  502    0  0.30075748389E+02  0.19589272000E+02 -0.24077265842E+03  0.24346916779E+03  0.41800000000E+01 0. -1.
         -5    1    3    3    0  502 -0.44452657298E+02 -0.10180832287E+02 -0.28511282824E+02  0.53944913895E+02  0.41800000000E+01 0. -1.
        -11    1    1    2    0    0 -0.17274750618E+01 -0.43304323658E+02 -0.47796052944E+02  0.64519076982E+02  0.00000000000E+00 0. -1.
         11    1    1    2    0    0  0.16104383971E+02  0.33895883946E+02 -0.86688575530E+02  0.94462644781E+02  0.00000000000E+00 0.  1.
</event>
<event>
 7    1  0.2714042E-009  0.1873678E+03  0.7561462E-02  0.1160857E+00
         -1   -1    0    0    0  501 -0.00000000000E+00  0.00000000000E+00  0.49355444634E+02  0.49355444634E+02  0.00000000000E+00 0.  1.
          1   -1    0    0  501    0  0.00000000000E+00 -0.00000000000E+00 -0.86921188917E+03  0.86921188917E+03  0.00000000000E+00 0. -1.
         25    2    1    2    0    0 -0.10589603958E+00  0.16691586266E+03 -0.55392058798E+03  0.59189219772E+03  0.12508972582E+03 0.  0.
          5    1    3    3  502    0 -0.39583340186E+02  0.49014864570E+02 -0.32763874608E+03  0.33366737644E+03  0.41800000000E+01 0. -1.
         -5    1    3    3    0  502  0.39477444147E+02  0.11790099809E+03 -0.22628184190E+03  0.25822482128E+03  0.41800000000E+01 0. -1.
        -11    1    1    2    0    0 -0.32473508189E+02 -0.14334640886E+03 -0.18480759628E+03  0.23612828994E+03  0.00000000000E+00 0.  1.
         11    1    1    2    0    0  0.32579404228E+02 -0.23569453808E+02 -0.81128260279E+02  0.90546846155E+02  0.00000000000E+00 0. -1.
</event>
<event>
 7    1  0.2714042E-009  0.2210337E+03  0.7561462E-02  0.1133115E+00
          2   -1    0    0  501    0  0.00000000000E+00  0.00000000000E+00  0.19695806733E+03  0.19695806733E+03  0.00000000000E+00 0.  1.
         -2   -1    0    0    0  501 -0.00000000000E+00 -0.00000000000E+00 -0.27256142890E+03  0.27256142890E+03  0.00000000000E+00 0. -1.
         25    2    1    2    0    0  0.11548881227E+03 -0.16058094178E+03 -0.91709839207E+02  0.25135753866E+03  0.12508402380E+03 0.  0.
          5    1    3    3  502    0 -0.20456640817E+02 -0.21026511832E+02 -0.39934073359E+02  0.49727165296E+02  0.41800000000E+01 0.  1.
         -5    1    3    3    0  502  0.13594545309E+03 -0.13955442995E+03 -0.51775765848E+02  0.20163037336E+03  0.41800000000E+01 0.  1.
        -11    1    1    2    0    0 -0.13017970054E+03  0.13179362023E+03  0.13511246438E+02  0.18573870503E+03  0.00000000000E+00 0.  1.
         11    1    1    2    0    0  0.14690888272E+02  0.28787321544E+02  0.25952312000E+01  0.32423252534E+02  0.00000000000E+00 0. -1.
</event>
<event>
 7    1  0.2714042E-009  0.8140642E+02  0.7561462E-02  0.1325107E+00
          2   -1    0    0  501    0  0.00000000000E+00  0.00000000000E+00  0.45568791330E+03  0.45568791330E+03  0.00000000000E+00 0. -1.
         -2   -1    0    0    0  501 -0.00000000000E+00 -0.00000000000E+00 -0.35563278729E+02  0.35563278729E+02  0.00000000000E+00 0.  1.
         25    2    1    2    0    0  0.54052867291E+02 -0.16907888845E+02  0.16018580092E+03  0.21098203087E+03  0.12508532035E+03 0.  0.
          5    1    3    3  502    0  0.18193362060E+02 -0.26992777747E+02  0.16926208195E+03  0.17241442300E+03  0.41800000000E+01 0.  1.
         -5    1    3    3    0  502  0.35859505230E+02  0.10084888901E+02 -0.90762810287E+01  0.38567607870E+02  0.41800000000E+01 0.  1.
        -11    1    1    2    0    0 -0.82035551301E+01 -0.27489338494E+02  0.29472180823E+02  0.41128718556E+02  0.00000000000E+00 0.  1.
         11    1    1    2    0    0 -0.45849312161E+02  0.44397227339E+02  0.23046665282E+03  0.23914044260E+03  0.00000000000E+00 0. -1.
</event>
<event>
 7    1  0.2714042E-009  0.8218475E+02  0.7561462E-02  0.1322963E+00
          2   -1    0    0  501    0  0.00000000000E+00  0.00000000000E+00  0.27368625019E+03  0.27368625019E+03  0.00000000000E+00 0. -1.
         -2   -1    0    0    0  501 -0.00000000000E+00 -0.00000000000E+00 -0.65542211628E+02  0.65542211628E+02  0.00000000000E+00 0.  1.
         25    2    1    2    0    0 -0.35361156433E+02  0.25386716170E+02  0.19689276884E+03  0.23728934555E+03  0.12507827288E+03 0.  0.
          5    1    3    3  502    0  0.34985666088E+02  0.24810731198E+02  0.21274758852E+02  0.48058890732E+02  0.41800000000E+01 0. -1.
         -5    1    3    3    0  502 -0.70346822520E+02  0.57598497168E+00  0.17561800999E+03  0.18923045481E+03  0.41800000000E+01 0. -1.
        -11    1    1    2    0    0  0.25375367694E+02 -0.30424964812E+02  0.48743931540E+02  0.62813681881E+02  0.00000000000E+00 0. -1.
         11    1    1    2    0    0  0.99857887387E+01  0.50382486425E+01 -0.37492661818E+02  0.39125434391E+02  0.00000000000E+00 0.  1.
</event>
<event>
 7    1  0.2714042E-009  0.1098141E+03  0.7561462E-02  0.1260915E+00
          1   -1    0    0  501    0  0.00000000000E+00  0.00000000000E+00  0.67690028751E+03  0.67690028751E+03  0.00000000000E+00 0. -1.
         -1   -1    0    0    0  501 -0.00000000000E+00 -0.00000000000E+00 -0.22057019978E+02  0.22057019978E+02  0.00000000000E+00 0.  1.
         25    2    1    2    0    0  0.36830545484E+02 -0.28209159421E+02  0.50344431746E+03  0.52082414623E+03  0.12509742106E+03 0.  0.
          5    1    3    3  502    0  0.63985557663E+02 -0.58635157412E+02  0.40443333813E+03  0.41366173459E+03  0.41800000000E+01 0.  1.
         -5    1    3    3    0  502 -0.27155012179E+02  0.30425997991E+02  0.99010979329E+02  0.10716241164E+03  0.41800000000E+01 0.  1.
        -11    1    1    2    0    0  0.15657282431E+02 -0.16535741252E+02  0.55651058401E+02  0.60130038525E+02  0.00000000000E+00 0. -1.
         11    1    1    2    0    0 -0.52487827915E+02  0.44744900673E+02  0.95747891670E+02  0.11800312273E+03  0.00000000000E+00 0.  1.
</event>
<event>
 7    1  0.2714042E-009  0.9778094E+02  0.7561462E-02  0.1285033E+00
          2   -1    0    0  501    0  0.00000000000E+00  0.00000000000E+00  0.16705639298E+04  0.16705639298E+04  0.00000000000E+00 0. -1.
         -2   -1    0    0    0  501 -0.00000000000E+00 -0.00000000000E+00 -0.90152848848E+01  0.90152848848E+01  0.00000000000E+00 0.  1.
         25    2    1    2    0    0  0.16526850875E+02 -0.14916493232E+02  0.12730731505E+04  0.12793977170E+04  0.12509049996E+03 0.  0.
          5    1    3    3  502    0  0.47383962406E+02  0.24445247178E+02  0.10196974735E+04  0.10210990255E+04  0.41800000000E+01 0. -1.
         -5    1    3    3    0  502 -0.30857111530E+02 -0.39361740410E+02  0.25337567698E+03  0.25829869149E+03  0.41800000000E+01 0. -1.
        -11    1    1    2    0    0 -0.52718138221E+02  0.17655530129E+02  0.17428409404E+03  0.18293677945E+03  0.00000000000E+00 0. -1.
         11    1    1    2    0    0  0.36191287345E+02 -0.27390368971E+01  0.21419140035E+03  0.21724471821E+03  0.00000000000E+00 0.  1.
</event>
<event>
 7    1  0.2714042E-009  0.1685582E+03  0.7561462E-02  0.1179360E+00
          1   -1    0    0  501    0  0.00000000000E+00  0.00000000000E+00  0.13300345409E+03  0.13300345409E+03  0.00000000000E+00 0. -1.
         -1   -1    0    0    0  501 -0.00000000000E+00 -0.00000000000E+00 -0.27129688267E+03  0.27129688267E+03  0.00000000000E+00 0.  1.
         25    2    1    2    0    0  0.10976962117E+03  0.10068135928E+03 -0.26794584900E+02  0.19634656526E+03  0.12509163868E+03 0.  0.
          5    1    3    3  502    0  0.38399317815E+02  0.84444560284E+02 -0.65315248069E+02  0.11352949133E+03  0.41800000000E+01 0.  1.
         -5    1    3    3    0  502  0.71370303360E+02  0.16236798999E+02  0.38520663169E+02  0.82817073931E+02  0.41800000000E+01 0.  1.
        -11    1    1    2    0    0 -0.87636226813E+02 -0.23615132190E+02 -0.35438088669E+02  0.97435316220E+02  0.00000000000E+00 0. -1.
         11    1    1    2    0    0 -0.22133394362E+02 -0.77066227093E+02 -0.76060755020E+02  0.11051845529E+03  0.00000000000E+00 0.  1.
</event>
<event>
 7    1  0.2714042E-009  0.8128060E+02  0.7561462E-02  0.1325456E+00
         -2   -1    0    0    0  501 -0.00000000000E+00  0.00000000000E+00  0.22926682746E+03  0.22926682746E+03  0.00000000000E+00 0.  1.
          2   -1    0    0  501    0  0.00000000000E+00 -0.00000000000E+00 -0.57222753108E+02  0.57222753108E+02  0.00000000000E+00 0. -1.
         25    2    1    2    0    0  0.59119429218E+02 -0.11403800690E+00  0.11662267301E+03  0.18095741255E+03  0.12509843077E+03 0.  0.
          5    1    3    3  502    0  0.59266522966E+02 -0.19770267923E+02  0.13804607177E+03  0.15158355639E+03  0.41800000000E+01 0. -1.
         -5    1    3    3    0  502 -0.14709374845E+00  0.19656229917E+02 -0.21423398760E+02  0.29373856157E+02  0.41800000000E+01 0. -1.
        -11    1    1    2    0    0  0.97633512593E+01 -0.46232565622E+01  0.30117060200E+02  0.31995856671E+02  0.00000000000E+00 0.  1.
         11    1    1    2    0    0 -0.68882780477E+02  0.47372945691E+01  0.25304341146E+02  0.73536311349E+02  0.00000000000E+00 0. -1.
</event>
<event>
 7    1  0.2714042E-009  0.1172594E+03  0.7561462E-02  0.1247688E+00
         -1   -1    0    0    0  501 -0.00000000000E+00  0.00000000000E+00  0.40208478748E+02  0.40208478748E+02  0.00000000000E+00 0.  1.
          1   -1    0    0  501    0  0.00000000000E+00 -0.00000000000E+00 -0.43621953073E+03  0.43621953073E+03  0.00000000000E+00 0. -1.
         25    2    1    2    0    0 -0.35403236265E+02 -0.63319006423E+02 -0.25989467374E+03  0.29741384002E+03  0.12508822920E+03 0.  0.
          5    1    3    3  502    0  0.32103259381E+02 -0.44950676871E+02 -0.44971195450E+02  0.71351688377E+02  0.41800000000E+01 0. -1.
         -5    1    3    3    0  502 -0.67506495646E+02 -0.18368329552E+02 -0.21492347829E+03  0.22606215164E+03  0.41800000000E+01 0. -1.
        -11    1    1    2    0    0  0.62062653690E+02  0.42655412946E+02 -0.61864186584E+02  0.97459913905E+02  0.00000000000E+00 0.  1.
         11    1    1    2    0    0 -0.26659417425E+02  0.20663593477E+02 -0.74252191652E+02  0.81554255548E+02  0.00000000000E+00 0. -1.
</event>
<event>
 7    1  0.2714042E-009  0.8147320E+02  0.7561462E-02  0.1324922E+00
          1   -1    0    0  501    0  0.00000000000E+00  0.00000000000E+00  0.64217423498E+02  0.64217423498E+02  0.00000000000E+00 0. -1.
         -1   -1    0    0    0  501 -0.00000000000E+00 -0.00000000000E+00 -0.21054352364E+03  0.21054352364E+03  0.00000000000E+00 0.  1.
         25    2    1    2    0    0  0.21275739183E+02 -0.24626677482E+02 -0.11326330365E+03  0.17185728719E+03  0.12508885196E+03 0.  0.
          5    1    3    3  502    0 -0.24312235669E+02 -0.36604877197E+02 -0.11634445592E+03  0.12443675768E+03  0.41800000000E+01 0.  1.
         -5    1    3    3    0  502  0.45587974853E+02  0.11978199715E+02  0.30811522693E+01  0.47420529509E+02  0.41800000000E+01 0.  1.
        -11    1    1    2    0    0 -0.35897553541E+02  0.37565739341E+02  0.12405781762E+02  0.53420244698E+02  0.00000000000E+00 0.  1.
         11    1    1    2    0    0  0.14621814358E+02 -0.12939061858E+02 -0.45468578256E+02  0.49483415257E+02  0.00000000000E+00 0. -1.
</event>
<event>
 7    1  0.2714042E-009  0.7721095E+02  0.7561462E-02  0.1337158E+00
          2   -1    0    0  501    0  0.00000000000E+00  0.00000000000E+00  0.12530567265E+03  0.12530567265E+03  0.00000000000E+00 0. -1.
         -2   -1    0    0    0  501 -0.00000000000E+00 -0.00000000000E+00 -0.11538064827E+03  0.11538064827E+03  0.00000000000E+00 0.  1.
         25    2    1    2    0    0 -0.98063912777E+01  0.45787231971E+02  0.31821760012E+02  0.13730597565E+03  0.12509064960E+03 0.  0.
          5    1    3    3  502    0 -0.17863926064E+02  0.35324291299E+02 -0.44518938396E+02  0.59718788384E+02  0.41800000000E+01 0.  1.
         -5    1    3    3    0  502  0.80575347858E+01  0.10462940672E+02  0.76340698408E+02  0.77587187265E+02  0.41800000000E+01 0.  1.
        -11    1    1    2    0    0  0.47763504167E+02 -0.10423530266E+02 -0.68569036182E+01  0.49366177093E+02  0.00000000000E+00 0. -1.
         11    1    1    2    0    0 -0.37957112889E+02 -0.35363701705E+02 -0.15039832010E+02  0.54014168179E+02  0.00000000000E+00 0.  1.
</event>
<event>
 7    1  0.2714042E-009  0.1047836E+03  0.7561462E-02  0.1270547E+00
          1   -1    0    0  501    0  0.00000000000E+00  0.00000000000E+00  0.54962796094E+03  0.54962796094E+03  0.00000000000E+00 0. -1.
         -1   -1    0    0    0  501 -0.00000000000E+00 -0.00000000000E+00 -0.31295636721E+02  0.31295636721E+02  0.00000000000E+00 0.  1.
         25    2    1    2    0    0  0.23462828869E+02  0.61592404997E+02  0.36328642333E+03  0.38983127898E+03  0.12508905631E+03 0.  0.
          5    1    3    3  502    0  0.41094657010E+02  0.91392564350E+02  0.21129677761E+03  0.23389136855E+03  0.41800000000E+01 0.  1.
         -5    1    3    3    0  502 -0.17631828141E+02 -0.29800159352E+02  0.15198964572E+03  0.15593991044E+03  0.41800000000E+01 0.  1.
        -11    1    1    2    0    0 -0.22982027649E+02 -0.14228328132E+02  0.13820126668E+03  0.14081977499E+03  0.00000000000E+00 0. -1.
         11    1    1    2    0    0 -0.48080121949E+00 -0.47364076865E+02  0.16844634212E+02  0.50272543688E+02  0.00000000000E+00 0.  1.
</event>
<event>
 7    1  0.2714042E-009  0.1010077E+03  0.7561462E-02  0.1278191E+00
         -2   -1    0    0    0  501 -0.00000000000E+00  0.00000000000E+00  0.17005215900E+02  0.17005215900E+02  0.00000000000E+00 0.  1.
          2   -1    0    0  501    0  0.00000000000E+00 -0.00000000000E+00 -0.12265007614E+04  0.12265007614E+04  0.00000000000E+00 0. -1.
         25    2    1    2    0    0 -0.37939991042E+02  0.17721587575E+02 -0.10198721053E+04  0.10283674792E+04  0.12508822314E+03 0.  0.
          5    1    3    3  502    0 -0.52387359756E+02  0.46472992065E+02 -0.31363491184E+03  0.32138529023E+03  0.41800000000E+01 0.  1.
         -5    1    3    3    0  502  0.14447368714E+02 -0.28751404490E+02 -0.70623719343E+03  0.70698218896E+03  0.41800000000E+01 0.  1.
        -11    1    1    2    0    0  0.59350146006E+02  0.14154259906E+02 -0.93695364170E+02  0.11181057272E+03  0.00000000000E+00 0.  1.
         11    1    1    2    0    0 -0.21410154964E+02 -0.31875847481E+02 -0.95928076045E+02  0.10332792537E+03  0.00000000000E+00 0. -1.
</event>
<event>
 7    1  0.2714042E-009  0.8414325E+02  0.7561462E-02  0.1317688E+00
         -1   -1    0    0    0  501 -0.00000000000E+00  0.00000000000E+00  0.95123603947E+02  0.95123603947E+02  0.00000000000E+00 0.  1.
          1   -1    0    0  501    0  0.00000000000E+00 -0.00000000000E+00 -0.13584720737E+03  0.13584720737E+03  0.00000000000E+00 0. -1.
         25    2    1    2    0    0 -0.34032913782E+02  0.87334809510E+00 -0.15752389895E+02  0.13059000822E+03  0.12508641214E+03 0.  0.
          5    1    3    3  502    0  0.48122340409E+01  0.26138497497E+02 -0.60390701132E+02  0.66112690393E+02  0.41800000000E+01 0.  1.
         -5    1    3    3    0  502 -0.38845147823E+02 -0.25265149402E+02  0.44638311236E+02  0.64477317824E+02  0.41800000000E+01 0.  1.
        -11    1    1    2    0    0  0.21099818135E+02  0.43654980670E+02 -0.17392110276E+01  0.48517878330E+02  0.00000000000E+00 0.  1.
         11    1    1    2    0    0  0.12933095647E+02 -0.44528328765E+02 -0.23232002501E+02  0.51862924771E+02  0.00000000000E+00 0. -1.
</event>
<event>
 7    1  0.2714042E-009  0.1224293E+03  0.7561462E-02  0.1239142E+00
          2   -1    0    0  501    0  0.00000000000E+00  0.00000000000E+00  0.21755016998E+03  0.21755016998E+03  0.00000000000E+00 0. -1.
         -2   -1    0    0    0  501 -0.00000000000E+00 -0.00000000000E+00 -0.74508085011E+02  0.74508085011E+02  0.00000000000E+00 0.  1.
         25    2    1    2    0    0  0.58142271509E+02 -0.10365564170E+02  0.11395834343E+03  0.17922488666E+03  0.12508831802E+03 0.  0.
          5    1    3    3  502    0  0.94366971567E+02  0.11314526909E+02  0.87309083229E+02  0.12912587756E+03  0.41800000000E+01 0.  1.
         -5    1    3    3    0  502 -0.36224700058E+02 -0.21680091080E+02  0.26649260202E+02  0.50099009100E+02  0.41800000000E+01 0.  1.
        -11    1    1    2    0    0 -0.54064766009E+02 -0.33265793169E+02  0.73043955511E+01  0.63898091624E+02  0.00000000000E+00 0.  1.
         11    1    1    2    0    0 -0.40775055001E+01  0.43631357339E+02  0.21779345985E+02  0.48935276702E+02  0.00000000000E+00 0. -1.
</event>
<event>
 7    1  0.2714042E-009  0.1630524E+03  0.7561462E-02  0.1185293E+00
         -2   -1    0    0    0  501 -0.00000000000E+00  0.00000000000E+00  0.45498800356E+02  0.45498800356E+02  0.00000000000E+00 0.  1.
          2   -1    0    0  501    0  0.00000000000E+00 -0.00000000000E+00 -0.87783169842E+03  0.87783169842E+03  0.00000000000E+00 0. -1.
         25    2    1    2    0    0 -0.56943541721E+02 -0.13960237502E+03 -0.26155581519E+03  0.32678833534E+03  0.12509109323E+03 0.  0.
          5    1    3    3  502    0 -0.49193465014E+00  0.11877542911E+02  0.61574508713E+01  0.14025142657E+02  0.41800000000E+01 0. -1.
         -5    1    3    3    0  502 -0.56451607071E+02 -0.15147991793E+03 -0.26771326606E+03  0.31276319269E+03  0.41800000000E+01 0. -1.
        -11    1    1    2    0    0  0.30099467582E+01  0.24462556735E+02 -0.21390804673E+02  0.32634996339E+02  0.00000000000E+00 0.  1.
         11    1    1    2    0    0  0.53933594963E+02  0.11513981828E+03 -0.54938627820E+03  0.56390716709E+03  0.00000000000E+00 0. -1.
</event>
<event>
 7    1  0.2714042E-009  0.9447593E+02  0.7561462E-02  0.1292361E+00
         -2   -1    0    0    0  501 -0.00000000000E+00  0.00000000000E+00  0.57045204053E+02  0.57045204053E+02  0.00000000000E+00 0.  1.
          2   -1    0    0  501    0  0.00000000000E+00 -0.00000000000E+00 -0.21000413916E+03  0.21000413916E+03  0.00000000000E+00 0. -1.
         25    2    1    2    0    0  0.11430663650E+01 -0.10748829147E+02 -0.75574689270E+02  0.14654765678E+03  0.12509131913E+03 0.  0.
          5    1    3    3  502    0 -0.10220055382E+02 -0.66990961909E+02 -0.37555308879E+02  0.77589381583E+02  0.41800000000E+01 0.  1.
         -5    1    3    3    0  502  0.11363121746E+02  0.56242132762E+02 -0.38019380391E+02  0.68958275202E+02  0.41800000000E+01 0.  1.
        -11    1    1    2    0    0 -0.97235681529E+01  0.35773566262E+02  0.16995004573E+01  0.37110431451E+02  0.00000000000E+00 0.  1.
         11    1    1    2    0    0  0.85805017879E+01 -0.25024737115E+02 -0.79083746296E+02  0.83391254978E+02  0.00000000000E+00 0. -1.
</event>
<event>
 7    1  0.2714042E-009  0.1133755E+03  0.7561462E-02  0.1254444E+00
          1   -1    0    0  501    0  0.00000000000E+00  0.00000000000E+00  0.57586768807E+03  0.57586768807E+03  0.00000000000E+00 0. -1.
         -1   -1    0    0    0  501 -0.00000000000E+00 -0.00000000000E+00 -0.33378534315E+02  0.33378534315E+02  0.00000000000E+00 0.  1.
         25    2    1    2    0    0 -0.23208875134E+02  0.82916723207E+02  0.32315150977E+03  0.35705476711E+03  0.12508946229E+03 0.  0.
          5    1    3    3  502    0 -0.15815224698E+02  0.93448200081E+02  0.32893377714E+03  0.34234133489E+03  0.41800000000E+01 0. -1.
         -5    1    3    3    0  502 -0.73936504357E+01 -0.10531476873E+02 -0.57822673645E+01  0.14713432223E+02  0.41800000000E+01 0. -1.
        -11    1    1    2    0    0  0.51850550299E+02 -0.69534909141E+02  0.19084959133E+03  0.20963575474E+03  0.00000000000E+00 0.  1.
         11    1    1    2    0    0 -0.28641675165E+02 -0.13381814066E+02  0.28488052657E+02  0.42555700536E+02  0.00000000000E+00 0. -1.
</event>
<event>
 7    1  0.2714042E-009  0.1012442E+03  0.7561462E-02  0.1277701E+00
          1   -1    0    0  501    0  0.00000000000E+00  0.00000000000E+00  0.64245094903E+02  0.64245094903E+02  0.00000000000E+00 0.  1.
         -1   -1    0    0    0  501 -0.00000000000E+00 -0.00000000000E+00 -0.31867426357E+03  0.31867426357E+03  0.00000000000E+00 0. -1.
         25    2    1    2    0    0  0.54034060733E+02  0.32670971695E+02 -0.47613165268E+02  0.14799196555E+03  0.12509011252E+03 0.  0.
          5    1    3    3  502    0  0.30823695978E+00 -0.17163674263E+02  0.33945661012E+02  0.38268355410E+02  0.41800000000E+01 0.  1.
         -5    1    3    3    0  502  0.53725823774E+02  0.49834645958E+02 -0.81558826279E+02  0.10972361014E+03  0.41800000000E+01 0.  1.
        -11    1    1    2    0    0 -0.74385222696E+02 -0.45657364712E+02 -0.16041081569E+03  0.18261814285E+03  0.00000000000E+00 0.  1.
         11    1    1    2    0    0  0.20351161962E+02  0.12986393017E+02 -0.46405187708E+02  0.52309250071E+02  0.00000000000E+00 0. -1.
</event>
<event>
 7    1  0.2714042E-009  0.1253021E+03  0.7561462E-02  0.1234598E+00
         -2   -1    0    0    0  501 -0.00000000000E+00  0.00000000000E+00  0.13158595159E+02  0.13158595159E+02  0.00000000000E+00 0.  1.
          2   -1    0    0  501    0  0.00000000000E+00 -0.00000000000E+00 -0.13283803514E+04  0.13283803514E+04  0.00000000000E+00 0. -1.
         25    2    1    2    0    0 -0.51396661015E+02  0.44204155588E+02 -0.86857704709E+03  0.88015242847E+03  0.12508631613E+03 0.  0.
          5    1    3    3  502    0 -0.67106359902E+02 -0.21430953027E+02 -0.54774421120E+03  0.55227143923E+03  0.41800000000E+01 0. -1.
         -5    1    3    3    0  502  0.15709698887E+02  0.65635108615E+02 -0.32083283588E+03  0.32788098924E+03  0.41800000000E+01 0. -1.
        -11    1    1    2    0    0  0.61759578572E+02 -0.64703339064E+02 -0.39264678104E+03  0.40270617365E+03  0.00000000000E+00 0. -1.
         11    1    1    2    0    0 -0.10362917557E+02  0.20499183475E+02 -0.53997928140E+02  0.58680344468E+02  0.00000000000E+00 0.  1.
</event>
<event>
 7    1  0.2714042E-009  0.1108131E+03  0.7561462E-02  0.1259072E+00
         -1   -1    0    0    0  501 -0.00000000000E+00  0.00000000000E+00  0.43434934324E+02  0.43434934324E+02  0.00000000000E+00 0.  1.
          1   -1    0    0  501    0  0.00000000000E+00 -0.00000000000E+00 -0.36469997149E+03  0.36469997149E+03  0.00000000000E+00 0. -1.
         25    2    1    2    0    0  0.52646401997E+02  0.34201335316E+02 -0.15877385851E+03  0.21164811405E+03  0.12507762012E+03 0.  0.
          5    1    3    3  502    0  0.53445773001E+02 -0.20925063530E+02 -0.14300964609E+03  0.15415427406E+03  0.41800000000E+01 0. -1.
         -5    1    3    3    0  502 -0.79937100395E+00  0.55126398847E+02 -0.15764212411E+02  0.57493839990E+02  0.41800000000E+01 0. -1.
        -11    1    1    2    0    0  0.21986387280E+02  0.75791303714E+01 -0.22034055314E+02  0.32036604633E+02  0.00000000000E+00 0. -1.
         11    1    1    2    0    0 -0.74632789277E+02 -0.41780465688E+02 -0.14045712334E+03  0.16445018713E+03  0.00000000000E+00 0.  1.
</event>
<event>
 7    1  0.2714042E-009  0.1917526E+03  0.7561462E-02  0.1156890E+00
         -2   -1    0    0    0  501 -0.00000000000E+00  0.00000000000E+00  0.97721536334E+02  0.97721536334E+02  0.00000000000E+00 0.  1.
          2   -1    0    0  501    0  0.00000000000E+00 -0.00000000000E+00 -0.64195757922E+03  0.64195757922E+03  0.00000000000E+00 0. -1.
         25    2    1    2    0    0 -0.43852796060E+02 -0.15499168066E+03 -0.51247214632E+03  0.55156185324E+03  0.12508912180E+03 0.  0.
          5    1    3    3  502    0 -0.39944862061E+02 -0.17604767725E+03 -0.47549496391E+03  0.50862688660E+03  0.41800000000E+01 0.  1.
         -5    1    3    3    0  502 -0.39079339993E+01  0.21055996594E+02 -0.36977182414E+02  0.42934966636E+02  0.41800000000E+01 0.  1.
        -11    1    1    2    0    0 -0.18440861652E+02  0.86866653692E+02 -0.35727612678E+02  0.95720129596E+02  0.00000000000E+00 0. -1.
         11    1    1    2    0    0  0.62293657712E+02  0.68125026966E+02  0.39637161125E+01  0.92397132725E+02  0.00000000000E+00 0.  1.
</event>
<event>
 7    1  0.2714042E-009  0.1133831E+03  0.7561462E-02  0.1254430E+00
          2   -1    0    0  501    0  0.00000000000E+00  0.00000000000E+00  0.10069015521E+02  0.10069015521E+02  0.00000000000E+00 0.  1.
         -2   -1    0    0    0  501 -0.00000000000E+00 -0.00000000000E+00 -0.16602676642E+04  0.16602676642E+04  0.00000000000E+00 0. -1.
         25    2    1    2    0    0 -0.25188345324E+02  0.60219866240E+02 -0.11067898347E+04  0.11157479333E+04  0.12509527345E+03 0.  0.
          5    1    3    3  502    0 -0.27561887508E+02 -0.20994440221E+02 -0.10474137914E+03  0.11040223307E+03  0.41800000000E+01 0. -1.
         -5    1    3    3    0  502  0.23735421838E+01  0.81214306461E+02 -0.10020484556E+04  0.10053457003E+04  0.41800000000E+01 0. -1.
        -11    1    1    2    0    0  0.32720173449E+02  0.14230680822E+02 -0.15739296874E+03  0.16138670527E+03  0.00000000000E+00 0.  1.
         11    1    1    2    0    0 -0.75318281250E+01 -0.74450547063E+02 -0.38601584515E+03  0.39320204107E+03  0.00000000000E+00 0. -1.
</event>
<event>
 7    1  0.2714042E-009  0.1416191E+03  0.7561462E-02  0.1211167E+00
          2   -1    0    0  501    0  0.00000000000E+00  0.00000000000E+00  0.25069917814E+03  0.25069917814E+03  0.00000000000E+00 0.  1.
         -2   -1    0    0    0  501 -0.00000000000E+00 -0.00000000000E+00 -0.85000009713E+02  0.85000009713E+02  0.00000000000E+00 0. -1.
         25    2    1    2    0    0  0.74586560225E+02 -0.54872165899E+02  0.12122479858E+03  0.19727258047E+03  0.12508760792E+03 0.  0.
          5    1    3    3  502    0  0.67608362196E+02  0.25871031699E+02  0.41671688364E+02  0.83631351365E+02  0.41800000000E+01 0.  1.
         -5    1    3    3    0  502  0.69781980288E+01 -0.80743197598E+02  0.79553110220E+02  0.11364122910E+03  0.41800000000E+01 0.  1.
        -11    1    1    2    0    0 -0.21941916748E+02  0.71162880730E+02  0.35847978065E+02  0.82647933040E+02  0.00000000000E+00 0. -1.
         11    1    1    2    0    0 -0.52644643477E+02 -0.16290714831E+02  0.86263917763E+01  0.55778674345E+02  0.00000000000E+00 0.  1.
</event>
<event>
 7    1  0.2714042E-009  0.1208016E+03  0.7561462E-02  0.1241781E+00
          2   -1    0    0  501    0  0.00000000000E+00  0.00000000000E+00  0.60489973387E+03  0.60489973387E+03  0.00000000000E+00 0.  1.
         -2   -1    0    0    0  501 -0.00000000000E+00 -0.00000000000E+00 -0.76800722917E+02  0.76800722917E+02  0.00000000000E+00 0. -1.
         25    2    1    2    0    0  0.66849691226E+02  0.74852043540E+02  0.26946700572E+02  0.16261918774E+03  0.12508863222E+03 0.  0.
          5    1    3    3  502    0  0.41248509897E+02  0.92497776489E+01 -0.44982640436E+02  0.61870092095E+02  0.41800000000E+01 0. -1.
         -5    1    3    3    0  502  0.25601181329E+02  0.65602265892E+02  0.71929341008E+02  0.10074909565E+03  0.41800000000E+01 0. -1.
        -11    1    1    2    0    0 -0.26713391191E+02  0.14666580013E+02  0.61752909207E+02  0.68863166016E+02  0.00000000000E+00 0. -1.
         11    1    1    2    0    0 -0.40136300035E+02 -0.89518623553E+02  0.43939940117E+03  0.45021810303E+03  0.00000000000E+00 0.  1.
</event>
<event>
 7    1  0.2714042E-009  0.1380005E+03  0.7561462E-02  0.1216045E+00
         -2   -1    0    0    0  501 -0.00000000000E+00  0.00000000000E+00  0.62449531229E+02  0.62449531229E+02  0.00000000000E+00 0.  1.
          2   -1    0    0  501    0  0.00000000000E+00 -0.00000000000E+00 -0.46613174012E+03  0.46613174012E+03  0.00000000000E+00 0. -1.
         25    2    1    2    0    0 -0.96345223195E+02 -0.84002479995E+02 -0.19948967708E+03  0.26791815219E+03  0.12508071927E+03 0.  0.
          5    1    3    3  502    0 -0.45662461017E+02 -0.43315242657E+02 -0.55336920643E+01  0.63319544696E+02  0.41800000000E+01 0. -1.
         -5    1    3    3    0  502 -0.50682762178E+02 -0.40687237338E+02 -0.19395598502E+03  0.20459860749E+03  0.41800000000E+01 0. -1.
        -11    1    1    2    0    0  0.99808866155E+02  0.46457743021E+02 -0.95930110541E+02  0.14602300421E+03  0.00000000000E+00 0.  1.
         11    1    1    2    0    0 -0.34636429598E+01  0.37544736974E+02 -0.10826242127E+03  0.11464011495E+03  0.00000000000E+00 0. -1.
</event>
<event>
 7    1  0.2714042E-009  0.1084797E+03  0.7561462E-02  0.1263411E+00
         -1   -1    0    0    0  501 -0.00000000000E+00  0.00000000000E+00  0.14718757000E+02  0.14718757000E+02  0.00000000000E+00 0.  1.
          1   -1    0    0  501    0  0.00000000000E+00 -0.00000000000E+00 -0.10122010748E+04  0.10122010748E+04  0.00000000000E+00 0. -1.
         25    2    1    2    0    0  0.91448727146E+01  0.30969421437E+02 -0.74943919505E+03  0.76049316603E+03  0.12509202506E+03 0.  0.
          5    1    3    3  502    0  0.45670086248E+02 -0.25466649147E+02 -0.47595165968E+03  0.47883375168E+03  0.41800000000E+01 0. -1.
         -5    1    3    3    0  502 -0.36525213533E+02  0.56436070584E+02 -0.27348753537E+03  0.28165941435E+03  0.41800000000E+01 0. -1.
        -11    1    1    2    0    0  0.19771425678E+02 -0.55695819063E+02 -0.14484694206E+03  0.15644030861E+03  0.00000000000E+00 0.  1.
         11    1    1    2    0    0 -0.28916298393E+02  0.24726397626E+02 -0.10319618066E+03  0.10998635713E+03  0.00000000000E+00 0. -1.
</event>
<event>
 7    1  0.2714042E-009  0.7313658E+02  0.7561462E-02  0.1349741E+00
         -2   -1    0    0    0  501 -0.00000000000E+00  0.00000000000E+00  0.37639470193E+02  0.37639470193E+02  0.00000000000E+00 0.  1.
          2   -1    0    0  501    0  0.00000000000E+00 -0.00000000000E+00 -0.35206797283E+03  0.35206797283E+03  0.00000000000E+00 0. -1.
         25    2    1    2    0    0  0.23241102748E+02 -0.31540244550E+02 -0.18172203085E+03  0.22406464577E+03  0.12508850109E+03 0.  0.
          5    1    3    3  502    0 -0.13105742070E+02 -0.17070438045E+02 -0.18338001421E+03  0.18468584770E+03  0.41800000000E+01 0.  1.
         -5    1    3    3    0  502  0.36346844818E+02 -0.14469806505E+02  0.16579833582E+01  0.39378798069E+02  0.41800000000E+01 0.  1.
        -11    1    1    2    0    0 -0.50085293163E+02  0.29399811847E+02 -0.43783343231E+02  0.72731469615E+02  0.00000000000E+00 0. -1.
         11    1    1    2    0    0  0.26844190415E+02  0.21404327037E+01 -0.88923128556E+02  0.92911327638E+02  0.00000000000E+00 0.  1.
</event>
<event>
 7    1  0.2714042E-009  0.1399077E+03  0.7561462E-02  0.1213453E+00
         -3   -1    0    0    0  501 -0.00000000000E+00  0.00000000000E+00  0.40626305287E+02  0.40626305287E+02  0.00000000000E+00 0. -1.
          3   -1    0    0  501    0  0.00000000000E+00 -0.00000000000E+00 -0.68016940606E+03  0.68016940606E+03  0.00000000000E+00 0.  1.
         25    2    1    2    0    0  0.15151729082E+02 -0.12313816645E+03 -0.30188146634E+03  0.34953038849E+03  0.12508592979E+03 0.  0.
          5    1    3    3  502    0  0.21919787606E+01 -0.10948851711E+03 -0.10521711731E+03  0.15192318561E+03  0.41800000000E+01 0. -1.
         -5    1    3    3    0  502  0.12959750321E+02 -0.13649649343E+02 -0.19666434902E+03  0.19760720288E+03  0.41800000000E+01 0. -1.
        -11    1    1    2    0    0  0.24139895468E+02  0.27370418204E+01 -0.88342397638E+02  0.91622077970E+02  0.00000000000E+00 0.  1.
         11    1    1    2    0    0 -0.39291624550E+02  0.12040112463E+03 -0.24931923680E+03  0.27964324488E+03  0.00000000000E+00 0. -1.
</event>
<event>
 7    1  0.2714042E-009  0.5677292E+02  0.7561462E-02  0.1411896E+00
          1   -1    0    0  501    0  0.00000000000E+00  0.00000000000E+00  0.36408702180E+02  0.36408702180E+02  0.00000000000E+00 0. -1.
         -1   -1    0    0    0  501 -0.00000000000E+00 -0.00000000000E+00 -0.36500951586E+03  0.36500951586E+03  0.00000000000E+00 0.  1.
         25    2    1    2    0    0 -0.27991082257E+02 -0.27566651395E+02 -0.18556528505E+03  0.22722134206E+03  0.12510652387E+03 0.  0.
          5    1    3    3  502    0 -0.32604113459E+02 -0.19444146699E+02  0.30645999220E+01  0.38314060448E+02  0.41800000000E+01 0.  1.
         -5    1    3    3    0  502  0.46130312024E+01 -0.81225046960E+01 -0.18862988498E+03  0.18890728161E+03  0.41800000000E+01 0.  1.
        -11    1    1    2    0    0 -0.46306754242E+01 -0.12571994816E+02  0.72683885764E+01  0.15242299073E+02  0.00000000000E+00 0. -1.
         11    1    1    2    0    0  0.32621757681E+02  0.40138646211E+02 -0.15030391720E+03  0.15895457691E+03  0.00000000000E+00 0.  1.
</event>
<event>
 7    1  0.2853603E-009  0.1075073E+03  0.7561462E-02  0.1265257E+00
         -2   -1    0    0    0  501 -0.00000000000E+00  0.00000000000E+00  0.68252253010E+02  0.68252253010E+02  0.00000000000E+00 0. -1.
          2   -1    0    0  501    0  0.00000000000E+00 -0.00000000000E+00 -0.28115113014E+03  0.28115113014E+03  0.00000000000E+00 0.  1.
         25    2    1    2    0    0 -0.25856590873E+02 -0.81308007594E+02 -0.13134736538E+03  0.20044898266E+03  0.12509240131E+03 0.  0.
          5    1    3    3  502    0 -0.60565559713E+02 -0.50174615860E+02 -0.22421136645E+02  0.81889308633E+02  0.41800000000E+01 0.  1.
         -5    1    3    3    0  502  0.34708968839E+02 -0.31133391734E+02 -0.10892622873E+03  0.11855967402E+03  0.41800000000E+01 0.  1.
        -11    1    1    2    0    0  0.21654174710E+02  0.25408024155E+02 -0.86460982140E+02  0.92682104025E+02  0.00000000000E+00 0.  1.
         11    1    1    2    0    0  0.42024161630E+01  0.55899983439E+02  0.49094703896E+01  0.56272296467E+02  0.00000000000E+00 0. -1.
</event>
<event>
 7    1  0.2714042E-009  0.1003971E+03  0.7561462E-02  0.1279463E+00
          1   -1    0    0  501    0  0.00000000000E+00  0.00000000000E+00  0.94774178841E+02  0.94774178841E+02  0.00000000000E+00 0. -1.
         -1   -1    0    0    0  501 -0.00000000000E+00 -0.00000000000E+00 -0.15344704313E+03  0.15344704313E+03  0.00000000000E+00 0.  1.
         25    2    1    2    0    0  0.18729360130E+02  0.48549585247E+02 -0.24650358827E+02  0.13770666591E+03  0.12509050518E+03 0.  0.
          5    1    3    3  502    0  0.43429751633E+02  0.56135538163E+02  0.29956542148E+02  0.77150559228E+02  0.41800000000E+01 0.  1.
         -5    1    3    3    0  502 -0.24700391503E+02 -0.75859529151E+01 -0.54606900975E+02  0.60556106679E+02  0.41800000000E+01 0.  1.
        -11    1    1    2    0    0 -0.22474393806E+02 -0.74236305827E+02 -0.33663244317E+02  0.84553778731E+02  0.00000000000E+00 0.  1.
         11    1    1    2    0    0  0.37450336758E+01  0.25686720579E+02 -0.35926114884E+00  0.25960777336E+02  0.00000000000E+00 0. -1.
</event>
<event>
 7    1  0.2714042E-009  0.1484041E+03  0.7561462E-02  0.1202448E+00
         -3   -1    0    0    0  501 -0.00000000000E+00  0.00000000000E+00  0.14573128761E+03  0.14573128761E+03  0.00000000000E+00 0.  1.
          3   -1    0    0  501    0  0.00000000000E+00 -0.00000000000E+00 -0.19259074004E+03  0.19259074004E+03  0.00000000000E+00 0. -1.
         25    2    1    2    0    0 -0.10091273616E+03  0.72422937898E+02 -0.24578667457E+02  0.17798711560E+03  0.12508733019E+03 0.  0.
          5    1    3    3  502    0 -0.41327374115E+02 -0.39959365658E+01 -0.61400966040E+02  0.74239277952E+02  0.41800000000E+01 0.  1.
         -5    1    3    3    0  502 -0.59585362045E+02  0.76418874464E+02  0.36822298582E+02  0.10374783765E+03  0.41800000000E+01 0.  1.
        -11    1    1    2    0    0  0.72478320323E+02 -0.96596057997E+02 -0.10597455926E+02  0.12122793164E+03  0.00000000000E+00 0.  1.
         11    1    1    2    0    0  0.28434415837E+02  0.24173120099E+02 -0.11683329045E+02  0.39106980411E+02  0.00000000000E+00 0. -1.
</event>
<event>
 7    1  0.2714042E-009  0.8633464E+02  0.7561462E-02  0.1311979E+00
         -2   -1    0    0    0  501 -0.00000000000E+00  0.00000000000E+00  0.22296080409E+03  0.22296080409E+03  0.00000000000E+00 0.  1.
          2   -1    0    0  501    0  0.00000000000E+00 -0.00000000000E+00 -0.84051876818E+02  0.84051876818E+02  0.00000000000E+00 0. -1.
         25    2    1    2    0    0  0.20307681867E+01 -0.48217639610E+02 -0.45543912161E+00  0.13407895652E+03  0.12509154395E+03 0.  0.
          5    1    3    3  502    0 -0.29262173592E+02  0.14116842539E+02 -0.41632854947E+02  0.52974777561E+02  0.41800000000E+01 0.  1.
         -5    1    3    3    0  502  0.31292941779E+02 -0.62334482149E+02  0.41177415825E+02  0.81104178955E+02  0.41800000000E+01 0.  1.
        -11    1    1    2    0    0  0.53688692434E+01  0.57734443011E+02  0.14743455163E+03  0.15842675810E+03  0.00000000000E+00 0.  1.
         11    1    1    2    0    0 -0.73996374301E+01 -0.95168034012E+01 -0.80701852427E+01  0.14506966290E+02  0.00000000000E+00 0. -1.
</event>
<event>
 7    1  0.2714042E-009  0.1167023E+03  0.7561462E-02  0.1248639E+00
          2   -1    0    0  501    0  0.00000000000E+00  0.00000000000E+00  0.28463634290E+03  0.28463634290E+03  0.00000000000E+00 0. -1.
         -2   -1    0    0    0  501 -0.00000000000E+00 -0.00000000000E+00 -0.11588296073E+03  0.11588296073E+03  0.00000000000E+00 0.  1.
         25    2    1    2    0    0 -0.53236445490E+02 -0.13477940062E+02  0.23658225004E+03  0.27319350892E+03  0.12509100001E+03 0.  0.
          5    1    3    3  502    0 -0.91231159763E+02 -0.12586072909E+01  0.12651652378E+03  0.15604041718E+03  0.41800000000E+01 0. -1.
         -5    1    3    3    0  502  0.37994714273E+02 -0.12219332771E+02  0.11006572626E+03  0.11715309174E+03  0.41800000000E+01 0. -1.
        -11    1    1    2    0    0  0.20960107235E+02 -0.36707899999E+02 -0.83731712323E+01  0.43091832337E+02  0.00000000000E+00 0. -1.
         11    1    1    2    0    0  0.32276338255E+02  0.50185840061E+02 -0.59455696641E+02  0.84233962372E+02  0.00000000000E+00 0.  1.
</event>
<event>
 7    1  0.2714042E-009  0.1514656E+03  0.7561462E-02  0.1198684E+00
          2   -1    0    0  501    0  0.00000000000E+00  0.00000000000E+00  0.10320851605E+03  0.10320851605E+03  0.00000000000E+00 0.  1.
         -2   -1    0    0    0  501 -0.00000000000E+00 -0.00000000000E+00 -0.33569434832E+03  0.33569434832E+03  0.00000000000E+00 0. -1.
         25    2    1    2    0    0  0.47628160521E+02  0.11173371845E+03 -0.19697251678E+03  0.26305734873E+03  0.12509248913E+03 0.  0.
          5    1    3    3  502    0  0.18908293903E+01  0.99903838548E+02 -0.56655793350E+02  0.11494217465E+03  0.41800000000E+01 0. -1.
         -5    1    3    3    0  502  0.45737331131E+02  0.11829879903E+02 -0.14031672343E+03  0.14811517408E+03  0.41800000000E+01 0. -1.
        -11    1    1    2    0    0  0.29577357158E+02 -0.20545956051E+02  0.23075649697E+02  0.42771976520E+02  0.00000000000E+00 0.  1.
         11    1    1    2    0    0 -0.77205517679E+02 -0.91187762401E+02 -0.58588965187E+02  0.13307353912E+03  0.00000000000E+00 0. -1.
</event>
<event>
 7    1  0.2714042E-009  0.2334921E+03  0.7561462E-02  0.1124206E+00
         -1   -1    0    0    0  501 -0.00000000000E+00  0.00000000000E+00  0.33468231016E+03  0.33468231016E+03  0.00000000000E+00 0.  1.
          1   -1    0    0  501    0  0.00000000000E+00 -0.00000000000E+00 -0.20180790457E+03  0.20180790457E+03  0.00000000000E+00 0. -1.
         25    2    1    2    0    0 -0.55068187212E+02  0.20010365846E+03 -0.48694658988E+02  0.24716998537E+03  0.12509137652E+03 0.  0.
          5    1    3    3  502    0 -0.30120363725E+02  0.21180498636E+03 -0.47979140001E+02  0.21928989679E+03  0.41800000000E+01 0. -1.
         -5    1    3    3    0  502 -0.24947823486E+02 -0.11701327904E+02 -0.71551898728E+00  0.27880088573E+02  0.41800000000E+01 0. -1.
        -11    1    1    2    0    0  0.71320000552E+02 -0.95043899735E+02  0.91183347544E+02  0.14978080059E+03  0.00000000000E+00 0.  1.
         11    1    1    2    0    0 -0.16251813340E+02 -0.10505975873E+03  0.90385717030E+02  0.13953942878E+03  0.00000000000E+00 0. -1.
</event>
<event>
 7    1  0.2714042E-009  0.1162281E+03  0.7561462E-02  0.1249453E+00
         -2   -1    0    0    0  501 -0.00000000000E+00  0.00000000000E+00  0.19887399142E+02  0.19887399142E+02  0.00000000000E+00 0.  1.
          2   -1    0    0  501    0  0.00000000000E+00 -0.00000000000E+00 -0.10985323895E+04  0.10985323895E+04  0.00000000000E+00 0. -1.
         25    2    1    2    0    0  0.15558452326E+02  0.44424523785E+02 -0.92016616791E+03  0.92982242702E+03  0.12509342696E+03 0.  0.
          5    1    3    3  502    0 -0.53265884034E+02  0.34679402206E+02 -0.47191585145E+03  0.47619529459E+03  0.41800000000E+01 0.  1.
         -5    1    3    3    0  502  0.68824336360E+02  0.97451215783E+01 -0.44825031646E+03  0.45362713243E+03  0.41800000000E+01 0.  1.
        -11    1    1    2    0    0  0.28862889518E+02  0.84403952247E+01 -0.71323583427E+02  0.77403877266E+02  0.00000000000E+00 0. -1.
         11    1    1    2    0    0 -0.44421341844E+02 -0.52864919009E+02 -0.87155238987E+02  0.11119348432E+03  0.00000000000E+00 0.  1.
</event>
<event>
 7    1  0.2714042E-009  0.1041756E+03  0.7561462E-02  0.1271752E+00
         -2   -1    0    0    0  501 -0.00000000000E+00  0.00000000000E+00  0.13302104050E+03  0.13302104050E+03  0.00000000000E+00 0.  1.
          2   -1    0    0  501    0  0.00000000000E+00 -0.00000000000E+00 -0.12139026388E+03  0.12139026388E+03  0.00000000000E+00 0. -1.
         25    2    1    2    0    0  0.58327336882E+02 -0.22121916025E+01  0.34721194727E+02  0.14233846176E+03  0.12509078429E+03 0.  0.
          5    1    3    3  502    0  0.61617610680E+01 -0.59557738623E+02  0.20399717656E+02  0.63393315182E+02  0.41800000000E+01 0. -1.
         -5    1    3    3    0  502  0.52165575814E+02  0.57345547020E+02  0.14321477071E+02  0.78945146580E+02  0.41800000000E+01 0. -1.
        -11    1    1    2    0    0 -0.38009578620E+01 -0.13439221224E+02  0.30805798128E+02  0.33823913819E+02  0.00000000000E+00 0.  1.
         11    1    1    2    0    0 -0.54526379020E+02  0.15651412826E+02 -0.53896216241E+02  0.78248928795E+02  0.00000000000E+00 0. -1.
</event>
<event>
 7    1  0.2714042E-009  0.1025897E+03  0.7561462E-02  0.1274943E+00
          1   -1    0    0  501    0  0.00000000000E+00  0.00000000000E+00  0.44637737717E+02  0.44637737717E+02  0.00000000000E+00 0. -1.
         -1   -1    0    0    0  501 -0.00000000000E+00 -0.00000000000E+00 -0.32530043910E+03  0.32530043910E+03  0.00000000000E+00 0.  1.
         25    2    1    2    0    0  0.18669623625E+02  0.15995158360E+02 -0.83244185959E+02  0.15225330087E+03  0.12508826161E+03 0.  0.
          5    1    3    3  502    0 -0.24479648035E+02 -0.45736223906E+02 -0.34650402334E+02  0.62523420628E+02  0.41800000000E+01 0.  1.
         -5    1    3    3    0  502  0.43149271660E+02  0.61731382267E+02 -0.48593783624E+02  0.89729880242E+02  0.41800000000E+01 0.  1.
        -11    1    1    2    0    0 -0.45283083138E+01  0.29610798567E+02 -0.25755757594E+02  0.39505240377E+02  0.00000000000E+00 0. -1.
         11    1    1    2    0    0 -0.14141315311E+02 -0.45605956928E+02 -0.17166275783E+03  0.17817963557E+03  0.00000000000E+00 0.  1.
</event>
<event>
 7    1  0.2714042E-009  0.1263249E+03  0.7561462E-02  0.1233013E+00
         -1   -1    0    0    0  501 -0.00000000000E+00  0.00000000000E+00  0.12069796437E+03  0.12069796437E+03  0.00000000000E+00 0.  1.
          1   -1    0    0  501    0  0.00000000000E+00 -0.00000000000E+00 -0.17664556466E+03  0.17664556466E+03  0.00000000000E+00 0. -1.
         25    2    1    2    0    0  0.95756359301E+02 -0.34372568434E+01 -0.47611652400E+02  0.16460811153E+03  0.12509142999E+03 0.  0.
          5    1    3    3  502    0 -0.23821157106E+02 -0.15689794525E+02 -0.32407999303E+02  0.43374739157E+02  0.41800000000E+01 0. -1.
         -5    1    3    3    0  502  0.11957751641E+03  0.12252537682E+02 -0.15203653097E+02  0.12123337237E+03  0.41800000000E+01 0. -1.
        -11    1    1    2    0    0 -0.53852366051E+02 -0.17601693566E+02 -0.45691974568E+02  0.72784981182E+02  0.00000000000E+00 0. -1.
         11    1    1    2    0    0 -0.41903993249E+02  0.21038950409E+02  0.37356026680E+02  0.59950436311E+02  0.00000000000E+00 0.  1.
</event>
<event>
 7    1  0.2884661E-009  0.2088390E+03  0.7561462E-02  0.1142489E+00
          2   -1    0    0  501    0  0.00000000000E+00  0.00000000000E+00  0.16448789293E+04  0.16448789293E+04  0.00000000000E+00 0. -1.
         -2   -1    0    0    0  501 -0.00000000000E+00 -0.00000000000E+00 -0.30464418010E+02  0.30464418010E+02  0.00000000000E+00 0.  1.
         25    2    1    2    0    0  0.89353252732E+02  0.17320909763E+03  0.78989746497E+03  0.82314535684E+03  0.12507948691E+03 0.  0.
          5    1    3    3  502    0  0.98838552462E+02  0.16030893620E+03  0.52572814394E+03  0.55845820632E+03  0.41800000000E+01 0. -1.
         -5    1    3    3    0  502 -0.94852997300E+01  0.12900161431E+02  0.26416932102E+03  0.26468715051E+03  0.41800000000E+01 0. -1.
        -11    1    1    2    0    0 -0.36359644626E+01 -0.99891292691E+02  0.45491990065E+03  0.46577205434E+03  0.00000000000E+00 0. -1.
         11    1    1    2    0    0 -0.85717288269E+02 -0.73317804937E+02  0.36959714566E+03  0.38642593613E+03  0.00000000000E+00 0.  1.
</event>
<event>
 7    1  0.2714042E-009  0.1002574E+03  0.7561462E-02  0.1279756E+00
         -2   -1    0    0    0  501 -0.00000000000E+00  0.00000000000E+00  0.12491221435E+03  0.12491221435E+03  0.00000000000E+00 0.  1.
          2   -1    0    0  501    0  0.00000000000E+00 -0.00000000000E+00 -0.10514860942E+03  0.10514860942E+03  0.00000000000E+00 0. -1.
         25    2    1    2    0    0  0.26225316418E+02 -0.24784265865E+02  0.15637840735E+02  0.13112564860E+03  0.12508943441E+03 0.  0.
          5    1    3    3  502    0  0.49776676509E+02  0.18370055851E+02 -0.32362200865E+02  0.62289332322E+02  0.41800000000E+01 0. -1.
         -5    1    3    3    0  502 -0.23551360090E+02 -0.43154321716E+02  0.48000041600E+02  0.68836316276E+02  0.41800000000E+01 0. -1.
        -11    1    1    2    0    0  0.23899339965E+02 -0.19671261117E+02 -0.48737430027E+01  0.31335129417E+02  0.00000000000E+00 0. -1.
         11    1    1    2    0    0 -0.50124656384E+02  0.44455526982E+02  0.89995072017E+01  0.67600045760E+02  0.00000000000E+00 0.  1.
</event>
<event>
 7    1  0.2714042E-009  0.1777846E+03  0.7561462E-02  0.1169965E+00
         -1   -1    0    0    0  501 -0.00000000000E+00  0.00000000000E+00  0.27852813828E+03  0.27852813828E+03  0.00000000000E+00 0.  1.
          1   -1    0    0  501    0  0.00000000000E+00 -0.00000000000E+00 -0.19155145583E+03  0.19155145583E+03  0.00000000000E+00 0. -1.
         25    2    1    2    0    0 -0.10874526476E+03 -0.13520890824E+03 -0.63738084990E+02  0.22319610156E+03  0.12508786830E+03 0.  0.
          5    1    3    3  502    0 -0.11185057757E+03 -0.12661621455E+03 -0.92552507684E+02  0.19268019247E+03  0.41800000000E+01 0.  1.
         -5    1    3    3    0  502  0.31053128100E+01 -0.85926936972E+01  0.28814422694E+02  0.30515909094E+02  0.41800000000E+01 0.  1.
        -11    1    1    2    0    0  0.55886762881E+02  0.44089128003E+02  0.11190648998E+02  0.72058393670E+02  0.00000000000E+00 0. -1.
         11    1    1    2    0    0  0.52858501883E+02  0.91119780241E+02  0.13952411844E+03  0.17482509888E+03  0.00000000000E+00 0.  1.
</event>
<event>
 7    1  0.2714042E-009  0.7498847E+02  0.7561462E-02  0.1343907E+00
          1   -1    0    0  501    0  0.00000000000E+00  0.00000000000E+00  0.85438888917E+03  0.85438888917E+03  0.00000000000E+00 0. -1.
         -1   -1    0    0    0  501 -0.00000000000E+00 -0.00000000000E+00 -0.29425034004E+02  0.29425034004E+02  0.00000000000E+00 0.  1.
         25    2    1    2    0    0 -0.16308947895E+02  0.69555294986E+02  0.69488925163E+03  0.70966367116E+03  0.12509010065E+03 0.  0.
          5    1    3    3  502    0 -0.12281184545E+02  0.60318083322E+02  0.69597110352E+03  0.69870047087E+03  0.41800000000E+01 0.  1.
         -5    1    3    3    0  502 -0.40277633495E+01  0.92372116633E+01 -0.10818518837E+01  0.10963200281E+02  0.41800000000E+01 0.  1.
        -11    1    1    2    0    0 -0.13007695033E+01 -0.53573134343E+02  0.13620439857E+02  0.55292758174E+02  0.00000000000E+00 0.  1.
         11    1    1    2    0    0  0.17609717398E+02 -0.15982160643E+02  0.11645416368E+03  0.11885749385E+03  0.00000000000E+00 0. -1.
</event>
<event>
 7    1  0.2714042E-009  0.1241632E+03  0.7561462E-02  0.1236383E+00
         -1   -1    0    0    0  501 -0.00000000000E+00  0.00000000000E+00  0.36021192391E+02  0.36021192391E+02  0.00000000000E+00 0.  1.
          1   -1    0    0  501    0  0.00000000000E+00 -0.00000000000E+00 -0.17043406540E+04  0.17043406540E+04  0.00000000000E+00 0. -1.
         25    2    1    2    0    0  0.86522341131E+02  0.31310327475E+02 -0.15682812575E+04  0.15759507876E+04  0.12509328546E+03 0.  0.
          5    1    3    3  502    0  0.98843985906E+02 -0.16680374394E+01 -0.14218617280E+04  0.14253003760E+04  0.41800000000E+01 0. -1.
         -5    1    3    3    0  502 -0.12321644775E+02  0.32978364914E+02 -0.14641952955E+03  0.15065041160E+03  0.41800000000E+01 0. -1.
        -11    1    1    2    0    0 -0.54040153625E+02  0.16162864865E+02 -0.95807380461E+01  0.57213345873E+02  0.00000000000E+00 0.  1.
         11    1    1    2    0    0 -0.32482187506E+02 -0.47473192340E+02 -0.90457466053E+02  0.10719771295E+03  0.00000000000E+00 0. -1.
</event>
<event>
 7    1  0.2714042E-009  0.2725474E+03  0.7561462E-02  0.1099830E+00
          1   -1    0    0  501    0  0.00000000000E+00  0.00000000000E+00  0.71430108849E+03  0.71430108849E+03  0.00000000000E+00 0. -1.
         -1   -1    0    0    0  501 -0.00000000000E+00 -0.00000000000E+00 -0.15353135218E+03  0.15353135218E+03  0.00000000000E+00 0.  1.
         25    2    1    2    0    0  0.19685280272E+03 -0.18404222891E+03  0.49513742092E+03  0.57743519163E+03  0.12509103476E+03 0.  0.
          5    1    3    3  502    0  0.75424301223E+01 -0.30523197008E+02  0.80037900886E+01  0.32712182188E+02  0.41800000000E+01 0. -1.
         -5    1    3    3    0  502  0.18931037260E+03 -0.15351903190E+03  0.48713363083E+03  0.54472300944E+03  0.41800000000E+01 0. -1.
        -11    1    1    2    0    0 -0.88199805015E+02  0.87969240431E+02 -0.13291829175E+02  0.12527755421E+03  0.00000000000E+00 0.  1.
         11    1    1    2    0    0 -0.10865299771E+03  0.96072988476E+02  0.78924144558E+02  0.16511969483E+03  0.00000000000E+00 0. -1.
</event>
<event>
 7    1  0.2714042E-009  0.9078264E+02  0.7561462E-02  0.1300967E+00
         -2   -1    0    0    0  501 -0.00000000000E+00  0.00000000000E+00  0.84988663285E+02  0.84988663285E+02  0.00000000000E+00 0. -1.
          2   -1    0    0  501    0  0.00000000000E+00 -0.00000000000E+00 -0.16816339690E+03  0.16816339690E+03  0.00000000000E+00 0.  1.
         25    2    1    2    0    0 -0.34022792829E+02  0.34503418979E+02 -0.70277523492E+02  0.15145570647E+03  0.12510741130E+03 0.  0.
          5    1    3    3  502    0  0.35146857922E+02 -0.14577947987E+02  0.41953914130E+01  0.38508335440E+02  0.41800000000E+01 0. -1.
         -5    1    3    3    0  502 -0.69169650751E+02  0.49081366966E+02 -0.74472914905E+02  0.11294737103E+03  0.41800000000E+01 0. -1.
        -11    1    1    2    0    0  0.16407498505E+02  0.32337702417E+01  0.34658966717E+02  0.38482557751E+02  0.00000000000E+00 0. -1.
         11    1    1    2    0    0  0.17615294324E+02 -0.37737189220E+02 -0.47556176837E+02  0.63213795960E+02  0.00000000000E+00 0.  1.
</event>
<event>
 7    1  0.2714042E-009  0.2004169E+03  0.7561462E-02  0.1149388E+00
         -2   -1    0    0    0  501 -0.00000000000E+00  0.00000000000E+00  0.65287334611E+02  0.65287334611E+02  0.00000000000E+00 0.  1.
          2   -1    0    0  501    0  0.00000000000E+00 -0.00000000000E+00 -0.72527680135E+03  0.72527680135E+03  0.00000000000E+00 0. -1.
         25    2    1    2    0    0 -0.65650462922E+02 -0.16364013880E+03 -0.46490509006E+03  0.51270937776E+03  0.12508431143E+03 0.  0.
          5    1    3    3  502    0 -0.46621384967E+02 -0.18289403224E+03 -0.40636948337E+03  0.44808192329E+03  0.41800000000E+01 0.  1.
         -5    1    3    3    0  502 -0.19029077955E+02  0.19253893435E+02 -0.58535606689E+02  0.64627454465E+02  0.41800000000E+01 0.  1.
        -11    1    1    2    0    0  0.27669678934E+02  0.15485953247E+02 -0.23315091918E+01  0.31794053145E+02  0.00000000000E+00 0.  1.
         11    1    1    2    0    0  0.37980783988E+02  0.14815418556E+03 -0.19275286748E+03  0.24606070506E+03  0.00000000000E+00 0. -1.
</event>
<event>
 7    1  0.2714042E-009  0.7750716E+02  0.7561462E-02  0.1336278E+00
         -1   -1    0    0    0  501 -0.00000000000E+00  0.00000000000E+00  0.13536184833E+02  0.13536184833E+02  0.00000000000E+00 0.  1.
          1   -1    0    0  501    0  0.00000000000E+00 -0.00000000000E+00 -0.89541586418E+03  0.89541586418E+03  0.00000000000E+00 0. -1.
         25    2    1    2    0    0 -0.21056552222E+02  0.19139043379E+01 -0.49520206134E+03  0.51119338980E+03  0.12508620546E+03 0.  0.
          5    1    3    3  502    0  0.56016233976E+01 -0.27504307915E+02 -0.20973791428E+02  0.35287922374E+02  0.41800000000E+01 0.  1.
         -5    1    3    3    0  502 -0.26658175619E+02  0.29418212253E+02 -0.47422826992E+03  0.47590546743E+03  0.41800000000E+01 0.  1.
        -11    1    1    2    0    0 -0.28555175303E+02 -0.18938822171E+02 -0.86616884569E+02  0.93148063395E+02  0.00000000000E+00 0.  1.
         11    1    1    2    0    0  0.49611727524E+02  0.17024917833E+02 -0.30006073343E+03  0.30461059582E+03  0.00000000000E+00 0. -1.
</event>
<event>
 7    1  0.2714042E-009  0.1202281E+03  0.7561462E-02  0.1242721E+00
          1   -1    0    0  501    0  0.00000000000E+00  0.00000000000E+00  0.47812294722E+03  0.47812294722E+03  0.00000000000E+00 0. -1.
         -1   -1    0    0    0  501 -0.00000000000E+00 -0.00000000000E+00 -0.37531899280E+02  0.37531899280E+02  0.00000000000E+00 0.  1.
         25    2    1    2    0    0  0.45665827439E+02  0.22271468675E+02  0.13085841381E+03  0.18802597952E+03  0.12509379840E+03 0.  0.
          5    1    3    3  502    0  0.75838107030E+02 -0.23869859098E+02  0.73419622282E+02  0.10830097870E+03  0.41800000000E+01 0. -1.
         -5    1    3    3    0  502 -0.30172279591E+02  0.46141327774E+02  0.57438791528E+02  0.79725000825E+02  0.41800000000E+01 0. -1.
        -11    1    1    2    0    0 -0.25695206595E+02  0.35842802150E+02  0.10535570216E+03  0.11421372109E+03  0.00000000000E+00 0. -1.
         11    1    1    2    0    0 -0.19970620844E+02 -0.58114270825E+02  0.20437693197E+03  0.21341514588E+03  0.00000000000E+00 0.  1.
</event>
<event>
 7    1  0.2714042E-009  0.6057847E+02  0.7561462E-02  0.1395420E+00
         -2   -1    0    0    0  501 -0.00000000000E+00  0.00000000000E+00  0.19356741801E+03  0.19356741801E+03  0.00000000000E+00 0.  1.
          2   -1    0    0  501    0  0.00000000000E+00 -0.00000000000E+00 -0.68160838114E+02  0.68160838114E+02  0.00000000000E+00 0. -1.
         25    2    1    2    0    0  0.11511722501E+02  0.33850752436E+02  0.88379700518E+02  0.15728149226E+03  0.12509237846E+03 0.  0.
          5    1    3    3  502    0  0.97380637913E+01  0.18932085194E+02  0.12004215771E+03  0.12198707212E+03  0.41800000000E+01 0.  1.
         -5    1    3    3    0  502  0.17736587102E+01  0.14918667242E+02 -0.31662457195E+02  0.35294420141E+02  0.41800000000E+01 0.  1.
        -11    1    1    2    0    0  0.30769780213E+02 -0.18227636700E+01  0.40955694139E+02  0.51258859958E+02  0.00000000000E+00 0.  1.
         11    1    1    2    0    0 -0.42281502714E+02 -0.32027988766E+02 -0.39288147630E+01  0.53187903903E+02  0.00000000000E+00 0. -1.
</event>
<event>
 7    1  0.2714042E-009  0.1275142E+03  0.7561462E-02  0.1231192E+00
          2   -1    0    0  501    0  0.00000000000E+00  0.00000000000E+00  0.45873318899E+03  0.45873318899E+03  0.00000000000E+00 0. -1.
         -2   -1    0    0    0  501 -0.00000000000E+00 -0.00000000000E+00 -0.50784335454E+03  0.50784335454E+03  0.00000000000E+00 0.  1.
         25    2    1    2    0    0  0.51054184086E+02  0.45031528960E+02  0.44075114112E+03  0.46318395343E+03  0.12507373027E+03 0.  0.
          5    1    3    3  502    0 -0.28337955572E+02  0.52041262180E+02  0.14128960709E+03  0.15326956047E+03  0.41800000000E+01 0.  1.
         -5    1    3    3    0  502  0.79392139658E+02 -0.70097332197E+01  0.29946153404E+03  0.30991439297E+03  0.41800000000E+01 0.  1.
        -11    1    1    2    0    0  0.21368248615E+02  0.11198985482E+02 -0.11151319628E+03  0.11409299833E+03  0.00000000000E+00 0.  1.
         11    1    1    2    0    0 -0.72422432702E+02 -0.56230514442E+02 -0.37834811039E+03  0.38929959177E+03  0.00000000000E+00 0. -1.
</event>
<event>
 7    1  0.2714042E-009  0.1130475E+03  0.7561462E-02  0.1255028E+00
          2   -1    0    0  501    0  0.00000000000E+00  0.00000000000E+00  0.42861793981E+03  0.42861793981E+03  0.00000000000E+00 0.  1.
         -2   -1    0    0    0  501 -0.00000000000E+00 -0.00000000000E+00 -0.62388545497E+02  0.62388545497E+02  0.00000000000E+00 0. -1.
         25    2    1    2    0    0  0.10136177549E+02  0.96641036459E+02  0.85900488427E+02  0.18019027421E+03  0.12508960382E+03 0.  0.
          5    1    3    3  502    0 -0.56217586568E+01  0.89070496429E+02  0.11521830619E+03  0.14580085043E+03  0.41800000000E+01 0.  1.
         -5    1    3    3    0  502  0.15757936206E+02  0.75705400300E+01 -0.29317817761E+02  0.34389423783E+02  0.41800000000E+01 0.  1.
        -11    1    1    2    0    0 -0.38828697173E+02 -0.67548901735E+02  0.24401069486E+03  0.25614788903E+03  0.00000000000E+00 0.  1.
         11    1    1    2    0    0  0.28692519624E+02 -0.29092134725E+02  0.36318211030E+02  0.54668322067E+02  0.00000000000E+00 0. -1.
</event>
<event>
 7    1  0.2714042E-009  0.2405782E+03  0.7561462E-02  0.1119408E+00
          2   -1    0    0  501    0  0.00000000000E+00  0.00000000000E+00  0.64519747979E+03  0.64519747979E+03  0.00000000000E+00 0. -1.
         -2   -1    0    0    0  501 -0.00000000000E+00 -0.00000000000E+00 -0.16569795536E+03  0.16569795536E+03  0.00000000000E+00 0.  1.
         25    2    1    2    0    0  0.66479277251E+02 -0.21651293032E+03 -0.64687550873E+01  0.25881629150E+03  0.12508670854E+03 0.  0.
          5    1    3    3  502    0  0.49655909401E+02 -0.50476706703E+02  0.45148027917E+02  0.84079867286E+02  0.41800000000E+01 0.  1.
         -5    1    3    3    0  502  0.16823367851E+02 -0.16603622361E+03 -0.51616783005E+02  0.17473642421E+03  0.41800000000E+01 0.  1.
        -11    1    1    2    0    0 -0.15318620818E+02  0.17947445980E+03  0.25214494156E+03  0.30987548051E+03  0.00000000000E+00 0.  1.
         11    1    1    2    0    0 -0.51160656433E+02  0.37038470515E+02  0.23382333796E+03  0.24220366314E+03  0.00000000000E+00 0. -1.
</event>
<event>
 7    1  0.2714042E-009  0.1137807E+03  0.7561462E-02  0.1253725E+00
         -1   -1    0    0    0  501 -0.00000000000E+00  0.00000000000E+00  0.28402087781E+02  0.28402087781E+02  0.00000000000E+00 0.  1.
          1   -1    0    0  501    0  0.00000000000E+00 -0.00000000000E+00 -0.65382049134E+03  0.65382049134E+03  0.00000000000E+00 0. -1.
         25    2    1    2    0    0 -0.76997297138E+02 -0.14855949575E+02 -0.39792177136E+03  0.42442740554E+03  0.12509038108E+03 0.  0.
          5    1    3    3  502    0 -0.31686422759E+02  0.54547010270E+02 -0.20174553505E+03  0.21141934403E+03  0.41800000000E+01 0. -1.
         -5    1    3    3    0  502 -0.45310874379E+02 -0.69402959845E+02 -0.19617623631E+03  0.21300806150E+03  0.41800000000E+01 0. -1.
        -11    1    1    2    0    0  0.24356462707E+02 -0.53986944540E+01 -0.16390768432E+01  0.25001394967E+02  0.00000000000E+00 0.  1.
         11    1    1    2    0    0  0.52640834431E+02  0.20254644029E+02 -0.22585755535E+03  0.23279377862E+03  0.00000000000E+00 0. -1.
</event>
<event>
 7    1  0.2714042E-009  0.2002380E+03  0.7561462E-02  0.1149538E+00
          3   -1    0    0  501    0  0.00000000000E+00  0.00000000000E+00  0.68335277873E+03  0.68335277873E+03  0.00000000000E+00 0. -1.
         -3   -1    0    0    0  501 -0.00000000000E+00 -0.00000000000E+00 -0.71732174698E+02  0.71732174698E+02  0.00000000000E+00 0.  1.
         25    2    1    2    0    0 -0.11512471958E+03  0.14865938900E+03  0.39641891598E+03  0.45623228945E+03  0.12508649006E+03 0.  0.
          5    1    3    3  502    0 -0.12804510651E+03  0.12598494025E+03  0.25249376175E+03  0.30990051080E+03  0.41800000000E+01 0.  1.
         -5    1    3    3    0  502  0.12920386923E+02  0.22674448755E+02  0.14392515423E+03  0.14633177865E+03  0.41800000000E+01 0.  1.
        -11    1    1    2    0    0  0.86196833335E+02 -0.71601938229E+02  0.70529172939E+02  0.13240504473E+03  0.00000000000E+00 0.  1.
         11    1    1    2    0    0  0.28927886249E+02 -0.77057450772E+02  0.14467251511E+03  0.16644761924E+03  0.00000000000E+00 0. -1.
</event>
<event>
 7    1  0.2714042E-009  0.2776605E+03  0.7561462E-02  0.1096974E+00
         -2   -1    0    0    0  501 -0.00000000000E+00  0.00000000000E+00  0.58213385395E+02  0.58213385395E+02  0.00000000000E+00 0.  1.
          2   -1    0    0  501    0  0.00000000000E+00 -0.00000000000E+00 -0.20500293004E+04  0.20500293004E+04  0.00000000000E+00 0. -1.
         25    2    1    2    0    0  0.12122528480E+03 -0.23478247615E+03 -0.41909137484E+03  0.51098328719E+03  0.12509180045E+03 0.  0.
          5    1    3    3  502    0  0.67012003792E+02 -0.20221611971E+03 -0.38238250002E+03  0.43773943898E+03  0.41800000000E+01 0.  1.
         -5    1    3    3    0  502  0.54213281006E+02 -0.32566356445E+02 -0.36708874825E+02  0.73243848209E+02  0.41800000000E+01 0.  1.
        -11    1    1    2    0    0 -0.50008837279E+02  0.18585306445E+03 -0.10782683765E+04  0.10953104296E+04  0.00000000000E+00 0. -1.
         11    1    1    2    0    0 -0.71216447519E+02  0.48929411702E+02 -0.49445616367E+03  0.50194896903E+03  0.00000000000E+00 0.  1.
</event>
<event>
 7    1  0.2714042E-009  0.8352557E+02  0.7561462E-02  0.1319334E+00
          2   -1    0    0  501    0  0.00000000000E+00  0.00000000000E+00  0.72176940220E+03  0.72176940220E+03  0.00000000000E+00 0. -1.
         -2   -1    0    0    0  501 -0.00000000000E+00 -0.00000000000E+00 -0.19488206208E+02  0.19488206208E+02  0.00000000000E+00 0.  1.
         25    2    1    2    0    0 -0.13261800436E+02 -0.42595631060E+02  0.34678642988E+03  0.37134790683E+03  0.12509267293E+03 0.  0.
          5    1    3    3  502    0 -0.30236006150E+02 -0.11007130880E+02  0.32989831622E+03  0.33149018755E+03  0.41800000000E+01 0.  1.
         -5    1    3    3    0  502  0.16974205713E+02 -0.31588500180E+02  0.16888113667E+02  0.39857719283E+02  0.41800000000E+01 0.  1.
        -11    1    1    2    0    0 -0.22025195205E+02  0.56447353845E+02  0.16729039977E+03  0.17792552047E+03  0.00000000000E+00 0.  1.
         11    1    1    2    0    0  0.35286995641E+02 -0.13851722785E+02  0.18820436634E+03  0.19198418111E+03  0.00000000000E+00 0. -1.
</event>
<event>
 7    1  0.2714042E-009  0.1113419E+03  0.7561462E-02  0.1258105E+00
          1   -1    0    0  501    0  0.00000000000E+00  0.00000000000E+00  0.35180465888E+03  0.35180465888E+03  0.00000000000E+00 0. -1.
         -1   -1    0    0    0  501 -0.00000000000E+00 -0.00000000000E+00 -0.65678575861E+02  0.65678575861E+02  0.00000000000E+00 0.  1.
         25    2    1    2    0    0 -0.57539846069E+02  0.51125481696E+02  0.51831730710E+02  0.15574941429E+03  0.12508678179E+03 0.  0.
          5    1    3    3  502    0  0.28619722562E+02 -0.17843309805E+02  0.24729656415E+02  0.42029757681E+02  0.41800000000E+01 0. -1.
         -5    1    3    3    0  502 -0.86159568631E+02  0.68968791501E+02  0.27102074295E+02  0.11371965661E+03  0.41800000000E+01 0. -1.
        -11    1    1    2    0    0  0.21074829982E+02 -0.28120080309E+02  0.20860737119E+03  0.21154650243E+03  0.00000000000E+00 0. -1.
         11    1    1    2    0    0  0.36465016087E+02 -0.23005401387E+02  0.25686981116E+02  0.50187318021E+02  0.00000000000E+00 0.  1.
</event>
<event>
 7    1  0.2714042E-009  0.9336649E+02  0.7561462E-02  0.1294898E+00
         -1   -1    0    0    0  501 -0.00000000000E+00  0.00000000000E+00  0.89145880289E+02  0.89145880289E+02  0.00000000000E+00 0.  1.
          1   -1    0    0  501    0  0.00000000000E+00 -0.00000000000E+00 -0.15065845082E+03  0.15065845082E+03  0.00000000000E+00 0. -1.
         25    2    1    2    0    0 -0.32718860227E+02 -0.14363349873E+02 -0.55899961880E+02  0.14159641554E+03  0.12509160452E+03 0.  0.
          5    1    3    3  502    0 -0.54171114667E+02  0.42463242973E+02 -0.34087659394E+02  0.76922542801E+02  0.41800000000E+01 0.  1.
         -5    1    3    3    0  502  0.21452254440E+02 -0.56826592845E+02 -0.21812302486E+02  0.64673872736E+02  0.41800000000E+01 0.  1.
        -11    1    1    2    0    0  0.22248839886E+02 -0.14250855062E+02 -0.42697450365E+02  0.50211253857E+02  0.00000000000E+00 0. -1.
         11    1    1    2    0    0  0.10470020341E+02  0.28614204934E+02  0.37084841719E+02  0.47996661710E+02  0.00000000000E+00 0.  1.
</event>
<event>
 7    1  0.2714042E-009  0.1280056E+03  0.7561462E-02  0.1230445E+00
         -2   -1    0    0    0  501 -0.00000000000E+00  0.00000000000E+00  0.47452617216E+02  0.47452617216E+02  0.00000000000E+00 0.  1.
          2   -1    0    0  501    0  0.00000000000E+00 -0.00000000000E+00 -0.63581930118E+03  0.63581930118E+03  0.00000000000E+00 0. -1.
         25    2    1    2    0    0  0.26691458407E+02 -0.96565425685E+02 -0.13362842909E+03  0.20866418422E+03  0.12508744672E+03 0.  0.
          5    1    3    3  502    0 -0.17651175801E+02 -0.76511957699E+02 -0.13882012679E+03  0.15954354791E+03  0.41800000000E+01 0.  1.
         -5    1    3    3    0  502  0.44342634208E+02 -0.20053467986E+02  0.51916977005E+01  0.49120636313E+02  0.41800000000E+01 0.  1.
        -11    1    1    2    0    0 -0.54877116237E+02  0.75539103591E+02 -0.38907771095E+03  0.40012387984E+03  0.00000000000E+00 0.  1.
         11    1    1    2    0    0  0.28185657830E+02  0.21026322094E+02 -0.65660543923E+02  0.74483854334E+02  0.00000000000E+00 0. -1.
</event>
<event>
 7    1  0.2714042E-009  0.2280273E+03  0.7561462E-02  0.1128036E+00
         -2   -1    0    0    0  501 -0.00000000000E+00  0.00000000000E+00  0.87416206789E+02  0.87416206789E+02  0.00000000000E+00 0. -1.
          2   -1    0    0  501    0  0.00000000000E+00 -0.00000000000E+00 -0.85086761549E+03  0.85086761549E+03  0.00000000000E+00 0.  1.
         25    2    1    2    0    0 -0.11430263457E+02 -0.20784582323E+03 -0.15467277990E+03  0.28792570073E+03  0.12508798161E+03 0.  0.
          5    1    3    3  502    0  0.42356919830E+02 -0.16946600482E+03 -0.12776546958E+03  0.21645859434E+03  0.41800000000E+01 0.  1.
         -5    1    3    3    0  502 -0.53787183287E+02 -0.38379818407E+02 -0.26907310317E+02  0.71467106387E+02  0.41800000000E+01 0.  1.
        -11    1    1    2    0    0 -0.20824454256E+02  0.11391111847E+03 -0.43551886423E+03  0.45065073161E+03  0.00000000000E+00 0.  1.
         11    1    1    2    0    0  0.32254717713E+02  0.93934704761E+02 -0.17325976458E+03  0.19970738994E+03  0.00000000000E+00 0. -1.
</event>
<event>
 7    1  0.2714042E-009  0.9050595E+02  0.7561462E-02  0.1301631E+00
         -2   -1    0    0    0  501 -0.00000000000E+00  0.00000000000E+00  0.34661020258E+02  0.34661020258E+02  0.00000000000E+00 0.  1.
          2   -1    0    0  501    0  0.00000000000E+00 -0.00000000000E+00 -0.44723752590E+03  0.44723752590E+03  0.00000000000E+00 0. -1.
         25    2    1    2    0    0  0.32843091878E+02  0.42562523450E+02 -0.19649611867E+03  0.23905715534E+03  0.12508941515E+03 0.  0.
          5    1    3    3  502    0  0.47416279461E+02  0.53188527857E+02 -0.20616434088E+03  0.21817087547E+03  0.41800000000E+01 0. -1.
         -5    1    3    3    0  502 -0.14573187583E+02 -0.10626004407E+02  0.96682222152E+01  0.20886279870E+02  0.41800000000E+01 0. -1.
        -11    1    1    2    0    0  0.22605034060E+02 -0.23191809419E+02 -0.19793993685E+02  0.37955892494E+02  0.00000000000E+00 0.  1.
         11    1    1    2    0    0 -0.55448125938E+02 -0.19370714030E+02 -0.19628639329E+03  0.20488549833E+03  0.00000000000E+00 0. -1.
</event>
<event>
 7    1  0.2714042E-009  0.8931516E+02  0.7561462E-02  0.1304519E+00
          1   -1    0    0  501    0  0.00000000000E+00  0.00000000000E+00  0.10635503432E+04  0.10635503432E+04  0.00000000000E+00 0. -1.
         -1   -1    0    0    0  501 -0.00000000000E+00 -0.00000000000E+00 -0.18131873778E+02  0.18131873778E+02  0.00000000000E+00 0.  1.
         25    2    1    2    0    0  0.80424875836E+02  0.12018171472E+02  0.67319399431E+03  0.68952904211E+03  0.12509016286E+03 0.  0.
          5    1    3    3  502    0  0.44627002079E+02  0.37357481312E+00  0.63192978686E+03  0.63351751104E+03  0.41800000000E+01 0. -1.
         -5    1    3    3    0  502  0.35797873757E+02  0.11644596659E+02  0.41264207454E+02  0.56011531077E+02  0.41800000000E+01 0. -1.
        -11    1    1    2    0    0 -0.68010876349E+02  0.11842354040E+02  0.35145488681E+03  0.35817071085E+03  0.00000000000E+00 0. -1.
         11    1    1    2    0    0 -0.12413999487E+02 -0.23860525512E+02  0.20769588265E+02  0.33982463973E+02  0.00000000000E+00 0.  1.
</event>
<event>
 7    1  0.2714042E-009  0.9040805E+02  0.7561462E-02  0.1301867E+00
         -2   -1    0    0    0  501 -0.00000000000E+00  0.00000000000E+00  0.57671452145E+03  0.57671452145E+03  0.00000000000E+00 0.  1.
          2   -1    0    0  501    0  0.00000000000E+00 -0.00000000000E+00 -0.29694246191E+02  0.29694246191E+02  0.00000000000E+00 0. -1.
         25    2    1    2    0    0 -0.31021943708E+02  0.67816363453E+02  0.26303281512E+03  0.30065855459E+03  0.12509150442E+03 0.  0.
          5    1    3    3  502    0 -0.36676798116E+01  0.51213066200E+02  0.26339560961E+03  0.26838582225E+03  0.41800000000E+01 0. -1.
         -5    1    3    3    0  502 -0.27354263896E+02  0.16603297253E+02 -0.36279449151E+00  0.32272732342E+02  0.41800000000E+01 0. -1.
        -11    1    1    2    0    0  0.44461515156E+02 -0.22631290953E+02  0.66060547100E+02  0.82782833627E+02  0.00000000000E+00 0.  1.
         11    1    1    2    0    0 -0.13439571448E+02 -0.45185072499E+02  0.21792691305E+03  0.22296737942E+03  0.00000000000E+00 0. -1.
</event>
<event>
 7    1  0.2714042E-009  0.6892867E+02  0.7561462E-02  0.1363774E+00
         -1   -1    0    0    0  501 -0.00000000000E+00  0.00000000000E+00  0.16291512597E+03  0.16291512597E+03  0.00000000000E+00 0.  1.
          1   -1    0    0  501    0  0.00000000000E+00 -0.00000000000E+00 -0.84503056580E+02  0.84503056580E+02  0.00000000000E+00 0. -1.
         25    2    1    2    0    0  0.33769700884E+02 -0.79295785863E+01  0.11306349249E+02  0.13030187933E+03  0.12508986893E+03 0.  0.
          5    1    3    3  502    0 -0.24965567362E+02  0.23082541572E+02 -0.35194730077E+02  0.49114404245E+02  0.41800000000E+01 0.  1.
         -5    1    3    3    0  502  0.58735268245E+02 -0.31012120159E+02  0.46501079326E+02  0.81187475088E+02  0.41800000000E+01 0.  1.
        -11    1    1    2    0    0 -0.21038524873E+02 -0.16693465642E+01 -0.19692842972E+02  0.28865451861E+02  0.00000000000E+00 0. -1.
         11    1    1    2    0    0 -0.12731176010E+02  0.95989251505E+01  0.86798563115E+02  0.88250851358E+02  0.00000000000E+00 0.  1.
</event>
<event>
 7    1  0.2714042E-009  0.1516354E+03  0.7561462E-02  0.1198478E+00
         -2   -1    0    0    0  501 -0.00000000000E+00  0.00000000000E+00  0.87545314109E+03  0.87545314109E+03  0.00000000000E+00 0.  1.
          2   -1    0    0  501    0  0.00000000000E+00 -0.00000000000E+00 -0.29267366131E+02  0.29267366131E+02  0.00000000000E+00 0. -1.
         25    2    1    2    0    0 -0.96460210664E+02 -0.65262020301E+02  0.48987681618E+03  0.51883514297E+03  0.12508759739E+03 0.  0.
          5    1    3    3  502    0 -0.13813027803E+02  0.34945004301E+02  0.73589597394E+02  0.82733634680E+02  0.41800000000E+01 0.  1.
         -5    1    3    3    0  502 -0.82647182861E+02 -0.10020702460E+03  0.41628721878E+03  0.43610150829E+03  0.41800000000E+01 0.  1.
        -11    1    1    2    0    0  0.26858735227E+02  0.59959496711E+02  0.25164204466E+03  0.26007739530E+03  0.00000000000E+00 0.  1.
         11    1    1    2    0    0  0.69601475437E+02  0.53025235902E+01  0.10466691412E+03  0.12580796895E+03  0.00000000000E+00 0. -1.
</event>
<event>
 7    1  0.2714042E-009  0.6683037E+02  0.7561462E-02  0.1371216E+00
          2   -1    0    0  501    0  0.00000000000E+00  0.00000000000E+00  0.23057851200E+03  0.23057851200E+03  0.00000000000E+00 0. -1.
         -2   -1    0    0    0  501 -0.00000000000E+00 -0.00000000000E+00 -0.64787722585E+02  0.64787722585E+02  0.00000000000E+00 0.  1.
         25    2    1    2    0    0 -0.15081501748E+02 -0.27817316062E+02  0.15238211620E+03  0.19967277574E+03  0.12509058025E+03 0.  0.
          5    1    3    3  502    0  0.26285263365E+02 -0.26057358337E+02 -0.43587583932E+01  0.37501628877E+02  0.41800000000E+01 0. -1.
         -5    1    3    3    0  502 -0.41366765114E+02 -0.17599577246E+01  0.15674087459E+03  0.16217114686E+03  0.41800000000E+01 0. -1.
        -11    1    1    2    0    0  0.11856450188E+02  0.40247152098E+02 -0.29248249931E+02  0.51145564687E+02  0.00000000000E+00 0.  1.
         11    1    1    2    0    0  0.32250515603E+01 -0.12429836037E+02  0.42656923153E+02  0.44547894163E+02  0.00000000000E+00 0. -1.
</event>
<event>
 7    1  0.2714042E-009  0.1388435E+03  0.7561462E-02  0.1214894E+00
         -1   -1    0    0    0  501 -0.00000000000E+00  0.00000000000E+00  0.15683661697E+03  0.15683661697E+03  0.00000000000E+00 0.  1.
          1   -1    0    0  501    0  0.00000000000E+00 -0.00000000000E+00 -0.19472704704E+03  0.19472704704E+03  0.00000000000E+00 0. -1.
         25    2    1    2    0    0 -0.64596383178E+02 -0.10255064480E+03  0.38308283084E+02  0.17834681084E+03  0.12510288933E+03 0.  0.
          5    1    3    3  502    0 -0.46727186788E+02 -0.60119722985E+02 -0.40975484800E+02  0.86569474017E+02  0.41800000000E+01 0. -1.
         -5    1    3    3    0  502 -0.17869196390E+02 -0.42430921812E+02  0.79283767884E+02  0.91777336828E+02  0.41800000000E+01 0. -1.
        -11    1    1    2    0    0  0.79092667547E+02  0.35666777956E+02 -0.48401164863E+02  0.99350097481E+02  0.00000000000E+00 0.  1.
         11    1    1    2    0    0 -0.14496284369E+02  0.66883866841E+02 -0.27797548291E+02  0.73866755682E+02  0.00000000000E+00 0. -1.
</event>
<event>
 7    1  0.2714042E-009  0.1347388E+03  0.7561462E-02  0.1220589E+00
         -1   -1    0    0    0  501 -0.00000000000E+00  0.00000000000E+00  0.28513058011E+03  0.28513058011E+03  0.00000000000E+00 0.  1.
          1   -1    0    0  501    0  0.00000000000E+00 -0.00000000000E+00 -0.70800497427E+02  0.70800497427E+02  0.00000000000E+00 0. -1.
         25    2    1    2    0    0 -0.29145364354E+02  0.82301594685E+02  0.86981484149E+02  0.17560080108E+03  0.12508740146E+03 0.  0.
          5    1    3    3  502    0 -0.29966719686E+02  0.10984410347E+03  0.39581854749E+02  0.12061478757E+03  0.41800000000E+01 0.  1.
         -5    1    3    3    0  502  0.82135533164E+00 -0.27542508780E+02  0.47399629400E+02  0.54986013510E+02  0.41800000000E+01 0.  1.
        -11    1    1    2    0    0 -0.33970344113E+02 -0.22654197473E+02  0.41405586981E+02  0.58151694520E+02  0.00000000000E+00 0.  1.
         11    1    1    2    0    0  0.63115708467E+02 -0.59647397212E+02  0.85943011549E+02  0.12217858193E+03  0.00000000000E+00 0. -1.
</event>
<event>
 7    1  0.2714042E-009  0.1047564E+03  0.7561462E-02  0.1270600E+00
         -3   -1    0    0    0  501 -0.00000000000E+00  0.00000000000E+00  0.15168288591E+03  0.15168288591E+03  0.00000000000E+00 0.  1.
          3   -1    0    0  501    0  0.00000000000E+00 -0.00000000000E+00 -0.10609666783E+03  0.10609666783E+03  0.00000000000E+00 0. -1.
         25    2    1    2    0    0  0.16430129168E+02  0.43931881801E+02 -0.21996750121E+02  0.13539325810E+03  0.12509003933E+03 0.  0.
          5    1    3    3  502    0  0.62880011114E+02  0.57183169784E+02 -0.14991363703E+02  0.86406157709E+02  0.41800000000E+01 0. -1.
         -5    1    3    3    0  502 -0.46449881946E+02 -0.13251287983E+02 -0.70053864185E+01  0.48987100392E+02  0.41800000000E+01 0. -1.
        -11    1    1    2    0    0 -0.19423972022E+02 -0.58199364626E+02  0.89940008400E+01  0.62010876329E+02  0.00000000000E+00 0. -1.
         11    1    1    2    0    0  0.29938428532E+01  0.14267482825E+02  0.58588967354E+02  0.60375419310E+02  0.00000000000E+00 0.  1.
</event>
<event>
 7    1  0.2714042E-009  0.8421683E+02  0.7561462E-02  0.1317493E+00
         -2   -1    0    0    0  501 -0.00000000000E+00  0.00000000000E+00  0.54570669695E+02  0.54570669695E+02  0.00000000000E+00 0. -1.
          2   -1    0    0  501    0  0.00000000000E+00 -0.00000000000E+00 -0.22724046910E+03  0.22724046910E+03  0.00000000000E+00 0.  1.
         25    2    1    2    0    0 -0.24957413120E+02 -0.11889044788E+02 -0.10859503771E+03  0.16793846363E+03  0.12508486518E+03 0.  0.
          5    1    3    3  502    0 -0.48339800354E+02 -0.19613703133E+01 -0.12721391397E+03  0.13616694011E+03  0.41800000000E+01 0. -1.
         -5    1    3    3    0  502  0.23382387233E+02 -0.99276744743E+01  0.18618876264E+02  0.31771523516E+02  0.41800000000E+01 0. -1.
        -11    1    1    2    0    0 -0.33788367629E+02 -0.17053402861E+01 -0.23620072649E+02  0.41260996164E+02  0.00000000000E+00 0.  1.
         11    1    1    2    0    0  0.58745780750E+02  0.13594385074E+02 -0.40454689050E+02  0.72611679002E+02  0.00000000000E+00 0. -1.
</event>
<event>
 7    1  0.2714042E-009  0.2095569E+03  0.7561462E-02  0.1141917E+00
         -2   -1    0    0    0  501 -0.00000000000E+00  0.00000000000E+00  0.42622693460E+02  0.42622693460E+02  0.00000000000E+00 0.  1.
          2   -1    0    0  501    0  0.00000000000E+00 -0.00000000000E+00 -0.11924109583E+04  0.11924109583E+04  0.00000000000E+00 0. -1.
         25    2    1    2    0    0 -0.10025165167E+03  0.16830406100E+03 -0.65273374328E+03  0.69288239688E+03  0.12509206880E+03 0.  0.
          5    1    3    3  502    0 -0.35400344732E+02  0.13610297694E+03 -0.54602435983E+03  0.56385927204E+03  0.41800000000E+01 0.  1.
         -5    1    3    3    0  502 -0.64851306940E+02  0.32201084064E+02 -0.10670938345E+03  0.12902312484E+03  0.41800000000E+01 0.  1.
        -11    1    1    2    0    0  0.18410110901E+01 -0.58164026047E+02 -0.22704569694E+03  0.23438470886E+03  0.00000000000E+00 0.  1.
         11    1    1    2    0    0  0.98410640582E+02 -0.11014003495E+03 -0.27000882464E+03  0.30776654604E+03  0.00000000000E+00 0. -1.
</event>
<event>
 7    1  0.2714042E-009  0.2173553E+03  0.7561462E-02  0.1135870E+00
          2   -1    0    0  501    0  0.00000000000E+00  0.00000000000E+00  0.11129461253E+04  0.11129461253E+04  0.00000000000E+00 0. -1.
         -2   -1    0    0    0  501 -0.00000000000E+00 -0.00000000000E+00 -0.52726217511E+02  0.52726217511E+02  0.00000000000E+00 0.  1.
         25    2    1    2    0    0 -0.62384071456E+02  0.19135549861E+03  0.73501149622E+03  0.77226876463E+03  0.12509374898E+03 0.  0.
          5    1    3    3  502    0 -0.85371107576E+02  0.18866846554E+03  0.58859707737E+03  0.62397756994E+03  0.41800000000E+01 0. -1.
         -5    1    3    3    0  502  0.22987036120E+02  0.26870330633E+01  0.14641441885E+03  0.14829119469E+03  0.41800000000E+01 0. -1.
        -11    1    1    2    0    0  0.73311001555E+01 -0.74846703230E+02  0.52301943165E+02  0.91603860577E+02  0.00000000000E+00 0.  1.
         11    1    1    2    0    0  0.55052971301E+02 -0.11650879538E+03  0.27290646844E+03  0.30179971764E+03  0.00000000000E+00 0. -1.
</event>
<event>
 7    1  0.2714042E-009  0.1216190E+03  0.7561462E-02  0.1240450E+00
          1   -1    0    0  501    0  0.00000000000E+00  0.00000000000E+00  0.43372697077E+03  0.43372697077E+03  0.00000000000E+00 0. -1.
         -1   -1    0    0    0  501 -0.00000000000E+00 -0.00000000000E+00 -0.50529955309E+02  0.50529955309E+02  0.00000000000E+00 0.  1.
         25    2    1    2    0    0  0.84625887521E+02 -0.49036027503E+02  0.17868710821E+03  0.23904437487E+03  0.12508819964E+03 0.  0.
          5    1    3    3  502    0 -0.78869987105E+01  0.19977349585E+02  0.92188623203E+02  0.94749743499E+02  0.41800000000E+01 0.  1.
         -5    1    3    3    0  502  0.92512886231E+02 -0.69013377088E+02  0.86498485004E+02  0.14429463138E+03  0.41800000000E+01 0.  1.
        -11    1    1    2    0    0 -0.25575297385E+02  0.37976494243E+02  0.17882636709E+02  0.49153826372E+02  0.00000000000E+00 0.  1.
         11    1    1    2    0    0 -0.59050590135E+02  0.11059533260E+02  0.18662727054E+03  0.19605872483E+03  0.00000000000E+00 0. -1.
</event>
<event>
 7    1  0.2714042E-009  0.1316130E+03  0.7561462E-02  0.1225082E+00
         -1   -1    0    0    0  501 -0.00000000000E+00  0.00000000000E+00  0.45507114317E+02  0.45507114317E+02  0.00000000000E+00 0.  1.
          1   -1    0    0  501    0  0.00000000000E+00 -0.00000000000E+00 -0.60246882973E+03  0.60246882973E+03  0.00000000000E+00 0. -1.
         25    2    1    2    0    0 -0.11875389239E+03  0.37291968684E+02 -0.31913534866E+03  0.36467893782E+03  0.12510067562E+03 0.  0.
          5    1    3    3  502    0 -0.83416476378E+02  0.38378643357E+02 -0.76903791874E+02  0.11984529362E+03  0.41800000000E+01 0.  1.
         -5    1    3    3    0  502 -0.35337416016E+02 -0.10866746731E+01 -0.24223155678E+03  0.24483364420E+03  0.41800000000E+01 0.  1.
        -11    1    1    2    0    0  0.62652117295E+02  0.85848821564E+01 -0.45887861699E+02  0.78132476311E+02  0.00000000000E+00 0.  1.
         11    1    1    2    0    0  0.56101775100E+02 -0.45876850840E+02 -0.19193850505E+03  0.20516452991E+03  0.00000000000E+00 0. -1.
</event>
<event>
 7    1  0.2714042E-009  0.7881153E+02  0.7561462E-02  0.1332458E+00
         -2   -1    0    0    0  501 -0.00000000000E+00  0.00000000000E+00  0.17638693605E+02  0.17638693605E+02  0.00000000000E+00 0.  1.
          2   -1    0    0  501    0  0.00000000000E+00 -0.00000000000E+00 -0.69622355991E+03  0.69622355991E+03  0.00000000000E+00 0. -1.
         25    2    1    2    0    0  0.10136305690E+01  0.10155394561E+02 -0.43643394037E+03  0.45412082217E+03  0.12508787847E+03 0.  0.
          5    1    3    3  502    0 -0.27731912688E+02 -0.19053691734E+02 -0.29017872126E+02  0.44627474192E+02  0.41800000000E+01 0. -1.
         -5    1    3    3    0  502  0.28745543257E+02  0.29209086295E+02 -0.40741606824E+03  0.40949334798E+03  0.41800000000E+01 0. -1.
        -11    1    1    2    0    0  0.31399395706E+02  0.20831957571E+02 -0.51055190368E+02  0.63454905015E+02  0.00000000000E+00 0.  1.
         11    1    1    2    0    0 -0.32413026275E+02 -0.30987352132E+02 -0.19109573557E+03  0.19628652633E+03  0.00000000000E+00 0. -1.
</event>
<event>
 7    1  0.2714042E-009  0.1822153E+03  0.7561462E-02  0.1165676E+00
          1   -1    0    0  501    0  0.00000000000E+00  0.00000000000E+00  0.13164909893E+04  0.13164909893E+04  0.00000000000E+00 0. -1.
         -1   -1    0    0    0  501 -0.00000000000E+00 -0.00000000000E+00 -0.31240955261E+02  0.31240955261E+02  0.00000000000E+00 0.  1.
         25    2    1    2    0    0  0.64886526750E+02 -0.14874692337E+03  0.84937224120E+03  0.87373743330E+03  0.12509192486E+03 0.  0.
          5    1    3    3  502    0  0.78950082666E+02 -0.14818098717E+03  0.83928202994E+03  0.85592202839E+03  0.41800000000E+01 0. -1.
         -5    1    3    3    0  502 -0.14063555916E+02 -0.56593620503E+00  0.10090211262E+02  0.17815404910E+02  0.41800000000E+01 0. -1.
        -11    1    1    2    0    0 -0.23739547629E+02 -0.35806717242E+01  0.29344902904E+02  0.37914517774E+02  0.00000000000E+00 0.  1.
         11    1    1    2    0    0 -0.41146979121E+02  0.15232759510E+03  0.40653288995E+03  0.43607999350E+03  0.00000000000E+00 0. -1.
</event>
<event>
 7    1  0.2714042E-009  0.8301526E+02  0.7561462E-02  0.1320706E+00
          3   -1    0    0  501    0  0.00000000000E+00  0.00000000000E+00  0.33715873508E+03  0.33715873508E+03  0.00000000000E+00 0. -1.
         -3   -1    0    0    0  501 -0.00000000000E+00 -0.00000000000E+00 -0.63966522868E+02  0.63966522868E+02  0.00000000000E+00 0.  1.
         25    2    1    2    0    0  0.92910752947E+01 -0.64553771604E+02  0.25014995241E+03  0.28718699080E+03  0.12509138853E+03 0.  0.
          5    1    3    3  502    0  0.32748993897E+01 -0.26645345498E+02 -0.62643407901E+01  0.27882140668E+02  0.41800000000E+01 0.  1.
         -5    1    3    3    0  502  0.60161759050E+01 -0.37908426106E+02  0.25641429320E+03  0.25930485013E+03  0.41800000000E+01 0.  1.
        -11    1    1    2    0    0 -0.26626604464E+02  0.75290631053E+02 -0.41285893160E+01  0.79966870887E+02  0.00000000000E+00 0.  1.
         11    1    1    2    0    0  0.17335529170E+02 -0.10736859449E+02  0.27170849116E+02  0.33971396264E+02  0.00000000000E+00 0. -1.
</event>
<event>
 7    1  0.2714042E-009  0.2170850E+03  0.7561462E-02  0.1136075E+00
         -1   -1    0    0    0  501 -0.00000000000E+00  0.00000000000E+00  0.98404901535E+02  0.98404901535E+02  0.00000000000E+00 0.  1.
          1   -1    0    0  501    0  0.00000000000E+00 -0.00000000000E+00 -0.15547338600E+04  0.15547338600E+04  0.00000000000E+00 0. -1.
         25    2    1    2    0    0  0.19611998022E+03 -0.77757301615E+02 -0.13932983584E+04  0.14147216201E+04  0.12509077631E+03 0.  0.
          5    1    3    3  502    0  0.73696411566E+02 -0.62940148612E+02 -0.32071595912E+03  0.33506539991E+03  0.41800000000E+01 0. -1.
         -5    1    3    3    0  502  0.12242356865E+03 -0.14817153003E+02 -0.10725823993E+04  0.10796562202E+04  0.41800000000E+01 0. -1.
        -11    1    1    2    0    0 -0.10921580282E+03  0.61577723908E+02  0.70988332436E+01  0.12557985946E+03  0.00000000000E+00 0.  1.
         11    1    1    2    0    0 -0.86904177395E+02  0.16179577706E+02 -0.70129433310E+02  0.11283728196E+03  0.00000000000E+00 0. -1.
</event>
<event>
 7    1  0.2714042E-009  0.8728605E+02  0.7561462E-02  0.1309560E+00
          1   -1    0    0  501    0  0.00000000000E+00  0.00000000000E+00  0.13147575123E+03  0.13147575123E+03  0.00000000000E+00 0. -1.
         -1   -1    0    0    0  501 -0.00000000000E+00 -0.00000000000E+00 -0.14991136244E+03  0.14991136244E+03  0.00000000000E+00 0.  1.
         25    2    1    2    0    0  0.10567318355E+01 -0.12275619840E+01  0.79011303852E+02  0.14796351978E+03  0.12509114060E+03 0.  0.
          5    1    3    3  502    0 -0.21219849801E+02 -0.43016463535E+02  0.87309284830E+02  0.99704973688E+02  0.41800000000E+01 0.  1.
         -5    1    3    3    0  502  0.22276581637E+02  0.41788901551E+02 -0.82979809782E+01  0.48258546089E+02  0.41800000000E+01 0.  1.
        -11    1    1    2    0    0  0.11861191928E+02 -0.36830997938E+02 -0.81435202166E+02  0.90160426102E+02  0.00000000000E+00 0.  1.
         11    1    1    2    0    0 -0.12917923763E+02  0.38058559922E+02 -0.16011712894E+02  0.43263167793E+02  0.00000000000E+00 0. -1.
</event>
<event>
 7    1  0.2714042E-009  0.1436939E+03  0.7561462E-02  0.1208443E+00
         -1   -1    0    0    0  501 -0.00000000000E+00  0.00000000000E+00  0.65613725491E+02  0.65613725491E+02  0.00000000000E+00 0.  1.
          1   -1    0    0  501    0  0.00000000000E+00 -0.00000000000E+00 -0.66206184183E+03  0.66206184183E+03  0.00000000000E+00 0. -1.
         25    2    1    2    0    0  0.13900450107E+03 -0.89636692102E+01 -0.50282731539E+03  0.53654936641E+03  0.12508922739E+03 0.  0.
          5    1    3    3  502    0  0.13153004429E+03 -0.19826000622E+02 -0.24888987536E+03  0.28223547847E+03  0.41800000000E+01 0.  1.
         -5    1    3    3    0  502  0.74744567785E+01  0.10862331412E+02 -0.25393744004E+03  0.25431388794E+03  0.41800000000E+01 0.  1.
        -11    1    1    2    0    0 -0.53388634392E+02  0.12322781573E+02 -0.90001264871E+02  0.10536804500E+03  0.00000000000E+00 0. -1.
         11    1    1    2    0    0 -0.85615866680E+02 -0.33591123631E+01 -0.36195360717E+01  0.85758155908E+02  0.00000000000E+00 0.  1.
</event>
<event>
 7    1  0.2714042E-009  0.2512300E+03  0.7561462E-02  0.1112530E+00
         -2   -1    0    0    0  501 -0.00000000000E+00  0.00000000000E+00  0.59581657467E+02  0.59581657467E+02  0.00000000000E+00 0.  1.
          2   -1    0    0  501    0  0.00000000000E+00 -0.00000000000E+00 -0.11313151248E+04  0.11313151248E+04  0.00000000000E+00 0. -1.
         25    2    1    2    0    0 -0.66965656671E+01  0.23550041110E+03 -0.58599533729E+03  0.64384873059E+03  0.12508143321E+03 0.  0.
          5    1    3    3  502    0  0.20362250085E+02  0.22739392972E+03 -0.44694022088E+03  0.50189207400E+03  0.41800000000E+01 0.  1.
         -5    1    3    3    0  502 -0.27058815752E+02  0.81064813822E+01 -0.13905511641E+03  0.14195665659E+03  0.41800000000E+01 0.  1.
        -11    1    1    2    0    0 -0.18074439078E+02 -0.14480444410E+02 -0.91682363541E+02  0.94562277906E+02  0.00000000000E+00 0. -1.
         11    1    1    2    0    0  0.24771004745E+02 -0.22101996669E+03 -0.39405576651E+03  0.45248577378E+03  0.00000000000E+00 0.  1.
</event>
<event>
 7    1  0.2714042E-009  0.2280912E+03  0.7561462E-02  0.1127991E+00
         -1   -1    0    0    0  501 -0.00000000000E+00  0.00000000000E+00  0.30407346657E+03  0.30407346657E+03  0.00000000000E+00 0.  1.
          1   -1    0    0  501    0  0.00000000000E+00 -0.00000000000E+00 -0.18781647987E+03  0.18781647987E+03  0.00000000000E+00 0. -1.
         25    2    1    2    0    0 -0.13244231998E+03 -0.16372069105E+03  0.28947071369E+02  0.24663759375E+03  0.12508691741E+03 0.  0.
          5    1    3    3  502    0 -0.52279901487E+02 -0.14787615711E+03 -0.74699955863E+01  0.15707902207E+03  0.41800000000E+01 0. -1.
         -5    1    3    3    0  502 -0.80162418496E+02 -0.15844533940E+02  0.36417066955E+02  0.89558571675E+02  0.41800000000E+01 0. -1.
        -11    1    1    2    0    0  0.12358352554E+03  0.11793519116E+03  0.33559812511E+02  0.17409152224E+03  0.00000000000E+00 0. -1.
         11    1    1    2    0    0  0.88587944473E+01  0.45785499883E+02  0.53750102820E+02  0.71160830460E+02  0.00000000000E+00 0.  1.
</event>
<event>
 7    1  0.4130202E-009  0.1436273E+03  0.7561462E-02  0.1208530E+00
          2   -1    0    0  501    0  0.00000000000E+00  0.00000000000E+00  0.71540091554E+03  0.71540091554E+03  0.00000000000E+00 0. -1.
         -2   -1    0    0    0  501 -0.00000000000E+00 -0.00000000000E+00 -0.38943257380E+02  0.38943257380E+02  0.00000000000E+00 0.  1.
         25    2    1    2    0    0 -0.74026315786E+02 -0.98416624598E+02  0.42527134599E+03  0.46007473625E+03  0.12508923931E+03 0.  0.
          5    1    3    3  502    0 -0.22521347927E+02 -0.72833808008E+02  0.82188179688E+02  0.11217996248E+03  0.41800000000E+01 0. -1.
         -5    1    3    3    0  502 -0.51504967859E+02 -0.25582816590E+02  0.34308316630E+03  0.34789477377E+03  0.41800000000E+01 0. -1.
        -11    1    1    2    0    0  0.93619609994E+02  0.63238266296E+02  0.18171960096E+03  0.21397598714E+03  0.00000000000E+00 0. -1.
         11    1    1    2    0    0 -0.19593294208E+02  0.35178358302E+02  0.69466711211E+02  0.80293449529E+02  0.00000000000E+00 0.  1.
</event>
<event>
 7    1  0.2714042E-009  0.7944352E+02  0.7561462E-02  0.1330638E+00
          1   -1    0    0  501    0  0.00000000000E+00  0.00000000000E+00  0.41637699613E+02  0.41637699613E+02  0.00000000000E+00 0. -1.
         -1   -1    0    0    0  501 -0.00000000000E+00 -0.00000000000E+00 -0.38744225475E+03  0.38744225475E+03  0.00000000000E+00 0.  1.
         25    2    1    2    0    0  0.41074422764E+02  0.49095868940E+02 -0.26028362264E+03  0.29579167046E+03  0.12509050941E+03 0.  0.
          5    1    3    3  502    0  0.10575138434E+02  0.15235366689E+01  0.12626924835E+02  0.17060666683E+02  0.41800000000E+01 0.  1.
         -5    1    3    3    0  502  0.30499284330E+02  0.47572332272E+02 -0.27291054747E+03  0.27873100377E+03  0.41800000000E+01 0.  1.
        -11    1    1    2    0    0  0.74325003698E+01 -0.40882722787E+02 -0.70525310547E+02  0.81856328478E+02  0.00000000000E+00 0.  1.
         11    1    1    2    0    0 -0.48506923134E+02 -0.82131461535E+01 -0.14995621956E+02  0.51431955431E+02  0.00000000000E+00 0. -1.
</event>
<event>
 7    1  0.2714042E-009  0.1561276E+03  0.7561462E-02  0.1193139E+00
          2   -1    0    0  501    0  0.00000000000E+00  0.00000000000E+00  0.40565604408E+03  0.40565604408E+03  0.00000000000E+00 0. -1.
         -2   -1    0    0    0  501 -0.00000000000E+00 -0.00000000000E+00 -0.76897601361E+02  0.76897601361E+02  0.00000000000E+00 0.  1.
         25    2    1    2    0    0 -0.11560660179E+03 -0.78746362850E+02  0.17111378790E+03  0.25395251889E+03  0.12508428118E+03 0.  0.
          5    1    3    3  502    0 -0.71767247373E+02 -0.98953933407E+02  0.67810499158E+02  0.13985047346E+03  0.41800000000E+01 0. -1.
         -5    1    3    3    0  502 -0.43839354420E+02  0.20207570557E+02  0.10330328874E+03  0.11410204542E+03  0.41800000000E+01 0. -1.
        -11    1    1    2    0    0  0.23198503358E+02  0.26940956554E+02 -0.35298641458E+01  0.35727379402E+02  0.00000000000E+00 0.  1.
         11    1    1    2    0    0  0.92408098436E+02  0.51805406296E+02  0.16117451897E+03  0.19287374716E+03  0.00000000000E+00 0. -1.
</event>
<event>
 7    1  0.2714042E-009  0.2730271E+03  0.7561462E-02  0.1099560E+00
         -2   -1    0    0    0  501 -0.00000000000E+00  0.00000000000E+00  0.23298214880E+03  0.23298214880E+03  0.00000000000E+00 0. -1.
          2   -1    0    0  501    0  0.00000000000E+00 -0.00000000000E+00 -0.44720950597E+03  0.44720950597E+03  0.00000000000E+00 0.  1.
         25    2    1    2    0    0 -0.39523964269E+02  0.25257409017E+03 -0.28244812763E+03  0.40097538613E+03  0.12509396749E+03 0.  0.
          5    1    3    3  502    0  0.35142340369E+02  0.16788953761E+03 -0.16641538237E+03  0.23902600865E+03  0.41800000000E+01 0.  1.
         -5    1    3    3    0  502 -0.74666304638E+02  0.84684552560E+02 -0.11603274527E+03  0.16194937748E+03  0.41800000000E+01 0. -1.
        -11    1    1    2    0    0 -0.14102357402E+02 -0.52753528983E+02 -0.14344163171E+02  0.56458536304E+02  0.00000000000E+00 0.  1.
         11    1    1    2    0    0  0.53626321670E+02 -0.19982056119E+03  0.82564933632E+02  0.22275773233E+03  0.00000000000E+00 0. -1.
</event>
<event>
 7    1  0.2714042E-009  0.7788933E+02  0.7561462E-02  0.1335150E+00
         -1   -1    0    0    0  501 -0.00000000000E+00  0.00000000000E+00  0.99824036025E+02  0.99824036025E+02  0.00000000000E+00 0.  1.
          1   -1    0    0  501    0  0.00000000000E+00 -0.00000000000E+00 -0.16956652265E+03  0.16956652265E+03  0.00000000000E+00 0. -1.
         25    2    1    2    0    0 -0.48876275161E+02  0.24292035168E+02  0.88687352753E+01  0.13676746911E+03  0.12509073865E+03 0.  0.
          5    1    3    3  502    0 -0.41904449097E+02  0.14456389125E+02 -0.55496357865E+02  0.71149758797E+02  0.41800000000E+01 0.  1.
         -5    1    3    3    0  502 -0.69718260646E+01  0.98356460433E+01  0.64365093140E+02  0.65617710313E+02  0.41800000000E+01 0.  1.
        -11    1    1    2    0    0  0.70712631045E+02 -0.78243623689E+01 -0.30764006147E+02  0.77510779315E+02  0.00000000000E+00 0.  1.
         11    1    1    2    0    0 -0.21836355884E+02 -0.16467672799E+02 -0.47847215751E+02  0.55112310248E+02  0.00000000000E+00 0. -1.
</event>
<event>
 7    1  0.2714042E-009  0.1226299E+03  0.7561462E-02  0.1238821E+00
          2   -1    0    0  501    0  0.00000000000E+00  0.00000000000E+00  0.13091630172E+04  0.13091630172E+04  0.00000000000E+00 0. -1.
         -2   -1    0    0    0  501 -0.00000000000E+00 -0.00000000000E+00 -0.12782230211E+02  0.12782230211E+02  0.00000000000E+00 0.  1.
         25    2    1    2    0    0  0.58703933354E+02  0.11036751514E+02  0.91467626530E+03  0.92511973830E+03  0.12508356488E+03 0.  0.
          5    1    3    3  502    0 -0.31278468852E+02  0.31948094190E+02  0.24394581492E+03  0.24804446447E+03  0.41800000000E+01 0.  1.
         -5    1    3    3    0  502  0.89982402206E+02 -0.20911342677E+02  0.67073045038E+03  0.67707527382E+03  0.41800000000E+01 0.  1.
        -11    1    1    2    0    0 -0.82399367864E+02 -0.15288490633E+02  0.27763954585E+03  0.29001226041E+03  0.00000000000E+00 0.  1.
         11    1    1    2    0    0  0.23695434510E+02  0.42517391196E+01  0.10406497579E+03  0.10681324866E+03  0.00000000000E+00 0. -1.
</event>
<event>
 7    1  0.2714042E-009  0.9419662E+02  0.7561462E-02  0.1292996E+00
         -1   -1    0    0    0  501 -0.00000000000E+00  0.00000000000E+00  0.28906168359E+03  0.28906168359E+03  0.00000000000E+00 0.  1.
          1   -1    0    0  501    0  0.00000000000E+00 -0.00000000000E+00 -0.77262228354E+02  0.77262228354E+02  0.00000000000E+00 0. -1.
         25    2    1    2    0    0 -0.42930636174E+02 -0.37725353355E+02  0.21744076314E+03  0.25728590609E+03  0.12509720298E+03 0.  0.
          5    1    3    3  502    0  0.15432915863E+02 -0.28295712140E+02  0.61576909199E+00  0.32506519179E+02  0.41800000000E+01 0. -1.
         -5    1    3    3    0  502 -0.58363552036E+02 -0.94296412143E+01  0.21682499404E+03  0.22477938691E+03  0.41800000000E+01 0. -1.
        -11    1    1    2    0    0  0.64532486270E+02  0.17105109887E+02  0.19983314815E+02  0.69687584543E+02  0.00000000000E+00 0.  1.
         11    1    1    2    0    0 -0.21601850096E+02  0.20620243467E+02 -0.25624622712E+02  0.39350421311E+02  0.00000000000E+00 0. -1.
</event>
<event>
 7    1  0.2714042E-009  0.1641094E+03  0.7561462E-02  0.1184134E+00
          1   -1    0    0  501    0  0.00000000000E+00  0.00000000000E+00  0.36397292744E+02  0.36397292744E+02  0.00000000000E+00 0. -1.
         -1   -1    0    0    0  501 -0.00000000000E+00 -0.00000000000E+00 -0.94001867751E+03  0.94001867751E+03  0.00000000000E+00 0.  1.
         25    2    1    2    0    0  0.23352729579E+02 -0.13688126215E+03 -0.62269956001E+03  0.65014203570E+03  0.12509234447E+03 0.  0.
          5    1    3    3  502    0  0.31013303936E+02  0.14686558043E+02 -0.13520468932E+03  0.13955393374E+03  0.41800000000E+01 0. -1.
         -5    1    3    3    0  502 -0.76605743569E+01 -0.15156782019E+03 -0.48749487069E+03  0.51058810196E+03  0.41800000000E+01 0. -1.
        -11    1    1    2    0    0 -0.23261608955E+02  0.52181072869E+02 -0.20402984224E+03  0.21187766126E+03  0.00000000000E+00 0.  1.
         11    1    1    2    0    0 -0.91120624089E-01  0.84700189281E+02 -0.76891982519E+02  0.11439627329E+03  0.00000000000E+00 0. -1.
</event>
<event>
 7    1  0.2714042E-009  0.1423612E+03  0.7561462E-02  0.1210187E+00
         -2   -1    0    0    0  501 -0.00000000000E+00  0.00000000000E+00  0.72646180660E+02  0.72646180660E+02  0.00000000000E+00 0.  1.
          2   -1    0    0  501    0  0.00000000000E+00 -0.00000000000E+00 -0.43454340331E+03  0.43454340331E+03  0.00000000000E+00 0. -1.
         25    2    1    2    0    0 -0.10694793048E+03  0.67702211006E+02 -0.27816032355E+03  0.33021460248E+03  0.12508824438E+03 0.  0.
          5    1    3    3  502    0 -0.97793984563E+02  0.52029923090E+02 -0.94654369840E+02  0.14576590288E+03  0.41800000000E+01 0.  1.
         -5    1    3    3    0  502 -0.91539459195E+01  0.15672287916E+02 -0.18350595371E+03  0.18444869960E+03  0.41800000000E+01 0.  1.
        -11    1    1    2    0    0  0.99941820298E+02 -0.13800678854E+02 -0.46513930464E+02  0.11109622815E+03  0.00000000000E+00 0. -1.
         11    1    1    2    0    0  0.70061101842E+01 -0.53901532152E+02 -0.37222968632E+02  0.65878753343E+02  0.00000000000E+00 0.  1.
</event>
<event>
 7    1  0.2714042E-009  0.1496794E+03  0.7561462E-02  0.1200867E+00
          2   -1    0    0  501    0  0.00000000000E+00  0.00000000000E+00  0.48764389693E+03  0.48764389693E+03  0.00000000000E+00 0. -1.
         -2   -1    0    0    0  501 -0.00000000000E+00 -0.00000000000E+00 -0.50874251144E+02  0.50874251144E+02  0.00000000000E+00 0.  1.
         25    2    1    2    0    0 -0.79886250693E+02  0.76874182552E+02  0.26354972935E+03  0.31208539427E+03  0.12508948990E+03 0.  0.
          5    1    3    3  502    0  0.32689526018E+02  0.98509604679E+01  0.38367816273E+02  0.51528712957E+02  0.41800000000E+01 0. -1.
         -5    1    3    3    0  502 -0.11257577671E+03  0.67023222084E+02  0.22518191308E+03  0.26055668131E+03  0.41800000000E+01 0. -1.
        -11    1    1    2    0    0  0.52166642530E+01 -0.56142956892E+02  0.30684849766E+02  0.64193498111E+02  0.00000000000E+00 0.  1.
         11    1    1    2    0    0  0.74669586440E+02 -0.20731225660E+02  0.14253506667E+03  0.16223925569E+03  0.00000000000E+00 0. -1.
</event>
<event>
 7    1  0.2714042E-009  0.8464256E+02  0.7561462E-02  0.1316370E+00
          2   -1    0    0  501    0  0.00000000000E+00  0.00000000000E+00  0.16427008703E+03  0.16427008703E+03  0.00000000000E+00 0.  1.
         -2   -1    0    0    0  501 -0.00000000000E+00 -0.00000000000E+00 -0.87418559100E+02  0.87418559100E+02  0.00000000000E+00 0. -1.
         25    2    1    2    0    0  0.61083873703E+01  0.48011898360E+02  0.43900310671E+02  0.14112952392E+03  0.12509136847E+03 0.  0.
          5    1    3    3  502    0  0.54114830806E+02  0.20959517220E+01  0.50598106548E+02  0.74232396654E+02  0.41800000000E+01 0.  1.
         -5    1    3    3    0  502 -0.48006443436E+02  0.45915946638E+02 -0.66977958764E+01  0.66897127267E+02  0.41800000000E+01 0.  1.
        -11    1    1    2    0    0 -0.40140147569E+01 -0.34806485567E+02  0.66101976893E+02  0.74813602380E+02  0.00000000000E+00 0.  1.
         11    1    1    2    0    0 -0.20943726134E+01 -0.13205412793E+02 -0.33150759633E+02  0.35745519830E+02  0.00000000000E+00 0. -1.
</event>
<event>
 7    1  0.2714042E-009  0.9481453E+02  0.7561462E-02  0.1291594E+00
          1   -1    0    0  501    0  0.00000000000E+00  0.00000000000E+00  0.24186488982E+03  0.24186488982E+03  0.00000000000E+00 0. -1.
         -1   -1    0    0    0  501 -0.00000000000E+00 -0.00000000000E+00 -0.97120452142E+02  0.97120452142E+02  0.00000000000E+00 0.  1.
         25    2    1    2    0    0 -0.48664156180E+01 -0.45240839029E+02 -0.29717074971E+02  0.13638520654E+03  0.12508958590E+03 0.  0.
          5    1    3    3  502    0  0.45929113911E+02 -0.21280392051E+02  0.26089073237E+02  0.57100356679E+02  0.41800000000E+01 0.  1.
         -5    1    3    3    0  502 -0.50795529529E+02 -0.23960446978E+02 -0.55806148207E+02  0.79284849860E+02  0.41800000000E+01 0.  1.
        -11    1    1    2    0    0 -0.31264019557E+02  0.29920629592E+02  0.29382398440E+02  0.52306866969E+02  0.00000000000E+00 0.  1.
         11    1    1    2    0    0  0.36130435175E+02  0.15320209436E+02  0.14507911421E+03  0.15029326846E+03  0.00000000000E+00 0. -1.
</event>
<event>
 7    1  0.2714042E-009  0.7128327E+02  0.7561462E-02  0.1355783E+00
         -1   -1    0    0    0  501 -0.00000000000E+00  0.00000000000E+00  0.22341380748E+02  0.22341380748E+02  0.00000000000E+00 0.  1.
          1   -1    0    0  501    0  0.00000000000E+00 -0.00000000000E+00 -0.60265344527E+03  0.60265344527E+03  0.00000000000E+00 0. -1.
         25    2    1    2    0    0 -0.40500297727E+02  0.14257019236E+02 -0.36977359836E+03  0.39271534655E+03  0.12509713290E+03 0.  0.
          5    1    3    3  502    0 -0.14027752110E+01 -0.16826345432E+02 -0.32512620568E+03  0.32559117878E+03  0.41800000000E+01 0.  1.
         -5    1    3    3    0  502 -0.39097522516E+02  0.31083364668E+02 -0.44647392682E+02  0.67124167773E+02  0.41800000000E+01 0.  1.
        -11    1    1    2    0    0  0.11263735961E+02  0.24228260326E+02 -0.16050936086E+03  0.16271796234E+03  0.00000000000E+00 0.  1.
         11    1    1    2    0    0  0.29236561766E+02 -0.38485279562E+02 -0.50029105303E+02  0.69561517122E+02  0.00000000000E+00 0. -1.
</event>
<event>
 7    1  0.2714042E-009  0.2201995E+03  0.7561462E-02  0.1133734E+00
          2   -1    0    0  501    0  0.00000000000E+00  0.00000000000E+00  0.10565045572E+04  0.10565045572E+04  0.00000000000E+00 0. -1.
         -2   -1    0    0    0  501 -0.00000000000E+00 -0.00000000000E+00 -0.71027683142E+02  0.71027683142E+02  0.00000000000E+00 0.  1.
         25    2    1    2    0    0  0.17501689803E+03  0.94370699085E+02  0.18856426499E+03  0.30123307820E+03  0.12509253347E+03 0.  0.
          5    1    3    3  502    0 -0.13091771818E+02 -0.12411664225E+02  0.16618955981E+02  0.24881840689E+02  0.41800000000E+01 0.  1.
         -5    1    3    3    0  502  0.18810866984E+03  0.10678236331E+03  0.17194530900E+03  0.27635123751E+03  0.41800000000E+01 0.  1.
        -11    1    1    2    0    0 -0.99003968593E+02 -0.23821095787E+02  0.25551925865E+03  0.27506239645E+03  0.00000000000E+00 0.  1.
         11    1    1    2    0    0 -0.76012929433E+02 -0.70549603298E+02  0.54139335047E+03  0.55123676573E+03  0.00000000000E+00 0. -1.
</event>
<event>
 7    1  0.2714042E-009  0.1460294E+03  0.7561462E-02  0.1205439E+00
          3   -1    0    0  501    0  0.00000000000E+00  0.00000000000E+00  0.43328861139E+02  0.43328861139E+02  0.00000000000E+00 0. -1.
         -3   -1    0    0    0  501 -0.00000000000E+00 -0.00000000000E+00 -0.58401749465E+03  0.58401749465E+03  0.00000000000E+00 0.  1.
         25    2    1    2    0    0  0.16854642687E+02 -0.11331647081E+03 -0.25351457678E+03  0.30503426093E+03  0.12510618757E+03 0.  0.
          5    1    3    3  502    0  0.53453596402E+02 -0.42469456839E+02 -0.45317449729E+02  0.82049286300E+02  0.41800000000E+01 0. -1.
         -5    1    3    3    0  502 -0.36598953715E+02 -0.70847013968E+02 -0.20819712705E+03  0.22298497463E+03  0.41800000000E+01 0. -1.
        -11    1    1    2    0    0  0.20934881905E+02 -0.33258311871E+01 -0.67333916733E+02  0.70591690560E+02  0.00000000000E+00 0. -1.
         11    1    1    2    0    0 -0.37789524592E+02  0.11664230199E+03 -0.21984014000E+03  0.25172040430E+03  0.00000000000E+00 0.  1.
</event>
<event>
 7    1  0.2714042E-009  0.2377879E+03  0.7561462E-02  0.1121275E+00
         -1   -1    0    0    0  501 -0.00000000000E+00  0.00000000000E+00  0.15683205150E+03  0.15683205150E+03  0.00000000000E+00 0.  1.
          1   -1    0    0  501    0  0.00000000000E+00 -0.00000000000E+00 -0.38204579276E+03  0.38204579276E+03  0.00000000000E+00 0. -1.
         25    2    1    2    0    0  0.14393837916E+03 -0.15935342501E+03 -0.16309636281E+03  0.29725465482E+03  0.12509250655E+03 0.  0.
          5    1    3    3  502    0  0.70705098437E+02 -0.47930176733E+01 -0.80327567988E+02  0.10720156035E+03  0.41800000000E+01 0. -1.
         -5    1    3    3    0  502  0.73233280719E+02 -0.15456040734E+03 -0.82768794820E+02  0.19005309447E+03  0.41800000000E+01 0. -1.
        -11    1    1    2    0    0 -0.82099412836E+02  0.14994723500E+03 -0.45557553750E+02  0.17691799675E+03  0.00000000000E+00 0.  1.
         11    1    1    2    0    0 -0.61838966319E+02  0.94061900138E+01 -0.16559824707E+02  0.64705192685E+02  0.00000000000E+00 0. -1.
</event>
<event>
 7    1  0.2714042E-009  0.1206295E+03  0.7561462E-02  0.1242062E+00
         -1   -1    0    0    0  501 -0.00000000000E+00  0.00000000000E+00  0.33800274652E+03  0.33800274652E+03  0.00000000000E+00 0.  1.
          1   -1    0    0  501    0  0.00000000000E+00 -0.00000000000E+00 -0.48062845236E+02  0.48062845236E+02  0.00000000000E+00 0. -1.
         25    2    1    2    0    0 -0.49446299363E+02 -0.39252390575E+02  0.14477945409E+03  0.20148007681E+03  0.12508974514E+03 0.  0.
          5    1    3    3  502    0 -0.89570293981E+02 -0.29754590497E+02  0.12162181193E+03  0.15400490498E+03  0.41800000000E+01 0.  1.
         -5    1    3    3    0  502  0.40123994617E+02 -0.94978000788E+01  0.23157642159E+02  0.47475171835E+02  0.41800000000E+01 0.  1.
        -11    1    1    2    0    0  0.54481401540E+02 -0.10372112088E+02  0.11113939325E+03  0.12420856877E+03  0.00000000000E+00 0.  1.
         11    1    1    2    0    0 -0.50351021762E+01  0.49624502664E+02  0.34021053947E+02  0.60376946182E+02  0.00000000000E+00 0. -1.
</event>
<event>
 7    1  0.2714042E-009  0.1228750E+03  0.7561462E-02  0.1238428E+00
         -2   -1    0    0    0  501 -0.00000000000E+00  0.00000000000E+00  0.12721468916E+03  0.12721468916E+03  0.00000000000E+00 0.  1.
          2   -1    0    0  501    0  0.00000000000E+00 -0.00000000000E+00 -0.15458828439E+03  0.15458828439E+03  0.00000000000E+00 0. -1.
         25    2    1    2    0    0  0.86145349938E+01 -0.88502993136E+02 -0.41207539298E+01  0.15353285187E+03  0.12509342901E+03 0.  0.
          5    1    3    3  502    0 -0.24403246336E+02  0.21745644319E+02 -0.17981341502E+02  0.37539213108E+02  0.41800000000E+01 0.  1.
         -5    1    3    3    0  502  0.33017781330E+02 -0.11024863745E+03  0.13860587573E+02  0.11599363876E+03  0.41800000000E+01 0.  1.
        -11    1    1    2    0    0  0.16165450074E+02  0.29482133981E+02 -0.48872726455E+02  0.59321677246E+02  0.00000000000E+00 0. -1.
         11    1    1    2    0    0 -0.24779985068E+02  0.59020859155E+02  0.25619885150E+02  0.68948444438E+02  0.00000000000E+00 0.  1.
</event>
<event>
 7    1  0.2714042E-009  0.1007185E+03  0.7561462E-02  0.1278792E+00
          1   -1    0    0  501    0  0.00000000000E+00  0.00000000000E+00  0.46298034839E+03  0.46298034839E+03  0.00000000000E+00 0. -1.
         -1   -1    0    0    0  501 -0.00000000000E+00 -0.00000000000E+00 -0.29857659061E+02  0.29857659061E+02  0.00000000000E+00 0.  1.
         25    2    1    2    0    0 -0.15974145640E+02 -0.17115816027E+02  0.33530135694E+03  0.35863927158E+03  0.12508797968E+03 0.  0.
          5    1    3    3  502    0  0.48745609669E+02  0.53918759430E+01  0.77133269707E+02  0.91499838710E+02  0.41800000000E+01 0.  1.
         -5    1    3    3    0  502 -0.64719755309E+02 -0.22507691970E+02  0.25816808724E+03  0.26713943287E+03  0.41800000000E+01 0.  1.
        -11    1    1    2    0    0 -0.32779874592E+02  0.36165676238E+01  0.13023096350E+02  0.35457027205E+02  0.00000000000E+00 0.  1.
         11    1    1    2    0    0  0.48754020232E+02  0.13499248403E+02  0.84798236031E+02  0.98741708665E+02  0.00000000000E+00 0. -1.
</event>
<event>
 7    1  0.2714042E-009  0.3311790E+03  0.7561462E-02  0.1070616E+00
         -1   -1    0    0    0  501 -0.00000000000E+00  0.00000000000E+00  0.10955047220E+03  0.10955047220E+03  0.00000000000E+00 0.  1.
          1   -1    0    0  501    0  0.00000000000E+00 -0.00000000000E+00 -0.10915910071E+04  0.10915910071E+04  0.00000000000E+00 0. -1.
         25    2    1    2    0    0  0.30718547863E+03  0.11156613800E+03 -0.44392379502E+03  0.56526339112E+03  0.12507775230E+03 0.  0.
          5    1    3    3  502    0  0.75397833762E+02  0.34448170107E+02 -0.37544625565E+02  0.91096548061E+02  0.41800000000E+01 0. -1.
         -5    1    3    3    0  502  0.23178764487E+03  0.77117967892E+02 -0.40637916946E+03  0.47416684305E+03  0.41800000000E+01 0. -1.
        -11    1    1    2    0    0 -0.24603088680E+03 -0.55800219252E+02 -0.36143039916E+03  0.44076841444E+03  0.00000000000E+00 0. -1.
         11    1    1    2    0    0 -0.61154591829E+02 -0.55765918746E+02 -0.17668634068E+03  0.19510967372E+03  0.00000000000E+00 0.  1.
</event>
<event>
 7    1  0.2714042E-009  0.8023372E+02  0.7561462E-02  0.1328389E+00
         -3   -1    0    0    0  501 -0.00000000000E+00  0.00000000000E+00  0.68981957046E+02  0.68981957046E+02  0.00000000000E+00 0.  1.
          3   -1    0    0  501    0  0.00000000000E+00 -0.00000000000E+00 -0.19630295973E+03  0.19630295973E+03  0.00000000000E+00 0. -1.
         25    2    1    2    0    0  0.35756482713E+02  0.54332262922E+00 -0.97845451362E+02  0.16278854112E+03  0.12509018951E+03 0.  0.
          5    1    3    3  502    0  0.48303568415E+02 -0.81401536521E+01 -0.12334391235E+03  0.13278060829E+03  0.41800000000E+01 0. -1.
         -5    1    3    3    0  502 -0.12547085702E+02  0.86834762813E+01  0.25498460991E+02  0.30007932832E+02  0.41800000000E+01 0. -1.
        -11    1    1    2    0    0 -0.46180641641E+02 -0.35982084414E+02 -0.62847020253E+01  0.58880043654E+02  0.00000000000E+00 0.  1.
         11    1    1    2    0    0  0.10424158928E+02  0.35438761785E+02 -0.23190849300E+02  0.43616332003E+02  0.00000000000E+00 0. -1.
</event>
<event>
 7    1  0.3438845E-009  0.9934030E+02  0.7561462E-02  0.1281689E+00
          1   -1    0    0  501    0  0.00000000000E+00  0.00000000000E+00  0.73765845918E+03  0.73765845918E+03  0.00000000000E+00 0.  1.
         -1   -1    0    0    0  501 -0.00000000000E+00 -0.00000000000E+00 -0.34902383905E+02  0.34902383905E+02  0.00000000000E+00 0. -1.
         25    2    1    2    0    0 -0.29927242014E+02 -0.51603465970E+02  0.62199409814E+03  0.63724623677E+03  0.12509017007E+03 0.  0.
          5    1    3    3  502    0 -0.39429880359E+02  0.20544105833E+02  0.92025481417E+02  0.10228850072E+03  0.41800000000E+01 0. -1.
         -5    1    3    3    0  502  0.95026383451E+01 -0.72147571803E+02  0.52996861672E+03  0.53495773605E+03  0.41800000000E+01 0. -1.
        -11    1    1    2    0    0  0.23242742322E+02  0.63426526464E+02  0.94391744438E+02  0.11607304057E+03  0.00000000000E+00 0.  1.
         11    1    1    2    0    0  0.66844996920E+01 -0.11823060494E+02 -0.13629767298E+02  0.19241565741E+02  0.00000000000E+00 0. -1.
</event>
<event>
 7    1  0.2714042E-009  0.1191965E+03  0.7561462E-02  0.1244428E+00
          1   -1    0    0  501    0  0.00000000000E+00  0.00000000000E+00  0.77841357834E+02  0.77841357834E+02  0.00000000000E+00 0. -1.
         -1   -1    0    0    0  501 -0.00000000000E+00 -0.00000000000E+00 -0.22844630472E+03  0.22844630472E+03  0.00000000000E+00 0.  1.
         25    2    1    2    0    0 -0.28365853818E+02 -0.68633684111E+02 -0.60973565137E+02  0.15773634696E+03  0.12509106782E+03 0.  0.
          5    1    3    3  502    0  0.11296122161E+02  0.33007486444E+02 -0.23621980327E+02  0.42338716228E+02  0.41800000000E+01 0.  1.
         -5    1    3    3    0  502 -0.39661975979E+02 -0.10164117055E+03 -0.37351584810E+02  0.11539763073E+03  0.41800000000E+01 0.  1.
        -11    1    1    2    0    0  0.36382441226E+02  0.14208178387E+02 -0.84756273946E+02  0.93322989321E+02  0.00000000000E+00 0.  1.
         11    1    1    2    0    0 -0.80165874076E+01  0.54425505724E+02 -0.48751078018E+01  0.55228326274E+02  0.00000000000E+00 0. -1.
</event>
<event>
 7    1  0.2714042E-009  0.7430454E+02  0.7561462E-02  0.1346038E+00
          1   -1    0    0  501    0  0.00000000000E+00  0.00000000000E+00  0.14226202145E+03  0.14226202145E+03  0.00000000000E+00 0. -1.
         -1   -1    0    0    0  501 -0.00000000000E+00 -0.00000000000E+00 -0.91426743920E+02  0.91426743920E+02  0.00000000000E+00 0.  1.
         25    2    1    2    0    0  0.70060719940E+01  0.23081283322E+02  0.45690248193E+01  0.12747384863E+03  0.12508747105E+03 0.  0.
          5    1    3    3  502    0  0.49958030006E+02 -0.25266708084E+01  0.41530998570E+02  0.65149712737E+02  0.41800000000E+01 0. -1.
         -5    1    3    3    0  502 -0.42951958012E+02  0.25607954131E+02 -0.36961973751E+02  0.62324135897E+02  0.41800000000E+01 0. -1.
        -11    1    1    2    0    0 -0.21195577653E+02 -0.26203881054E+02  0.70396372853E+02  0.78048351713E+02  0.00000000000E+00 0. -1.
         11    1    1    2    0    0  0.14189505659E+02  0.31225977322E+01 -0.24130120139E+02  0.28166565026E+02  0.00000000000E+00 0.  1.
</event>
<event>
 7    1  0.2714042E-009  0.1261894E+03  0.7561462E-02  0.1233222E+00
         -1   -1    0    0    0  501 -0.00000000000E+00  0.00000000000E+00  0.46142538662E+02  0.46142538662E+02  0.00000000000E+00 0.  1.
          1   -1    0    0  501    0  0.00000000000E+00 -0.00000000000E+00 -0.40925953333E+03  0.40925953333E+03  0.00000000000E+00 0. -1.
         25    2    1    2    0    0  0.65090683415E+01  0.71281073567E+02 -0.26977793178E+03  0.30585620146E+03  0.12507807193E+03 0.  0.
          5    1    3    3  502    0  0.63921537784E+02  0.42925043581E+02 -0.17680452036E+03  0.19288813644E+03  0.41800000000E+01 0.  1.
         -5    1    3    3    0  502 -0.57412469442E+02  0.28356029986E+02 -0.92973411418E+02  0.11296806502E+03  0.41800000000E+01 0.  1.
        -11    1    1    2    0    0  0.27064109375E+02 -0.72619863369E+02 -0.41886724884E+02  0.88094314763E+02  0.00000000000E+00 0. -1.
         11    1    1    2    0    0 -0.33573177716E+02  0.13387898021E+01 -0.51452338005E+02  0.61451555768E+02  0.00000000000E+00 0.  1.
</event>
<event>
 7    1  0.2714042E-009  0.2064852E+03  0.7561462E-02  0.1144380E+00
         -1   -1    0    0    0  501 -0.00000000000E+00  0.00000000000E+00  0.34048679202E+03  0.34048679202E+03  0.00000000000E+00 0.  1.
          1   -1    0    0  501    0  0.00000000000E+00 -0.00000000000E+00 -0.12812315005E+03  0.12812315005E+03  0.00000000000E+00 0. -1.
         25    2    1    2    0    0 -0.92970881098E+02  0.15165690084E+03  0.11957762248E+03  0.24817203991E+03  0.12508858178E+03 0.  0.
          5    1    3    3  502    0 -0.17959756555E+02  0.13573514239E+03  0.54195124270E+02  0.14731315498E+03  0.41800000000E+01 0.  1.
         -5    1    3    3    0  502 -0.75011124542E+02  0.15921758451E+02  0.65382498212E+02  0.10085888493E+03  0.41800000000E+01 0.  1.
        -11    1    1    2    0    0  0.53064431241E+01 -0.94260181187E+02  0.34365078880E+02  0.10046939207E+03  0.00000000000E+00 0. -1.
         11    1    1    2    0    0  0.87664437974E+02 -0.57396719657E+02  0.58420940607E+02  0.11996851009E+03  0.00000000000E+00 0.  1.
</event>
<event>
 7    1  0.2714042E-009  0.1224091E+03  0.7561462E-02  0.1239175E+00
          2   -1    0    0  501    0  0.00000000000E+00  0.00000000000E+00  0.16473159241E+03  0.16473159241E+03  0.00000000000E+00 0. -1.
         -2   -1    0    0    0  501 -0.00000000000E+00 -0.00000000000E+00 -0.11902406248E+03  0.11902406248E+03  0.00000000000E+00 0.  1.
         25    2    1    2    0    0  0.76066720862E+02  0.46860810025E+02  0.18266911153E+02  0.15479768562E+03  0.12508621783E+03 0.  0.
          5    1    3    3  502    0  0.95236328581E+02  0.55968327629E+02  0.45909441174E+02  0.11969779099E+03  0.41800000000E+01 0.  1.
         -5    1    3    3    0  502 -0.19169607719E+02 -0.91075176038E+01 -0.27642530022E+02  0.35099894629E+02  0.41800000000E+01 0.  1.
        -11    1    1    2    0    0 -0.72611294497E+00 -0.36600427706E+02 -0.17562092912E+02  0.40602286336E+02  0.00000000000E+00 0.  1.
         11    1    1    2    0    0 -0.75340607917E+02 -0.10260382318E+02  0.45002711694E+02  0.88355682932E+02  0.00000000000E+00 0. -1.
</event>
<event>
 7    1  0.2831391E-009  0.1338878E+03  0.7561462E-02  0.1221798E+00
          1   -1    0    0  501    0  0.00000000000E+00  0.00000000000E+00  0.45690847334E+03  0.45690847334E+03  0.00000000000E+00 0. -1.
         -1   -1    0    0    0  501 -0.00000000000E+00 -0.00000000000E+00 -0.49956224076E+02  0.49956224076E+02  0.00000000000E+00 0.  1.
         25    2    1    2    0    0  0.48996084652E+02  0.92144308719E+02  0.22835847195E+03  0.28051163528E+03  0.12509194967E+03 0.  0.
          5    1    3    3  502    0  0.46020213522E+01  0.10581752297E+03  0.10752204848E+03  0.15098672152E+03  0.41800000000E+01 0. -1.
         -5    1    3    3    0  502  0.44394063300E+02 -0.13673214250E+02  0.12083642347E+03  0.12952491375E+03  0.41800000000E+01 0. -1.
        -11    1    1    2    0    0 -0.55033627311E+02 -0.56090661575E+02  0.51128807981E+02  0.93749759768E+02  0.00000000000E+00 0.  1.
         11    1    1    2    0    0  0.60375426584E+01 -0.36053647144E+02  0.12746496933E+03  0.13260330237E+03  0.00000000000E+00 0. -1.
</event>
<event>
 7    1  0.2714042E-009  0.2118818E+03  0.7561462E-02  0.1140084E+00
          2   -1    0    0  501    0  0.00000000000E+00  0.00000000000E+00  0.46116815638E+03  0.46116815638E+03  0.00000000000E+00 0. -1.
         -2   -1    0    0    0  501 -0.00000000000E+00 -0.00000000000E+00 -0.13017442165E+03  0.13017442165E+03  0.00000000000E+00 0.  1.
         25    2    1    2    0    0  0.18789138311E+03 -0.75472760239E+02  0.27318065232E+03  0.36231941822E+03  0.12509349554E+03 0.  0.
          5    1    3    3  502    0  0.11049034930E+03 -0.85200321619E+02  0.23957960452E+03  0.27727796774E+03  0.41800000000E+01 0. -1.
         -5    1    3    3    0  502  0.77401033814E+02  0.97275613810E+01  0.33601047806E+02  0.85041450479E+02  0.41800000000E+01 0. -1.
        -11    1    1    2    0    0 -0.14917902451E+02 -0.43668313971E+01  0.33547586516E+02  0.36973687820E+02  0.00000000000E+00 0.  1.
         11    1    1    2    0    0 -0.17297348066E+03  0.79839591636E+02  0.24265495889E+02  0.19204947200E+03  0.00000000000E+00 0. -1.
</event>
<event>
 7    1  0.2714042E-009  0.9981560E+02  0.7561462E-02  0.1280684E+00
          2   -1    0    0  501    0  0.00000000000E+00  0.00000000000E+00  0.29441265715E+03  0.29441265715E+03  0.00000000000E+00 0. -1.
         -2   -1    0    0    0  501 -0.00000000000E+00 -0.00000000000E+00 -0.58578621959E+02  0.58578621959E+02  0.00000000000E+00 0.  1.
         25    2    1    2    0    0  0.58751881511E+02  0.15733395749E+02  0.17855634933E+03  0.22634402524E+03  0.12509965849E+03 0.  0.
          5    1    3    3  502    0  0.40514754364E+02  0.69287693551E+02  0.85387518785E+02  0.11726350909E+03  0.41800000000E+01 0. -1.
         -5    1    3    3    0  502  0.18237127146E+02 -0.53554297802E+02  0.93168830545E+02  0.10908051616E+03  0.41800000000E+01 0. -1.
        -11    1    1    2    0    0 -0.10058464351E+02 -0.87636292934E+01 -0.26401789639E+02  0.29580878953E+02  0.00000000000E+00 0.  1.
         11    1    1    2    0    0 -0.48693417160E+02 -0.69697664553E+01  0.83679475499E+02  0.97066374914E+02  0.00000000000E+00 0. -1.
</event>
<event>
 7    1  0.2714042E-009  0.8490896E+02  0.7561462E-02  0.1315671E+00
         -2   -1    0    0    0  501 -0.00000000000E+00  0.00000000000E+00  0.11885161390E+02  0.11885161390E+02  0.00000000000E+00 0.  1.
          2   -1    0    0  501    0  0.00000000000E+00 -0.00000000000E+00 -0.12502854370E+04  0.12502854370E+04  0.00000000000E+00 0. -1.
         25    2    1    2    0    0  0.37988590661E+02  0.19625739372E+02 -0.86155016635E+03  0.87163374590E+03  0.12509354572E+03 0.  0.
          5    1    3    3  502    0  0.35004411816E+02 -0.11506192145E+02 -0.67981842242E+02  0.77438392151E+02  0.41800000000E+01 0. -1.
         -5    1    3    3    0  502  0.29841788459E+01  0.31131931517E+02 -0.79356832411E+03  0.79419535375E+03  0.41800000000E+01 0. -1.
        -11    1    1    2    0    0  0.70325462383E+01 -0.47640071644E+02 -0.21058348129E+03  0.21601952626E+03  0.00000000000E+00 0. -1.
         11    1    1    2    0    0 -0.45021136900E+02  0.28014332272E+02 -0.16626662800E+03  0.17451732627E+03  0.00000000000E+00 0.  1.
</event>
<event>
 7    1  0.2714042E-009  0.1243334E+03  0.7561462E-02  0.1236115E+00
          2   -1    0    0  501    0  0.00000000000E+00  0.00000000000E+00  0.59181138295E+03  0.59181138295E+03  0.00000000000E+00 0.  1.
         -2   -1    0    0    0  501 -0.00000000000E+00 -0.00000000000E+00 -0.33466103277E+02  0.33466103277E+02  0.00000000000E+00 0. -1.
         25    2    1    2    0    0  0.25423080350E+02  0.26456502812E+02  0.41094607900E+03  0.43112641197E+03  0.12508806380E+03 0.  0.
          5    1    3    3  502    0  0.38192543672E+02 -0.43204690692E+02  0.21849447673E+03  0.22601465540E+03  0.41800000000E+01 0. -1.
         -5    1    3    3    0  502 -0.12769463322E+02  0.69661193504E+02  0.19245160226E+03  0.20511175658E+03  0.41800000000E+01 0. -1.
        -11    1    1    2    0    0 -0.39913667379E+02 -0.66367261118E+02  0.12250448239E+03  0.14493123334E+03  0.00000000000E+00 0.  1.
         11    1    1    2    0    0  0.14490587028E+02  0.39910758306E+02  0.24894718294E+02  0.49219840918E+02  0.00000000000E+00 0. -1.
</event>
<event>
 7    1  0.2714042E-009  0.2353875E+03  0.7561462E-02  0.1122904E+00
          1   -1    0    0  501    0  0.00000000000E+00  0.00000000000E+00  0.41663454602E+03  0.41663454602E+03  0.00000000000E+00 0. -1.
         -1   -1    0    0    0  501 -0.00000000000E+00 -0.00000000000E+00 -0.16495453551E+03  0.16495453551E+03  0.00000000000E+00 0.  1.
         25    2    1    2    0    0  0.16573304528E+03  0.15351171757E+03  0.44857480431E+02  0.26209413789E+03  0.12509138194E+03 0.  0.
          5    1    3    3  502    0  0.33636600137E+02  0.19515712110E+02  0.61788509714E+02  0.73127123700E+02  0.41800000000E+01 0. -1.
         -5    1    3    3    0  502  0.13209644515E+03  0.13399600546E+03 -0.16931029283E+02  0.18896701419E+03  0.41800000000E+01 0. -1.
        -11    1    1    2    0    0 -0.15421248752E+03 -0.89265233222E+02  0.14812826257E+03  0.23171481468E+03  0.00000000000E+00 0.  1.
         11    1    1    2    0    0 -0.11520557764E+02 -0.64246484352E+02  0.58694267508E+02  0.87780128965E+02  0.00000000000E+00 0. -1.
</event>
<event>
 7    1  0.2714042E-009  0.1573460E+03  0.7561462E-02  0.1191726E+00
         -3   -1    0    0    0  501 -0.00000000000E+00  0.00000000000E+00  0.53668247140E+03  0.53668247140E+03  0.00000000000E+00 0.  1.
          3   -1    0    0  501    0  0.00000000000E+00 -0.00000000000E+00 -0.56216155758E+02  0.56216155758E+02  0.00000000000E+00 0. -1.
         25    2    1    2    0    0  0.11954635843E+03  0.12036935898E+02  0.36108099485E+03  0.40057935949E+03  0.12509244087E+03 0.  0.
          5    1    3    3  502    0  0.14075213994E+03  0.15152833828E+01  0.34209938631E+03  0.36994989322E+03  0.41800000000E+01 0.  1.
         -5    1    3    3    0  502 -0.21205781502E+02  0.10521652515E+02  0.18981608538E+02  0.30629466261E+02  0.41800000000E+01 0.  1.
        -11    1    1    2    0    0 -0.43235552075E+01 -0.32516179451E+02  0.35479618083E+02  0.48319751190E+02  0.00000000000E+00 0. -1.
         11    1    1    2    0    0 -0.11522280323E+03  0.20479243554E+02  0.83905702703E+02  0.14399951648E+03  0.00000000000E+00 0.  1.
</event>
<event>
 7    1  0.2714042E-009  0.1421336E+03  0.7561462E-02  0.1210487E+00
         -1   -1    0    0    0  501 -0.00000000000E+00  0.00000000000E+00  0.35556746680E+02  0.35556746680E+02  0.00000000000E+00 0.  1.
          1   -1    0    0  501    0  0.00000000000E+00 -0.00000000000E+00 -0.67385527009E+03  0.67385527009E+03  0.00000000000E+00 0. -1.
         25    2    1    2    0    0 -0.10607670905E+02 -0.11013439024E+03 -0.33025677740E+03  0.37008070164E+03  0.12509228636E+03 0.  0.
          5    1    3    3  502    0 -0.21232157004E+02 -0.12623048126E+03 -0.32548837480E+03  0.34977863489E+03  0.41800000000E+01 0. -1.
         -5    1    3    3    0  502  0.10624486100E+02  0.16096091018E+02 -0.47684025990E+01  0.20302066749E+02  0.41800000000E+01 0. -1.
        -11    1    1    2    0    0 -0.31269886884E+02  0.76847455214E+02 -0.13745056174E+03  0.16054903962E+03  0.00000000000E+00 0.  1.
         11    1    1    2    0    0  0.41877557789E+02  0.33286935029E+02 -0.17059118426E+03  0.17878227551E+03  0.00000000000E+00 0. -1.
</event>
<event>
 7    1  0.2714042E-009  0.2088689E+03  0.7561462E-02  0.1142465E+00
         -4   -1    0    0    0  501 -0.00000000000E+00  0.00000000000E+00  0.33545100541E+02  0.33545100541E+02  0.00000000000E+00 0.  1.
          4   -1    0    0  501    0  0.00000000000E+00 -0.00000000000E+00 -0.14453024346E+04  0.14453024346E+04  0.00000000000E+00 0. -1.
         25    2    1    2    0    0  0.70887921923E+02  0.17687909066E+03 -0.71189610096E+03  0.74750185604E+03  0.12510657874E+03 0.  0.
          5    1    3    3  502    0 -0.31960478525E+02  0.19134830931E+02 -0.16059403627E+03  0.16491067530E+03  0.41800000000E+01 0.  1.
         -5    1    3    3    0  502  0.10284840045E+03  0.15774425973E+03 -0.55130206469E+03  0.58259118075E+03  0.41800000000E+01 0.  1.
        -11    1    1    2    0    0 -0.17696820884E+02 -0.73917719057E+02 -0.44405257684E+03  0.45051048563E+03  0.00000000000E+00 0. -1.
         11    1    1    2    0    0 -0.53191101039E+02 -0.10296137161E+03 -0.25580865626E+03  0.28083519347E+03  0.00000000000E+00 0.  1.
</event>
<event>
 7    1  0.2714042E-009  0.2602182E+03  0.7561462E-02  0.1107012E+00
         -1   -1    0    0    0  501 -0.00000000000E+00  0.00000000000E+00  0.14813188974E+03  0.14813188974E+03  0.00000000000E+00 0.  1.
          1   -1    0    0  501    0  0.00000000000E+00 -0.00000000000E+00 -0.55381283854E+03  0.55381283854E+03  0.00000000000E+00 0. -1.
         25    2    1    2    0    0  0.28520931896E+02  0.24530276332E+03 -0.90236249032E+02  0.29116548572E+03  0.12509144731E+03 0.  0.
          5    1    3    3  502    0 -0.25384774408E+02  0.16457094677E+03 -0.98728761012E+02  0.19363063792E+03  0.41800000000E+01 0.  1.
         -5    1    3    3    0  502  0.53905706304E+02  0.80731816550E+02  0.84925119799E+01  0.97534847800E+02  0.41800000000E+01 0.  1.
        -11    1    1    2    0    0 -0.50725042624E+02 -0.13564558445E+03 -0.13223916996E+03  0.19611209193E+03  0.00000000000E+00 0.  1.
         11    1    1    2    0    0  0.22204110728E+02 -0.10965717887E+03 -0.18320552980E+03  0.21466715063E+03  0.00000000000E+00 0. -1.
</event>
<event>
 7    1  0.2714042E-009  0.8222612E+02  0.7561462E-02  0.1322850E+00
          1   -1    0    0  501    0  0.00000000000E+00  0.00000000000E+00  0.99470652629E+02  0.99470652629E+02  0.00000000000E+00 0. -1.
         -1   -1    0    0    0  501 -0.00000000000E+00 -0.00000000000E+00 -0.18163726685E+03  0.18163726685E+03  0.00000000000E+00 0.  1.
         25    2    1    2    0    0 -0.25901614761E+02 -0.43793945646E+02 -0.10850070744E+03  0.17323038112E+03  0.12509019987E+03 0.  0.
          5    1    3    3  502    0  0.37983358785E+02 -0.62234833455E+01  0.34885974812E+01  0.38872998366E+02  0.41800000000E+01 0. -1.
         -5    1    3    3    0  502 -0.63884973546E+02 -0.37570462301E+02 -0.11198930492E+03  0.13435738275E+03  0.41800000000E+01 0. -1.
        -11    1    1    2    0    0  0.16585617715E+02  0.34825544741E+02 -0.30760593766E+02  0.49336755167E+02  0.00000000000E+00 0.  1.
         11    1    1    2    0    0  0.93159970460E+01  0.89684009049E+01  0.57094686984E+02  0.58540783199E+02  0.00000000000E+00 0. -1.
</event>
<event>
 7    1  0.2714042E-009  0.1522084E+03  0.7561462E-02  0.1197785E+00
          2   -1    0    0  501    0  0.00000000000E+00  0.00000000000E+00  0.89959661817E+03  0.89959661817E+03  0.00000000000E+00 0. -1.
         -2   -1    0    0    0  501 -0.00000000000E+00 -0.00000000000E+00 -0.29528747427E+02  0.29528747427E+02  0.00000000000E+00 0.  1.
         25    2    1    2    0    0  0.10911108209E+03  0.38750802388E+02  0.56312182836E+03  0.58835458697E+03  0.12509225999E+03 0.  0.
          5    1    3    3  502    0  0.57195024258E+02 -0.41776223511E+02  0.30072059022E+03  0.30897713416E+03  0.41800000000E+01 0. -1.
         -5    1    3    3    0  502  0.51916057835E+02  0.80527025899E+02  0.26240123814E+03  0.27937745281E+03  0.41800000000E+01 0. -1.
        -11    1    1    2    0    0 -0.47900796536E+01  0.18123599879E+02  0.10338189846E+03  0.10506772418E+03  0.00000000000E+00 0. -1.
         11    1    1    2    0    0 -0.10432100244E+03 -0.56874402267E+02  0.20356414392E+03  0.23570305444E+03  0.00000000000E+00 0.  1.
</event>
<event>
 7    1  0.2714042E-009  0.1171739E+03  0.7561462E-02  0.1247833E+00
          3   -1    0    0  501    0  0.00000000000E+00  0.00000000000E+00  0.45786085730E+03  0.45786085730E+03  0.00000000000E+00 0. -1.
         -3   -1    0    0    0  501 -0.00000000000E+00 -0.00000000000E+00 -0.35169078285E+02  0.35169078285E+02  0.00000000000E+00 0.  1.
         25    2    1    2    0    0  0.57555119261E+02  0.31635062218E+01  0.17611565035E+03  0.22357562314E+03  0.12508691953E+03 0.  0.
          5    1    3    3  502    0  0.93801795004E+01 -0.56573099950E+02  0.51629181013E+02  0.77275792701E+02  0.41800000000E+01 0.  1.
         -5    1    3    3    0  502  0.48174939760E+02  0.59736606172E+02  0.12448646934E+03  0.14629983044E+03  0.41800000000E+01 0.  1.
        -11    1    1    2    0    0 -0.27075529320E+02 -0.42401971938E+02  0.17664567443E+03  0.18367010047E+03  0.00000000000E+00 0.  1.
         11    1    1    2    0    0 -0.30479589940E+02  0.39238465716E+02  0.69930454229E+02  0.85784211970E+02  0.00000000000E+00 0. -1.
</event>
<event>
 7    1  0.2714042E-009  0.9573477E+02  0.7561462E-02  0.1289530E+00
         -2   -1    0    0    0  501 -0.00000000000E+00  0.00000000000E+00  0.23818522827E+02  0.23818522827E+02  0.00000000000E+00 0.  1.
          2   -1    0    0  501    0  0.00000000000E+00 -0.00000000000E+00 -0.69442249636E+03  0.69442249636E+03  0.00000000000E+00 0. -1.
         25    2    1    2    0    0  0.22036070923E+02 -0.27530242247E+02 -0.20559227422E+03  0.24322812121E+03  0.12509289775E+03 0.  0.
          5    1    3    3  502    0  0.24725689935E+02 -0.58288602257E+02 -0.20215728637E+03  0.21188195234E+03  0.41800000000E+01 0.  1.
         -5    1    3    3    0  502 -0.26896190115E+01  0.30758360010E+02 -0.34349878498E+01  0.31346168864E+02  0.41800000000E+01 0.  1.
        -11    1    1    2    0    0 -0.19754840632E+02 -0.31825784699E+02 -0.16931802539E+03  0.17341201810E+03  0.00000000000E+00 0. -1.
         11    1    1    2    0    0 -0.22812302912E+01  0.59356026946E+02 -0.29569367392E+03  0.30160087988E+03  0.00000000000E+00 0.  1.
</event>
<event>
 7    1  0.2714042E-009  0.1717907E+03  0.7561462E-02  0.1175993E+00
         -3   -1    0    0    0  501 -0.00000000000E+00  0.00000000000E+00  0.33481138965E+03  0.33481138965E+03  0.00000000000E+00 0.  1.
          3   -1    0    0  501    0  0.00000000000E+00 -0.00000000000E+00 -0.10019267037E+03  0.10019267037E+03  0.00000000000E+00 0. -1.
         25    2    1    2    0    0  0.10360837586E+03 -0.93786014413E+02  0.17695126092E+03  0.25785670722E+03  0.12509124938E+03 0.  0.
          5    1    3    3  502    0  0.13210777434E+03 -0.71988889871E+02  0.13200404826E+03  0.20019342013E+03  0.41800000000E+01 0.  1.
         -5    1    3    3    0  502 -0.28499398486E+02 -0.21797124542E+02  0.44947212661E+02  0.57663287093E+02  0.41800000000E+01 0.  1.
        -11    1    1    2    0    0 -0.32883043924E+02  0.77770252457E+02 -0.96994571421E-01  0.84436462224E+02  0.00000000000E+00 0. -1.
         11    1    1    2    0    0 -0.70725331935E+02  0.16015761956E+02  0.57764452931E+02  0.92710890572E+02  0.00000000000E+00 0.  1.
</event>
<event>
 7    1  0.2714042E-009  0.1310650E+03  0.7561462E-02  0.1225884E+00
         -2   -1    0    0    0  501 -0.00000000000E+00  0.00000000000E+00  0.52662853456E+02  0.52662853456E+02  0.00000000000E+00 0.  1.
          2   -1    0    0  501    0  0.00000000000E+00 -0.00000000000E+00 -0.47179129364E+03  0.47179129364E+03  0.00000000000E+00 0. -1.
         25    2    1    2    0    0 -0.98407160093E+02 -0.42610391631E+02 -0.16447003032E+03  0.23279769545E+03  0.12507902102E+03 0.  0.
          5    1    3    3  502    0 -0.15564466607E+02 -0.61608531600E+02 -0.12216367340E+03  0.13776537767E+03  0.41800000000E+01 0.  1.
         -5    1    3    3    0  502 -0.82842693486E+02  0.18998139969E+02 -0.42306356922E+02  0.95032317779E+02  0.41800000000E+01 0.  1.
        -11    1    1    2    0    0  0.77169103429E+01  0.17691144479E+02  0.91918128116E+00  0.19322841210E+02  0.00000000000E+00 0.  1.
         11    1    1    2    0    0  0.90690249750E+02  0.24919247152E+02 -0.25557759115E+03  0.27233361044E+03  0.00000000000E+00 0. -1.
</event>
<event>
 7    1  0.2714042E-009  0.1282713E+03  0.7561462E-02  0.1230044E+00
          2   -1    0    0  501    0  0.00000000000E+00  0.00000000000E+00  0.64374152251E+02  0.64374152251E+02  0.00000000000E+00 0. -1.
         -2   -1    0    0    0  501 -0.00000000000E+00 -0.00000000000E+00 -0.31539829233E+03  0.31539829233E+03  0.00000000000E+00 0.  1.
         25    2    1    2    0    0 -0.61202357096E+02 -0.63260150748E+02 -0.16857946571E+03  0.22762922495E+03  0.12509377525E+03 0.  0.
          5    1    3    3  502    0 -0.95172670569E+02 -0.50755238606E+02 -0.88265332178E+02  0.13943519188E+03  0.41800000000E+01 0. -1.
         -5    1    3    3    0  502  0.33970313473E+02 -0.12504912142E+02 -0.80314133530E+02  0.88194033073E+02  0.41800000000E+01 0. -1.
        -11    1    1    2    0    0 -0.14113981119E+02  0.22399100632E+02 -0.56855459014E+02  0.62717361167E+02  0.00000000000E+00 0.  1.
         11    1    1    2    0    0  0.75316338215E+02  0.40861050116E+02 -0.25589215353E+02  0.89425858459E+02  0.00000000000E+00 0. -1.
</event>
<event>
 7    1  0.2714042E-009  0.8471736E+02  0.7561462E-02  0.1316173E+00
          1   -1    0    0  501    0  0.00000000000E+00  0.00000000000E+00  0.25970065565E+03  0.25970065565E+03  0.00000000000E+00 0. -1.
         -1   -1    0    0    0  501 -0.00000000000E+00 -0.00000000000E+00 -0.12286037831E+03  0.12286037831E+03  0.00000000000E+00 0.  1.
         25    2    1    2    0    0 -0.63721605405E+02 -0.19270089683E+02  0.20517359442E+03  0.24934805458E+03  0.12508584701E+03 0.  0.
          5    1    3    3  502    0 -0.34092541600E+02  0.87939076753E+01 -0.44627585407E+01  0.35735456045E+02  0.41800000000E+01 0.  1.
         -5    1    3    3    0  502 -0.29629063805E+02 -0.28063997358E+02  0.20963635296E+03  0.21361259853E+03  0.41800000000E+01 0.  1.
        -11    1    1    2    0    0  0.28745860861E+02 -0.23907994786E+02 -0.68050924804E+02  0.77645637985E+02  0.00000000000E+00 0.  1.
         11    1    1    2    0    0  0.34975744544E+02  0.43178084468E+02 -0.28239226930E+00  0.55567341399E+02  0.00000000000E+00 0. -1.
</event>
<event>
 7    1  0.2714042E-009  0.1266924E+03  0.7561462E-02  0.1232448E+00
         -1   -1    0    0    0  501 -0.00000000000E+00  0.00000000000E+00  0.10763798840E+03  0.10763798840E+03  0.00000000000E+00 0.  1.
          1   -1    0    0  501    0  0.00000000000E+00 -0.00000000000E+00 -0.19015932698E+03  0.19015932698E+03  0.00000000000E+00 0. -1.
         25    2    1    2    0    0  0.19636971912E+02 -0.92370981162E+02 -0.41840473605E+02  0.16222568289E+03  0.12509411709E+03 0.  0.
          5    1    3    3  502    0 -0.16271155983E+02 -0.86021624001E+02 -0.73010525650E+02  0.11407225591E+03  0.41800000000E+01 0. -1.
         -5    1    3    3    0  502  0.35908127895E+02 -0.63493571609E+01  0.31170052045E+02  0.48153426978E+02  0.41800000000E+01 0. -1.
        -11    1    1    2    0    0  0.57861222653E+01  0.10176617424E+03 -0.28382284886E+02  0.10580825831E+03  0.00000000000E+00 0. -1.
         11    1    1    2    0    0 -0.25423094178E+02 -0.93951930820E+01 -0.12298580091E+02  0.29763374185E+02  0.00000000000E+00 0.  1.
</event>
<event>
 7    1  0.2714042E-009  0.1743783E+03  0.7561462E-02  0.1173357E+00
         -2   -1    0    0    0  501 -0.00000000000E+00  0.00000000000E+00  0.12774530170E+03  0.12774530170E+03  0.00000000000E+00 0.  1.
          2   -1    0    0  501    0  0.00000000000E+00 -0.00000000000E+00 -0.33466259415E+03  0.33466259415E+03  0.00000000000E+00 0. -1.
         25    2    1    2    0    0 -0.16226459741E+03  0.15648332819E+02 -0.34438829297E+02  0.20834703493E+03  0.12509110324E+03 0.  0.
          5    1    3    3  502    0 -0.12321956921E+03  0.46467988293E+02  0.21361503340E+02  0.13347704820E+03  0.41800000000E+01 0.  1.
         -5    1    3    3    0  502 -0.39045028203E+02 -0.30819655474E+02 -0.55800332637E+02  0.74869986732E+02  0.41800000000E+01 0.  1.
        -11    1    1    2    0    0  0.10014754075E+03 -0.27476800517E+02 -0.15819297733E+03  0.18923404176E+03  0.00000000000E+00 0. -1.
         11    1    1    2    0    0  0.62117056656E+02  0.11828467697E+02 -0.14285485823E+02  0.64826819148E+02  0.00000000000E+00 0.  1.
</event>
<event>
 7    1  0.2714042E-009  0.1337430E+03  0.7561462E-02  0.1222005E+00
          2   -1    0    0  501    0  0.00000000000E+00  0.00000000000E+00  0.24474795199E+03  0.24474795199E+03  0.00000000000E+00 0. -1.
         -2   -1    0    0    0  501 -0.00000000000E+00 -0.00000000000E+00 -0.84589787134E+02  0.84589787134E+02  0.00000000000E+00 0.  1.
         25    2    1    2    0    0  0.14440565067E+02 -0.71690921783E+02  0.47429703664E+02  0.15245604622E+03  0.12508057824E+03 0.  0.
          5    1    3    3  502    0 -0.21984724008E+02 -0.97480775744E+02  0.30934705148E+02  0.10469125136E+03  0.41800000000E+01 0.  1.
         -5    1    3    3    0  502  0.36425289075E+02  0.25789853961E+02  0.16494998516E+02  0.47764794855E+02  0.41800000000E+01 0.  1.
        -11    1    1    2    0    0  0.35566427943E+02  0.62336163733E+02  0.10227598154E+03  0.12494456573E+03  0.00000000000E+00 0. -1.
         11    1    1    2    0    0 -0.50006993010E+02  0.93547580499E+01  0.10452479648E+02  0.51937127172E+02  0.00000000000E+00 0.  1.
</event>
<event>
 7    1  0.2714042E-009  0.1242752E+03  0.7561462E-02  0.1236206E+00
         -1   -1    0    0    0  501 -0.00000000000E+00  0.00000000000E+00  0.37014337883E+02  0.37014337883E+02  0.00000000000E+00 0.  1.
          1   -1    0    0  501    0  0.00000000000E+00 -0.00000000000E+00 -0.52494822707E+03  0.52494822707E+03  0.00000000000E+00 0. -1.
         25    2    1    2    0    0  0.48175505648E+02 -0.57803165284E+02 -0.36764574314E+03  0.39556713980E+03  0.12509150402E+03 0.  0.
          5    1    3    3  502    0 -0.73022854574E+01  0.29968657079E+02 -0.16412324012E+03  0.16704895727E+03  0.41800000000E+01 0. -1.
         -5    1    3    3    0  502  0.55477791105E+02 -0.87771822364E+02 -0.20352250302E+03  0.22851818252E+03  0.41800000000E+01 0. -1.
        -11    1    1    2    0    0 -0.63441592308E+02  0.11146479694E+02 -0.81184680005E+02  0.10363412523E+03  0.00000000000E+00 0.  1.
         11    1    1    2    0    0  0.15266086660E+02  0.46656685591E+02 -0.39103466042E+02  0.62761299928E+02  0.00000000000E+00 0. -1.
</event>
<event>
 7    1  0.2714042E-009  0.1393385E+03  0.7561462E-02  0.1214222E+00
          2   -1    0    0  501    0  0.00000000000E+00  0.00000000000E+00  0.68898023720E+03  0.68898023720E+03  0.00000000000E+00 0. -1.
         -2   -1    0    0    0  501 -0.00000000000E+00 -0.00000000000E+00 -0.30326216958E+02  0.30326216958E+02  0.00000000000E+00 0.  1.
         25    2    1    2    0    0 -0.40179134676E+02  0.97948203010E+02  0.30463162228E+03  0.34591295308E+03  0.12508849859E+03 0.  0.
          5    1    3    3  502    0  0.40811738779E+01  0.11291378545E+03  0.24666825604E+03  0.27134642039E+03  0.41800000000E+01 0. -1.
         -5    1    3    3    0  502 -0.44260308554E+02 -0.14965582435E+02  0.57963366242E+02  0.74566532687E+02  0.41800000000E+01 0. -1.
        -11    1    1    2    0    0 -0.10935178269E+02 -0.38032646583E+01  0.35063470819E+02  0.36925464542E+02  0.00000000000E+00 0. -1.
         11    1    1    2    0    0  0.51114312945E+02 -0.94144938352E+02  0.31895892714E+03  0.33646803654E+03  0.00000000000E+00 0.  1.
</event>
<event>
 7    1  0.2714042E-009  0.1158761E+03  0.7561462E-02  0.1250060E+00
          1   -1    0    0  501    0  0.00000000000E+00  0.00000000000E+00  0.73057907760E+03  0.73057907760E+03  0.00000000000E+00 0. -1.
         -1   -1    0    0    0  501 -0.00000000000E+00 -0.00000000000E+00 -0.30200005571E+02  0.30200005571E+02  0.00000000000E+00 0.  1.
         25    2    1    2    0    0  0.46943637991E+02  0.88391909008E+02  0.42197480884E+03  0.45136126620E+03  0.12508964225E+03 0.  0.
          5    1    3    3  502    0  0.78447495720E+01 -0.54846286646E+01 -0.55919552188E+01  0.11847514955E+02  0.41800000000E+01 0.  1.
         -5    1    3    3    0  502  0.39098888419E+02  0.93876537672E+02  0.42756676406E+03  0.43951375124E+03  0.41800000000E+01 0.  1.
        -11    1    1    2    0    0  0.16758050223E+02 -0.18582411317E+02  0.13748197407E+03  0.13974058627E+03  0.00000000000E+00 0. -1.
         11    1    1    2    0    0 -0.63701688213E+02 -0.69809497691E+02  0.14092228912E+03  0.16967723070E+03  0.00000000000E+00 0.  1.
</event>
<event>
 7    1  0.2714042E-009  0.1173546E+03  0.7561462E-02  0.1247526E+00
          1   -1    0    0  501    0  0.00000000000E+00  0.00000000000E+00  0.11380856220E+03  0.11380856220E+03  0.00000000000E+00 0. -1.
         -1   -1    0    0    0  501 -0.00000000000E+00 -0.00000000000E+00 -0.18085766196E+03  0.18085766196E+03  0.00000000000E+00 0.  1.
         25    2    1    2    0    0 -0.68323854850E+02  0.43886245464E+02 -0.79427034977E+02  0.16896429822E+03  0.12508448547E+03 0.  0.
          5    1    3    3  502    0 -0.46706052758E+02 -0.39911947178E+02 -0.42269953630E+02  0.74690295699E+02  0.41800000000E+01 0.  1.
         -5    1    3    3    0  502 -0.21617802092E+02  0.83798192642E+02 -0.37157081347E+02  0.94274002523E+02  0.41800000000E+01 0.  1.
        -11    1    1    2    0    0  0.22546920576E+02  0.73902533204E+00  0.47626555998E+02  0.52699133030E+02  0.00000000000E+00 0. -1.
         11    1    1    2    0    0  0.45776934273E+02 -0.44625270796E+02 -0.35248620776E+02  0.73002792904E+02  0.00000000000E+00 0.  1.
</event>
<event>
 7    1  0.2714042E-009  0.1086611E+03  0.7561462E-02  0.1263070E+00
         -1   -1    0    0    0  501 -0.00000000000E+00  0.00000000000E+00  0.31432464526E+02  0.31432464526E+02  0.00000000000E+00 0.  1.
          1   -1    0    0  501    0  0.00000000000E+00 -0.00000000000E+00 -0.42273900295E+03  0.42273900295E+03  0.00000000000E+00 0. -1.
         25    2    1    2    0    0 -0.11006615307E+02 -0.19663439085E+02 -0.16982605212E+03  0.21212389887E+03  0.12509142287E+03 0.  0.
          5    1    3    3  502    0 -0.36478603671E+02  0.44588162226E+02 -0.73023161364E+02  0.93105570360E+02  0.41800000000E+01 0. -1.
         -5    1    3    3    0  502  0.25471988364E+02 -0.64251601311E+02 -0.96802890761E+02  0.11901832851E+03  0.41800000000E+01 0. -1.
        -11    1    1    2    0    0  0.42425449554E+02  0.35330811808E+02 -0.86837775599E+02  0.10290279055E+03  0.00000000000E+00 0.  1.
         11    1    1    2    0    0 -0.31418834247E+02 -0.15667372723E+02 -0.13464271070E+03  0.13914477805E+03  0.00000000000E+00 0. -1.
</event>
<event>
 7    1  0.2714042E-009  0.1396121E+03  0.7561462E-02  0.1213852E+00
         -3   -1    0    0    0  501 -0.00000000000E+00  0.00000000000E+00  0.27800159514E+03  0.27800159514E+03  0.00000000000E+00 0.  1.
          3   -1    0    0  501    0  0.00000000000E+00 -0.00000000000E+00 -0.90464831765E+02  0.90464831765E+02  0.00000000000E+00 0. -1.
         25    2    1    2    0    0 -0.51647418180E+02  0.83002797832E+02  0.16856030654E+03  0.23155380894E+03  0.12509064410E+03 0.  0.
          5    1    3    3  502    0  0.28184866808E+02 -0.15002519156E+01  0.22796221576E+01  0.28623531403E+02  0.41800000000E+01 0.  1.
         -5    1    3    3    0  502 -0.79832284988E+02  0.84503049748E+02  0.16628068438E+03  0.20293027754E+03  0.41800000000E+01 0.  1.
        -11    1    1    2    0    0  0.76166535628E+02 -0.43051174980E+02  0.21061378203E+02  0.89990702123E+02  0.00000000000E+00 0.  1.
         11    1    1    2    0    0 -0.24519117448E+02 -0.39951622852E+02 -0.20849213683E+01  0.46921915840E+02  0.00000000000E+00 0. -1.
</event>
<event>
 7    1  0.2714042E-009  0.1301532E+03  0.7561462E-02  0.1227229E+00
         -2   -1    0    0    0  501 -0.00000000000E+00  0.00000000000E+00  0.32782216793E+03  0.32782216793E+03  0.00000000000E+00 0.  1.
          2   -1    0    0  501    0  0.00000000000E+00 -0.00000000000E+00 -0.84037309115E+02  0.84037309115E+02  0.00000000000E+00 0. -1.
         25    2    1    2    0    0  0.99910417363E+02 -0.95665528455E+01  0.39300871710E+02  0.16512636294E+03  0.12509415170E+03 0.  0.
          5    1    3    3  502    0  0.28535094493E+02 -0.56608473301E+02 -0.12969240902E+02  0.64841687800E+02  0.41800000000E+01 0. -1.
         -5    1    3    3    0  502  0.71375322870E+02  0.47041920456E+02  0.52270112612E+02  0.10028467514E+03  0.41800000000E+01 0. -1.
        -11    1    1    2    0    0 -0.73056867570E+02  0.28407692916E+02  0.19846189604E+03  0.21338094361E+03  0.00000000000E+00 0.  1.
         11    1    1    2    0    0 -0.26853549793E+02 -0.18841140071E+02  0.60220910551E+01  0.33352170489E+02  0.00000000000E+00 0. -1.
</event>
<event>
 7    1  0.2714042E-009  0.8996127E+02  0.7561462E-02  0.1302946E+00
         -2   -1    0    0    0  501 -0.00000000000E+00  0.00000000000E+00  0.16423083054E+02  0.16423083054E+02  0.00000000000E+00 0. -1.
          2   -1    0    0  501    0  0.00000000000E+00 -0.00000000000E+00 -0.80666008731E+03  0.80666008731E+03  0.00000000000E+00 0.  1.
         25    2    1    2    0    0 -0.16955921716E+02 -0.16278947401E+01 -0.58329720112E+03  0.59680281831E+03  0.12509126983E+03 0.  0.
          5    1    3    3  502    0 -0.42783178354E+02  0.26905524802E+02 -0.10160731528E+03  0.11355979277E+03  0.41800000000E+01 0.  1.
         -5    1    3    3    0  502  0.25827256638E+02 -0.28533419542E+02 -0.48168988583E+03  0.48324302554E+03  0.41800000000E+01 0.  1.
        -11    1    1    2    0    0 -0.37666754582E+01 -0.42015407457E+02 -0.79666024309E+02  0.90145203627E+02  0.00000000000E+00 0. -1.
         11    1    1    2    0    0  0.20722597175E+02  0.43643302197E+02 -0.12727377883E+03  0.13613514843E+03  0.00000000000E+00 0.  1.
</event>
<event>
 7    1  0.2714042E-009  0.1037078E+03  0.7561462E-02  0.1272687E+00
         -2   -1    0    0    0  501 -0.00000000000E+00  0.00000000000E+00  0.37696683749E+02  0.37696683749E+02  0.00000000000E+00 0.  1.
          2   -1    0    0  501    0  0.00000000000E+00 -0.00000000000E+00 -0.44955154874E+03  0.44955154874E+03  0.00000000000E+00 0. -1.
         25    2    1    2    0    0  0.10085371855E+01 -0.49573756807E+02 -0.13324191512E+03  0.18936331577E+03  0.12508590210E+03 0.  0.
          5    1    3    3  502    0  0.49893360714E+02 -0.36837227361E+02 -0.12276182997E+03  0.13760184614E+03  0.41800000000E+01 0.  1.
         -5    1    3    3    0  502 -0.48884823529E+02 -0.12736529446E+02 -0.10480085147E+02  0.51761469632E+02  0.41800000000E+01 0.  1.
        -11    1    1    2    0    0 -0.33707351926E+02  0.51789636729E+02 -0.11047244945E+03  0.12658007005E+03  0.00000000000E+00 0.  1.
         11    1    1    2    0    0  0.32698814740E+02 -0.22158799218E+01 -0.16814050043E+03  0.17130484667E+03  0.00000000000E+00 0. -1.
</event>
<event>
 7    1  0.2714042E-009  0.1194577E+03  0.7561462E-02  0.1243994E+00
          2   -1    0    0  501    0  0.00000000000E+00  0.00000000000E+00  0.60423529825E+03  0.60423529825E+03  0.00000000000E+00 0. -1.
         -2   -1    0    0    0  501 -0.00000000000E+00 -0.00000000000E+00 -0.31459643177E+02  0.31459643177E+02  0.00000000000E+00 0.  1.
         25    2    1    2    0    0  0.42441172840E+02  0.32227116547E+02  0.46458899859E+03  0.48408085878E+03  0.12510595523E+03 0.  0.
          5    1    3    3  502    0  0.63670071009E+02 -0.29699682726E+02  0.24244390524E+03  0.25245290389E+03  0.41800000000E+01 0.  1.
         -5    1    3    3    0  502 -0.21228898169E+02  0.61926799273E+02  0.22214509336E+03  0.23162795489E+03  0.41800000000E+01 0.  1.
        -11    1    1    2    0    0  0.18016645886E+02  0.17152872640E+02  0.44030546170E+02  0.50571825801E+02  0.00000000000E+00 0. -1.
         11    1    1    2    0    0 -0.60457818727E+02 -0.49379989187E+02  0.64156110305E+02  0.10104225684E+03  0.00000000000E+00 0.  1.
</event>
<event>
 7    1  0.2714042E-009  0.1196636E+03  0.7561462E-02  0.1243653E+00
         -2   -1    0    0    0  501 -0.00000000000E+00  0.00000000000E+00  0.68432398434E+02  0.68432398434E+02  0.00000000000E+00 0.  1.
          2   -1    0    0  501    0  0.00000000000E+00 -0.00000000000E+00 -0.22331214140E+03  0.22331214140E+03  0.00000000000E+00 0. -1.
         25    2    1    2    0    0  0.40324945270E+02 -0.40862119554E+02 -0.10805537115E+03  0.17498804730E+03  0.12509612080E+03 0.  0.
          5    1    3    3  502    0 -0.39508574523E+02  0.11280594933E+02 -0.42075315813E+02  0.58957475214E+02  0.41800000000E+01 0. -1.
         -5    1    3    3    0  502  0.79833519793E+02 -0.52142714487E+02 -0.65980055337E+02  0.11603057209E+03  0.41800000000E+01 0. -1.
        -11    1    1    2    0    0  0.15344980218E+02  0.44224804130E+02 -0.37995438506E+02  0.60290588531E+02  0.00000000000E+00 0.  1.
         11    1    1    2    0    0 -0.55669925488E+02 -0.33626845758E+01 -0.88289333113E+01  0.56465904003E+02  0.00000000000E+00 0. -1.
</event>
<event>
 7    1  0.2714042E-009  0.1023713E+03  0.7561462E-02  0.1275387E+00
          2   -1    0    0  501    0  0.00000000000E+00  0.00000000000E+00  0.36674447317E+02  0.36674447317E+02  0.00000000000E+00 0. -1.
         -2   -1    0    0    0  501 -0.00000000000E+00 -0.00000000000E+00 -0.39225687464E+03  0.39225687464E+03  0.00000000000E+00 0.  1.
         25    2    1    2    0    0  0.28013547919E+02  0.41996241858E+02 -0.17218406786E+03  0.21873480051E+03  0.12509642894E+03 0.  0.
          5    1    3    3  502    0  0.51197435813E+02  0.60801238236E+02 -0.17094401879E+03  0.18856642852E+03  0.41800000000E+01 0. -1.
         -5    1    3    3    0  502 -0.23183887894E+02 -0.18804996378E+02 -0.12400490634E+01  0.30168371987E+02  0.41800000000E+01 0. -1.
        -11    1    1    2    0    0 -0.41508452522E+02  0.88127550450E+01 -0.43600777414E+02  0.60841138002E+02  0.00000000000E+00 0. -1.
         11    1    1    2    0    0  0.13494904603E+02 -0.50808996903E+02 -0.13979758205E+03  0.14935538344E+03  0.00000000000E+00 0.  1.
</event>
<event>
 7    1  0.2714042E-009  0.6748287E+02  0.7561462E-02  0.1368868E+00
         -1   -1    0    0    0  501 -0.00000000000E+00  0.00000000000E+00  0.24807473835E+02  0.24807473835E+02  0.00000000000E+00 0.  1.
          1   -1    0    0  501    0  0.00000000000E+00 -0.00000000000E+00 -0.60215346500E+03  0.60215346500E+03  0.00000000000E+00 0. -1.
         25    2    1    2    0    0  0.18139874412E+02 -0.30545886127E+02 -0.44044757721E+03  0.45924267475E+03  0.12509060652E+03 0.  0.
          5    1    3    3  502    0  0.53032874226E+00 -0.13426067865E+02  0.35774204246E+01  0.14519327939E+02  0.41800000000E+01 0.  1.
         -5    1    3    3    0  502  0.17609545670E+02 -0.17119818262E+02 -0.44402499763E+03  0.44472334681E+03  0.41800000000E+01 0.  1.
        -11    1    1    2    0    0 -0.14720638043E+02  0.62314156993E+02 -0.10172756901E+03  0.12020087205E+03  0.00000000000E+00 0. -1.
         11    1    1    2    0    0 -0.34192363688E+01 -0.31768270866E+02 -0.35170844954E+02  0.47517392036E+02  0.00000000000E+00 0.  1.
</event>
<event>
 7    1  0.2714042E-009  0.1078273E+03  0.7561462E-02  0.1264647E+00
         -1   -1    0    0    0  501 -0.00000000000E+00  0.00000000000E+00  0.51393981491E+02  0.51393981491E+02  0.00000000000E+00 0.  1.
          1   -1    0    0  501    0  0.00000000000E+00 -0.00000000000E+00 -0.27888747118E+03  0.27888747118E+03  0.00000000000E+00 0. -1.
         25    2    1    2    0    0 -0.86769873756E+01  0.39461719016E+02 -0.18139470045E+03  0.22401832408E+03  0.12509058637E+03 0.  0.
          5    1    3    3  502    0  0.32968804497E+02 -0.31747459253E+02 -0.88426684447E+02  0.99657383877E+02  0.41800000000E+01 0.  1.
         -5    1    3    3    0  502 -0.41645791873E+02  0.71209178270E+02 -0.92968015999E+02  0.12436094021E+03  0.41800000000E+01 0.  1.
        -11    1    1    2    0    0  0.43128439044E+02 -0.23677491980E+02 -0.36135356250E+01  0.49332986130E+02  0.00000000000E+00 0.  1.
         11    1    1    2    0    0 -0.34451451668E+02 -0.15784227036E+02 -0.42485253620E+02  0.56930142458E+02  0.00000000000E+00 0. -1.
</event>
<event>
 7    1  0.2714042E-009  0.1237507E+03  0.7561462E-02  0.1237035E+00
          2   -1    0    0  501    0  0.00000000000E+00  0.00000000000E+00  0.52122263811E+03  0.52122263811E+03  0.00000000000E+00 0. -1.
         -2   -1    0    0    0  501 -0.00000000000E+00 -0.00000000000E+00 -0.47277892156E+02  0.47277892156E+02  0.00000000000E+00 0.  1.
         25    2    1    2    0    0  0.40408697406E+02 -0.58508148887E+02  0.42630621195E+03  0.44993074133E+03  0.12507845272E+03 0.  0.
          5    1    3    3  502    0  0.13541953137E+02 -0.93523245645E+02  0.33988574504E+03  0.35280274099E+03  0.41800000000E+01 0.  1.
         -5    1    3    3    0  502  0.26866744269E+02  0.35015096758E+02  0.86420466916E+02  0.97128000342E+02  0.41800000000E+01 0.  1.
        -11    1    1    2    0    0 -0.22726005556E+02 -0.18662883636E+02  0.13104922535E+02  0.32194930483E+02  0.00000000000E+00 0. -1.
         11    1    1    2    0    0 -0.17682691850E+02  0.77171032523E+02  0.34533611467E+02  0.86374858453E+02  0.00000000000E+00 0.  1.
</event>
<event>
 7    1  0.2714042E-009  0.1372946E+03  0.7561462E-02  0.1217016E+00
         -2   -1    0    0    0  501 -0.00000000000E+00  0.00000000000E+00  0.13367499220E+03  0.13367499220E+03  0.00000000000E+00 0.  1.
          2   -1    0    0  501    0  0.00000000000E+00 -0.00000000000E+00 -0.18076362534E+03  0.18076362534E+03  0.00000000000E+00 0. -1.
         25    2    1    2    0    0 -0.59186295011E+02 -0.82184286216E+02  0.20313396707E+02  0.16221992541E+03  0.12508155618E+03 0.  0.
          5    1    3    3  502    0 -0.30875424646E+02 -0.10693900999E+03 -0.12565717666E+02  0.11209198618E+03  0.41800000000E+01 0. -1.
         -5    1    3    3    0  502 -0.28310870366E+02  0.24754723771E+02  0.32879114374E+02  0.50127939234E+02  0.41800000000E+01 0. -1.
        -11    1    1    2    0    0  0.23887833528E+02  0.86560550691E+02 -0.73611470723E+02  0.11611204136E+03  0.00000000000E+00 0.  1.
         11    1    1    2    0    0  0.35298461484E+02 -0.43762644745E+01  0.62094408794E+01  0.36106650771E+02  0.00000000000E+00 0. -1.
</event>
<event>
 7    1  0.3997331E-009  0.8444042E+02  0.7561462E-02  0.1316902E+00
         -2   -1    0    0    0  501 -0.00000000000E+00  0.00000000000E+00  0.14054562537E+03  0.14054562537E+03  0.00000000000E+00 0.  1.
          2   -1    0    0  501    0  0.00000000000E+00 -0.00000000000E+00 -0.11482740628E+03  0.11482740628E+03  0.00000000000E+00 0. -1.
         25    2    1    2    0    0 -0.56565949695E+02  0.29856759449E+02 -0.16984461226E+01  0.14050226143E+03  0.12508744141E+03 0.  0.
          5    1    3    3  502    0 -0.78480208521E+01 -0.26948443078E+02  0.44264660337E+02  0.52579868490E+02  0.41800000000E+01 0.  1.
         -5    1    3    3    0  502 -0.48717928843E+02  0.56805202526E+02 -0.45963106460E+02  0.87922392940E+02  0.41800000000E+01 0.  1.
        -11    1    1    2    0    0  0.34373397525E+02 -0.10067095859E+02  0.60550734457E+02  0.70351036380E+02  0.00000000000E+00 0.  1.
         11    1    1    2    0    0  0.22192552170E+02 -0.19789663589E+02 -0.33134069242E+02  0.44519733842E+02  0.00000000000E+00 0. -1.
</event>
<event>
 7    1  0.2714042E-009  0.1201978E+03  0.7561462E-02  0.1242771E+00
         -1   -1    0    0    0  501 -0.00000000000E+00  0.00000000000E+00  0.81754023059E+03  0.81754023059E+03  0.00000000000E+00 0.  1.
          1   -1    0    0  501    0  0.00000000000E+00 -0.00000000000E+00 -0.22039745659E+02  0.22039745659E+02  0.00000000000E+00 0. -1.
         25    2    1    2    0    0  0.77302606182E+02  0.10755220771E+02  0.47647450129E+03  0.49876587998E+03  0.12509230575E+03 0.  0.
          5    1    3    3  502    0  0.46755460949E+02  0.51934498130E+02  0.12265872394E+03  0.14122995498E+03  0.41800000000E+01 0.  1.
         -5    1    3    3    0  502  0.30547145234E+02 -0.41179277359E+02  0.35381577735E+03  0.35753592500E+03  0.41800000000E+01 0.  1.
        -11    1    1    2    0    0  0.31424021237E+01  0.29031848926E+02  0.98135165197E+02  0.10238766328E+03  0.00000000000E+00 0.  1.
         11    1    1    2    0    0 -0.80445008306E+02 -0.39787069697E+02  0.22089081845E+03  0.23842643299E+03  0.00000000000E+00 0. -1.
</event>
<event>
 7    1  0.2714042E-009  0.1273766E+03  0.7561462E-02  0.1231401E+00
          1   -1    0    0  501    0  0.00000000000E+00  0.00000000000E+00  0.23971882380E+03  0.23971882380E+03  0.00000000000E+00 0. -1.
         -1   -1    0    0    0  501 -0.00000000000E+00 -0.00000000000E+00 -0.12180881413E+03  0.12180881413E+03  0.00000000000E+00 0.  1.
         25    2    1    2    0    0  0.57504734410E+02 -0.86020277465E+02 -0.24838414828E+02  0.16422533221E+03  0.12508689090E+03 0.  0.
          5    1    3    3  502    0 -0.19190848920E+02 -0.70102051295E+02 -0.41832035377E+02  0.83964146288E+02  0.41800000000E+01 0. -1.
         -5    1    3    3    0  502  0.76695583331E+02 -0.15918226169E+02  0.16993620549E+02  0.80261185925E+02  0.41800000000E+01 0. -1.
        -11    1    1    2    0    0 -0.27681959215E+02  0.38858438262E+02  0.41470012576E+01  0.47890152533E+02  0.00000000000E+00 0.  1.
         11    1    1    2    0    0 -0.29822775195E+02  0.47161839202E+02  0.13860142324E+03  0.14941215319E+03  0.00000000000E+00 0. -1.
</event>
<event>
 7    1  0.2714042E-009  0.1038862E+03  0.7561462E-02  0.1272330E+00
          2   -1    0    0  501    0  0.00000000000E+00  0.00000000000E+00  0.32047939717E+03  0.32047939717E+03  0.00000000000E+00 0. -1.
         -2   -1    0    0    0  501 -0.00000000000E+00 -0.00000000000E+00 -0.54272946794E+02  0.54272946794E+02  0.00000000000E+00 0.  1.
         25    2    1    2    0    0  0.61448249060E+02  0.27318896272E+02  0.19330773904E+03  0.23986967751E+03  0.12508945124E+03 0.  0.
          5    1    3    3  502    0  0.90988626307E+01  0.39597619157E+02  0.17965049320E+03  0.18423499355E+03  0.41800000000E+01 0. -1.
         -5    1    3    3    0  502  0.52349386429E+02 -0.12278722886E+02  0.13657245841E+02  0.55634683958E+02  0.41800000000E+01 0. -1.
        -11    1    1    2    0    0 -0.99801301567E+01  0.32549687421E+02  0.16338860547E+02  0.37762991316E+02  0.00000000000E+00 0.  1.
         11    1    1    2    0    0 -0.51468118903E+02 -0.59868583693E+02  0.56559850791E+02  0.97119675135E+02  0.00000000000E+00 0. -1.
</event>
<event>
 7    1  0.2714042E-009  0.1207150E+03  0.7561462E-02  0.1241922E+00
         -3   -1    0    0    0  501 -0.00000000000E+00  0.00000000000E+00  0.11747288006E+03  0.11747288006E+03  0.00000000000E+00 0.  1.
          3   -1    0    0  501    0  0.00000000000E+00 -0.00000000000E+00 -0.17960217108E+03  0.17960217108E+03  0.00000000000E+00 0. -1.
         25    2    1    2    0    0 -0.64840350601E+02 -0.62407814486E+02 -0.34033069252E+02  0.15781309372E+03  0.12509083248E+03 0.  0.
          5    1    3    3  502    0 -0.11851914149E+01  0.34825142980E+02 -0.20737455290E+02  0.40764073817E+02  0.41800000000E+01 0.  1.
         -5    1    3    3    0  502 -0.63655159187E+02 -0.97232957466E+02 -0.13295613962E+02  0.11704901990E+03  0.41800000000E+01 0.  1.
        -11    1    1    2    0    0  0.56717536410E+02  0.55905741961E+02  0.26308122634E+02  0.83871617590E+02  0.00000000000E+00 0.  1.
         11    1    1    2    0    0  0.81228141915E+01  0.65020725249E+01 -0.54404344405E+02  0.55390339841E+02  0.00000000000E+00 0. -1.
</event>
<event>
 7    1  0.2714042E-009  0.6554286E+02  0.7561462E-02  0.1375941E+00
          2   -1    0    0  501    0  0.00000000000E+00  0.00000000000E+00  0.10049002757E+04  0.10049002757E+04  0.00000000000E+00 0. -1.
         -2   -1    0    0    0  501 -0.00000000000E+00 -0.00000000000E+00 -0.21206842561E+02  0.21206842561E+02  0.00000000000E+00 0.  1.
         25    2    1    2    0    0 -0.37315446146E+02 -0.33190524834E+02  0.83753142991E+03  0.84829234221E+03  0.12508776241E+03 0.  0.
          5    1    3    3  502    0  0.15946856030E+02 -0.14025860220E+02  0.68816183729E+03  0.68850215227E+03  0.41800000000E+01 0.  1.
         -5    1    3    3    0  502 -0.53262302176E+02 -0.19164664614E+02  0.14936959262E+03  0.15979018994E+03  0.41800000000E+01 0.  1.
        -11    1    1    2    0    0  0.14588151695E+02  0.24166403784E+02 -0.13782642873E+01  0.28261791418E+02  0.00000000000E+00 0.  1.
         11    1    1    2    0    0  0.22727294451E+02  0.90241210500E+01  0.14754026754E+03  0.14955298465E+03  0.00000000000E+00 0. -1.
</event>
<event>
 7    1  0.2714042E-009  0.1095508E+03  0.7561462E-02  0.1261404E+00
          1   -1    0    0  501    0  0.00000000000E+00  0.00000000000E+00  0.44928168605E+03  0.44928168605E+03  0.00000000000E+00 0. -1.
         -1   -1    0    0    0  501 -0.00000000000E+00 -0.00000000000E+00 -0.27029841533E+02  0.27029841533E+02  0.00000000000E+00 0.  1.
         25    2    1    2    0    0 -0.12709292477E+02  0.15731831334E+02  0.23626672508E+03  0.26810274762E+03  0.12509237096E+03 0.  0.
          5    1    3    3  502    0  0.86797417134E+00  0.70218228142E+02  0.13534509225E+03  0.15253563301E+03  0.41800000000E+01 0.  1.
         -5    1    3    3    0  502 -0.13577266648E+02 -0.54486396808E+02  0.10092163283E+03  0.11556711461E+03  0.41800000000E+01 0.  1.
        -11    1    1    2    0    0  0.16048771179E+02  0.36622743852E+02  0.96882838209E+02  0.10480969785E+03  0.00000000000E+00 0. -1.
         11    1    1    2    0    0 -0.33394787021E+01 -0.52354575186E+02  0.89102281229E+02  0.10339908211E+03  0.00000000000E+00 0.  1.
</event>
<event>
 7    1  0.2714042E-009  0.9596369E+02  0.7561462E-02  0.1289020E+00
          1   -1    0    0  501    0  0.00000000000E+00  0.00000000000E+00  0.10944035120E+03  0.10944035120E+03  0.00000000000E+00 0. -1.
         -1   -1    0    0    0  501 -0.00000000000E+00 -0.00000000000E+00 -0.12844772630E+03  0.12844772630E+03  0.00000000000E+00 0.  1.
         25    2    1    2    0    0  0.20739630299E+02 -0.25130359051E+02  0.24859191481E+02  0.13162867297E+03  0.12508581428E+03 0.  0.
          5    1    3    3  502    0 -0.22924507432E+01  0.45072242396E+02  0.34555134996E+02  0.56993790185E+02  0.41800000000E+01 0.  1.
         -5    1    3    3    0  502  0.23032081042E+02 -0.70202601447E+02 -0.96959435153E+01  0.74634882781E+02  0.41800000000E+01 0.  1.
        -11    1    1    2    0    0  0.11810048867E+02 -0.16165287398E+02  0.16687044061E+02  0.26062448281E+02  0.00000000000E+00 0. -1.
         11    1    1    2    0    0 -0.32549679166E+02  0.41295646449E+02 -0.60553610650E+02  0.80196956252E+02  0.00000000000E+00 0.  1.
</event>
<event>
 7    1  0.2714042E-009  0.1007339E+03  0.7561462E-02  0.1278760E+00
          3   -1    0    0  501    0  0.00000000000E+00  0.00000000000E+00  0.22034887352E+03  0.22034887352E+03  0.00000000000E+00 0. -1.
         -3   -1    0    0    0  501 -0.00000000000E+00 -0.00000000000E+00 -0.76771618574E+02  0.76771618574E+02  0.00000000000E+00 0.  1.
         25    2    1    2    0    0 -0.29171251892E+02  0.56795196027E+02  0.11688336315E+03  0.18271884336E+03  0.12509116240E+03 0.  0.
          5    1    3    3  502    0  0.28343353521E+01  0.58907397990E+02  0.13375300875E+03  0.14623766527E+03  0.41800000000E+01 0.  1.
         -5    1    3    3    0  502 -0.32005587244E+02 -0.21122019633E+01 -0.16869645602E+02  0.36481178089E+02  0.41800000000E+01 0.  1.
        -11    1    1    2    0    0  0.19875959912E+02  0.22579198442E+02  0.15066773981E+02  0.33643449034E+02  0.00000000000E+00 0.  1.
         11    1    1    2    0    0  0.92952919800E+01 -0.79374394469E+02  0.11627117822E+02  0.80758199702E+02  0.00000000000E+00 0. -1.
</event>
<event>
 7    1  0.2714042E-009  0.8895142E+02  0.7561462E-02  0.1305411E+00
          1   -1    0    0  501    0  0.00000000000E+00  0.00000000000E+00  0.11813307279E+03  0.11813307279E+03  0.00000000000E+00 0. -1.
         -1   -1    0    0    0  501 -0.00000000000E+00 -0.00000000000E+00 -0.10987957335E+03  0.10987957335E+03  0.00000000000E+00 0.  1.
         25    2    1    2    0    0  0.19686497744E+02  0.50257721220E+01 -0.22415079307E+02  0.12869711430E+03  0.12509074654E+03 0.  0.
          5    1    3    3  502    0 -0.27528144832E+02 -0.47743249175E+02 -0.39975308042E+01  0.55413619735E+02  0.41800000000E+01 0. -1.
         -5    1    3    3    0  502  0.47214642576E+02  0.52769021297E+02 -0.18417548502E+02  0.73283494561E+02  0.41800000000E+01 0. -1.
        -11    1    1    2    0    0  0.15847750068E+02 -0.28448873510E+01  0.54265803375E+02  0.56604080968E+02  0.00000000000E+00 0. -1.
         11    1    1    2    0    0 -0.35534247811E+02 -0.21808847709E+01 -0.23597224626E+02  0.42711450876E+02  0.00000000000E+00 0.  1.
</event>
<event>
 7    1  0.2714042E-009  0.3655383E+03  0.7561462E-02  0.1056412E+00
          1   -1    0    0  501    0  0.00000000000E+00  0.00000000000E+00  0.34842437151E+03  0.34842437151E+03  0.00000000000E+00 0. -1.
         -1   -1    0    0    0  501 -0.00000000000E+00 -0.00000000000E+00 -0.39924725829E+03  0.39924725829E+03  0.00000000000E+00 0.  1.
         25    2    1    2    0    0 -0.17177407040E+03 -0.30481245595E+03 -0.94450146327E+02  0.38338691760E+03  0.12509090245E+03 0.  0.
          5    1    3    3  502    0 -0.31617632309E+02 -0.18293706091E+03 -0.51488774834E+02  0.19270238519E+03  0.41800000000E+01 0.  1.
         -5    1    3    3    0  502 -0.14015643809E+03 -0.12187539505E+03 -0.42961371493E+02  0.19068453240E+03  0.41800000000E+01 0.  1.
        -11    1    1    2    0    0  0.70720766426E+02  0.20784316152E+03  0.76221833731E+01  0.21967772821E+03  0.00000000000E+00 0.  1.
         11    1    1    2    0    0  0.10105330398E+03  0.96969294435E+02  0.36005076174E+02  0.14460698399E+03  0.00000000000E+00 0. -1.
</event>
<event>
 7    1  0.2714042E-009  0.9111407E+02  0.7561462E-02  0.1300176E+00
          2   -1    0    0  501    0  0.00000000000E+00  0.00000000000E+00  0.53483427697E+03  0.53483427697E+03  0.00000000000E+00 0. -1.
         -2   -1    0    0    0  501 -0.00000000000E+00 -0.00000000000E+00 -0.38825150236E+02  0.38825150236E+02  0.00000000000E+00 0.  1.
         25    2    1    2    0    0 -0.35032556489E+02 -0.57983432335E+02  0.38580207833E+03  0.41119370916E+03  0.12509062464E+03 0.  0.
          5    1    3    3  502    0 -0.38948125711E+02 -0.37180212740E+02  0.38585506584E+03  0.38961638691E+03  0.41800000000E+01 0.  1.
         -5    1    3    3    0  502  0.39155692215E+01 -0.20803219594E+02 -0.52987513089E-01  0.21577322250E+02  0.41800000000E+01 0.  1.
        -11    1    1    2    0    0 -0.96719800864E+01  0.61071299196E+02  0.25997310965E+02  0.67075412497E+02  0.00000000000E+00 0.  1.
         11    1    1    2    0    0  0.44704536576E+02 -0.30878668614E+01  0.84209737443E+02  0.95390305548E+02  0.00000000000E+00 0. -1.
</event>
<event>
 7    1  0.2714042E-009  0.1071474E+03  0.7561462E-02  0.1265945E+00
          4   -1    0    0  501    0  0.00000000000E+00  0.00000000000E+00  0.35203393609E+02  0.35203393609E+02  0.00000000000E+00 0. -1.
         -4   -1    0    0    0  501 -0.00000000000E+00 -0.00000000000E+00 -0.40053447542E+03  0.40053447542E+03  0.00000000000E+00 0.  1.
         25    2    1    2    0    0 -0.22200726591E+02  0.92376874002E+01 -0.26379632676E+03  0.29294147836E+03  0.12509196857E+03 0.  0.
          5    1    3    3  502    0  0.49223466224E+02  0.21641589782E+02 -0.12924801201E+03  0.14004938073E+03  0.41800000000E+01 0. -1.
         -5    1    3    3    0  502 -0.71424192815E+02 -0.12403902382E+02 -0.13454831475E+03  0.15289209763E+03  0.41800000000E+01 0. -1.
        -11    1    1    2    0    0 -0.28740854037E+02  0.13749235222E+02 -0.73845657414E+02  0.80425488988E+02  0.00000000000E+00 0.  1.
         11    1    1    2    0    0  0.50941580628E+02 -0.22986922623E+02 -0.27689097631E+02  0.62370901679E+02  0.00000000000E+00 0. -1.
</event>
<event>
 7    1  0.2714042E-009  0.9907009E+02  0.7561462E-02  0.1282264E+00
         -1   -1    0    0    0  501 -0.00000000000E+00  0.00000000000E+00  0.22402301577E+03  0.22402301577E+03  0.00000000000E+00 0.  1.
          1   -1    0    0  501    0  0.00000000000E+00 -0.00000000000E+00 -0.57759442875E+02  0.57759442875E+02  0.00000000000E+00 0. -1.
         25    2    1    2    0    0  0.12473251563E+02 -0.17882583088E+02  0.12552812356E+03  0.17855089370E+03  0.12509093914E+03 0.  0.
          5    1    3    3  502    0  0.50602677612E+02 -0.46297467068E+02  0.37171008430E+02  0.78123253300E+02  0.41800000000E+01 0. -1.
         -5    1    3    3    0  502 -0.38129426049E+02  0.28414883980E+02  0.88357115134E+02  0.10042764040E+03  0.41800000000E+01 0. -1.
        -11    1    1    2    0    0 -0.40643540408E+02  0.30508718263E+02  0.49703073428E+02  0.71084982768E+02  0.00000000000E+00 0.  1.
         11    1    1    2    0    0  0.28170288845E+02 -0.12626135175E+02 -0.89676241023E+01  0.32146582168E+02  0.00000000000E+00 0. -1.
</event>
<event>
 7    1  0.2714042E-009  0.9488252E+02  0.7561462E-02  0.1291441E+00
         -2   -1    0    0    0  501 -0.00000000000E+00  0.00000000000E+00  0.42676032882E+02  0.42676032882E+02  0.00000000000E+00 0.  1.
          2   -1    0    0  501    0  0.00000000000E+00 -0.00000000000E+00 -0.40422238507E+03  0.40422238507E+03  0.00000000000E+00 0. -1.
         25    2    1    2    0    0  0.55089555807E+02  0.24765512780E+02 -0.27997734536E+03  0.31254281418E+03  0.12508999559E+03 0.  0.
          5    1    3    3  502    0 -0.21493616696E+02 -0.61235635325E+01 -0.18593845187E+03  0.18732339382E+03  0.41800000000E+01 0.  1.
         -5    1    3    3    0  502  0.76583172503E+02  0.30889076313E+02 -0.94038893499E+02  0.12521942037E+03  0.41800000000E+01 0.  1.
        -11    1    1    2    0    0 -0.52275483836E+02  0.67451445208E+01 -0.67704494521E+01  0.53141905975E+02  0.00000000000E+00 0.  1.
         11    1    1    2    0    0 -0.28140719711E+01 -0.31510657301E+02 -0.74798557367E+02  0.81213697790E+02  0.00000000000E+00 0. -1.
</event>
<event>
 7    1  0.2714042E-009  0.9168836E+02  0.7561462E-02  0.1298814E+00
         -4   -1    0    0    0  501 -0.00000000000E+00  0.00000000000E+00  0.22712826989E+03  0.22712826989E+03  0.00000000000E+00 0.  1.
          4   -1    0    0  501    0  0.00000000000E+00 -0.00000000000E+00 -0.64543410629E+02  0.64543410629E+02  0.00000000000E+00 0. -1.
         25    2    1    2    0    0 -0.53731003226E+02 -0.32761145932E+01  0.87838424887E+02  0.16205369515E+03  0.12509219636E+03 0.  0.
          5    1    3    3  502    0  0.13334283901E+02  0.37754999449E+02  0.70881140274E+02  0.81515958910E+02  0.41800000000E+01 0. -1.
         -5    1    3    3    0  502 -0.67065287127E+02 -0.41031114042E+02  0.16957284613E+02  0.80537736238E+02  0.41800000000E+01 0. -1.
        -11    1    1    2    0    0  0.73569684687E+01  0.14865191707E+02  0.79842363391E+02  0.81546930668E+02  0.00000000000E+00 0.  1.
         11    1    1    2    0    0  0.46374034757E+02 -0.11589077114E+02 -0.50959290125E+01  0.48071054706E+02  0.00000000000E+00 0. -1.
</event>
<event>
 7    1  0.2714042E-009  0.9184050E+02  0.7561462E-02  0.1298455E+00
          1   -1    0    0  501    0  0.00000000000E+00  0.00000000000E+00  0.10446945233E+04  0.10446945233E+04  0.00000000000E+00 0. -1.
         -1   -1    0    0    0  501 -0.00000000000E+00 -0.00000000000E+00 -0.25260726952E+02  0.25260726952E+02  0.00000000000E+00 0.  1.
         25    2    1    2    0    0  0.46874549025E+02  0.32581727780E+01  0.91386495200E+03  0.92358224043E+03  0.12508862977E+03 0.  0.
          5    1    3    3  502    0  0.43723386232E+02  0.35560841501E+02  0.84948570310E+03  0.85136345947E+03  0.41800000000E+01 0. -1.
         -5    1    3    3    0  502  0.31511627927E+01 -0.32302668723E+02  0.64379248904E+02  0.72218780958E+02  0.41800000000E+01 0. -1.
        -11    1    1    2    0    0  0.22241761178E+02  0.94542408401E+01  0.67115994639E+01  0.25082347927E+02  0.00000000000E+00 0.  1.
         11    1    1    2    0    0 -0.69116310203E+02 -0.12712413618E+02  0.98857244835E+02  0.12129066185E+03  0.00000000000E+00 0. -1.
</event>
<event>
 7    1  0.2714042E-009  0.1246443E+03  0.7561462E-02  0.1235626E+00
         -3   -1    0    0    0  501 -0.00000000000E+00  0.00000000000E+00  0.47881846579E+03  0.47881846579E+03  0.00000000000E+00 0.  1.
          3   -1    0    0  501    0  0.00000000000E+00 -0.00000000000E+00 -0.48779979769E+02  0.48779979769E+02  0.00000000000E+00 0. -1.
         25    2    1    2    0    0  0.10025567019E+03 -0.36338976829E+02  0.25109600499E+03  0.30011414644E+03  0.12509027352E+03 0.  0.
          5    1    3    3  502    0  0.29285046252E+02 -0.35971916310E+00  0.20688799983E+03  0.20899248839E+03  0.41800000000E+01 0. -1.
         -5    1    3    3    0  502  0.70970623939E+02 -0.35979257666E+02  0.44208005156E+02  0.91121658042E+02  0.41800000000E+01 0. -1.
        -11    1    1    2    0    0 -0.10759127666E+03  0.48581045649E+01  0.14487402940E+03  0.18052137931E+03  0.00000000000E+00 0.  1.
         11    1    1    2    0    0  0.73356064648E+01  0.31480872264E+02  0.34068451631E+02  0.46962919812E+02  0.00000000000E+00 0. -1.
</event>
<event>
 7    1  0.2714042E-009  0.1097302E+03  0.7561462E-02  0.1261070E+00
          1   -1    0    0  501    0  0.00000000000E+00  0.00000000000E+00  0.51054856633E+03  0.51054856633E+03  0.00000000000E+00 0. -1.
         -1   -1    0    0    0  501 -0.00000000000E+00 -0.00000000000E+00 -0.41188614206E+02  0.41188614206E+02  0.00000000000E+00 0.  1.
         25    2    1    2    0    0 -0.78401395784E+02  0.44121270326E+02  0.18844511767E+03  0.24341740724E+03  0.12508799470E+03 0.  0.
          5    1    3    3  502    0 -0.58477554650E+02  0.19219279821E+02  0.10493900936E+02  0.62582741004E+02  0.41800000000E+01 0. -1.
         -5    1    3    3    0  502 -0.19923841134E+02  0.24901990505E+02  0.17795121673E+03  0.18083466623E+03  0.41800000000E+01 0. -1.
        -11    1    1    2    0    0  0.50424975975E+02  0.21076746744E+02  0.99429054568E+02  0.11345943922E+03  0.00000000000E+00 0.  1.
         11    1    1    2    0    0  0.27976419809E+02 -0.65198017070E+02  0.18148577989E+03  0.19486033408E+03  0.00000000000E+00 0. -1.
</event>
<event>
 7    1  0.2714042E-009  0.1431269E+03  0.7561462E-02  0.1209182E+00
          1   -1    0    0  501    0  0.00000000000E+00  0.00000000000E+00  0.14196642506E+02  0.14196642506E+02  0.00000000000E+00 0. -1.
         -1   -1    0    0    0  501 -0.00000000000E+00 -0.00000000000E+00 -0.23869914814E+04  0.23869914814E+04  0.00000000000E+00 0.  1.
         25    2    1    2    0    0  0.79574618205E+02  0.57374420524E+02 -0.19644452531E+04  0.19708668590E+04  0.12508828643E+03 0.  0.
          5    1    3    3  502    0  0.10557719656E+03  0.12976641541E+02 -0.12211861751E+04  0.12258173127E+04  0.41800000000E+01 0. -1.
         -5    1    3    3    0  502 -0.26002578354E+02  0.44397778984E+02 -0.74325907804E+03  0.74504954623E+03  0.41800000000E+01 0. -1.
        -11    1    1    2    0    0 -0.58487108886E+02 -0.78788687511E+02 -0.36213710055E+03  0.37519552074E+03  0.00000000000E+00 0. -1.
         11    1    1    2    0    0 -0.21087509319E+02  0.21414266987E+02 -0.46212485231E+02  0.55125744177E+02  0.00000000000E+00 0.  1.
</event>
<event>
 7    1  0.2714042E-009  0.9995198E+02  0.7561462E-02  0.1280397E+00
         -2   -1    0    0    0  501 -0.00000000000E+00  0.00000000000E+00  0.26844081690E+02  0.26844081690E+02  0.00000000000E+00 0.  1.
          2   -1    0    0  501    0  0.00000000000E+00 -0.00000000000E+00 -0.61152649357E+03  0.61152649357E+03  0.00000000000E+00 0. -1.
         25    2    1    2    0    0 -0.44937942587E+02  0.55173201296E+02 -0.33963973531E+03  0.36887047579E+03  0.12508707879E+03 0.  0.
          5    1    3    3  502    0  0.32532060063E+02 -0.41603623132E+00 -0.28608478010E+02  0.43524997785E+02  0.41800000000E+01 0.  1.
         -5    1    3    3    0  502 -0.77470002651E+02  0.55589237527E+02 -0.31103125730E+03  0.32534547800E+03  0.41800000000E+01 0.  1.
        -11    1    1    2    0    0  0.76984061842E+01 -0.15132956901E+02  0.14262297271E+01  0.17038367691E+02  0.00000000000E+00 0.  1.
         11    1    1    2    0    0  0.37239536403E+02 -0.40040244395E+02 -0.24646890630E+03  0.25246173178E+03  0.00000000000E+00 0. -1.
</event>
<event>
 7    1  0.4304855E-009  0.1216778E+03  0.7561462E-02  0.1240355E+00
         -1   -1    0    0    0  501 -0.00000000000E+00  0.00000000000E+00  0.69528079324E+02  0.69528079324E+02  0.00000000000E+00 0.  1.
          1   -1    0    0  501    0  0.00000000000E+00 -0.00000000000E+00 -0.32177225211E+03  0.32177225211E+03  0.00000000000E+00 0. -1.
         25    2    1    2    0    0  0.11991750608E+02  0.77093271625E+02 -0.49172924788E+02  0.15540406602E+03  0.12508106407E+03 0.  0.
          5    1    3    3  502    0 -0.76903934927E+01  0.10885583354E+03 -0.30293810436E+02  0.11333102840E+03  0.41800000000E+01 0.  1.
         -5    1    3    3    0  502  0.19682144100E+02 -0.31762561912E+02 -0.18879114352E+02  0.42073037617E+02  0.41800000000E+01 0.  1.
        -11    1    1    2    0    0  0.20196902093E+02 -0.51842906221E+02 -0.42000352569E+02  0.69711056480E+02  0.00000000000E+00 0.  1.
         11    1    1    2    0    0 -0.32188652701E+02 -0.25250365404E+02 -0.16107089543E+03  0.16618520894E+03  0.00000000000E+00 0. -1.
</event>
<event>
 7    1  0.2714042E-009  0.6089506E+02  0.7561462E-02  0.1394114E+00
          2   -1    0    0  501    0  0.00000000000E+00  0.00000000000E+00  0.47251869683E+03  0.47251869683E+03  0.00000000000E+00 0. -1.
         -2   -1    0    0    0  501 -0.00000000000E+00 -0.00000000000E+00 -0.25885065167E+02  0.25885065167E+02  0.00000000000E+00 0.  1.
         25    2    1    2    0    0 -0.13095621300E+02  0.36430363029E+01  0.31046441763E+03  0.33499212304E+03  0.12508717310E+03 0.  0.
          5    1    3    3  502    0 -0.20548496831E+02 -0.90486247478E+01 -0.12783573667E+01  0.22874110461E+02  0.41800000000E+01 0.  1.
         -5    1    3    3    0  502  0.74528755308E+01  0.12691661051E+02  0.31174277500E+03  0.31211801258E+03  0.41800000000E+01 0.  1.
        -11    1    1    2    0    0 -0.30109757859E+02  0.18257337791E+02  0.28333961274E+02  0.45196695267E+02  0.00000000000E+00 0.  1.
         11    1    1    2    0    0  0.43205379159E+02 -0.21900374094E+02  0.10783525276E+03  0.11821494369E+03  0.00000000000E+00 0. -1.
</event>
<event>
 7    1  0.3400085E-009  0.1395447E+03  0.7561462E-02  0.1213943E+00
          2   -1    0    0  501    0  0.00000000000E+00  0.00000000000E+00  0.59160245601E+03  0.59160245601E+03  0.00000000000E+00 0. -1.
         -2   -1    0    0    0  501 -0.00000000000E+00 -0.00000000000E+00 -0.48320320356E+02  0.48320320356E+02  0.00000000000E+00 0.  1.
         25    2    1    2    0    0 -0.73023947145E+02  0.64706751330E+02  0.12902891994E+03  0.20448744344E+03  0.12508873578E+03 0.  0.
          5    1    3    3  502    0 -0.53752374432E+02 -0.27475356334E+02  0.29215985159E+02  0.67195678072E+02  0.41800000000E+01 0. -1.
         -5    1    3    3    0  502 -0.19271572714E+02  0.92182107664E+02  0.99812934782E+02  0.13729176537E+03  0.41800000000E+01 0. -1.
        -11    1    1    2    0    0  0.81306051188E+02 -0.26951265841E+02  0.35105334044E+03  0.36135231081E+03  0.00000000000E+00 0.  1.
         11    1    1    2    0    0 -0.82821040429E+01 -0.37755485490E+02  0.63199875271E+02  0.74083022119E+02  0.00000000000E+00 0. -1.
</event>
<event>
 7    1  0.2714042E-009  0.1365157E+03  0.7561462E-02  0.1218096E+00
         -3   -1    0    0    0  501 -0.00000000000E+00  0.00000000000E+00  0.31535350616E+02  0.31535350616E+02  0.00000000000E+00 0.  1.
          3   -1    0    0  501    0  0.00000000000E+00 -0.00000000000E+00 -0.66890880733E+03  0.66890880733E+03  0.00000000000E+00 0. -1.
         25    2    1    2    0    0 -0.22100663024E+02 -0.82412215113E+02 -0.45612851607E+03  0.48060428496E+03  0.12508814110E+03 0.  0.
          5    1    3    3  502    0 -0.28227282385E+02  0.27180496924E+02 -0.15934091099E+03  0.16414188131E+03  0.41800000000E+01 0.  1.
         -5    1    3    3    0  502  0.61266193607E+01 -0.10959271204E+03 -0.29678760508E+03  0.31646240365E+03  0.41800000000E+01 0.  1.
        -11    1    1    2    0    0  0.86724375208E+01 -0.19313551893E+02 -0.23202476785E+02  0.31409861322E+02  0.00000000000E+00 0.  1.
         11    1    1    2    0    0  0.13428225503E+02  0.10172576701E+03 -0.15804246386E+03  0.18843001167E+03  0.00000000000E+00 0. -1.
</event>
<event>
 7    1  0.2714042E-009  0.1591460E+03  0.7561462E-02  0.1189664E+00
          2   -1    0    0  501    0  0.00000000000E+00  0.00000000000E+00  0.10260300622E+04  0.10260300622E+04  0.00000000000E+00 0. -1.
         -2   -1    0    0    0  501 -0.00000000000E+00 -0.00000000000E+00 -0.30794714105E+02  0.30794714105E+02  0.00000000000E+00 0.  1.
         25    2    1    2    0    0 -0.11602670266E+03  0.43462357626E+02  0.72937198641E+03  0.75032117971E+03  0.12508879208E+03 0.  0.
          5    1    3    3  502    0 -0.13831584194E+03  0.21448484772E+02  0.51775928711E+03  0.53636131611E+03  0.41800000000E+01 0.  1.
         -5    1    3    3    0  502  0.22289139278E+02  0.22013872854E+02  0.21161269930E+03  0.21395986360E+03  0.41800000000E+01 0.  1.
        -11    1    1    2    0    0  0.24052582103E+02 -0.48926599305E+02  0.60630094461E+02  0.81537397430E+02  0.00000000000E+00 0. -1.
         11    1    1    2    0    0  0.91974120560E+02  0.54642416786E+01  0.20523326722E+03  0.22496619916E+03  0.00000000000E+00 0.  1.
</event>
<event>
 7    1  0.2714042E-009  0.1104235E+03  0.7561462E-02  0.1259788E+00
          2   -1    0    0  501    0  0.00000000000E+00  0.00000000000E+00  0.79427290546E+03  0.79427290546E+03  0.00000000000E+00 0.  1.
         -2   -1    0    0    0  501 -0.00000000000E+00 -0.00000000000E+00 -0.16688919741E+02  0.16688919741E+02  0.00000000000E+00 0. -1.
         25    2    1    2    0    0 -0.16524890752E+02 -0.34439435685E+02  0.47732363345E+03  0.49491912900E+03  0.12509175215E+03 0.  0.
          5    1    3    3  502    0 -0.74961617372E+01  0.44913980978E+02  0.24459641330E+03  0.24883395252E+03  0.41800000000E+01 0. -1.
         -5    1    3    3    0  502 -0.90287290147E+01 -0.79353416663E+02  0.23272722015E+03  0.24608517647E+03  0.41800000000E+01 0. -1.
        -11    1    1    2    0    0  0.52591614944E+02  0.21751328666E+02  0.21840560196E+03  0.22569892607E+03  0.00000000000E+00 0.  1.
         11    1    1    2    0    0 -0.36066724192E+02  0.12688107019E+02  0.81854750310E+02  0.90343770134E+02  0.00000000000E+00 0. -1.
</event>
<event>
 7    1  0.2714042E-009  0.9630671E+02  0.7561462E-02  0.1288260E+00
         -1   -1    0    0    0  501 -0.00000000000E+00  0.00000000000E+00  0.24901202784E+02  0.24901202784E+02  0.00000000000E+00 0.  1.
          1   -1    0    0  501    0  0.00000000000E+00 -0.00000000000E+00 -0.58694232355E+03  0.58694232355E+03  0.00000000000E+00 0. -1.
         25    2    1    2    0    0 -0.40051004168E+02  0.92851427017E+01 -0.40647824957E+03  0.42727313424E+03  0.12508983596E+03 0.  0.
          5    1    3    3  502    0  0.28280002984E+02 -0.22405450392E+02 -0.25985811306E+03  0.26238421084E+03  0.41800000000E+01 0. -1.
         -5    1    3    3    0  502 -0.68331007152E+02  0.31690593094E+02 -0.14662013651E+03  0.16488892340E+03  0.41800000000E+01 0. -1.
        -11    1    1    2    0    0  0.57695703170E+02  0.53316885251E+01 -0.49947414195E+02  0.76498138876E+02  0.00000000000E+00 0.  1.
         11    1    1    2    0    0 -0.17644699002E+02 -0.14616831227E+02 -0.10561545700E+03  0.10807225322E+03  0.00000000000E+00 0. -1.
</event>
<event>
 7    1  0.2714042E-009  0.2396678E+03  0.7561462E-02  0.1120014E+00
         -2   -1    0    0    0  501 -0.00000000000E+00  0.00000000000E+00  0.26092443916E+03  0.26092443916E+03  0.00000000000E+00 0.  1.
          2   -1    0    0  501    0  0.00000000000E+00 -0.00000000000E+00 -0.24698717867E+03  0.24698717867E+03  0.00000000000E+00 0. -1.
         25    2    1    2    0    0 -0.79157856546E+02  0.21298094120E+03 -0.14200209750E+02  0.25976673737E+03  0.12510101646E+03 0.  0.
          5    1    3    3  502    0 -0.56953583923E+01  0.15600453801E+03 -0.43660768958E+02  0.16215297756E+03  0.41800000000E+01 0. -1.
         -5    1    3    3    0  502 -0.73462498153E+02  0.56976403198E+02  0.29460559208E+02  0.97613759815E+02  0.41800000000E+01 0. -1.
        -11    1    1    2    0    0  0.51696723436E+02 -0.87259912009E+02  0.56885525952E+02  0.11628760261E+03  0.00000000000E+00 0.  1.
         11    1    1    2    0    0  0.27461133110E+02 -0.12572102919E+03 -0.28748055714E+02  0.13185727785E+03  0.00000000000E+00 0. -1.
</event>
<event>
 7    1  0.5350311E-009  0.1519343E+03  0.7561462E-02  0.1198116E+00
          1   -1    0    0  501    0  0.00000000000E+00  0.00000000000E+00  0.54371030180E+03  0.54371030180E+03  0.00000000000E+00 0. -1.
         -1   -1    0    0    0  501 -0.00000000000E+00 -0.00000000000E+00 -0.58633878098E+02  0.58633878098E+02  0.00000000000E+00 0.  1.
         25    2    1    2    0    0 -0.10487192165E+03 -0.88598579674E+02  0.20106338397E+03  0.27371823363E+03  0.12508940312E+03 0.  0.
          5    1    3    3  502    0 -0.15701903942E+01 -0.50928455067E+01 -0.17027578229E+02  0.18325211965E+02  0.41800000000E+01 0.  1.
         -5    1    3    3    0  502 -0.10330173126E+03 -0.83505734167E+02  0.21809096220E+03  0.25539302166E+03  0.41800000000E+01 0.  1.
        -11    1    1    2    0    0  0.10534508623E+03  0.35601775963E+02  0.17374255193E+03  0.20628026564E+03  0.00000000000E+00 0.  1.
         11    1    1    2    0    0 -0.47316457478E+00  0.52996803710E+02  0.11027048781E+03  0.12234568063E+03  0.00000000000E+00 0. -1.
</event>
<event>
 7    1  0.2714042E-009  0.1309567E+03  0.7561462E-02  0.1226043E+00
          1   -1    0    0  501    0  0.00000000000E+00  0.00000000000E+00  0.15904621511E+03  0.15904621511E+03  0.00000000000E+00 0. -1.
         -1   -1    0    0    0  501 -0.00000000000E+00 -0.00000000000E+00 -0.14578102292E+03  0.14578102292E+03  0.00000000000E+00 0.  1.
         25    2    1    2    0    0 -0.21896765606E+02 -0.10131332998E+03 -0.11300687623E+02  0.16284371119E+03  0.12508600864E+03 0.  0.
          5    1    3    3  502    0 -0.65137246466E+02 -0.34214700501E+02  0.21002074532E+02  0.76629407816E+02  0.41800000000E+01 0. -1.
         -5    1    3    3    0  502  0.43240480860E+02 -0.67098629480E+02 -0.32302762156E+02  0.86214303372E+02  0.41800000000E+01 0. -1.
        -11    1    1    2    0    0  0.30034009975E+02  0.77301816403E+02  0.57136669804E+02  0.10070854785E+03  0.00000000000E+00 0. -1.
         11    1    1    2    0    0 -0.81372443688E+01  0.24011513578E+02 -0.32570789985E+02  0.41274978988E+02  0.00000000000E+00 0.  1.
</event>
<event>
 7    1  0.2714042E-009  0.1247369E+03  0.7561462E-02  0.1235481E+00
          1   -1    0    0  501    0  0.00000000000E+00  0.00000000000E+00  0.35135434360E+03  0.35135434360E+03  0.00000000000E+00 0. -1.
         -1   -1    0    0    0  501 -0.00000000000E+00 -0.00000000000E+00 -0.97766834075E+02  0.97766834075E+02  0.00000000000E+00 0.  1.
         25    2    1    2    0    0  0.51575443909E+02 -0.78952895257E+02 -0.63977451608E+01  0.15678526820E+03  0.12508838114E+03 0.  0.
          5    1    3    3  502    0 -0.10095107627E+02  0.12174509503E+02 -0.38713614033E+02  0.42027921566E+02  0.41800000000E+01 0. -1.
         -5    1    3    3    0  502  0.61670551537E+02 -0.91127404760E+02  0.32315868872E+02  0.11475734663E+03  0.41800000000E+01 0. -1.
        -11    1    1    2    0    0 -0.48908738854E+01 -0.16249299672E+02  0.76226175961E+01  0.18602813933E+02  0.00000000000E+00 0.  1.
         11    1    1    2    0    0 -0.46684570024E+02  0.95202194929E+02  0.25236263709E+03  0.27373309555E+03  0.00000000000E+00 0. -1.
</event>
<event>
 7    1  0.2714042E-009  0.1229514E+03  0.7561462E-02  0.1238306E+00
          2   -1    0    0  501    0  0.00000000000E+00  0.00000000000E+00  0.95701193762E+03  0.95701193762E+03  0.00000000000E+00 0. -1.
         -2   -1    0    0    0  501 -0.00000000000E+00 -0.00000000000E+00 -0.24029109177E+02  0.24029109177E+02  0.00000000000E+00 0.  1.
         25    2    1    2    0    0 -0.88629344822E+02  0.56870424218E+02  0.46203037870E+03  0.49011093248E+03  0.12508896589E+03 0.  0.
          5    1    3    3  502    0 -0.15080892805E+02 -0.13639024509E+02  0.28543222304E+03  0.28618609796E+03  0.41800000000E+01 0. -1.
         -5    1    3    3    0  502 -0.73548452016E+02  0.70509448728E+02  0.17659815566E+03  0.20392483453E+03  0.41800000000E+01 0. -1.
        -11    1    1    2    0    0  0.91195578514E+02 -0.29743720159E+02  0.43695980308E+03  0.44736471915E+03  0.00000000000E+00 0. -1.
         11    1    1    2    0    0 -0.25662336923E+01 -0.27126704060E+02  0.33992646670E+02  0.43565395168E+02  0.00000000000E+00 0.  1.
</event>
<event>
 7    1  0.2714042E-009  0.7849492E+02  0.7561462E-02  0.1333378E+00
         -3   -1    0    0    0  501 -0.00000000000E+00  0.00000000000E+00  0.32713880222E+03  0.32713880222E+03  0.00000000000E+00 0.  1.
          3   -1    0    0  501    0  0.00000000000E+00 -0.00000000000E+00 -0.41753349069E+02  0.41753349069E+02  0.00000000000E+00 0. -1.
         25    2    1    2    0    0 -0.95950967921E+01 -0.28076715369E+02  0.13086593407E+03  0.18344555189E+03  0.12508401169E+03 0.  0.
          5    1    3    3  502    0 -0.45421691860E+02  0.20777131805E+02  0.14484802858E+02  0.52173759796E+02  0.41800000000E+01 0. -1.
         -5    1    3    3    0  502  0.35826595068E+02 -0.48853847174E+02  0.11638113121E+03  0.13127179210E+03  0.41800000000E+01 0. -1.
        -11    1    1    2    0    0 -0.11720376131E+02  0.11187611074E+01 -0.11170748501E+02  0.16229740144E+02  0.00000000000E+00 0. -1.
         11    1    1    2    0    0  0.21315472923E+02  0.26957954262E+02  0.16569026758E+03  0.16921685925E+03  0.00000000000E+00 0.  1.
</event>
<event>
 7    1  0.2714042E-009  0.3560847E+03  0.7561462E-02  0.1060145E+00
          2   -1    0    0  501    0  0.00000000000E+00  0.00000000000E+00  0.10692756101E+04  0.10692756101E+04  0.00000000000E+00 0.  1.
         -2   -1    0    0    0  501 -0.00000000000E+00 -0.00000000000E+00 -0.19176758167E+03  0.19176758167E+03  0.00000000000E+00 0. -1.
         25    2    1    2    0    0 -0.33904589556E+03 -0.84666449451E+02  0.71632011243E+02  0.37802053700E+03  0.12509138419E+03 0.  0.
          5    1    3    3  502    0 -0.18324668040E+03 -0.67070712571E+02  0.98924813046E+02  0.21881822913E+03  0.41800000000E+01 0.  1.
         -5    1    3    3    0  502 -0.15579921516E+03 -0.17595736880E+02 -0.27292801803E+02  0.15920230786E+03  0.41800000000E+01 0.  1.
        -11    1    1    2    0    0  0.16905865841E+03  0.87019994896E+02  0.39571855213E+03  0.43902902181E+03  0.00000000000E+00 0.  1.
         11    1    1    2    0    0  0.16998723715E+03 -0.23535454450E+01  0.41015746501E+03  0.44399363292E+03  0.00000000000E+00 0. -1.
</event>
<event>
 7    1  0.2714042E-009  0.1093539E+03  0.7561462E-02  0.1261771E+00
         -1   -1    0    0    0  501 -0.00000000000E+00  0.00000000000E+00  0.22645549162E+02  0.22645549162E+02  0.00000000000E+00 0.  1.
          1   -1    0    0  501    0  0.00000000000E+00 -0.00000000000E+00 -0.87425203267E+03  0.87425203267E+03  0.00000000000E+00 0. -1.
         25    2    1    2    0    0  0.60037623652E+02  0.67077271266E+02 -0.49358378391E+03  0.51708492278E+03  0.12509192244E+03 0.  0.
          5    1    3    3  502    0  0.14828509737E+02  0.35001631494E+01  0.15046248494E+01  0.15870480113E+02  0.41800000000E+01 0.  1.
         -5    1    3    3    0  502  0.45209113915E+02  0.63577108117E+02 -0.49508840876E+03  0.50121444267E+03  0.41800000000E+01 0.  1.
        -11    1    1    2    0    0  0.22352978694E+02 -0.19374180064E+02 -0.11666776278E+03  0.12035938427E+03  0.00000000000E+00 0.  1.
         11    1    1    2    0    0 -0.82390602345E+02 -0.47703091202E+02 -0.24135493682E+03  0.25945327478E+03  0.00000000000E+00 0. -1.
</event>
<event>
 7    1  0.2714042E-009  0.1050283E+03  0.7561462E-02  0.1270064E+00
         -1   -1    0    0    0  501 -0.00000000000E+00  0.00000000000E+00  0.10408133948E+03  0.10408133948E+03  0.00000000000E+00 0.  1.
          1   -1    0    0  501    0  0.00000000000E+00 -0.00000000000E+00 -0.16083164585E+03  0.16083164585E+03  0.00000000000E+00 0. -1.
         25    2    1    2    0    0  0.58213801895E+02 -0.40946036443E+02 -0.20220348874E+02  0.14532283690E+03  0.12507773497E+03 0.  0.
          5    1    3    3  502    0  0.94098091574E+02 -0.40390076075E+02 -0.31925368018E+02  0.10734295788E+03  0.41800000000E+01 0.  1.
         -5    1    3    3    0  502 -0.35884289678E+02 -0.55596036812E+00  0.11705019144E+02  0.37979879026E+02  0.41800000000E+01 0.  1.
        -11    1    1    2    0    0 -0.45668808062E+02  0.28880951542E+02  0.22138707864E+02  0.58394107388E+02  0.00000000000E+00 0.  1.
         11    1    1    2    0    0 -0.12544993833E+02  0.12065084901E+02 -0.58668665357E+02  0.61196041037E+02  0.00000000000E+00 0. -1.
</event>
<event>
 7    1  0.2714042E-009  0.2262134E+03  0.7561462E-02  0.1129334E+00
          2   -1    0    0  501    0  0.00000000000E+00  0.00000000000E+00  0.86679521132E+02  0.86679521132E+02  0.00000000000E+00 0. -1.
         -2   -1    0    0    0  501 -0.00000000000E+00 -0.00000000000E+00 -0.77193822082E+03  0.77193822082E+03  0.00000000000E+00 0.  1.
         25    2    1    2    0    0 -0.19669594190E+03  0.90903030553E+02 -0.20409072589E+03  0.32288222882E+03  0.12508898740E+03 0.  0.
          5    1    3    3  502    0 -0.87040219873E+02  0.62721871240E+02 -0.23838052971E+02  0.10998071730E+03  0.41800000000E+01 0. -1.
         -5    1    3    3    0  502 -0.10965572203E+03  0.28181159313E+02 -0.18025267292E+03  0.21290151153E+03  0.41800000000E+01 0. -1.
        -11    1    1    2    0    0  0.70305577891E+02  0.87033591956E+01 -0.19433677925E+03  0.20684633551E+03  0.00000000000E+00 0. -1.
         11    1    1    2    0    0  0.12639036401E+03 -0.99606389748E+02 -0.28683119454E+03  0.32888917762E+03  0.00000000000E+00 0.  1.
</event>
<event>
 7    1  0.2714042E-009  0.1988296E+03  0.7561462E-02  0.1150730E+00
         -3   -1    0    0    0  501 -0.00000000000E+00  0.00000000000E+00  0.59399657419E+03  0.59399657419E+03  0.00000000000E+00 0.  1.
          3   -1    0    0  501    0  0.00000000000E+00 -0.00000000000E+00 -0.74818104248E+02  0.74818104248E+02  0.00000000000E+00 0. -1.
         25    2    1    2    0    0  0.77977573665E+02  0.16059199921E+03  0.22753204624E+03  0.31510119233E+03  0.12509051577E+03 0.  0.
          5    1    3    3  502    0  0.10155412583E+03  0.13101968502E+03  0.13094719628E+03  0.21129136033E+03  0.41800000000E+01 0.  1.
         -5    1    3    3    0  502 -0.23576552163E+02  0.29572314188E+02  0.96584849953E+02  0.10380983199E+03  0.41800000000E+01 0.  1.
        -11    1    1    2    0    0 -0.92067299182E+02 -0.15060351260E+03  0.23139255131E+03  0.29103319122E+03  0.00000000000E+00 0. -1.
         11    1    1    2    0    0  0.14089725517E+02 -0.99884866132E+01  0.60253872395E+02  0.62680294899E+02  0.00000000000E+00 0.  1.
</event>
<event>
 7    1  0.2714042E-009  0.1981429E+03  0.7561462E-02  0.1151315E+00
          2   -1    0    0  501    0  0.00000000000E+00  0.00000000000E+00  0.13795056345E+04  0.13795056345E+04  0.00000000000E+00 0.  1.
         -2   -1    0    0    0  501 -0.00000000000E+00 -0.00000000000E+00 -0.36602599235E+02  0.36602599235E+02  0.00000000000E+00 0. -1.
         25    2    1    2    0    0 -0.16391028585E+03  0.87511759404E+02  0.49394631807E+03  0.54235916422E+03  0.12508240497E+03 0.  0.
          5    1    3    3  502    0  0.18805228211E+01  0.36983251004E+01  0.16069492785E+03  0.16080281780E+03  0.41800000000E+01 0.  1.
         -5    1    3    3    0  502 -0.16579080867E+03  0.83813434304E+02  0.33325139022E+03  0.38155634642E+03  0.41800000000E+01 0.  1.
        -11    1    1    2    0    0  0.54284767723E+02 -0.77327664269E+02  0.33097651136E+03  0.34419740665E+03  0.00000000000E+00 0. -1.
         11    1    1    2    0    0  0.10962551812E+03 -0.10184095136E+02  0.51798020581E+03  0.52955166285E+03  0.00000000000E+00 0.  1.
</event>
<event>
 7    1  0.2714042E-009  0.1451681E+03  0.7561462E-02  0.1206539E+00
         -2   -1    0    0    0  501 -0.00000000000E+00  0.00000000000E+00  0.45393867480E+02  0.45393867480E+02  0.00000000000E+00 0.  1.
          2   -1    0    0  501    0  0.00000000000E+00 -0.00000000000E+00 -0.75515348509E+03  0.75515348509E+03  0.00000000000E+00 0. -1.
         25    2    1    2    0    0  0.89696730833E+02  0.68479808289E+02 -0.16002405237E+03  0.23235799464E+03  0.12509017815E+03 0.  0.
          5    1    3    3  502    0 -0.55518960803E+01 -0.29076894157E+02 -0.44469894896E+02  0.53584823187E+02  0.41800000000E+01 0.  1.
         -5    1    3    3    0  502  0.95248626913E+02  0.97556702447E+02 -0.11555415747E+03  0.17877317145E+03  0.41800000000E+01 0.  1.
        -11    1    1    2    0    0 -0.90447881894E+02 -0.45877492277E+02 -0.52486817524E+03  0.53457662221E+03  0.00000000000E+00 0. -1.
         11    1    1    2    0    0  0.75115106106E+00 -0.22602316012E+02 -0.24867390000E+02  0.33612735717E+02  0.00000000000E+00 0.  1.
</event>
<event>
 7    1  0.2714042E-009  0.1022006E+03  0.7561462E-02  0.1275735E+00
         -2   -1    0    0    0  501 -0.00000000000E+00  0.00000000000E+00  0.86344592100E+01  0.86344592100E+01  0.00000000000E+00 0.  1.
          2   -1    0    0  501    0  0.00000000000E+00 -0.00000000000E+00 -0.12618034787E+04  0.12618034787E+04  0.00000000000E+00 0. -1.
         25    2    1    2    0    0  0.86081122268E+01  0.39795614966E+01 -0.87699335344E+03  0.88592080777E+03  0.12509356164E+03 0.  0.
          5    1    3    3  502    0  0.53092978855E+02  0.41151369496E+02 -0.47980853851E+03  0.48450593973E+03  0.41800000000E+01 0. -1.
         -5    1    3    3    0  502 -0.44484866628E+02 -0.37171807999E+02 -0.39718481493E+03  0.40141486804E+03  0.41800000000E+01 0. -1.
        -11    1    1    2    0    0 -0.42158706088E+02 -0.13208381454E+02 -0.23496797142E+03  0.23908526812E+03  0.00000000000E+00 0.  1.
         11    1    1    2    0    0  0.33550593861E+02  0.92288199576E+01 -0.14120769464E+03  0.14543186203E+03  0.00000000000E+00 0. -1.
</event>
<event>
 7    1  0.2874367E-009  0.1250021E+03  0.7561462E-02  0.1235066E+00
         -1   -1    0    0    0  501 -0.00000000000E+00  0.00000000000E+00  0.50925639495E+02  0.50925639495E+02  0.00000000000E+00 0.  1.
          1   -1    0    0  501    0  0.00000000000E+00 -0.00000000000E+00 -0.37675540956E+03  0.37675540956E+03  0.00000000000E+00 0. -1.
         25    2    1    2    0    0 -0.10685192177E+02  0.84633026109E+02 -0.19915493118E+03  0.25017515370E+03  0.12509196007E+03 0.  0.
          5    1    3    3  502    0 -0.53154037548E+02  0.42279937425E+02 -0.37487981780E+02  0.77690192394E+02  0.41800000000E+01 0.  1.
         -5    1    3    3    0  502  0.42468845372E+02  0.42353088684E+02 -0.16166694940E+03  0.17248496131E+03  0.41800000000E+01 0.  1.
        -11    1    1    2    0    0  0.38062831934E+02 -0.59521258705E+01 -0.57546758665E+02  0.69251977662E+02  0.00000000000E+00 0. -1.
         11    1    1    2    0    0 -0.27377639757E+02 -0.78680900238E+02 -0.69128080217E+02  0.10825391769E+03  0.00000000000E+00 0.  1.
</event>
<event>
 7    1  0.2714042E-009  0.1245199E+03  0.7561462E-02  0.1235821E+00
          1   -1    0    0  501    0  0.00000000000E+00  0.00000000000E+00  0.22354836800E+03  0.22354836800E+03  0.00000000000E+00 0. -1.
         -1   -1    0    0    0  501 -0.00000000000E+00 -0.00000000000E+00 -0.11981199837E+03  0.11981199837E+03  0.00000000000E+00 0.  1.
         25    2    1    2    0    0 -0.10532058497E+03  0.54903794727E+02  0.85568101179E+02  0.19255103337E+03  0.12508856150E+03 0.  0.
          5    1    3    3  502    0 -0.10672725619E+03  0.43752584812E+02  0.97982679853E+01  0.11583813857E+03  0.41800000000E+01 0.  1.
         -5    1    3    3    0  502  0.14066712223E+01  0.11151209915E+02  0.75769833193E+02  0.76712894800E+02  0.41800000000E+01 0.  1.
        -11    1    1    2    0    0  0.57329363950E+02 -0.15124156509E+02  0.52893518269E+02  0.79455146818E+02  0.00000000000E+00 0. -1.
         11    1    1    2    0    0  0.47991221016E+02 -0.39779638218E+02 -0.34725249812E+02  0.71354186184E+02  0.00000000000E+00 0.  1.
</event>
<event>
 7    1  0.3997599E-009  0.1548598E+03  0.7561462E-02  0.1194625E+00
          2   -1    0    0  501    0  0.00000000000E+00  0.00000000000E+00  0.14757910084E+04  0.14757910084E+04  0.00000000000E+00 0.  1.
         -2   -1    0    0    0  501 -0.00000000000E+00 -0.00000000000E+00 -0.19898337851E+02  0.19898337851E+02  0.00000000000E+00 0. -1.
         25    2    1    2    0    0 -0.11587139795E+03  0.64080151942E+02  0.77627282366E+03  0.79735785293E+03  0.12509037586E+03 0.  0.
          5    1    3    3  502    0 -0.27519681152E+01  0.55912584154E+02  0.13642658228E+03  0.14752448999E+03  0.41800000000E+01 0.  1.
         -5    1    3    3    0  502 -0.11311942984E+03  0.81675677879E+01  0.63984624138E+03  0.64983336293E+03  0.41800000000E+01 0.  1.
        -11    1    1    2    0    0  0.13657767946E+02  0.72383043069E+01  0.13108879844E+02  0.20267471605E+02  0.00000000000E+00 0. -1.
         11    1    1    2    0    0  0.10221363000E+03 -0.71318456249E+02  0.66651096702E+03  0.67806402169E+03  0.00000000000E+00 0.  1.
</event>
<event>
 7    1  0.2714042E-009  0.1901244E+03  0.7561462E-02  0.1158349E+00
          2   -1    0    0  501    0  0.00000000000E+00  0.00000000000E+00  0.85208448644E+03  0.85208448644E+03  0.00000000000E+00 0. -1.
         -2   -1    0    0    0  501 -0.00000000000E+00 -0.00000000000E+00 -0.53516004005E+02  0.53516004005E+02  0.00000000000E+00 0.  1.
         25    2    1    2    0    0 -0.17578164062E+03 -0.15547046973E+02  0.30695847092E+03  0.37551575397E+03  0.12509069815E+03 0.  0.
          5    1    3    3  502    0 -0.58776670736E+02  0.22721291837E+02  0.20841256111E+03  0.21777103149E+03  0.41800000000E+01 0.  1.
         -5    1    3    3    0  502 -0.11700496988E+03 -0.38268338810E+02  0.98545909809E+02  0.15774472249E+03  0.41800000000E+01 0.  1.
        -11    1    1    2    0    0  0.16494961293E+03  0.37751044426E+02  0.38324850900E+03  0.41894264025E+03  0.00000000000E+00 0. -1.
         11    1    1    2    0    0  0.10832027685E+02 -0.22203997453E+02  0.10836150251E+03  0.11114209623E+03  0.00000000000E+00 0.  1.
</event>
<event>
 7    1  0.2714042E-009  0.5639839E+02  0.7561462E-02  0.1413599E+00
          1   -1    0    0  501    0  0.00000000000E+00  0.00000000000E+00  0.49783421549E+03  0.49783421549E+03  0.00000000000E+00 0. -1.
         -1   -1    0    0    0  501 -0.00000000000E+00 -0.00000000000E+00 -0.28030433535E+02  0.28030433535E+02  0.00000000000E+00 0.  1.
         25    2    1    2    0    0 -0.13149464124E+02 -0.42562766826E+02  0.30383754895E+03  0.33158755110E+03  0.12509416598E+03 0.  0.
          5    1    3    3  502    0  0.31962056248E+01 -0.22765124201E+02  0.30466811543E+03  0.30556275881E+03  0.41800000000E+01 0.  1.
         -5    1    3    3    0  502 -0.16345669749E+02 -0.19797642624E+02 -0.83056647838E+00  0.26024792289E+02  0.41800000000E+01 0.  1.
        -11    1    1    2    0    0  0.29587284685E+02  0.33325163954E+02  0.16935425024E+03  0.17511949075E+03  0.00000000000E+00 0. -1.
         11    1    1    2    0    0 -0.16437820561E+02  0.92376028720E+01 -0.33880172417E+01  0.19157607169E+02  0.00000000000E+00 0.  1.
</event>
<event>
 7    1  0.2714042E-009  0.1173662E+03  0.7561462E-02  0.1247506E+00
          1   -1    0    0  501    0  0.00000000000E+00  0.00000000000E+00  0.26943475592E+03  0.26943475592E+03  0.00000000000E+00 0. -1.
         -1   -1    0    0    0  501 -0.00000000000E+00 -0.00000000000E+00 -0.54937480244E+02  0.54937480244E+02  0.00000000000E+00 0.  1.
         25    2    1    2    0    0  0.45198339190E+02 -0.22235703189E+02  0.98613830572E+02  0.16706171558E+03  0.12509041878E+03 0.  0.
          5    1    3    3  502    0  0.62649942173E+02  0.36320697459E+02  0.42940319121E+02  0.84294434718E+02  0.41800000000E+01 0. -1.
         -5    1    3    3    0  502 -0.17451602983E+02 -0.58556400649E+02  0.55673511452E+02  0.82767280860E+02  0.41800000000E+01 0. -1.
        -11    1    1    2    0    0 -0.43897082783E+02  0.53756669100E+02  0.54313911111E+02  0.88129077436E+02  0.00000000000E+00 0.  1.
         11    1    1    2    0    0 -0.13012564072E+01 -0.31520965911E+02  0.61569533993E+02  0.69181443150E+02  0.00000000000E+00 0. -1.
</event>
<event>
 7    1  0.2714042E-009  0.1462263E+03  0.7561462E-02  0.1205188E+00
         -1   -1    0    0    0  501 -0.00000000000E+00  0.00000000000E+00  0.54236198780E+03  0.54236198780E+03  0.00000000000E+00 0.  1.
          1   -1    0    0  501    0  0.00000000000E+00 -0.00000000000E+00 -0.48451499891E+02  0.48451499891E+02  0.00000000000E+00 0. -1.
         25    2    1    2    0    0  0.10867747630E+03 -0.31431937867E+01  0.20106308044E+03  0.26055942644E+03  0.12507669194E+03 0.  0.
          5    1    3    3  502    0  0.60429061991E+02  0.50606700474E+02  0.51023307292E+02  0.93987020130E+02  0.41800000000E+01 0. -1.
         -5    1    3    3    0  502  0.48248414307E+02 -0.53749894261E+02  0.15003977315E+03  0.16657240631E+03  0.41800000000E+01 0. -1.
        -11    1    1    2    0    0 -0.32604218320E+02 -0.41647491221E+02  0.17619650553E+03  0.18396401045E+03  0.00000000000E+00 0.  1.
         11    1    1    2    0    0 -0.76073257977E+02  0.44790685008E+02  0.11665090193E+03  0.14629005080E+03  0.00000000000E+00 0. -1.
</event>
<event>
 7    1  0.2714042E-009  0.1478272E+03  0.7561462E-02  0.1203169E+00
         -1   -1    0    0    0  501 -0.00000000000E+00  0.00000000000E+00  0.57098699205E+02  0.57098699205E+02  0.00000000000E+00 0.  1.
          1   -1    0    0  501    0  0.00000000000E+00 -0.00000000000E+00 -0.53599502355E+03  0.53599502355E+03  0.00000000000E+00 0. -1.
         25    2    1    2    0    0 -0.91907708402E+02 -0.93105902554E+02 -0.19031257812E+03  0.26264171348E+03  0.12508419691E+03 0.  0.
          5    1    3    3  502    0 -0.28040866091E+02 -0.58610788698E+02 -0.70561075997E+01  0.65488745425E+02  0.41800000000E+01 0. -1.
         -5    1    3    3    0  502 -0.63866842311E+02 -0.34495113857E+02 -0.18325647052E+03  0.19715296806E+03  0.41800000000E+01 0. -1.
        -11    1    1    2    0    0  0.10077781530E+03  0.47557508042E+02 -0.23119465272E+03  0.25664927834E+03  0.00000000000E+00 0. -1.
         11    1    1    2    0    0 -0.88701068996E+01  0.45548394513E+02 -0.57389093507E+02  0.73802730930E+02  0.00000000000E+00 0.  1.
</event>
<event>
 7    1  0.2714042E-009  0.7872553E+02  0.7561462E-02  0.1332708E+00
         -2   -1    0    0    0  501 -0.00000000000E+00  0.00000000000E+00  0.67419393896E+02  0.67419393896E+02  0.00000000000E+00 0.  1.
          2   -1    0    0  501    0  0.00000000000E+00 -0.00000000000E+00 -0.37066590701E+03  0.37066590701E+03  0.00000000000E+00 0. -1.
         25    2    1    2    0    0 -0.27700078543E+02 -0.56723572637E+02 -0.29504220348E+03  0.32662128810E+03  0.12508679371E+03 0.  0.
          5    1    3    3  502    0  0.12528225200E-02 -0.60458339797E+02 -0.29196868867E+03  0.29819188187E+03  0.41800000000E+01 0.  1.
         -5    1    3    3    0  502 -0.27701331366E+02  0.37347671602E+01 -0.30735148140E+01  0.28429406228E+02  0.41800000000E+01 0.  1.
        -11    1    1    2    0    0 -0.32530462762E+01  0.21286802130E+02 -0.46209393869E+02  0.50980568227E+02  0.00000000000E+00 0. -1.
         11    1    1    2    0    0  0.30953124819E+02  0.35436770507E+02  0.38005084237E+02  0.60483444577E+02  0.00000000000E+00 0.  1.
</event>
<event>
 7    1  0.2714042E-009  0.1013890E+03  0.7561462E-02  0.1277402E+00
         -2   -1    0    0    0  501 -0.00000000000E+00  0.00000000000E+00  0.13162095218E+02  0.13162095218E+02  0.00000000000E+00 0.  1.
          2   -1    0    0  501    0  0.00000000000E+00 -0.00000000000E+00 -0.11082391620E+04  0.11082391620E+04  0.00000000000E+00 0. -1.
         25    2    1    2    0    0  0.29456866527E+02  0.24887302160E+02 -0.79004705770E+03  0.80081772461E+03  0.12509032684E+03 0.  0.
          5    1    3    3  502    0  0.43426607785E+02 -0.39982765285E+02 -0.48575372167E+03  0.48934511574E+03  0.41800000000E+01 0. -1.
         -5    1    3    3    0  502 -0.13969741258E+02  0.64870067445E+02 -0.30429333603E+03  0.31147260887E+03  0.41800000000E+01 0. -1.
        -11    1    1    2    0    0 -0.16483161590E+02  0.22550219965E+02 -0.29218965812E+02  0.40422209237E+02  0.00000000000E+00 0.  1.
         11    1    1    2    0    0 -0.12973704938E+02 -0.47437522125E+02 -0.27581104326E+03  0.28016132336E+03  0.00000000000E+00 0. -1.
</event>
<event>
 7    1  0.2714042E-009  0.3053192E+03  0.7561462E-02  0.1082611E+00
          2   -1    0    0  501    0  0.00000000000E+00  0.00000000000E+00  0.14859114284E+04  0.14859114284E+04  0.00000000000E+00 0. -1.
         -2   -1    0    0    0  501 -0.00000000000E+00 -0.00000000000E+00 -0.68496643682E+02  0.68496643682E+02  0.00000000000E+00 0.  1.
         25    2    1    2    0    0 -0.23762201709E+03 -0.16070142718E+03  0.93612616344E+03  0.98704983664E+03  0.12508402950E+03 0.  0.
          5    1    3    3  502    0  0.62424201534E+01 -0.37951627089E+02  0.90155607063E+02  0.98106063487E+02  0.41800000000E+01 0. -1.
         -5    1    3    3    0  502 -0.24386443724E+03 -0.12274980009E+03  0.84597055638E+03  0.88894377315E+03  0.41800000000E+01 0. -1.
        -11    1    1    2    0    0  0.13250496602E+02  0.44089487051E+02  0.96515067160E+02  0.10693276728E+03  0.00000000000E+00 0. -1.
         11    1    1    2    0    0  0.22437152049E+03  0.11661194013E+03  0.38477355413E+03  0.46042546818E+03  0.00000000000E+00 0.  1.
</event>
<event>
 7    1  0.2714042E-009  0.2130225E+03  0.7561462E-02  0.1139195E+00
          3   -1    0    0  501    0  0.00000000000E+00  0.00000000000E+00  0.82149250121E+03  0.82149250121E+03  0.00000000000E+00 0. -1.
         -3   -1    0    0    0  501 -0.00000000000E+00 -0.00000000000E+00 -0.88528464802E+02  0.88528464802E+02  0.00000000000E+00 0.  1.
         25    2    1    2    0    0  0.15820530455E+03 -0.12707296895E+03  0.61212547381E+03  0.65690455259E+03  0.12509811229E+03 0.  0.
          5    1    3    3  502    0 -0.71426407849E+01 -0.17031351621E+02  0.73098990756E+01  0.20297568325E+02  0.41800000000E+01 0.  1.
         -5    1    3    3    0  502  0.16534794533E+03 -0.11004161733E+03  0.60481557474E+03  0.63660698426E+03  0.41800000000E+01 0.  1.
        -11    1    1    2    0    0 -0.13182277336E+03  0.79197121146E+02  0.12516465333E+03  0.19828166334E+03  0.00000000000E+00 0. -1.
         11    1    1    2    0    0 -0.26382531182E+02  0.47875847806E+02 -0.43260907385E+01  0.54834750075E+02  0.00000000000E+00 0.  1.
</event>
<event>
 7    1  0.2714042E-009  0.7713445E+02  0.7561462E-02  0.1337386E+00
         -1   -1    0    0    0  501 -0.00000000000E+00  0.00000000000E+00  0.55764281244E+02  0.55764281244E+02  0.00000000000E+00 0.  1.
          1   -1    0    0  501    0  0.00000000000E+00 -0.00000000000E+00 -0.21650968637E+03  0.21650968637E+03  0.00000000000E+00 0. -1.
         25    2    1    2    0    0  0.16686266643E+02 -0.61762255957E+01 -0.82443834463E+02  0.15086394115E+03  0.12508543337E+03 0.  0.
          5    1    3    3  502    0 -0.12614487153E+01  0.42513152299E+02  0.10791991015E+02  0.44078326208E+02  0.41800000000E+01 0. -1.
         -5    1    3    3    0  502  0.17947715359E+02 -0.48689377895E+02 -0.93235825478E+02  0.10678561494E+03  0.41800000000E+01 0. -1.
        -11    1    1    2    0    0 -0.36092955588E+02  0.13772908485E+02  0.17687321644E+01  0.38671990700E+02  0.00000000000E+00 0.  1.
         11    1    1    2    0    0  0.19406688945E+02 -0.75966828896E+01 -0.80070302833E+02  0.82738035766E+02  0.00000000000E+00 0. -1.
</event>
<event>
 7    1  0.2714042E-009  0.1341861E+03  0.7561462E-02  0.1221373E+00
         -2   -1    0    0    0  501 -0.00000000000E+00  0.00000000000E+00  0.11344599049E+03  0.11344599049E+03  0.00000000000E+00 0.  1.
          2   -1    0    0  501    0  0.00000000000E+00 -0.00000000000E+00 -0.17838649441E+03  0.17838649441E+03  0.00000000000E+00 0. -1.
         25    2    1    2    0    0  0.13960073030E+02 -0.86045266786E+02 -0.75386781740E+02  0.17008873446E+03  0.12509332177E+03 0.  0.
          5    1    3    3  502    0 -0.51780413947E+02 -0.16405715974E+02 -0.41249382732E+02  0.68332589304E+02  0.41800000000E+01 0.  1.
         -5    1    3    3    0  502  0.65740486977E+02 -0.69639550812E+02 -0.34137399007E+02  0.10175614515E+03  0.41800000000E+01 0.  1.
        -11    1    1    2    0    0 -0.18672936894E+02  0.10081614549E+03 -0.89374888433E+00  0.10253473826E+03  0.00000000000E+00 0. -1.
         11    1    1    2    0    0  0.47128638638E+01 -0.14770878705E+02  0.11340026697E+02  0.19209012182E+02  0.00000000000E+00 0.  1.
</event>
<event>
 7    1  0.2714042E-009  0.9920363E+02  0.7561462E-02  0.1281980E+00
         -1   -1    0    0    0  501 -0.00000000000E+00  0.00000000000E+00  0.45716089329E+02  0.45716089329E+02  0.00000000000E+00 0.  1.
          1   -1    0    0  501    0  0.00000000000E+00 -0.00000000000E+00 -0.35570140885E+03  0.35570140885E+03  0.00000000000E+00 0. -1.
         25    2    1    2    0    0 -0.68079620702E+01  0.58165785392E+02 -0.12229593319E+03  0.18448274993E+03  0.12509189745E+03 0.  0.
          5    1    3    3  502    0  0.17002884203E+02  0.69618854604E+02 -0.13647711520E+03  0.15420557176E+03  0.41800000000E+01 0. -1.
         -5    1    3    3    0  502 -0.23810846273E+02 -0.11453069212E+02  0.14181182011E+02  0.30277178168E+02  0.41800000000E+01 0. -1.
        -11    1    1    2    0    0 -0.27017873764E+02 -0.60197762586E+02 -0.78182787804E+02  0.10230486026E+03  0.00000000000E+00 0.  1.
         11    1    1    2    0    0  0.33825835834E+02  0.20319771943E+01 -0.10950659853E+03  0.11462988800E+03  0.00000000000E+00 0. -1.
</event>
<event>
 7    1  0.2714042E-009  0.1125440E+03  0.7561462E-02  0.1255930E+00
         -1   -1    0    0    0  501 -0.00000000000E+00  0.00000000000E+00  0.82567125111E+02  0.82567125111E+02  0.00000000000E+00 0.  1.
          1   -1    0    0  501    0  0.00000000000E+00 -0.00000000000E+00 -0.34989160617E+03  0.34989160617E+03  0.00000000000E+00 0. -1.
         25    2    1    2    0    0 -0.46806148157E+02  0.53381067487E+01 -0.29515790200E+03  0.32400987819E+03  0.12507958733E+03 0.  0.
          5    1    3    3  502    0  0.62273371814E+00  0.60368185134E+02 -0.12205240828E+03  0.13623130455E+03  0.41800000000E+01 0. -1.
         -5    1    3    3    0  502 -0.47428881875E+02 -0.55030078386E+02 -0.17310549372E+03  0.18777857364E+03  0.41800000000E+01 0. -1.
        -11    1    1    2    0    0  0.46108078230E+02 -0.37623528076E+02 -0.81884190777E+01  0.60071082477E+02  0.00000000000E+00 0. -1.
         11    1    1    2    0    0  0.69806992694E+00  0.32285421328E+02  0.36021840010E+02  0.48377770615E+02  0.00000000000E+00 0.  1.
</event>
<event>
 7    1  0.2714042E-009  0.9024357E+02  0.7561462E-02  0.1302263E+00
         -2   -1    0    0    0  501 -0.00000000000E+00  0.00000000000E+00  0.47175202062E+02  0.47175202062E+02  0.00000000000E+00 0. -1.
          2   -1    0    0  501    0  0.00000000000E+00 -0.00000000000E+00 -0.42155058139E+03  0.42155058139E+03  0.00000000000E+00 0.  1.
         25    2    1    2    0    0  0.46395374415E+02 -0.68559040674E+02 -0.14516640549E+03  0.20874284102E+03  0.12508963014E+03 0.  0.
          5    1    3    3  502    0  0.21671319042E+02  0.14947314907E+01 -0.13118174180E+03  0.13303383807E+03  0.41800000000E+01 0. -1.
         -5    1    3    3    0  502  0.24724055373E+02 -0.70053772165E+02 -0.13984663690E+02  0.75709002946E+02  0.41800000000E+01 0. -1.
        -11    1    1    2    0    0 -0.20091737074E+02  0.42110670726E+02 -0.21510019293E+03  0.22010242953E+03  0.00000000000E+00 0.  1.
         11    1    1    2    0    0 -0.26303637341E+02  0.26448369948E+02 -0.14108780906E+02  0.39880512897E+02  0.00000000000E+00 0. -1.
</event>
<event>
 7    1  0.2714042E-009  0.9079142E+02  0.7561462E-02  0.1300946E+00
         -1   -1    0    0    0  501 -0.00000000000E+00  0.00000000000E+00  0.11634242072E+03  0.11634242072E+03  0.00000000000E+00 0.  1.
          1   -1    0    0  501    0  0.00000000000E+00 -0.00000000000E+00 -0.15766142598E+03  0.15766142598E+03  0.00000000000E+00 0. -1.
         25    2    1    2    0    0 -0.45780859950E+02 -0.27094597539E+02  0.39298319302E+02  0.14149913815E+03  0.12509054258E+03 0.  0.
          5    1    3    3  502    0 -0.57307419160E+02 -0.29572552565E+02  0.77729025626E+02  0.10108387597E+03  0.41800000000E+01 0.  1.
         -5    1    3    3    0  502  0.11526559210E+02  0.24779550267E+01 -0.38430706324E+02  0.40415262178E+02  0.41800000000E+01 0.  1.
        -11    1    1    2    0    0  0.63260443077E+02  0.46366219725E+02 -0.66918026567E+02  0.10310059296E+03  0.00000000000E+00 0. -1.
         11    1    1    2    0    0 -0.17479583127E+02 -0.19271622186E+02 -0.13699297996E+02  0.29404115589E+02  0.00000000000E+00 0.  1.
</event>
<event>
 7    1  0.2714042E-009  0.1111705E+03  0.7561462E-02  0.1258417E+00
         -1   -1    0    0    0  501 -0.00000000000E+00  0.00000000000E+00  0.83138851858E+02  0.83138851858E+02  0.00000000000E+00 0. -1.
          1   -1    0    0  501    0  0.00000000000E+00 -0.00000000000E+00 -0.16896372562E+03  0.16896372562E+03  0.00000000000E+00 0.  1.
         25    2    1    2    0    0  0.19731442099E+02 -0.30894770120E+01 -0.86688759170E+02  0.15349955096E+03  0.12509315131E+03 0.  0.
          5    1    3    3  502    0  0.14620037853E+02 -0.62748364487E+02 -0.30998298446E+02  0.71620315966E+02  0.41800000000E+01 0. -1.
         -5    1    3    3    0  502  0.51114042465E+01  0.59658887475E+02 -0.55690460725E+02  0.81879234998E+02  0.41800000000E+01 0. -1.
        -11    1    1    2    0    0 -0.45499593656E+02  0.34518239204E+02 -0.58499280949E+01  0.57410308476E+02  0.00000000000E+00 0.  1.
         11    1    1    2    0    0  0.25768151557E+02 -0.31428762191E+02  0.67138135041E+01  0.41192718037E+02  0.00000000000E+00 0. -1.
</event>
<event>
 7    1  0.2714042E-009  0.1839190E+03  0.7561462E-02  0.1164063E+00
          1   -1    0    0  501    0  0.00000000000E+00  0.00000000000E+00  0.56283263193E+03  0.56283263193E+03  0.00000000000E+00 0. -1.
         -1   -1    0    0    0  501 -0.00000000000E+00 -0.00000000000E+00 -0.74157213328E+02  0.74157213328E+02  0.00000000000E+00 0.  1.
         25    2    1    2    0    0  0.14137586431E+03  0.56639859911E+02  0.12724495356E+03  0.23459636530E+03  0.12509583393E+03 0.  0.
          5    1    3    3  502    0  0.73769526704E+02 -0.33588224441E+02  0.33104666418E+02  0.87655594401E+02  0.41800000000E+01 0. -1.
         -5    1    3    3    0  502  0.67606337606E+02  0.90228084352E+02  0.94140287141E+02  0.14694077090E+03  0.41800000000E+01 0. -1.
        -11    1    1    2    0    0 -0.58884630962E+02 -0.68699529242E+02  0.15077579710E+03  0.17584187804E+03  0.00000000000E+00 0.  1.
         11    1    1    2    0    0 -0.82491233348E+02  0.12059669331E+02  0.21065466794E+03  0.22655160191E+03  0.00000000000E+00 0. -1.
</event>
<event>
 7    1  0.2714042E-009  0.1789401E+03  0.7561462E-02  0.1168833E+00
         -2   -1    0    0    0  501 -0.00000000000E+00  0.00000000000E+00  0.82386926341E+02  0.82386926341E+02  0.00000000000E+00 0.  1.
          2   -1    0    0  501    0  0.00000000000E+00 -0.00000000000E+00 -0.48287979604E+03  0.48287979604E+03  0.00000000000E+00 0. -1.
         25    2    1    2    0    0  0.55358434914E+00 -0.15492002290E+03 -0.29790880410E+03  0.35832572947E+03  0.12508858019E+03 0.  0.
          5    1    3    3  502    0  0.20768714528E+02  0.15151825529E+02 -0.25019669746E+02  0.36116112667E+02  0.41800000000E+01 0.  1.
         -5    1    3    3    0  502 -0.20215130178E+02 -0.17007184842E+03 -0.27288913435E+03  0.32220961680E+03  0.41800000000E+01 0.  1.
        -11    1    1    2    0    0  0.14551884493E+02  0.13357329783E+03 -0.41711722091E+02  0.14068919999E+03  0.00000000000E+00 0.  1.
         11    1    1    2    0    0 -0.15105468842E+02  0.21346725069E+02 -0.60872343509E+02  0.66251792914E+02  0.00000000000E+00 0. -1.
</event>
<event>
 7    1  0.2714042E-009  0.1070589E+03  0.7561462E-02  0.1266115E+00
         -2   -1    0    0    0  501 -0.00000000000E+00  0.00000000000E+00  0.10626672672E+03  0.10626672672E+03  0.00000000000E+00 0.  1.
          2   -1    0    0  501    0  0.00000000000E+00 -0.00000000000E+00 -0.12583112661E+03  0.12583112661E+03  0.00000000000E+00 0. -1.
         25    2    1    2    0    0 -0.38544717324E+02 -0.81914683641E+01 -0.11511443161E+02  0.13165065507E+03  0.12508631528E+03 0.  0.
          5    1    3    3  502    0  0.24129765258E+02  0.32119380618E+02  0.26084017417E+02  0.48080646286E+02  0.41800000000E+01 0.  1.
         -5    1    3    3    0  502 -0.62674482582E+02 -0.40310848982E+02 -0.37595460578E+02  0.83570008787E+02  0.41800000000E+01 0.  1.
        -11    1    1    2    0    0 -0.17542623232E+02  0.33301798811E+02  0.39083559159E+01  0.37842154799E+02  0.00000000000E+00 0.  1.
         11    1    1    2    0    0  0.56087340555E+02 -0.25110330446E+02 -0.11961312640E+02  0.62605043453E+02  0.00000000000E+00 0. -1.
</event>
<event>
 7    1  0.2714042E-009  0.1157582E+03  0.7561462E-02  0.1250263E+00
         -2   -1    0    0    0  501 -0.00000000000E+00  0.00000000000E+00  0.62902004331E+02  0.62902004331E+02  0.00000000000E+00 0. -1.
          2   -1    0    0  501    0  0.00000000000E+00 -0.00000000000E+00 -0.27932934727E+03  0.27932934727E+03  0.00000000000E+00 0.  1.
         25    2    1    2    0    0 -0.71479611411E+02 -0.24533336457E+00 -0.15911270445E+03  0.21464693031E+03  0.12508819664E+03 0.  0.
          5    1    3    3  502    0 -0.27744973286E+01  0.53318197003E+02 -0.83598372970E+02  0.99280855809E+02  0.41800000000E+01 0. -1.
         -5    1    3    3    0  502 -0.68705114082E+02 -0.53563530367E+02 -0.75514331476E+02  0.11536607450E+03  0.41800000000E+01 0. -1.
        -11    1    1    2    0    0  0.65490339280E+02 -0.20918450993E+02 -0.73222605392E+02  0.10043961405E+03  0.00000000000E+00 0.  1.
         11    1    1    2    0    0  0.59892721308E+01  0.21163784358E+02  0.15907966902E+02  0.27144807237E+02  0.00000000000E+00 0. -1.
</event>
<event>
 7    1  0.2714042E-009  0.1161609E+03  0.7561462E-02  0.1249568E+00
         -2   -1    0    0    0  501 -0.00000000000E+00  0.00000000000E+00  0.26252797856E+03  0.26252797856E+03  0.00000000000E+00 0.  1.
          2   -1    0    0  501    0  0.00000000000E+00 -0.00000000000E+00 -0.73510523574E+02  0.73510523574E+02  0.00000000000E+00 0. -1.
         25    2    1    2    0    0 -0.82672132863E+02 -0.56431636916E+01  0.13514260514E+03  0.20193421625E+03  0.12508947646E+03 0.  0.
          5    1    3    3  502    0 -0.56667732829E+02  0.30737614694E+02  0.14246415780E+03  0.15642743225E+03  0.41800000000E+01 0. -1.
         -5    1    3    3    0  502 -0.26004400034E+02 -0.36380778385E+02 -0.73215526636E+01  0.45506784005E+02  0.41800000000E+01 0. -1.
        -11    1    1    2    0    0  0.76464043508E+02  0.41099347976E+02  0.38377170425E+02  0.94914243206E+02  0.00000000000E+00 0.  1.
         11    1    1    2    0    0  0.62080893552E+01 -0.35456184284E+02  0.15497679423E+02  0.39190042676E+02  0.00000000000E+00 0. -1.
</event>
<event>
 7    1  0.2714042E-009  0.1264166E+03  0.7561462E-02  0.1232872E+00
         -1   -1    0    0    0  501 -0.00000000000E+00  0.00000000000E+00  0.36369537914E+02  0.36369537914E+02  0.00000000000E+00 0.  1.
          1   -1    0    0  501    0  0.00000000000E+00 -0.00000000000E+00 -0.59841931933E+03  0.59841931933E+03  0.00000000000E+00 0. -1.
         25    2    1    2    0    0 -0.63472406683E+02 -0.49308067490E+02 -0.17319644568E+03  0.22826717727E+03  0.12509541755E+03 0.  0.
          5    1    3    3  502    0 -0.50907583458E+02  0.26369454743E+02 -0.27872136979E+02  0.63884729136E+02  0.41800000000E+01 0.  1.
         -5    1    3    3    0  502 -0.12564823225E+02 -0.75677522233E+02 -0.14532430870E+03  0.16438244813E+03  0.41800000000E+01 0.  1.
        -11    1    1    2    0    0  0.19384449579E+02 -0.25293122400E+02 -0.10101201503E+03  0.10591943215E+03  0.00000000000E+00 0. -1.
         11    1    1    2    0    0  0.44087957104E+02  0.74601189890E+02 -0.28784132070E+03  0.30060224782E+03  0.00000000000E+00 0.  1.
</event>
<event>
 7    1  0.2714042E-009  0.1111700E+03  0.7561462E-02  0.1258418E+00
          1   -1    0    0  501    0  0.00000000000E+00  0.00000000000E+00  0.12458026897E+03  0.12458026897E+03  0.00000000000E+00 0. -1.
         -1   -1    0    0    0  501 -0.00000000000E+00 -0.00000000000E+00 -0.14033156901E+03  0.14033156901E+03  0.00000000000E+00 0.  1.
         25    2    1    2    0    0  0.74141154293E+02  0.64934622891E+00 -0.19938164845E+02  0.14677322246E+03  0.12509003159E+03 0.  0.
          5    1    3    3  502    0 -0.14873056226E+02  0.42382887698E+02  0.46417856951E+01  0.45349041286E+02  0.41800000000E+01 0.  1.
         -5    1    3    3    0  502  0.89014210519E+02 -0.41733541469E+02 -0.24579950540E+02  0.10142418117E+03  0.41800000000E+01 0.  1.
        -11    1    1    2    0    0 -0.42052793395E+02 -0.13640962424E+02  0.46036042980E+02  0.63826566110E+02  0.00000000000E+00 0. -1.
         11    1    1    2    0    0 -0.32088360898E+02  0.12991616195E+02 -0.41849178177E+02  0.54312049405E+02  0.00000000000E+00 0.  1.
</event>
<event>
 7    1  0.2714042E-009  0.1112099E+03  0.7561462E-02  0.1258346E+00
          1   -1    0    0  501    0  0.00000000000E+00  0.00000000000E+00  0.20406804246E+03  0.20406804246E+03  0.00000000000E+00 0. -1.
         -1   -1    0    0    0  501 -0.00000000000E+00 -0.00000000000E+00 -0.77230561765E+02  0.77230561765E+02  0.00000000000E+00 0.  1.
         25    2    1    2    0    0 -0.39808645363E+02  0.44638536911E+02  0.68282118840E+02  0.15455477204E+03  0.12508957824E+03 0.  0.
          5    1    3    3  502    0 -0.50434954758E+02  0.76082424411E+02  0.77542332550E+02  0.11984367194E+03  0.41800000000E+01 0.  1.
         -5    1    3    3    0  502  0.10626309396E+02 -0.31443887500E+02 -0.92602137095E+01  0.34711100104E+02  0.41800000000E+01 0.  1.
        -11    1    1    2    0    0 -0.18884780686E+02  0.62660497874E+01 -0.10763806364E+02  0.22622065533E+02  0.00000000000E+00 0.  1.
         11    1    1    2    0    0  0.58693426049E+02 -0.50904586698E+02  0.69319168219E+02  0.10412176665E+03  0.00000000000E+00 0. -1.
</event>
<event>
 7    1  0.2714042E-009  0.1008120E+03  0.7561462E-02  0.1278598E+00
         -2   -1    0    0    0  501 -0.00000000000E+00  0.00000000000E+00  0.81115340847E+02  0.81115340847E+02  0.00000000000E+00 0. -1.
          2   -1    0    0  501    0  0.00000000000E+00 -0.00000000000E+00 -0.26510250334E+03  0.26510250334E+03  0.00000000000E+00 0.  1.
         25    2    1    2    0    0 -0.41741714914E+02 -0.77439963411E+02 -0.51094623768E+02  0.16123726327E+03  0.12508987085E+03 0.  0.
          5    1    3    3  502    0  0.70530985535E+01 -0.93923913137E+01  0.37347237191E+02  0.39373236336E+02  0.41800000000E+01 0.  1.
         -5    1    3    3    0  502 -0.48794813467E+02 -0.68047572098E+02 -0.88441860959E+02  0.12186402693E+03  0.41800000000E+01 0.  1.
        -11    1    1    2    0    0  0.53890703955E+02  0.75879603002E+02 -0.14195458466E+03  0.16974400205E+03  0.00000000000E+00 0.  1.
         11    1    1    2    0    0 -0.12148989041E+02  0.15603604094E+01  0.90620459347E+01  0.15236578876E+02  0.00000000000E+00 0. -1.
</event>
<event>
 7    1  0.2714042E-009  0.1247501E+03  0.7561462E-02  0.1235460E+00
          2   -1    0    0  501    0  0.00000000000E+00  0.00000000000E+00  0.52716304530E+02  0.52716304530E+02  0.00000000000E+00 0. -1.
         -2   -1    0    0    0  501 -0.00000000000E+00 -0.00000000000E+00 -0.40820285381E+03  0.40820285381E+03  0.00000000000E+00 0.  1.
         25    2    1    2    0    0 -0.51518906298E+02 -0.81600048746E+02 -0.15623089291E+03  0.22218531465E+03  0.12508179918E+03 0.  0.
          5    1    3    3  502    0 -0.57272848913E+02 -0.10234831350E+03 -0.77942289239E+02  0.14088232448E+03  0.41800000000E+01 0.  1.
         -5    1    3    3    0  502  0.57539426152E+01  0.20748264755E+02 -0.78288603672E+02  0.81302990172E+02  0.41800000000E+01 0.  1.
        -11    1    1    2    0    0  0.58364761155E+02  0.46993808406E+02 -0.18689034056E+03  0.20135258322E+03  0.00000000000E+00 0.  1.
         11    1    1    2    0    0 -0.68458548577E+01  0.34606240341E+02 -0.12365315806E+02  0.37381260469E+02  0.00000000000E+00 0. -1.
</event>
<event>
 7    1  0.2714042E-009  0.9595405E+02  0.7561462E-02  0.1289042E+00
          1   -1    0    0  501    0  0.00000000000E+00  0.00000000000E+00  0.11150798942E+04  0.11150798942E+04  0.00000000000E+00 0. -1.
         -1   -1    0    0    0  501 -0.00000000000E+00 -0.00000000000E+00 -0.12789256020E+02  0.12789256020E+02  0.00000000000E+00 0.  1.
         25    2    1    2    0    0 -0.41405794814E+02  0.46014805902E+01  0.73241819601E+03  0.74419001644E+03  0.12508698278E+03 0.  0.
          5    1    3    3  502    0 -0.54101219973E+02 -0.25272073129E+02  0.15989615532E+03  0.17073333760E+03  0.41800000000E+01 0. -1.
         -5    1    3    3    0  502  0.12695425158E+02  0.29873553720E+02  0.57252204069E+03  0.57345667884E+03  0.41800000000E+01 0. -1.
        -11    1    1    2    0    0  0.20166257682E+01  0.39866384674E+02  0.19340103843E+03  0.19747748498E+03  0.00000000000E+00 0. -1.
         11    1    1    2    0    0  0.39389169046E+02 -0.44467865264E+02  0.17647140379E+03  0.18620164885E+03  0.00000000000E+00 0.  1.
</event>
<event>
 7    1  0.2714042E-009  0.1452477E+03  0.7561462E-02  0.1206437E+00
         -2   -1    0    0    0  501 -0.00000000000E+00  0.00000000000E+00  0.81779476585E+02  0.81779476585E+02  0.00000000000E+00 0.  1.
          2   -1    0    0  501    0  0.00000000000E+00 -0.00000000000E+00 -0.39842148746E+03  0.39842148746E+03  0.00000000000E+00 0. -1.
         25    2    1    2    0    0  0.12873947770E+03  0.20695358632E+02 -0.86398195849E+02  0.20028477118E+03  0.12508872983E+03 0.  0.
          5    1    3    3  502    0  0.45950256384E+02  0.41445574826E+02  0.18748768813E+02  0.64793135951E+02  0.41800000000E+01 0. -1.
         -5    1    3    3    0  502  0.82789221320E+02 -0.20750216194E+02 -0.10514696466E+03  0.13549163523E+03  0.41800000000E+01 0. -1.
        -11    1    1    2    0    0 -0.92753834668E+02 -0.41323958220E+02 -0.21105903233E+03  0.23421541046E+03  0.00000000000E+00 0.  1.
         11    1    1    2    0    0 -0.35985643036E+02  0.20628599588E+02 -0.19184782698E+02  0.45700782409E+02  0.00000000000E+00 0. -1.
</event>
<event>
 7    1  0.2714042E-009  0.1230051E+03  0.7561462E-02  0.1238220E+00
         -2   -1    0    0    0  501 -0.00000000000E+00  0.00000000000E+00  0.26561430988E+02  0.26561430988E+02  0.00000000000E+00 0.  1.
          2   -1    0    0  501    0  0.00000000000E+00 -0.00000000000E+00 -0.10497375017E+04  0.10497375017E+04  0.00000000000E+00 0. -1.
         25    2    1    2    0    0  0.62391988606E+02 -0.96505687176E+02 -0.72837613962E+03  0.74792057317E+03  0.12508906867E+03 0.  0.
          5    1    3    3  502    0  0.29033530959E+02 -0.90452875893E+02 -0.23708969248E+03  0.25544796604E+03  0.41800000000E+01 0.  1.
         -5    1    3    3    0  502  0.33358457648E+02 -0.60528112827E+01 -0.49128644715E+03  0.49247260713E+03  0.41800000000E+01 0.  1.
        -11    1    1    2    0    0 -0.46438415102E+02  0.53241881500E+02 -0.26310318721E+03  0.27242340476E+03  0.00000000000E+00 0. -1.
         11    1    1    2    0    0 -0.15953573504E+02  0.43263805675E+02 -0.31696743882E+02  0.55954954757E+02  0.00000000000E+00 0.  1.
</event>
<event>
 7    1  0.2714042E-009  0.9701593E+02  0.7561462E-02  0.1286699E+00
         -2   -1    0    0    0  501 -0.00000000000E+00  0.00000000000E+00  0.14727453802E+02  0.14727453802E+02  0.00000000000E+00 0.  1.
          2   -1    0    0  501    0  0.00000000000E+00 -0.00000000000E+00 -0.92144987098E+03  0.92144987098E+03  0.00000000000E+00 0. -1.
         25    2    1    2    0    0 -0.24832925127E+02 -0.21442514413E+02 -0.62728406169E+03  0.64047831723E+03  0.12510285847E+03 0.  0.
          5    1    3    3  502    0  0.11629502166E+01  0.37369320417E+02 -0.69888820123E+02  0.79370889750E+02  0.41800000000E+01 0. -1.
         -5    1    3    3    0  502 -0.25995875344E+02 -0.58811834830E+02 -0.55739524156E+03  0.56110742748E+03  0.41800000000E+01 0. -1.
        -11    1    1    2    0    0 -0.13677459741E+02 -0.26894459875E+02 -0.53089296954E+02  0.61064378553E+02  0.00000000000E+00 0.  1.
         11    1    1    2    0    0  0.38510384869E+02  0.48336974289E+02 -0.22634905854E+03  0.23463462900E+03  0.00000000000E+00 0. -1.
</event>
<event>
 7    1  0.2714042E-009  0.8312933E+02  0.7561462E-02  0.1320398E+00
          4   -1    0    0  501    0  0.00000000000E+00  0.00000000000E+00  0.51045644983E+03  0.51045644983E+03  0.00000000000E+00 0. -1.
         -4   -1    0    0    0  501 -0.00000000000E+00 -0.00000000000E+00 -0.24773384081E+02  0.24773384081E+02  0.00000000000E+00 0.  1.
         25    2    1    2    0    0  0.86978709923E+01  0.26823516872E+02  0.25599796492E+03  0.28631690925E+03  0.12508901016E+03 0.  0.
          5    1    3    3  502    0  0.24031776521E+02  0.51748908870E+02  0.24959818298E+03  0.25607069571E+03  0.41800000000E+01 0.  1.
         -5    1    3    3    0  502 -0.15333905529E+02 -0.24925391999E+02  0.63997819428E+01  0.30246213547E+02  0.41800000000E+01 0.  1.
        -11    1    1    2    0    0  0.17086682727E+01  0.25794160228E+02  0.15396697226E+03  0.15612202534E+03  0.00000000000E+00 0.  1.
         11    1    1    2    0    0 -0.10406539265E+02 -0.52617677100E+02  0.75718128562E+02  0.92790899316E+02  0.00000000000E+00 0. -1.
</event>
<event>
 7    1  0.2714042E-009  0.6464524E+02  0.7561462E-02  0.1379311E+00
         -2   -1    0    0    0  501 -0.00000000000E+00  0.00000000000E+00  0.16931725304E+03  0.16931725304E+03  0.00000000000E+00 0. -1.
          2   -1    0    0  501    0  0.00000000000E+00 -0.00000000000E+00 -0.13338969873E+03  0.13338969873E+03  0.00000000000E+00 0.  1.
         25    2    1    2    0    0  0.51575064720E+02 -0.34831205832E+02 -0.64564907543E+02  0.15391357969E+03  0.12509021754E+03 0.  0.
          5    1    3    3  502    0  0.10327505168E+02 -0.11148892361E+02  0.37803638285E+02  0.40957815268E+02  0.41800000000E+01 0.  1.
         -5    1    3    3    0  502  0.41247559552E+02 -0.23682313471E+02 -0.10236854583E+03  0.11295576442E+03  0.41800000000E+01 0.  1.
        -11    1    1    2    0    0 -0.28163896756E+02  0.62709756124E+01 -0.11354622223E+02  0.31007380757E+02  0.00000000000E+00 0.  1.
         11    1    1    2    0    0 -0.23411167964E+02  0.28560230220E+02  0.11184708408E+03  0.11778599132E+03  0.00000000000E+00 0. -1.
</event>
<event>
 7    1  0.2714042E-009  0.1474001E+03  0.7561462E-02  0.1203705E+00
         -2   -1    0    0    0  501 -0.00000000000E+00  0.00000000000E+00  0.77880722166E+02  0.77880722166E+02  0.00000000000E+00 0.  1.
          2   -1    0    0  501    0  0.00000000000E+00 -0.00000000000E+00 -0.42752911216E+03  0.42752911216E+03  0.00000000000E+00 0. -1.
         25    2    1    2    0    0 -0.51690178598E+02  0.99292851857E+02 -0.53690009433E+02  0.17624034650E+03  0.12508835928E+03 0.  0.
          5    1    3    3  502    0 -0.51151687835E+01 -0.29224841479E+02 -0.17792404226E+02  0.34846784060E+02  0.41800000000E+01 0.  1.
         -5    1    3    3    0  502 -0.46575009815E+02  0.12851769334E+03 -0.35897605207E+02  0.14139356244E+03  0.41800000000E+01 0.  1.
        -11    1    1    2    0    0  0.22354029193E+02 -0.95986785752E+02 -0.14481578515E+03  0.17517070899E+03  0.00000000000E+00 0.  1.
         11    1    1    2    0    0  0.29336149405E+02 -0.33060661056E+01 -0.15114259542E+03  0.15399877884E+03  0.00000000000E+00 0. -1.
</event>
<event>
 7    1  0.2714042E-009  0.6159463E+02  0.7561462E-02  0.1391259E+00
          2   -1    0    0  501    0  0.00000000000E+00  0.00000000000E+00  0.23873987465E+03  0.23873987465E+03  0.00000000000E+00 0. -1.
         -2   -1    0    0    0  501 -0.00000000000E+00 -0.00000000000E+00 -0.47564461326E+02  0.47564461326E+02  0.00000000000E+00 0.  1.
         25    2    1    2    0    0  0.32878413643E+01 -0.82724337720E+01  0.10350677470E+03  0.16260735791E+03  0.12509299491E+03 0.  0.
          5    1    3    3  502    0  0.36904586065E+02  0.14658188847E+02  0.11365145653E+03  0.12046135042E+03  0.41800000000E+01 0. -1.
         -5    1    3    3    0  502 -0.33616744701E+02 -0.22930622619E+02 -0.10144681827E+02  0.42146007490E+02  0.41800000000E+01 0. -1.
        -11    1    1    2    0    0  0.19116716961E+02  0.44115282599E+01  0.97115644574E+02  0.99077539684E+02  0.00000000000E+00 0. -1.
         11    1    1    2    0    0 -0.22404558325E+02  0.38609055121E+01 -0.94470059491E+01  0.24619438388E+02  0.00000000000E+00 0.  1.
</event>
<event>
 7    1  0.2714042E-009  0.1990771E+03  0.7561462E-02  0.1150520E+00
         -2   -1    0    0    0  501 -0.00000000000E+00  0.00000000000E+00  0.33231256060E+02  0.33231256060E+02  0.00000000000E+00 0.  1.
          2   -1    0    0  501    0  0.00000000000E+00 -0.00000000000E+00 -0.13359621082E+04  0.13359621082E+04  0.00000000000E+00 0. -1.
         25    2    1    2    0    0 -0.14665648911E+03  0.10296704438E+03 -0.62565415472E+03  0.66272205817E+03  0.12508823707E+03 0.  0.
          5    1    3    3  502    0 -0.12097324072E+03  0.12308955886E+02 -0.40156438616E+03  0.41959202089E+03  0.41800000000E+01 0. -1.
         -5    1    3    3    0  502 -0.25683248390E+02  0.90658088497E+02 -0.22408976856E+03  0.24313003728E+03  0.41800000000E+01 0. -1.
        -11    1    1    2    0    0  0.63870263512E+01 -0.15741343850E+02 -0.11044628278E+02  0.20262473334E+02  0.00000000000E+00 0.  1.
         11    1    1    2    0    0  0.14026946275E+03 -0.87225700534E+02 -0.66603206917E+03  0.68620883278E+03  0.00000000000E+00 0. -1.
</event>
<event>
 7    1  0.2714042E-009  0.6634136E+02  0.7561462E-02  0.1372996E+00
         -1   -1    0    0    0  501 -0.00000000000E+00  0.00000000000E+00  0.84681257716E+02  0.84681257716E+02  0.00000000000E+00 0.  1.
          1   -1    0    0  501    0  0.00000000000E+00 -0.00000000000E+00 -0.16150728287E+03  0.16150728287E+03  0.00000000000E+00 0. -1.
         25    2    1    2    0    0  0.37451263944E+02  0.24170083581E+01 -0.21034949573E+02  0.13228265121E+03  0.12509113321E+03 0.  0.
          5    1    3    3  502    0  0.41042112721E+01 -0.29058919393E+02  0.43722070498E+02  0.52823831696E+02  0.41800000000E+01 0.  1.
         -5    1    3    3    0  502  0.33347052672E+02  0.31475927751E+02 -0.64757020071E+02  0.79458819512E+02  0.41800000000E+01 0.  1.
        -11    1    1    2    0    0 -0.18439615234E+01 -0.18022339940E+02 -0.70158046278E+02  0.72459343004E+02  0.00000000000E+00 0. -1.
         11    1    1    2    0    0 -0.35607302421E+02  0.15605331582E+02  0.14366970697E+02  0.41446546376E+02  0.00000000000E+00 0.  1.
</event>
<event>
 7    1  0.2714042E-009  0.1274641E+03  0.7561462E-02  0.1231268E+00
          1   -1    0    0  501    0  0.00000000000E+00  0.00000000000E+00  0.79379267162E+02  0.79379267162E+02  0.00000000000E+00 0. -1.
         -1   -1    0    0    0  501 -0.00000000000E+00 -0.00000000000E+00 -0.23540681455E+03  0.23540681455E+03  0.00000000000E+00 0.  1.
         25    2    1    2    0    0 -0.19529899832E+02  0.76033578262E+02 -0.55597435715E+02  0.15780152123E+03  0.12509085991E+03 0.  0.
          5    1    3    3  502    0 -0.28716486630E+02 -0.22001362727E+02 -0.46162967409E+02  0.58797861579E+02  0.41800000000E+01 0.  1.
         -5    1    3    3    0  502  0.91865867980E+01  0.98034940989E+02 -0.94344683053E+01  0.99003659649E+02  0.41800000000E+01 0.  1.
        -11    1    1    2    0    0  0.50919974063E+02 -0.18051944366E+02 -0.53676185854E+02  0.76156742195E+02  0.00000000000E+00 0. -1.
         11    1    1    2    0    0 -0.31390074231E+02 -0.57981633897E+02 -0.46753925814E+02  0.80827818284E+02  0.00000000000E+00 0.  1.
</event>
<event>
 7    1  0.2714042E-009  0.1057966E+03  0.7561462E-02  0.1268558E+00
         -2   -1    0    0    0  501 -0.00000000000E+00  0.00000000000E+00  0.37733734294E+02  0.37733734294E+02  0.00000000000E+00 0.  1.
          2   -1    0    0  501    0  0.00000000000E+00 -0.00000000000E+00 -0.33425245800E+03  0.33425245800E+03  0.00000000000E+00 0. -1.
         25    2    1    2    0    0 -0.21940671693E+02 -0.17930282962E+02 -0.18009970301E+03  0.22110222198E+03  0.12508957358E+03 0.  0.
          5    1    3    3  502    0  0.47617266808E+02 -0.64117389870E-01 -0.35314665468E+02  0.59430684048E+02  0.41800000000E+01 0.  1.
         -5    1    3    3    0  502 -0.69557938501E+02 -0.17866165573E+02 -0.14478503754E+03  0.16167153793E+03  0.41800000000E+01 0.  1.
        -11    1    1    2    0    0  0.54979148869E+02  0.16023505063E+01 -0.90231953462E+02  0.10567440448E+03  0.00000000000E+00 0. -1.
         11    1    1    2    0    0 -0.33038477175E+02  0.16327932456E+02 -0.26187067235E+02  0.45209565832E+02  0.00000000000E+00 0.  1.
</event>
<event>
 7    1  0.2714042E-009  0.9490456E+02  0.7561462E-02  0.1291391E+00
         -1   -1    0    0    0  501 -0.00000000000E+00  0.00000000000E+00  0.34629802492E+02  0.34629802492E+02  0.00000000000E+00 0.  1.
          1   -1    0    0  501    0  0.00000000000E+00 -0.00000000000E+00 -0.26234902414E+03  0.26234902414E+03  0.00000000000E+00 0. -1.
         25    2    1    2    0    0  0.16485116695E+02  0.24353363382E+02 -0.14363811976E+03  0.19272630619E+03  0.12508666704E+03 0.  0.
          5    1    3    3  502    0 -0.50048881692E+02  0.34422381121E+02 -0.62960630343E+02  0.87585982062E+02  0.41800000000E+01 0. -1.
         -5    1    3    3    0  502  0.66533998387E+02 -0.10069017739E+02 -0.80677489417E+02  0.10514032413E+03  0.41800000000E+01 0. -1.
        -11    1    1    2    0    0  0.13236249427E+02  0.96188560962E+01 -0.19404991816E+02  0.25382560920E+02  0.00000000000E+00 0.  1.
         11    1    1    2    0    0 -0.29721366122E+02 -0.33972219478E+02 -0.64676110069E+02  0.78869959516E+02  0.00000000000E+00 0. -1.
</event>
<event>
 7    1  0.2714042E-009  0.1194515E+03  0.7561462E-02  0.1244005E+00
         -1   -1    0    0    0  501 -0.00000000000E+00  0.00000000000E+00  0.70698132518E+02  0.70698132518E+02  0.00000000000E+00 0.  1.
          1   -1    0    0  501    0  0.00000000000E+00 -0.00000000000E+00 -0.25288043640E+03  0.25288043640E+03  0.00000000000E+00 0. -1.
         25    2    1    2    0    0 -0.38684692812E+02  0.74278206225E+02 -0.10555485118E+03  0.18385842921E+03  0.12509331719E+03 0.  0.
          5    1    3    3  502    0  0.36552446298E+02  0.44458763298E+02 -0.80475701703E+02  0.99027642246E+02  0.41800000000E+01 0. -1.
         -5    1    3    3    0  502 -0.75237139110E+02  0.29819442928E+02 -0.25079149480E+02  0.84830786962E+02  0.41800000000E+01 0. -1.
        -11    1    1    2    0    0  0.49116292492E+02 -0.75053625657E+02 -0.34156215460E+02  0.95979706016E+02  0.00000000000E+00 0.  1.
         11    1    1    2    0    0 -0.10431599680E+02  0.77541943156E+00 -0.42471237240E+02  0.43740433696E+02  0.00000000000E+00 0. -1.
</event>
<event>
 7    1  0.2714042E-009  0.1345320E+03  0.7561462E-02  0.1220882E+00
         -2   -1    0    0    0  501 -0.00000000000E+00  0.00000000000E+00  0.10811591639E+02  0.10811591639E+02  0.00000000000E+00 0.  1.
          2   -1    0    0  501    0  0.00000000000E+00 -0.00000000000E+00 -0.25889710072E+04  0.25889710072E+04  0.00000000000E+00 0. -1.
         25    2    1    2    0    0 -0.39648927820E+02 -0.76839292862E+02 -0.21043001481E+04  0.21097872357E+04  0.12508697804E+03 0.  0.
          5    1    3    3  502    0 -0.79594948814E+02 -0.68504656957E+02 -0.17430564330E+04  0.17462220491E+04  0.41800000000E+01 0.  1.
         -5    1    3    3    0  502  0.39946020994E+02 -0.83346359047E+01 -0.36124371514E+03  0.36356518656E+03  0.41800000000E+01 0.  1.
        -11    1    1    2    0    0  0.63406136696E+02  0.29401259097E+02 -0.30916619552E+03  0.31696767763E+03  0.00000000000E+00 0.  1.
         11    1    1    2    0    0 -0.23757208876E+02  0.47438033765E+02 -0.16469307193E+03  0.17302768554E+03  0.00000000000E+00 0. -1.
</event>
<event>
 7    1  0.2714042E-009  0.6601913E+02  0.7561462E-02  0.1374178E+00
          1   -1    0    0  501    0  0.00000000000E+00  0.00000000000E+00  0.15125884842E+03  0.15125884842E+03  0.00000000000E+00 0. -1.
         -1   -1    0    0    0  501 -0.00000000000E+00 -0.00000000000E+00 -0.90151444985E+02  0.90151444985E+02  0.00000000000E+00 0.  1.
         25    2    1    2    0    0  0.29143523553E+01 -0.21209837179E+02 -0.31537461591E+01  0.12694740591E+03  0.12508935650E+03 0.  0.
          5    1    3    3  502    0  0.11885469683E+02 -0.23937050633E+02 -0.61772964070E+02  0.67436030967E+02  0.41800000000E+01 0.  1.
         -5    1    3    3    0  502 -0.89711173280E+01  0.27272134544E+01  0.58619217911E+02  0.59511374945E+02  0.41800000000E+01 0.  1.
        -11    1    1    2    0    0  0.30723435832E+01 -0.36536826499E+02  0.24940600118E+02  0.44344250135E+02  0.00000000000E+00 0.  1.
         11    1    1    2    0    0 -0.59866959385E+01  0.57746663678E+02  0.39320549479E+02  0.70118637362E+02  0.00000000000E+00 0. -1.
</event>
<event>
 7    1  0.2714042E-009  0.1099686E+03  0.7561462E-02  0.1260628E+00
          1   -1    0    0  501    0  0.00000000000E+00  0.00000000000E+00  0.70237525729E+02  0.70237525729E+02  0.00000000000E+00 0. -1.
         -1   -1    0    0    0  501 -0.00000000000E+00 -0.00000000000E+00 -0.19787983114E+03  0.19787983114E+03  0.00000000000E+00 0.  1.
         25    2    1    2    0    0  0.43461737148E+02 -0.15892706472E+02 -0.57770129336E+02  0.14535004167E+03  0.12509095113E+03 0.  0.
          5    1    3    3  502    0  0.87670665663E+02 -0.66961445320E+01 -0.37696920777E+02  0.95757580408E+02  0.41800000000E+01 0.  1.
         -5    1    3    3    0  502 -0.44208928516E+02 -0.91965619405E+01 -0.20073208559E+02  0.49592461261E+02  0.41800000000E+01 0.  1.
        -11    1    1    2    0    0 -0.51778309563E+02 -0.15531299500E+02 -0.10483508773E+02  0.55064676169E+02  0.00000000000E+00 0.  1.
         11    1    1    2    0    0  0.83165724149E+01  0.31424005972E+02 -0.59388667300E+02  0.67702639031E+02  0.00000000000E+00 0. -1.
</event>
<event>
 7    1  0.2714042E-009  0.7774910E+02  0.7561462E-02  0.1335563E+00
          1   -1    0    0  501    0  0.00000000000E+00  0.00000000000E+00  0.20888501100E+03  0.20888501100E+03  0.00000000000E+00 0. -1.
         -1   -1    0    0    0  501 -0.00000000000E+00 -0.00000000000E+00 -0.73734841032E+02  0.73734841032E+02  0.00000000000E+00 0.  1.
         25    2    1    2    0    0 -0.58686446418E+02  0.19056443899E+01  0.71294486936E+02  0.15549788441E+03  0.12509579415E+03 0.  0.
          5    1    3    3  502    0 -0.15107095526E+02 -0.29187227216E+02  0.92125609526E+02  0.97901577609E+02  0.41800000000E+01 0. -1.
         -5    1    3    3    0  502 -0.43579350892E+02  0.31092871606E+02 -0.20831122590E+02  0.57596306802E+02  0.41800000000E+01 0. -1.
        -11    1    1    2    0    0  0.30703009597E+02  0.16812105710E+02 -0.17456399023E+02  0.39115822420E+02  0.00000000000E+00 0. -1.
         11    1    1    2    0    0  0.27983436821E+02 -0.18717750099E+02  0.81312082056E+02  0.88006145202E+02  0.00000000000E+00 0.  1.
</event>
<event>
 7    1  0.2714042E-009  0.3191505E+03  0.7561462E-02  0.1076041E+00
          2   -1    0    0  501    0  0.00000000000E+00  0.00000000000E+00  0.99088656568E+03  0.99088656568E+03  0.00000000000E+00 0. -1.
         -2   -1    0    0    0  501 -0.00000000000E+00 -0.00000000000E+00 -0.10779993105E+03  0.10779993105E+03  0.00000000000E+00 0.  1.
         25    2    1    2    0    0 -0.26064572177E+03  0.16357208218E+03  0.42756248638E+03  0.54143535042E+03  0.12510212063E+03 0.  0.
          5    1    3    3  502    0 -0.26630576900E+02 -0.69799649558E+01  0.37069049724E+01  0.28091299032E+02  0.41800000000E+01 0. -1.
         -5    1    3    3    0  502 -0.23401514487E+03  0.17055204714E+03  0.42385558141E+03  0.51334405139E+03  0.41800000000E+01 0. -1.
        -11    1    1    2    0    0  0.26754723291E+03 -0.15292978647E+03  0.44036609985E+03  0.53748613315E+03  0.00000000000E+00 0.  1.
         11    1    1    2    0    0 -0.69015111405E+01 -0.10642295712E+02  0.15158048394E+02  0.19765013158E+02  0.00000000000E+00 0. -1.
</event>
<event>
 7    1  0.2714042E-009  0.9788168E+02  0.7561462E-02  0.1284815E+00
         -1   -1    0    0    0  501 -0.00000000000E+00  0.00000000000E+00  0.84583505067E+02  0.84583505067E+02  0.00000000000E+00 0.  1.
          1   -1    0    0  501    0  0.00000000000E+00 -0.00000000000E+00 -0.16260725133E+03  0.16260725133E+03  0.00000000000E+00 0. -1.
         25    2    1    2    0    0 -0.36981765642E+01 -0.45243023532E+02 -0.36020540819E+02  0.13785964371E+03  0.12508874576E+03 0.  0.
          5    1    3    3  502    0 -0.50503446291E+02 -0.15599695754E+02 -0.57569766402E+02  0.78266844823E+02  0.41800000000E+01 0.  1.
         -5    1    3    3    0  502  0.46805269727E+02 -0.29643327778E+02  0.21549225583E+02  0.59592798887E+02  0.41800000000E+01 0.  1.
        -11    1    1    2    0    0  0.29440539694E+02  0.52712016920E+02 -0.10493006747E+01  0.60385454682E+02  0.00000000000E+00 0.  1.
         11    1    1    2    0    0 -0.25742363130E+02 -0.74689933883E+01 -0.40953904768E+02  0.48945658004E+02  0.00000000000E+00 0. -1.
</event>
<event>
 7    1  0.2714042E-009  0.9525589E+02  0.7561462E-02  0.1290601E+00
          4   -1    0    0  501    0  0.00000000000E+00  0.00000000000E+00  0.47716772931E+02  0.47716772931E+02  0.00000000000E+00 0.  1.
         -4   -1    0    0    0  501 -0.00000000000E+00 -0.00000000000E+00 -0.31375307990E+03  0.31375307990E+03  0.00000000000E+00 0. -1.
         25    2    1    2    0    0 -0.47691369712E+01 -0.24386495597E+02 -0.22586702304E+03  0.25938309992E+03  0.12508490953E+03 0.  0.
          5    1    3    3  502    0  0.14630498344E+02 -0.64948941757E+02 -0.68293000416E+02  0.95466343928E+02  0.41800000000E+01 0. -1.
         -5    1    3    3    0  502 -0.19399635316E+02  0.40562446160E+02 -0.15757402263E+03  0.16391675599E+03  0.41800000000E+01 0. -1.
        -11    1    1    2    0    0  0.39126325596E+02  0.20209449615E+02  0.59368170833E+01  0.44435762686E+02  0.00000000000E+00 0.  1.
         11    1    1    2    0    0 -0.34357188625E+02  0.41770459822E+01 -0.46106101009E+02  0.57650990222E+02  0.00000000000E+00 0. -1.
</event>
<event>
 7    1  0.2714042E-009  0.2056475E+03  0.7561462E-02  0.1145060E+00
          1   -1    0    0  501    0  0.00000000000E+00  0.00000000000E+00  0.37898786492E+03  0.37898786492E+03  0.00000000000E+00 0. -1.
         -1   -1    0    0    0  501 -0.00000000000E+00 -0.00000000000E+00 -0.13294534360E+03  0.13294534360E+03  0.00000000000E+00 0.  1.
         25    2    1    2    0    0 -0.15363571294E+03  0.11978034939E+03  0.11107898592E+03  0.25678271144E+03  0.12509018903E+03 0.  0.
          5    1    3    3  502    0 -0.68892489891E+02  0.54114356380E+02  0.12054818752E+03  0.14907674750E+03  0.41800000000E+01 0. -1.
         -5    1    3    3    0  502 -0.84743223045E+02  0.65665993013E+02 -0.94692015981E+01  0.10770596395E+03  0.41800000000E+01 0. -1.
        -11    1    1    2    0    0  0.23360486322E+02  0.15857950247E+02  0.13747448426E+02  0.31403490976E+02  0.00000000000E+00 0.  1.
         11    1    1    2    0    0  0.13027522661E+03 -0.13563829964E+03  0.12121608698E+03  0.22374700610E+03  0.00000000000E+00 0. -1.
</event>
<event>
 7    1  0.2714042E-009  0.6770460E+02  0.7561462E-02  0.1368077E+00
          1   -1    0    0  501    0  0.00000000000E+00  0.00000000000E+00  0.98889405444E+02  0.98889405444E+02  0.00000000000E+00 0. -1.
         -1   -1    0    0    0  501 -0.00000000000E+00 -0.00000000000E+00 -0.14814496386E+03  0.14814496386E+03  0.00000000000E+00 0.  1.
         25    2    1    2    0    0  0.47126883305E+02  0.14514090654E+02 -0.38055469332E+02  0.13974084095E+03  0.12509069480E+03 0.  0.
          5    1    3    3  502    0  0.62588595793E+01 -0.21204900716E+02 -0.72102903742E+02  0.75532259768E+02  0.41800000000E+01 0. -1.
         -5    1    3    3    0  502  0.40868023726E+02  0.35718991369E+02  0.34047434410E+02  0.64208581184E+02  0.41800000000E+01 0. -1.
        -11    1    1    2    0    0 -0.33527328155E+02  0.57986883494E+01 -0.50570500004E+02  0.60951472422E+02  0.00000000000E+00 0.  1.
         11    1    1    2    0    0 -0.13599555150E+02 -0.20312779003E+02  0.39370410924E+02  0.46342055926E+02  0.00000000000E+00 0. -1.
</event>
<event>
 7    1  0.2714042E-009  0.6954950E+02  0.7561462E-02  0.1361632E+00
         -4   -1    0    0    0  501 -0.00000000000E+00  0.00000000000E+00  0.16026168581E+03  0.16026168581E+03  0.00000000000E+00 0. -1.
          4   -1    0    0  501    0  0.00000000000E+00 -0.00000000000E+00 -0.13334521575E+03  0.13334521575E+03  0.00000000000E+00 0.  1.
         25    2    1    2    0    0 -0.47592872540E+02 -0.23171579695E+01 -0.71607462343E+02  0.15180815315E+03  0.12509051107E+03 0.  0.
          5    1    3    3  502    0 -0.62740245917E+01 -0.35189231890E+02  0.23476139525E+02  0.42967975896E+02  0.41800000000E+01 0. -1.
         -5    1    3    3    0  502 -0.41318847948E+02  0.32872073920E+02 -0.95083601868E+02  0.10884017725E+03  0.41800000000E+01 0. -1.
        -11    1    1    2    0    0  0.31308269869E+02 -0.59729289021E+01 -0.86919157519E+01  0.33036843695E+02  0.00000000000E+00 0.  1.
         11    1    1    2    0    0  0.16284602670E+02  0.82900868715E+01  0.10721584815E+03  0.10876190472E+03  0.00000000000E+00 0. -1.
</event>
<event>
 7    1  0.2797520E-009  0.8243364E+02  0.7561462E-02  0.1322284E+00
          1   -1    0    0  501    0  0.00000000000E+00  0.00000000000E+00  0.29219039184E+02  0.29219039184E+02  0.00000000000E+00 0. -1.
         -1   -1    0    0    0  501 -0.00000000000E+00 -0.00000000000E+00 -0.45961947120E+03  0.45961947120E+03  0.00000000000E+00 0.  1.
         25    2    1    2    0    0 -0.89420234026E+01 -0.40147617613E+02 -0.24365499994E+03  0.27695905065E+03  0.12508703274E+03 0.  0.
          5    1    3    3  502    0 -0.46554892034E+02 -0.29938852045E+02 -0.22815204151E+03  0.23480740891E+03  0.41800000000E+01 0.  1.
         -5    1    3    3    0  502  0.37612868632E+02 -0.10208765567E+02 -0.15502958423E+02  0.42151641735E+02  0.41800000000E+01 0.  1.
        -11    1    1    2    0    0  0.33407290403E+01  0.54579221406E+02 -0.18852687490E+03  0.19629680190E+03  0.00000000000E+00 0.  1.
         11    1    1    2    0    0  0.56012943623E+01 -0.14431603793E+02  0.17814428148E+01  0.15582657831E+02  0.00000000000E+00 0. -1.
</event>
<event>
 7    1  0.2714042E-009  0.1075610E+03  0.7561462E-02  0.1265154E+00
         -2   -1    0    0    0  501 -0.00000000000E+00  0.00000000000E+00  0.13058388283E+02  0.13058388283E+02  0.00000000000E+00 0.  1.
          2   -1    0    0  501    0  0.00000000000E+00 -0.00000000000E+00 -0.10074694949E+04  0.10074694949E+04  0.00000000000E+00 0. -1.
         25    2    1    2    0    0  0.33048121156E+02 -0.16500034640E+02 -0.59769828870E+03  0.61176381771E+03  0.12508914775E+03 0.  0.
          5    1    3    3  502    0  0.60306984283E+02  0.26521342334E+02 -0.19577613339E+03  0.20660610049E+03  0.41800000000E+01 0. -1.
         -5    1    3    3    0  502 -0.27258863127E+02 -0.43021376974E+02 -0.40192215531E+03  0.40515771722E+03  0.41800000000E+01 0. -1.
        -11    1    1    2    0    0 -0.64700366074E+02  0.14410849836E+02 -0.28716413165E+03  0.29471519891E+03  0.00000000000E+00 0.  1.
         11    1    1    2    0    0  0.31652244918E+02  0.20891848042E+01 -0.10954868624E+03  0.11404886654E+03  0.00000000000E+00 0. -1.
</event>
<event>
 7    1  0.2714042E-009  0.1839530E+03  0.7561462E-02  0.1164031E+00
          2   -1    0    0  501    0  0.00000000000E+00  0.00000000000E+00  0.21735896648E+04  0.21735896648E+04  0.00000000000E+00 0. -1.
         -2   -1    0    0    0  501 -0.00000000000E+00 -0.00000000000E+00 -0.16487052173E+02  0.16487052173E+02  0.00000000000E+00 0.  1.
         25    2    1    2    0    0  0.14474023910E+03  0.67560716264E+02  0.13056976150E+04  0.13213660504E+04  0.12509112782E+03 0.  0.
          5    1    3    3  502    0  0.11514555455E+03  0.10118121932E+03  0.87596203820E+03  0.88928235260E+03  0.41800000000E+01 0.  1.
         -5    1    3    3    0  502  0.29594684555E+02 -0.33620503054E+02  0.42973557678E+03  0.43208369783E+03  0.41800000000E+01 0.  1.
        -11    1    1    2    0    0 -0.13886288125E+03 -0.44556261942E+02  0.77833857738E+03  0.79188326243E+03  0.00000000000E+00 0. -1.
         11    1    1    2    0    0 -0.58773578515E+01 -0.23004454322E+02  0.73066420313E+02  0.76827404169E+02  0.00000000000E+00 0.  1.
</event>
<event>
 7    1  0.2714042E-009  0.1053976E+03  0.7561462E-02  0.1269338E+00
         -2   -1    0    0    0  501 -0.00000000000E+00  0.00000000000E+00  0.83898806445E+02  0.83898806445E+02  0.00000000000E+00 0.  1.
          2   -1    0    0  501    0  0.00000000000E+00 -0.00000000000E+00 -0.15852982347E+03  0.15852982347E+03  0.00000000000E+00 0. -1.
         25    2    1    2    0    0 -0.10077718250E+02  0.44206636942E+01 -0.18823121860E+01  0.12557732809E+03  0.12508005260E+03 0.  0.
          5    1    3    3  502    0  0.43719735424E+02 -0.33518005394E+02  0.15466386280E+02  0.57372061630E+02  0.41800000000E+01 0. -1.
         -5    1    3    3    0  502 -0.53797453674E+02  0.37938669088E+02 -0.17348698466E+02  0.68205266457E+02  0.41800000000E+01 0. -1.
        -11    1    1    2    0    0  0.23955079046E+02 -0.42648886490E+02 -0.27917857363E+02  0.56322110141E+02  0.00000000000E+00 0.  1.
         11    1    1    2    0    0 -0.13877360796E+02  0.38228222796E+02 -0.44830847473E+02  0.60529191684E+02  0.00000000000E+00 0. -1.
</event>
<event>
 7    1  0.2714042E-009  0.1374876E+03  0.7561462E-02  0.1216750E+00
         -3   -1    0    0    0  501 -0.00000000000E+00  0.00000000000E+00  0.38812427430E+03  0.38812427430E+03  0.00000000000E+00 0.  1.
          3   -1    0    0  501    0  0.00000000000E+00 -0.00000000000E+00 -0.62043882850E+02  0.62043882850E+02  0.00000000000E+00 0. -1.
         25    2    1    2    0    0 -0.79285283856E+02  0.71383143113E+02  0.21257188865E+03  0.26873048030E+03  0.12509018283E+03 0.  0.
          5    1    3    3  502    0 -0.48583786303E+02  0.10570879923E+03  0.16885054018E+03  0.20509195948E+03  0.41800000000E+01 0.  1.
         -5    1    3    3    0  502 -0.30701497553E+02 -0.34325656115E+02  0.43721348475E+02  0.63638520820E+02  0.41800000000E+01 0.  1.
        -11    1    1    2    0    0  0.57507312032E+02 -0.28408144982E+02  0.11668795240E+03  0.13315476662E+03  0.00000000000E+00 0.  1.
         11    1    1    2    0    0  0.21777971824E+02 -0.42974998132E+02 -0.31794495925E+01  0.48282910236E+02  0.00000000000E+00 0. -1.
</event>
<event>
 7    1  0.2714042E-009  0.1558784E+03  0.7561462E-02  0.1193430E+00
          2   -1    0    0  501    0  0.00000000000E+00  0.00000000000E+00  0.13307882254E+03  0.13307882254E+03  0.00000000000E+00 0. -1.
         -2   -1    0    0    0  501 -0.00000000000E+00 -0.00000000000E+00 -0.18555404010E+03  0.18555404010E+03  0.00000000000E+00 0.  1.
         25    2    1    2    0    0 -0.11168247973E+03  0.14765083069E+02 -0.39425851235E+02  0.17289468362E+03  0.12508872821E+03 0.  0.
          5    1    3    3  502    0 -0.56600699596E+02 -0.54348737450E+02 -0.79333133206E+01  0.78979961492E+02  0.41800000000E+01 0. -1.
         -5    1    3    3    0  502 -0.55081780130E+02  0.69113820519E+02 -0.31492537914E+02  0.93914722133E+02  0.41800000000E+01 0. -1.
        -11    1    1    2    0    0  0.11532145858E+03 -0.37815540754E+02 -0.15162304360E+02  0.12230678397E+03  0.00000000000E+00 0.  1.
         11    1    1    2    0    0 -0.36389788558E+01  0.23050457685E+02  0.21129380400E+01  0.23431395045E+02  0.00000000000E+00 0. -1.
</event>
<event>
 7    1  0.2714042E-009  0.1304258E+03  0.7561462E-02  0.1226825E+00
          4   -1    0    0  501    0  0.00000000000E+00  0.00000000000E+00  0.10718471559E+03  0.10718471559E+03  0.00000000000E+00 0.  1.
         -4   -1    0    0    0  501 -0.00000000000E+00 -0.00000000000E+00 -0.23235758058E+03  0.23235758058E+03  0.00000000000E+00 0. -1.
         25    2    1    2    0    0  0.14477710539E+02  0.97666898930E+02 -0.12982977268E+03  0.20555168395E+03  0.12508915881E+03 0.  0.
          5    1    3    3  502    0  0.20219531959E+02 -0.25010174233E+02 -0.10058889398E+02  0.33955735064E+02  0.41800000000E+01 0. -1.
         -5    1    3    3    0  502 -0.57418214197E+01  0.12267707316E+03 -0.11977088328E+03  0.17159594889E+03  0.41800000000E+01 0. -1.
        -11    1    1    2    0    0 -0.21914835282E+02 -0.28398707878E+02  0.41767137371E+02  0.55056701488E+02  0.00000000000E+00 0. -1.
         11    1    1    2    0    0  0.74371247426E+01 -0.69268191052E+02 -0.37110229674E+02  0.78933910726E+02  0.00000000000E+00 0.  1.
</event>
<event>
 7    1  0.2714042E-009  0.1814224E+03  0.7561462E-02  0.1166434E+00
         -1   -1    0    0    0  501 -0.00000000000E+00  0.00000000000E+00  0.40674063663E+02  0.40674063663E+02  0.00000000000E+00 0.  1.
          1   -1    0    0  501    0  0.00000000000E+00 -0.00000000000E+00 -0.89902890637E+03  0.89902890637E+03  0.00000000000E+00 0. -1.
         25    2    1    2    0    0 -0.15280187452E+03 -0.92337053489E+00 -0.54280969167E+03  0.57761524145E+03  0.12509092818E+03 0.  0.
          5    1    3    3  502    0 -0.11599309294E+03 -0.54871825493E+02 -0.40868786822E+03  0.42837899210E+03  0.41800000000E+01 0.  1.
         -5    1    3    3    0  502 -0.36808781580E+02  0.53948454959E+02 -0.13412182345E+03  0.14923624935E+03  0.41800000000E+01 0.  1.
        -11    1    1    2    0    0  0.12024940046E+03 -0.30195429562E+02 -0.27430825520E+03  0.30102608051E+03  0.00000000000E+00 0. -1.
         11    1    1    2    0    0  0.32552474064E+02  0.31118800097E+02 -0.41236895846E+02  0.61061648080E+02  0.00000000000E+00 0.  1.
</event>
<event>
 7    1  0.2714042E-009  0.1213053E+03  0.7561462E-02  0.1240959E+00
         -1   -1    0    0    0  501 -0.00000000000E+00  0.00000000000E+00  0.43182233880E+02  0.43182233880E+02  0.00000000000E+00 0.  1.
          1   -1    0    0  501    0  0.00000000000E+00 -0.00000000000E+00 -0.37084390382E+03  0.37084390382E+03  0.00000000000E+00 0. -1.
         25    2    1    2    0    0 -0.26056469997E+02  0.57510965173E+02 -0.14810823537E+03  0.20388338105E+03  0.12508370374E+03 0.  0.
          5    1    3    3  502    0  0.33457892354E+02 -0.21650585409E+02 -0.32476483004E+02  0.51578801437E+02  0.41800000000E+01 0. -1.
         -5    1    3    3    0  502 -0.59514362351E+02  0.79161550581E+02 -0.11563175237E+03  0.15230457962E+03  0.41800000000E+01 0. -1.
        -11    1    1    2    0    0 -0.28478581155E+02 -0.33098739676E+02 -0.11057883614E+03  0.11888748948E+03  0.00000000000E+00 0.  1.
         11    1    1    2    0    0  0.54535051151E+02 -0.24412225497E+02 -0.68974598433E+02  0.91255267173E+02  0.00000000000E+00 0. -1.
</event>
<event>
 7    1  0.2714042E-009  0.1236086E+03  0.7561462E-02  0.1237260E+00
          2   -1    0    0  501    0  0.00000000000E+00  0.00000000000E+00  0.50852738972E+02  0.50852738972E+02  0.00000000000E+00 0. -1.
         -2   -1    0    0    0  501 -0.00000000000E+00 -0.00000000000E+00 -0.32200626579E+03  0.32200626579E+03  0.00000000000E+00 0.  1.
         25    2    1    2    0    0 -0.80636669959E+02  0.21214697398E+02 -0.18166926240E+03  0.23580398702E+03  0.12508982159E+03 0.  0.
          5    1    3    3  502    0 -0.43648343328E+01 -0.43958569009E+02 -0.28774232251E+02  0.52885124655E+02  0.41800000000E+01 0.  1.
         -5    1    3    3    0  502 -0.76271835626E+02  0.65173266407E+02 -0.15289503015E+03  0.18291886236E+03  0.41800000000E+01 0.  1.
        -11    1    1    2    0    0  0.79560972454E+02 -0.36200523517E+02 -0.83499398883E+02  0.12088248779E+03  0.00000000000E+00 0. -1.
         11    1    1    2    0    0  0.10756975051E+01  0.14985826119E+02 -0.59848655329E+01  0.16172529952E+02  0.00000000000E+00 0.  1.
</event>
<event>
 7    1  0.2714042E-009  0.1413348E+03  0.7561462E-02  0.1211544E+00
          1   -1    0    0  501    0  0.00000000000E+00  0.00000000000E+00  0.26537008616E+04  0.26537008616E+04  0.00000000000E+00 0. -1.
         -1   -1    0    0    0  501 -0.00000000000E+00 -0.00000000000E+00 -0.12620566226E+02  0.12620566226E+02  0.00000000000E+00 0.  1.
         25    2    1    2    0    0 -0.10418255899E+03 -0.43818931746E+02  0.20755175159E+04  0.20823530719E+04  0.12508898082E+03 0.  0.
          5    1    3    3  502    0 -0.24896237496E+02 -0.54472641524E+02  0.36046308603E+03  0.36542878938E+03  0.41800000000E+01 0. -1.
         -5    1    3    3    0  502 -0.79286321494E+02  0.10653709778E+02  0.17150544298E+04  0.17169242825E+04  0.41800000000E+01 0. -1.
        -11    1    1    2    0    0 -0.55947213888E+01 -0.16390380598E+02  0.38138458651E+02  0.41886603011E+02  0.00000000000E+00 0.  1.
         11    1    1    2    0    0  0.10977728038E+03  0.60209312344E+02  0.52742432083E+03  0.54208175286E+03  0.00000000000E+00 0. -1.
</event>
<event>
 7    1  0.2714042E-009  0.1117043E+03  0.7561462E-02  0.1257446E+00
          1   -1    0    0  501    0  0.00000000000E+00  0.00000000000E+00  0.72720262034E+03  0.72720262034E+03  0.00000000000E+00 0. -1.
         -1   -1    0    0    0  501 -0.00000000000E+00 -0.00000000000E+00 -0.18257466199E+02  0.18257466199E+02  0.00000000000E+00 0.  1.
         25    2    1    2    0    0  0.36509520226E+02 -0.11283436250E+02  0.38919288630E+03  0.41058319522E+03  0.12508875428E+03 0.  0.
          5    1    3    3  502    0  0.25082707653E+02  0.56337741885E+02  0.17100544150E+03  0.18183348648E+03  0.41800000000E+01 0.  1.
         -5    1    3    3    0  502  0.11426812573E+02 -0.67621178135E+02  0.21818744480E+03  0.22874970874E+03  0.41800000000E+01 0.  1.
        -11    1    1    2    0    0 -0.53429164951E+02  0.34915606551E+02  0.15577594594E+03  0.16834464822E+03  0.00000000000E+00 0.  1.
         11    1    1    2    0    0  0.16919644725E+02 -0.23632170301E+02  0.16397632190E+03  0.16653224311E+03  0.00000000000E+00 0. -1.
</event>
<event>
 7    1  0.2714042E-009  0.9983309E+02  0.7561462E-02  0.1280647E+00
         -1   -1    0    0    0  501 -0.00000000000E+00  0.00000000000E+00  0.53524762523E+03  0.53524762523E+03  0.00000000000E+00 0.  1.
          1   -1    0    0  501    0  0.00000000000E+00 -0.00000000000E+00 -0.28161922239E+02  0.28161922239E+02  0.00000000000E+00 0. -1.
         25    2    1    2    0    0  0.30163816232E+02 -0.40423990509E+02  0.34406079852E+03  0.36955256162E+03  0.12508919978E+03 0.  0.
          5    1    3    3  502    0 -0.28351751077E+02 -0.48888249712E+02  0.26356753975E+03  0.26959080689E+03  0.41800000000E+01 0.  1.
         -5    1    3    3    0  502  0.58515567310E+02  0.84642592030E+01  0.80493258772E+02  0.99961754732E+02  0.41800000000E+01 0.  1.
        -11    1    1    2    0    0  0.16599501998E+02 -0.61722881026E+01  0.10338547899E+03  0.10489136224E+03  0.00000000000E+00 0.  1.
         11    1    1    2    0    0 -0.46763318230E+02  0.46596278611E+02  0.59639425480E+02  0.88965623608E+02  0.00000000000E+00 0. -1.
</event>
<event>
 7    1  0.2714042E-009  0.1310513E+03  0.7561462E-02  0.1225904E+00
         -1   -1    0    0    0  501 -0.00000000000E+00  0.00000000000E+00  0.26636728331E+02  0.26636728331E+02  0.00000000000E+00 0.  1.
          1   -1    0    0  501    0  0.00000000000E+00 -0.00000000000E+00 -0.11491817832E+04  0.11491817832E+04  0.00000000000E+00 0. -1.
         25    2    1    2    0    0 -0.11009409265E+03 -0.33285700881E+02 -0.34294327326E+03  0.38273769369E+03  0.12509758743E+03 0.  0.
          5    1    3    3  502    0 -0.95478485562E+02 -0.34273750056E+02 -0.35108074871E+03  0.36546681883E+03  0.41800000000E+01 0.  1.
         -5    1    3    3    0  502 -0.14615607091E+02  0.98804917507E+00  0.81374754554E+01  0.17270874865E+02  0.41800000000E+01 0.  1.
        -11    1    1    2    0    0  0.88596195441E+02  0.62965152152E+02 -0.56187523196E+03  0.57229159746E+03  0.00000000000E+00 0.  1.
         11    1    1    2    0    0  0.21497897212E+02 -0.29679451271E+02 -0.21772654966E+03  0.22078922039E+03  0.00000000000E+00 0. -1.
</event>
<event>
 7    1  0.2714042E-009  0.1215308E+03  0.7561462E-02  0.1240593E+00
          1   -1    0    0  501    0  0.00000000000E+00  0.00000000000E+00  0.51516997234E+03  0.51516997234E+03  0.00000000000E+00 0. -1.
         -1   -1    0    0    0  501 -0.00000000000E+00 -0.00000000000E+00 -0.60031910904E+02  0.60031910904E+02  0.00000000000E+00 0.  1.
         25    2    1    2    0    0 -0.70815017200E+01  0.10873222568E+03  0.37932263189E+03  0.41401324362E+03  0.12509381383E+03 0.  0.
          5    1    3    3  502    0  0.22640490566E+02  0.31975954389E+01  0.21606526625E+03  0.21731196034E+03  0.41800000000E+01 0. -1.
         -5    1    3    3    0  502 -0.29721992286E+02  0.10553463024E+03  0.16325736565E+03  0.19670128328E+03  0.41800000000E+01 0. -1.
        -11    1    1    2    0    0  0.12168662437E+02 -0.79592769113E+02  0.96061615030E+02  0.12534320533E+03  0.00000000000E+00 0. -1.
         11    1    1    2    0    0 -0.50871607168E+01 -0.29139456564E+02 -0.20246185486E+02  0.35845434294E+02  0.00000000000E+00 0.  1.
</event>
<event>
 7    1  0.2714042E-009  0.1000068E+03  0.7561462E-02  0.1280282E+00
         -2   -1    0    0    0  501 -0.00000000000E+00  0.00000000000E+00  0.66833639706E+02  0.66833639706E+02  0.00000000000E+00 0.  1.
          2   -1    0    0  501    0  0.00000000000E+00 -0.00000000000E+00 -0.19159663942E+03  0.19159663942E+03  0.00000000000E+00 0. -1.
         25    2    1    2    0    0 -0.24601151631E+02 -0.14348742312E+02 -0.91167014182E+02  0.15738567855E+03  0.12509086405E+03 0.  0.
          5    1    3    3  502    0  0.26698775807E+02  0.38117896238E+02 -0.98066824718E+01  0.47743502849E+02  0.41800000000E+01 0.  1.
         -5    1    3    3    0  502 -0.51299927438E+02 -0.52466638550E+02 -0.81360331710E+02  0.10964217570E+03  0.41800000000E+01 0.  1.
        -11    1    1    2    0    0  0.40638855945E+02  0.35006881317E+02 -0.47304133339E+02  0.71516986675E+02  0.00000000000E+00 0. -1.
         11    1    1    2    0    0 -0.16037704314E+02 -0.20658139005E+02  0.13708147803E+02  0.29527613906E+02  0.00000000000E+00 0.  1.
</event>
<event>
 7    1  0.2714042E-009  0.1008754E+03  0.7561462E-02  0.1278466E+00
          3   -1    0    0  501    0  0.00000000000E+00  0.00000000000E+00  0.12474529143E+03  0.12474529143E+03  0.00000000000E+00 0. -1.
         -3   -1    0    0    0  501 -0.00000000000E+00 -0.00000000000E+00 -0.14175225589E+03  0.14175225589E+03  0.00000000000E+00 0.  1.
         25    2    1    2    0    0 -0.57199847282E+02 -0.26099815555E+02 -0.54202968061E+02  0.15012903348E+03  0.12509093510E+03 0.  0.
          5    1    3    3  502    0 -0.66011449182E+02 -0.56020798959E+02 -0.73128127622E+02  0.11340651123E+03  0.41800000000E+01 0.  1.
         -5    1    3    3    0  502  0.88116018995E+01  0.29920983404E+02  0.18925159561E+02  0.36722522249E+02  0.41800000000E+01 0.  1.
        -11    1    1    2    0    0  0.65803303612E+02  0.31997393104E+02  0.57819203361E+02  0.93257537009E+02  0.00000000000E+00 0. -1.
         11    1    1    2    0    0 -0.86034563298E+01 -0.58975775489E+01 -0.20623199759E+02  0.23110976830E+02  0.00000000000E+00 0.  1.
</event>
<event>
 7    1  0.2714042E-009  0.1666623E+03  0.7561462E-02  0.1181374E+00
          3   -1    0    0  501    0  0.00000000000E+00  0.00000000000E+00  0.20656180210E+03  0.20656180210E+03  0.00000000000E+00 0. -1.
         -3   -1    0    0    0  501 -0.00000000000E+00 -0.00000000000E+00 -0.17807180107E+03  0.17807180107E+03  0.00000000000E+00 0.  1.
         25    2    1    2    0    0  0.24777800300E+02 -0.15525573375E+03  0.34293787297E+02  0.20382065439E+03  0.12509401687E+03 0.  0.
          5    1    3    3  502    0 -0.19240022505E+02 -0.27386543309E+02 -0.37678841498E+02  0.50570433230E+02  0.41800000000E+01 0. -1.
         -5    1    3    3    0  502  0.44017822805E+02 -0.12786919044E+03  0.71972628796E+02  0.15325022116E+03  0.41800000000E+01 0. -1.
        -11    1    1    2    0    0 -0.36947757874E+02  0.80717478109E+02 -0.40650121215E+02  0.97636470845E+02  0.00000000000E+00 0.  1.
         11    1    1    2    0    0  0.12169957575E+02  0.74538255645E+02  0.34846334952E+02  0.83176477935E+02  0.00000000000E+00 0. -1.
</event>
<event>
 7    1  0.2714042E-009  0.1094618E+03  0.7561462E-02  0.1261570E+00
          2   -1    0    0  501    0  0.00000000000E+00  0.00000000000E+00  0.10140356572E+04  0.10140356572E+04  0.00000000000E+00 0. -1.
         -2   -1    0    0    0  501 -0.00000000000E+00 -0.00000000000E+00 -0.16703070741E+02  0.16703070741E+02  0.00000000000E+00 0.  1.
         25    2    1    2    0    0  0.56410804710E+02 -0.11065773442E+02  0.73178296872E+03  0.74462035733E+03  0.12509409663E+03 0.  0.
          5    1    3    3  502    0  0.67763424772E+02  0.33104754574E+02  0.26376483690E+03  0.27436684949E+03  0.41800000000E+01 0. -1.
         -5    1    3    3    0  502 -0.11352620062E+02 -0.44170528016E+02  0.46801813182E+03  0.47025350784E+03  0.41800000000E+01 0. -1.
        -11    1    1    2    0    0 -0.35357899699E+02 -0.33246698994E+02  0.18951046084E+03  0.19562652896E+03  0.00000000000E+00 0.  1.
         11    1    1    2    0    0 -0.21052905010E+02  0.44312472437E+02  0.76039156881E+02  0.90491841633E+02  0.00000000000E+00 0. -1.
</event>
<event>
 7    1  0.2714042E-009  0.9947205E+02  0.7561462E-02  0.1281410E+00
         -1   -1    0    0    0  501 -0.00000000000E+00  0.00000000000E+00  0.79252659480E+02  0.79252659480E+02  0.00000000000E+00 0.  1.
          1   -1    0    0  501    0  0.00000000000E+00 -0.00000000000E+00 -0.19823352154E+03  0.19823352154E+03  0.00000000000E+00 0. -1.
         25    2    1    2    0    0  0.52125616402E+02  0.32429565380E+02 -0.59143792153E+02  0.15137363247E+03  0.12508889583E+03 0.  0.
          5    1    3    3  502    0 -0.14294252710E+02  0.20526336444E+02  0.30134422424E+02  0.39385428310E+02  0.41800000000E+01 0. -1.
         -5    1    3    3    0  502  0.66419869111E+02  0.11903228936E+02 -0.89278214577E+02  0.11198820416E+03  0.41800000000E+01 0. -1.
        -11    1    1    2    0    0 -0.56379444217E+02  0.15012807526E+02 -0.13984724961E+02  0.59996655342E+02  0.00000000000E+00 0. -1.
         11    1    1    2    0    0  0.42538278151E+01 -0.47442372906E+02 -0.45852344942E+02  0.66115893208E+02  0.00000000000E+00 0.  1.
</event>
<event>
 7    1  0.2714042E-009  0.1700299E+03  0.7561462E-02  0.1177817E+00
          2   -1    0    0  501    0  0.00000000000E+00  0.00000000000E+00  0.36693871552E+03  0.36693871552E+03  0.00000000000E+00 0.  1.
         -2   -1    0    0    0  501 -0.00000000000E+00 -0.00000000000E+00 -0.85592955777E+02  0.85592955777E+02  0.00000000000E+00 0. -1.
         25    2    1    2    0    0 -0.48243485713E+02  0.12544303472E+03  0.99246151866E+02  0.20870707534E+03  0.12508179628E+03 0.  0.
          5    1    3    3  502    0  0.26829987730E+02 -0.50014692991E+01  0.36075442093E+02  0.45428766866E+02  0.41800000000E+01 0.  1.
         -5    1    3    3    0  502 -0.75073473443E+02  0.13044450402E+03  0.63170709773E+02  0.16327830847E+03  0.41800000000E+01 0.  1.
        -11    1    1    2    0    0 -0.26319717192E+02 -0.45526260375E+02  0.52835076772E+02  0.74544706279E+02  0.00000000000E+00 0. -1.
         11    1    1    2    0    0  0.74563202905E+02 -0.79916774345E+02  0.12926453110E+03  0.16927988968E+03  0.00000000000E+00 0.  1.
</event>
<event>
 7    1  0.2714042E-009  0.8575795E+02  0.7561462E-02  0.1313462E+00
          1   -1    0    0  501    0  0.00000000000E+00  0.00000000000E+00  0.35551564213E+03  0.35551564213E+03  0.00000000000E+00 0. -1.
         -1   -1    0    0    0  501 -0.00000000000E+00 -0.00000000000E+00 -0.37533791318E+02  0.37533791318E+02  0.00000000000E+00 0.  1.
         25    2    1    2    0    0  0.12068838178E+02 -0.29620586103E+02  0.13980579071E+03  0.19030334735E+03  0.12508664565E+03 0.  0.
          5    1    3    3  502    0 -0.96434745986E+01  0.18827903874E+02  0.13513370175E+03  0.13684325455E+03  0.41800000000E+01 0. -1.
         -5    1    3    3    0  502  0.21712312777E+02 -0.48448489977E+02  0.46720889615E+01  0.53460092802E+02  0.41800000000E+01 0. -1.
        -11    1    1    2    0    0  0.14971125047E+02  0.56572169430E+02  0.11086228512E+03  0.12535944799E+03  0.00000000000E+00 0. -1.
         11    1    1    2    0    0 -0.27039963225E+02 -0.26951583327E+02  0.67313774988E+02  0.77386638112E+02  0.00000000000E+00 0.  1.
</event>
<event>
 7    1  0.2714042E-009  0.1782271E+03  0.7561462E-02  0.1169530E+00
          2   -1    0    0  501    0  0.00000000000E+00  0.00000000000E+00  0.74564027100E+03  0.74564027100E+03  0.00000000000E+00 0. -1.
         -2   -1    0    0    0  501 -0.00000000000E+00 -0.00000000000E+00 -0.77417933391E+02  0.77417933391E+02  0.00000000000E+00 0.  1.
         25    2    1    2    0    0 -0.12587910732E+03 -0.11823420951E+03  0.56153254916E+03  0.60065817645E+03  0.12508622313E+03 0.  0.
          5    1    3    3  502    0 -0.12933262124E+03 -0.11156986726E+03  0.35529772916E+03  0.39424448118E+03  0.41800000000E+01 0.  1.
         -5    1    3    3    0  502  0.34535139130E+01 -0.66643422516E+01  0.20623482000E+03  0.20641369527E+03  0.41800000000E+01 0.  1.
        -11    1    1    2    0    0  0.63079985061E+02  0.85311126656E+02  0.10811580460E+03  0.15147970178E+03  0.00000000000E+00 0.  1.
         11    1    1    2    0    0  0.62799122262E+02  0.32923082851E+02 -0.14260161451E+01  0.70920326165E+02  0.00000000000E+00 0. -1.
</event>
<event>
 7    1  0.2714042E-009  0.1218126E+03  0.7561462E-02  0.1240136E+00
          1   -1    0    0  501    0  0.00000000000E+00  0.00000000000E+00  0.13312145024E+02  0.13312145024E+02  0.00000000000E+00 0. -1.
         -1   -1    0    0    0  501 -0.00000000000E+00 -0.00000000000E+00 -0.12871590238E+04  0.12871590238E+04  0.00000000000E+00 0.  1.
         25    2    1    2    0    0  0.13666854527E+02 -0.61580030739E+02 -0.88915258871E+03  0.90011945594E+03  0.12507528071E+03 0.  0.
          5    1    3    3  502    0  0.43591914415E+02  0.18708735173E+02 -0.46129244455E+03  0.46374396338E+03  0.41800000000E+01 0. -1.
         -5    1    3    3    0  502 -0.29925059888E+02 -0.80288765913E+02 -0.42786014416E+03  0.43637549256E+03  0.41800000000E+01 0. -1.
        -11    1    1    2    0    0 -0.38474274252E+02  0.73298303124E+02 -0.26904795829E+03  0.28149549708E+03  0.00000000000E+00 0.  1.
         11    1    1    2    0    0  0.24807419726E+02 -0.11718272385E+02 -0.11564633176E+03  0.11885621578E+03  0.00000000000E+00 0. -1.
</event>
<event>
 7    1  0.2714042E-009  0.1172891E+03  0.7561462E-02  0.1247637E+00
          1   -1    0    0  501    0  0.00000000000E+00  0.00000000000E+00  0.71623454597E+03  0.71623454597E+03  0.00000000000E+00 0. -1.
         -1   -1    0    0    0  501 -0.00000000000E+00 -0.00000000000E+00 -0.29571722355E+02  0.29571722355E+02  0.00000000000E+00 0.  1.
         25    2    1    2    0    0 -0.81797546371E+02  0.13161278221E+01  0.51323838683E+03  0.53455924396E+03  0.12508945921E+03 0.  0.
          5    1    3    3  502    0 -0.74084833244E+02  0.52253858415E+02  0.39869411952E+03  0.40889301972E+03  0.41800000000E+01 0.  1.
         -5    1    3    3    0  502 -0.77127131264E+01 -0.50937730592E+02  0.11454426730E+03  0.12566622424E+03  0.41800000000E+01 0.  1.
        -11    1    1    2    0    0  0.30822201479E+02  0.20150441613E+02  0.91972387605E+01  0.37955732137E+02  0.00000000000E+00 0.  1.
         11    1    1    2    0    0  0.50975344892E+02 -0.21466569435E+02  0.16422719803E+03  0.17329129223E+03  0.00000000000E+00 0. -1.
</event>
<event>
 7    1  0.2714042E-009  0.1716490E+03  0.7561462E-02  0.1176139E+00
         -1   -1    0    0    0  501 -0.00000000000E+00  0.00000000000E+00  0.81361816615E+02  0.81361816615E+02  0.00000000000E+00 0.  1.
          1   -1    0    0  501    0  0.00000000000E+00 -0.00000000000E+00 -0.68024611311E+03  0.68024611311E+03  0.00000000000E+00 0. -1.
         25    2    1    2    0    0 -0.15706378696E+03 -0.28795461843E+02 -0.52587926393E+03  0.56364403056E+03  0.12508949261E+03 0.  0.
          5    1    3    3  502    0 -0.11990247473E+03 -0.26574681675E+02 -0.50702841329E+03  0.52170691143E+03  0.41800000000E+01 0.  1.
         -5    1    3    3    0  502 -0.37161312232E+02 -0.22207801682E+01 -0.18850850644E+02  0.41937119136E+02  0.41800000000E+01 0.  1.
        -11    1    1    2    0    0  0.27285326158E+02  0.44529810166E+02 -0.30602984167E+02  0.60530452310E+02  0.00000000000E+00 0. -1.
         11    1    1    2    0    0  0.12977846080E+03 -0.15734348323E+02 -0.42402048393E+02  0.13743344685E+03  0.00000000000E+00 0.  1.
</event>
<event>
 7    1  0.2714042E-009  0.9065106E+02  0.7561462E-02  0.1301283E+00
          2   -1    0    0  501    0  0.00000000000E+00  0.00000000000E+00  0.23989852369E+03  0.23989852369E+03  0.00000000000E+00 0. -1.
         -2   -1    0    0    0  501 -0.00000000000E+00 -0.00000000000E+00 -0.80076988560E+02  0.80076988560E+02  0.00000000000E+00 0.  1.
         25    2    1    2    0    0  0.17800676361E+02 -0.64374233215E+02  0.15378964945E+03  0.20919116428E+03  0.12509508765E+03 0.  0.
          5    1    3    3  502    0 -0.94958053682E+01  0.16564397194E+02 -0.11793291154E+02  0.22827695684E+02  0.41800000000E+01 0.  1.
         -5    1    3    3    0  502  0.27296481729E+02 -0.80938630409E+02  0.16558294060E+03  0.18636346859E+03  0.41800000000E+01 0.  1.
        -11    1    1    2    0    0 -0.28028625854E+02  0.33316411978E+02 -0.36723913410E+02  0.56958168778E+02  0.00000000000E+00 0.  1.
         11    1    1    2    0    0  0.10227949492E+02  0.31057821237E+02  0.42755799089E+02  0.53826179193E+02  0.00000000000E+00 0. -1.
</event>
<event>
 7    1  0.2714042E-009  0.1134901E+03  0.7561462E-02  0.1254240E+00
          2   -1    0    0  501    0  0.00000000000E+00  0.00000000000E+00  0.17567883157E+03  0.17567883157E+03  0.00000000000E+00 0. -1.
         -2   -1    0    0    0  501 -0.00000000000E+00 -0.00000000000E+00 -0.99387167499E+02  0.99387167499E+02  0.00000000000E+00 0.  1.
         25    2    1    2    0    0  0.61541499499E+02  0.10868793187E+02  0.60996521688E+02  0.15255529023E+03  0.12508818527E+03 0.  0.
          5    1    3    3  502    0  0.39818540999E+02  0.57414910030E+02 -0.33969292751E+01  0.70078524739E+02  0.41800000000E+01 0.  1.
         -5    1    3    3    0  502  0.21722958500E+02 -0.46546116843E+02  0.64393450963E+02  0.82476765492E+02  0.41800000000E+01 0.  1.
        -11    1    1    2    0    0 -0.32242583882E+02 -0.48201872723E+02  0.38576746728E+02  0.69650341976E+02  0.00000000000E+00 0. -1.
         11    1    1    2    0    0 -0.29298915617E+02  0.37333079535E+02 -0.23281604344E+02  0.52860366862E+02  0.00000000000E+00 0.  1.
</event>
<event>
 7    1  0.2714042E-009  0.8804804E+02  0.7561462E-02  0.1307649E+00
          2   -1    0    0  501    0  0.00000000000E+00  0.00000000000E+00  0.56536135057E+03  0.56536135057E+03  0.00000000000E+00 0. -1.
         -2   -1    0    0    0  501 -0.00000000000E+00 -0.00000000000E+00 -0.22771619357E+02  0.22771619357E+02  0.00000000000E+00 0.  1.
         25    2    1    2    0    0  0.14774334832E+01  0.34891561535E+01  0.39242164052E+03  0.41189432742E+03  0.12509131064E+03 0.  0.
          5    1    3    3  502    0  0.48274677237E+02  0.41008256566E+02  0.23363774210E+03  0.24210780347E+03  0.41800000000E+01 0.  1.
         -5    1    3    3    0  502 -0.46797243754E+02 -0.37519100413E+02  0.15878389842E+03  0.16978652395E+03  0.41800000000E+01 0.  1.
        -11    1    1    2    0    0 -0.21769790066E+01 -0.27942734466E+02  0.14914293970E+03  0.15175359010E+03  0.00000000000E+00 0. -1.
         11    1    1    2    0    0  0.69954552343E+00  0.24453578313E+02  0.10251509913E+01  0.24485052395E+02  0.00000000000E+00 0.  1.
</event>
<event>
 7    1  0.2714042E-009  0.1398721E+03  0.7561462E-02  0.1213501E+00
         -1   -1    0    0    0  501 -0.00000000000E+00  0.00000000000E+00  0.42421530741E+02  0.42421530741E+02  0.00000000000E+00 0.  1.
          1   -1    0    0  501    0  0.00000000000E+00 -0.00000000000E+00 -0.54609539933E+03  0.54609539933E+03  0.00000000000E+00 0. -1.
         25    2    1    2    0    0  0.74525662622E+02 -0.60759843810E+02 -0.35314622942E+03  0.38679022571E+03  0.12509430980E+03 0.  0.
          5    1    3    3  502    0 -0.26170060249E+02  0.14709288098E+02 -0.49052661377E+02  0.57661696107E+02  0.41800000000E+01 0.  1.
         -5    1    3    3    0  502  0.10069572287E+03 -0.75469131908E+02 -0.30409356804E+03  0.32912852960E+03  0.41800000000E+01 0.  1.
        -11    1    1    2    0    0 -0.24150686785E+02  0.68433942493E+02 -0.12546370220E+03  0.14493999009E+03  0.00000000000E+00 0. -1.
         11    1    1    2    0    0 -0.50374975837E+02 -0.76740986825E+01 -0.25063936969E+02  0.56786714269E+02  0.00000000000E+00 0.  1.
</event>
<event>
 7    1  0.2714042E-009  0.1439610E+03  0.7561462E-02  0.1208096E+00
          2   -1    0    0  501    0  0.00000000000E+00  0.00000000000E+00  0.13185501006E+03  0.13185501006E+03  0.00000000000E+00 0. -1.
         -2   -1    0    0    0  501 -0.00000000000E+00 -0.00000000000E+00 -0.19236539266E+03  0.19236539266E+03  0.00000000000E+00 0.  1.
         25    2    1    2    0    0 -0.42449887795E+01  0.10328342264E+03  0.12573731734E+02  0.16275957960E+03  0.12508835558E+03 0.  0.
          5    1    3    3  502    0  0.47402494849E+02  0.15421088428E+02 -0.22560275670E+02  0.54874811384E+02  0.41800000000E+01 0. -1.
         -5    1    3    3    0  502 -0.51647483628E+02  0.87862334207E+02  0.35134007404E+02  0.10788476822E+03  0.41800000000E+01 0. -1.
        -11    1    1    2    0    0 -0.40453576897E+02 -0.31238561943E+02 -0.54396326630E+02  0.74641141382E+02  0.00000000000E+00 0.  1.
         11    1    1    2    0    0  0.44698565677E+02 -0.72044860692E+02 -0.18687787705E+02  0.86819681726E+02  0.00000000000E+00 0. -1.
</event>
<event>
 7    1  0.2714042E-009  0.2287177E+03  0.7561462E-02  0.1127546E+00
         -1   -1    0    0    0  501 -0.00000000000E+00  0.00000000000E+00  0.10060883464E+04  0.10060883464E+04  0.00000000000E+00 0.  1.
          1   -1    0    0  501    0  0.00000000000E+00 -0.00000000000E+00 -0.76453513326E+02  0.76453513326E+02  0.00000000000E+00 0. -1.
         25    2    1    2    0    0  0.14109345689E+03  0.16672091837E+03  0.73451611324E+03  0.77644404506E+03  0.12509279075E+03 0.  0.
          5    1    3    3  502    0  0.13596524004E+03  0.16989045942E+03  0.73718265508E+03  0.76863844169E+03  0.41800000000E+01 0. -1.
         -5    1    3    3    0  502  0.51282168459E+01 -0.31695410525E+01 -0.26665418375E+01  0.78056033638E+01  0.41800000000E+01 0. -1.
        -11    1    1    2    0    0 -0.28011026480E+02  0.33658394060E+01  0.42991258894E+02  0.51421734905E+02  0.00000000000E+00 0.  1.
         11    1    1    2    0    0 -0.11308243041E+03 -0.17008675778E+03  0.15212746097E+03  0.25467607980E+03  0.00000000000E+00 0. -1.
</event>
<event>
 7    1  0.2714042E-009  0.1440770E+03  0.7561462E-02  0.1207946E+00
          3   -1    0    0  501    0  0.00000000000E+00  0.00000000000E+00  0.35816819517E+02  0.35816819517E+02  0.00000000000E+00 0. -1.
         -3   -1    0    0    0  501 -0.00000000000E+00 -0.00000000000E+00 -0.79202651004E+03  0.79202651004E+03  0.00000000000E+00 0.  1.
         25    2    1    2    0    0 -0.11483875351E+03  0.48409882200E+02 -0.32782677277E+03  0.37235524810E+03  0.12508629757E+03 0.  0.
          5    1    3    3  502    0 -0.11960652324E+02  0.29843905827E+02 -0.47596181198E+01  0.32769532857E+02  0.41800000000E+01 0. -1.
         -5    1    3    3    0  502 -0.10287810119E+03  0.18565976373E+02 -0.32306715465E+03  0.33958571524E+03  0.41800000000E+01 0. -1.
        -11    1    1    2    0    0  0.71758020567E+02  0.16094449476E+02 -0.15944496158E+03  0.17558741582E+03  0.00000000000E+00 0. -1.
         11    1    1    2    0    0  0.43080732944E+02 -0.64504331676E+02 -0.26893795617E+03  0.27990066564E+03  0.00000000000E+00 0.  1.
</event>
<event>
 7    1  0.4926453E-009  0.1430223E+03  0.7561462E-02  0.1209319E+00
          2   -1    0    0  501    0  0.00000000000E+00  0.00000000000E+00  0.76717746681E+03  0.76717746681E+03  0.00000000000E+00 0. -1.
         -2   -1    0    0    0  501 -0.00000000000E+00 -0.00000000000E+00 -0.33409455796E+02  0.33409455796E+02  0.00000000000E+00 0.  1.
         25    2    1    2    0    0 -0.10963958619E+03  0.76721703927E+01  0.29031047410E+03  0.33467604437E+03  0.12509269459E+03 0.  0.
          5    1    3    3  502    0 -0.12816418292E+03 -0.30707459369E+01  0.17306052730E+03  0.21541333704E+03  0.41800000000E+01 0. -1.
         -5    1    3    3    0  502  0.18524596721E+02  0.10742916330E+02  0.11724994680E+03  0.11926270733E+03  0.41800000000E+01 0. -1.
        -11    1    1    2    0    0  0.67150761779E+02  0.35012354553E+02  0.17334608984E+03  0.18916647865E+03  0.00000000000E+00 0. -1.
         11    1    1    2    0    0  0.42488824415E+02 -0.42684524945E+02  0.27011144706E+03  0.27674439959E+03  0.00000000000E+00 0.  1.
</event>
<event>
 7    1  0.2714042E-009  0.1249635E+03  0.7561462E-02  0.1235126E+00
         -1   -1    0    0    0  501 -0.00000000000E+00  0.00000000000E+00  0.99588596450E+02  0.99588596450E+02  0.00000000000E+00 0.  1.
          1   -1    0    0  501    0  0.00000000000E+00 -0.00000000000E+00 -0.18565389054E+03  0.18565389054E+03  0.00000000000E+00 0. -1.
         25    2    1    2    0    0 -0.68067749744E+02 -0.13855230668E+02  0.54706230681E+00  0.14308933281E+03  0.12509625061E+03 0.  0.
          5    1    3    3  502    0 -0.78345100701E+02 -0.54968072796E+02 -0.16524953489E+02  0.97211060680E+02  0.41800000000E+01 0. -1.
         -5    1    3    3    0  502  0.10277350957E+02  0.41112842128E+02  0.17072015795E+02  0.45878272133E+02  0.41800000000E+01 0. -1.
        -11    1    1    2    0    0  0.47358625414E+02  0.50639588992E+02 -0.63543427535E+02  0.94047724891E+02  0.00000000000E+00 0.  1.
         11    1    1    2    0    0  0.20709124330E+02 -0.36784358324E+02 -0.23068928859E+02  0.48105429283E+02  0.00000000000E+00 0. -1.
</event>
<event>
 7    1  0.2714042E-009  0.1090046E+03  0.7561462E-02  0.1262424E+00
          1   -1    0    0  501    0  0.00000000000E+00  0.00000000000E+00  0.52705744722E+02  0.52705744722E+02  0.00000000000E+00 0. -1.
         -1   -1    0    0    0  501 -0.00000000000E+00 -0.00000000000E+00 -0.31906690716E+03  0.31906690716E+03  0.00000000000E+00 0.  1.
         25    2    1    2    0    0 -0.15121729850E+02 -0.59775012464E+02 -0.20051850389E+03  0.24424891191E+03  0.12509253270E+03 0.  0.
          5    1    3    3  502    0  0.98125548252E+01 -0.78073316326E+02 -0.19780420285E+03  0.21292182608E+03  0.41800000000E+01 0. -1.
         -5    1    3    3    0  502 -0.24934284675E+02  0.18298303861E+02 -0.27143010333E+01  0.31327085829E+02  0.41800000000E+01 0. -1.
        -11    1    1    2    0    0 -0.20994133761E+02 -0.14429424943E+02 -0.78440109869E+01  0.26655027010E+02  0.00000000000E+00 0. -1.
         11    1    1    2    0    0  0.36115863611E+02  0.74204437407E+02 -0.57998647561E+02  0.10086871296E+03  0.00000000000E+00 0.  1.
</event>
<event>
 7    1  0.2714042E-009  0.6931160E+02  0.7561462E-02  0.1362450E+00
          1   -1    0    0  501    0  0.00000000000E+00  0.00000000000E+00  0.50320938551E+03  0.50320938551E+03  0.00000000000E+00 0.  1.
         -1   -1    0    0    0  501 -0.00000000000E+00 -0.00000000000E+00 -0.30595644734E+02  0.30595644734E+02  0.00000000000E+00 0. -1.
         25    2    1    2    0    0 -0.24036626435E+02 -0.21709797540E+02  0.37578274928E+03  0.39737843596E+03  0.12509145450E+03 0.  0.
          5    1    3    3  502    0 -0.22965734643E+02  0.49794610696E+01  0.36864417230E+03  0.36941605023E+03  0.41800000000E+01 0.  1.
         -5    1    3    3    0  502 -0.10708917921E+01 -0.26689258609E+02  0.71385769879E+01  0.27962385731E+02  0.41800000000E+01 0.  1.
        -11    1    1    2    0    0  0.31273845058E+02 -0.25256315311E+02  0.17263703279E+02  0.43748946258E+02  0.00000000000E+00 0.  1.
         11    1    1    2    0    0 -0.72372186229E+01  0.46966112851E+02  0.79567288216E+02  0.92677648027E+02  0.00000000000E+00 0. -1.
</event>
<event>
 7    1  0.2714042E-009  0.1058208E+03  0.7561462E-02  0.1268511E+00
         -3   -1    0    0    0  501 -0.00000000000E+00  0.00000000000E+00  0.48724186286E+03  0.48724186286E+03  0.00000000000E+00 0.  1.
          3   -1    0    0  501    0  0.00000000000E+00 -0.00000000000E+00 -0.24783905505E+02  0.24783905505E+02  0.00000000000E+00 0. -1.
         25    2    1    2    0    0  0.13057966223E+01 -0.30014475777E+00  0.20563477123E+03  0.24069494530E+03  0.12508637960E+03 0.  0.
          5    1    3    3  502    0 -0.24450984886E+02  0.56481977415E+02  0.11668270794E+03  0.13198632947E+03  0.41800000000E+01 0.  1.
         -5    1    3    3    0  502  0.25756781509E+02 -0.56782122173E+02  0.88952063298E+02  0.10870861584E+03  0.41800000000E+01 0.  1.
        -11    1    1    2    0    0 -0.39916750748E+02  0.19404211184E+02  0.12480434143E+03  0.13246129261E+03  0.00000000000E+00 0. -1.
         11    1    1    2    0    0  0.38610954125E+02 -0.19104066427E+02  0.13201884469E+03  0.13886953045E+03  0.00000000000E+00 0.  1.
</event>
<event>
 7    1  0.2714042E-009  0.1125508E+03  0.7561462E-02  0.1255918E+00
         -1   -1    0    0    0  501 -0.00000000000E+00  0.00000000000E+00  0.64125341754E+03  0.64125341754E+03  0.00000000000E+00 0.  1.
          1   -1    0    0  501    0  0.00000000000E+00 -0.00000000000E+00 -0.28331158235E+02  0.28331158235E+02  0.00000000000E+00 0. -1.
         25    2    1    2    0    0  0.70514070760E+02 -0.44791986838E+02  0.35260183426E+03  0.38334496714E+03  0.12508698591E+03 0.  0.
          5    1    3    3  502    0  0.90949297164E+02  0.11541117146E+01  0.15850122948E+03  0.18279283021E+03  0.41800000000E+01 0.  1.
         -5    1    3    3    0  502 -0.20435226404E+02 -0.45946098553E+02  0.19410060478E+03  0.20055213693E+03  0.41800000000E+01 0.  1.
        -11    1    1    2    0    0 -0.32865050130E+02  0.22622912582E+02  0.25415309707E+02  0.47305873433E+02  0.00000000000E+00 0. -1.
         11    1    1    2    0    0 -0.37649020629E+02  0.22169074256E+02  0.23490511534E+03  0.23893373521E+03  0.00000000000E+00 0.  1.
</event>
<event>
 7    1  0.2714042E-009  0.1070327E+03  0.7561462E-02  0.1266166E+00
          1   -1    0    0  501    0  0.00000000000E+00  0.00000000000E+00  0.11222875632E+04  0.11222875632E+04  0.00000000000E+00 0. -1.
         -1   -1    0    0    0  501 -0.00000000000E+00 -0.00000000000E+00 -0.10972519483E+02  0.10972519483E+02  0.00000000000E+00 0.  1.
         25    2    1    2    0    0 -0.80654354522E+01 -0.14023705260E+02  0.67667767732E+03  0.68833400306E+03  0.12509718310E+03 0.  0.
          5    1    3    3  502    0 -0.46140093858E+02  0.34368696175E+02  0.21718868270E+03  0.22471873939E+03  0.41800000000E+01 0. -1.
         -5    1    3    3    0  502  0.38074658406E+02 -0.48392401435E+02  0.45948899462E+03  0.46361526367E+03  0.41800000000E+01 0. -1.
        -11    1    1    2    0    0 -0.42428632969E+02  0.67309039210E+00  0.17317389796E+03  0.17829705797E+03  0.00000000000E+00 0. -1.
         11    1    1    2    0    0  0.50494068421E+02  0.13350614868E+02  0.26146346839E+03  0.26662902162E+03  0.00000000000E+00 0.  1.
</event>
<event>
 7    1  0.2714042E-009  0.9290422E+02  0.7561462E-02  0.1295967E+00
         -1   -1    0    0    0  501 -0.00000000000E+00  0.00000000000E+00  0.73160819434E+02  0.73160819434E+02  0.00000000000E+00 0.  1.
          1   -1    0    0  501    0  0.00000000000E+00 -0.00000000000E+00 -0.29659978956E+03  0.29659978956E+03  0.00000000000E+00 0. -1.
         25    2    1    2    0    0  0.66400884013E+02  0.21364636224E+02 -0.20997533092E+03  0.25417060211E+03  0.12509008874E+03 0.  0.
          5    1    3    3  502    0  0.71672026758E+02  0.26090680857E+02 -0.22468733168E+03  0.23731724013E+03  0.41800000000E+01 0. -1.
         -5    1    3    3    0  502 -0.52711427445E+01 -0.47260446332E+01  0.14712000756E+02  0.16853361977E+02  0.41800000000E+01 0. -1.
        -11    1    1    2    0    0 -0.12979562424E+02 -0.41978077095E+02  0.21062051968E+02  0.48726153454E+02  0.00000000000E+00 0.  1.
         11    1    1    2    0    0 -0.53421321589E+02  0.20613440871E+02 -0.34525691172E+02  0.66863853432E+02  0.00000000000E+00 0. -1.
</event>
<event>
 7    1  0.2714042E-009  0.1056614E+03  0.7561462E-02  0.1268822E+00
         -3   -1    0    0    0  501 -0.00000000000E+00  0.00000000000E+00  0.46041619493E+02  0.46041619493E+02  0.00000000000E+00 0.  1.
          3   -1    0    0  501    0  0.00000000000E+00 -0.00000000000E+00 -0.32226325516E+03  0.32226325516E+03  0.00000000000E+00 0. -1.
         25    2    1    2    0    0 -0.20770963457E+02 -0.31789841334E+02 -0.20468359980E+03  0.24287022620E+03  0.12509413980E+03 0.  0.
          5    1    3    3  502    0 -0.20691983200E+02 -0.79490834457E+02 -0.14033965059E+03  0.16266419661E+03  0.41800000000E+01 0. -1.
         -5    1    3    3    0  502 -0.78980257402E-01  0.47700993124E+02 -0.64343949215E+02  0.80206029595E+02  0.41800000000E+01 0. -1.
        -11    1    1    2    0    0  0.95268682745E+01 -0.23192311161E+02 -0.64093254329E+02  0.68822886938E+02  0.00000000000E+00 0. -1.
         11    1    1    2    0    0  0.11244095183E+02  0.54982152495E+02 -0.74447815386E+01  0.56611761513E+02  0.00000000000E+00 0.  1.
</event>
<event>
 7    1  0.2714042E-009  0.1120318E+03  0.7561462E-02  0.1256853E+00
         -2   -1    0    0    0  501 -0.00000000000E+00  0.00000000000E+00  0.28715641354E+03  0.28715641354E+03  0.00000000000E+00 0.  1.
          2   -1    0    0  501    0  0.00000000000E+00 -0.00000000000E+00 -0.80019153387E+02  0.80019153387E+02  0.00000000000E+00 0. -1.
         25    2    1    2    0    0 -0.88486680831E+02 -0.31147640840E+01  0.18310701900E+03  0.23877782404E+03  0.12508826647E+03 0.  0.
          5    1    3    3  502    0 -0.76356666359E+02 -0.36947709191E+02  0.45210428853E+02  0.96212935663E+02  0.41800000000E+01 0.  1.
         -5    1    3    3    0  502 -0.12130014472E+02  0.33832945107E+02  0.13789659014E+03  0.14256488838E+03  0.41800000000E+01 0.  1.
        -11    1    1    2    0    0  0.28374557415E+02  0.26139597377E+02  0.46315253809E+02  0.60278493635E+02  0.00000000000E+00 0.  1.
         11    1    1    2    0    0  0.60112123415E+02 -0.23024833293E+02 -0.22285012650E+02  0.68119249251E+02  0.00000000000E+00 0. -1.
</event>
<event>
 7    1  0.2714042E-009  0.9319564E+02  0.7561462E-02  0.1295292E+00
          2   -1    0    0  501    0  0.00000000000E+00  0.00000000000E+00  0.65432825921E+03  0.65432825921E+03  0.00000000000E+00 0.  1.
         -2   -1    0    0    0  501 -0.00000000000E+00 -0.00000000000E+00 -0.24759945627E+02  0.24759945627E+02  0.00000000000E+00 0. -1.
         25    2    1    2    0    0 -0.12632595031E+02  0.11337346429E+02  0.48527185918E+03  0.50142452995E+03  0.12509861727E+03 0.  0.
          5    1    3    3  502    0 -0.46671441969E+02 -0.19100577889E+02  0.87968957351E+02  0.10148431124E+03  0.41800000000E+01 0. -1.
         -5    1    3    3    0  502  0.34038846937E+02  0.30437924318E+02  0.39730290183E+03  0.39994021870E+03  0.41800000000E+01 0. -1.
        -11    1    1    2    0    0  0.13011081942E+01 -0.49811019139E+02  0.12198150036E+03  0.13176614489E+03  0.00000000000E+00 0. -1.
         11    1    1    2    0    0  0.11331486837E+02  0.38473672710E+02  0.22314954049E+02  0.45897529998E+02  0.00000000000E+00 0.  1.
</event>
<event>
 7    1  0.2714042E-009  0.2413334E+03  0.7561462E-02  0.1118908E+00
         -2   -1    0    0    0  501 -0.00000000000E+00  0.00000000000E+00  0.11345544923E+03  0.11345544923E+03  0.00000000000E+00 0.  1.
          2   -1    0    0  501    0  0.00000000000E+00 -0.00000000000E+00 -0.72895620464E+03  0.72895620464E+03  0.00000000000E+00 0. -1.
         25    2    1    2    0    0  0.22080151061E+03  0.44847857964E+02 -0.52061163072E+03  0.58090319892E+03  0.12508964394E+03 0.  0.
          5    1    3    3  502    0  0.17979060266E+03  0.85032624060E+02 -0.37894011986E+03  0.42798165241E+03  0.41800000000E+01 0. -1.
         -5    1    3    3    0  502  0.41010907950E+02 -0.40184766096E+02 -0.14167151086E+03  0.15292154651E+03  0.41800000000E+01 0. -1.
        -11    1    1    2    0    0 -0.44965648631E+02 -0.17346374210E+02  0.17207034198E+02  0.51175074802E+02  0.00000000000E+00 0.  1.
         11    1    1    2    0    0 -0.17583586198E+03 -0.27501483755E+02 -0.11209615890E+03  0.21033338015E+03  0.00000000000E+00 0. -1.
</event>
<event>
 7    1  0.2714042E-009  0.1618888E+03  0.7561462E-02  0.1186581E+00
          1   -1    0    0  501    0  0.00000000000E+00  0.00000000000E+00  0.17278422891E+03  0.17278422891E+03  0.00000000000E+00 0. -1.
         -1   -1    0    0    0  501 -0.00000000000E+00 -0.00000000000E+00 -0.21491851394E+03  0.21491851394E+03  0.00000000000E+00 0.  1.
         25    2    1    2    0    0 -0.10684187711E+03  0.11752705278E+03 -0.30093467724E+02  0.20440428248E+03  0.12509076328E+03 0.  0.
          5    1    3    3  502    0 -0.82453160276E+02  0.79433416330E+02 -0.77834434936E+02  0.13850582273E+03  0.41800000000E+01 0. -1.
         -5    1    3    3    0  502 -0.24388716834E+02  0.38093636446E+02  0.47740967212E+02  0.65898459745E+02  0.41800000000E+01 0. -1.
        -11    1    1    2    0    0  0.87464616045E+02 -0.68588891751E+02  0.30903996853E+02  0.11536703235E+03  0.00000000000E+00 0. -1.
         11    1    1    2    0    0  0.19377261065E+02 -0.48938161024E+02 -0.42944814158E+02  0.67931428028E+02  0.00000000000E+00 0.  1.
</event>
<event>
 7    1  0.2714042E-009  0.9484659E+02  0.7561462E-02  0.1291522E+00
          1   -1    0    0  501    0  0.00000000000E+00  0.00000000000E+00  0.47836284524E+02  0.47836284524E+02  0.00000000000E+00 0. -1.
         -1   -1    0    0    0  501 -0.00000000000E+00 -0.00000000000E+00 -0.34250204395E+03  0.34250204395E+03  0.00000000000E+00 0.  1.
         25    2    1    2    0    0  0.61875166708E+02  0.29448270981E+02 -0.12712047666E+03  0.19105971644E+03  0.12509381576E+03 0.  0.
          5    1    3    3  502    0  0.53244454219E+02 -0.27235162971E+02 -0.10258964016E+02  0.60823061003E+02  0.41800000000E+01 0. -1.
         -5    1    3    3    0  502  0.86307124887E+01  0.56683433952E+02 -0.11686151264E+03  0.13023665544E+03  0.41800000000E+01 0. -1.
        -11    1    1    2    0    0 -0.13579114869E+02  0.32071352521E+01  0.67440231485E+01  0.15497094094E+02  0.00000000000E+00 0. -1.
         11    1    1    2    0    0 -0.48296051839E+02 -0.32655406233E+02 -0.17428930592E+03  0.18378151794E+03  0.00000000000E+00 0.  1.
</event>
<event>
 7    1  0.2714042E-009  0.1111647E+03  0.7561462E-02  0.1258428E+00
         -1   -1    0    0    0  501 -0.00000000000E+00  0.00000000000E+00  0.97579629425E+02  0.97579629425E+02  0.00000000000E+00 0.  1.
          1   -1    0    0  501    0  0.00000000000E+00 -0.00000000000E+00 -0.13025936843E+03  0.13025936843E+03  0.00000000000E+00 0. -1.
         25    2    1    2    0    0  0.35539506015E+02  0.88509008470E+00 -0.23726157233E+02  0.13218065646E+03  0.12507979666E+03 0.  0.
          5    1    3    3  502    0 -0.45030322471E+02 -0.15307059120E+02 -0.91143995890E+01  0.48606385184E+02  0.41800000000E+01 0. -1.
         -5    1    3    3    0  502  0.80569828486E+02  0.16192149205E+02 -0.14611757644E+02  0.83574271278E+02  0.41800000000E+01 0. -1.
        -11    1    1    2    0    0  0.20632537285E+01  0.38087066384E+02 -0.15372116044E+02  0.41124002643E+02  0.00000000000E+00 0. -1.
         11    1    1    2    0    0 -0.37602759744E+02 -0.38972156469E+02  0.64185342772E+01  0.54534338746E+02  0.00000000000E+00 0.  1.
</event>
<event>
 7    1  0.2714042E-009  0.7935019E+02  0.7561462E-02  0.1330906E+00
          1   -1    0    0  501    0  0.00000000000E+00  0.00000000000E+00  0.22552891057E+03  0.22552891057E+03  0.00000000000E+00 0. -1.
         -1   -1    0    0    0  501 -0.00000000000E+00 -0.00000000000E+00 -0.56406147880E+02  0.56406147880E+02  0.00000000000E+00 0.  1.
         25    2    1    2    0    0  0.22233493080E+02 -0.22573057669E+02  0.87487271390E+02  0.15590628599E+03  0.12509546838E+03 0.  0.
          5    1    3    3  502    0  0.30045631023E+02  0.42785201508E+02  0.87144155608E+01  0.53166971423E+02  0.41800000000E+01 0. -1.
         -5    1    3    3    0  502 -0.78121379430E+01 -0.65358259178E+02  0.78772855829E+02  0.10273931457E+03  0.41800000000E+01 0. -1.
        -11    1    1    2    0    0  0.12067407792E+01  0.15871035290E+02  0.96281431283E+02  0.97588216473E+02  0.00000000000E+00 0. -1.
         11    1    1    2    0    0 -0.23440233860E+02  0.67020223798E+01 -0.14645939979E+02  0.28440555994E+02  0.00000000000E+00 0.  1.
</event>
<event>
 7    1  0.2714042E-009  0.1304254E+03  0.7561462E-02  0.1226826E+00
         -1   -1    0    0    0  501 -0.00000000000E+00  0.00000000000E+00  0.55783141427E+02  0.55783141427E+02  0.00000000000E+00 0.  1.
          1   -1    0    0  501    0  0.00000000000E+00 -0.00000000000E+00 -0.30767074120E+03  0.30767074120E+03  0.00000000000E+00 0. -1.
         25    2    1    2    0    0  0.45191192610E+02 -0.56246650285E+02 -0.15177449062E+03  0.20949611638E+03  0.12508875736E+03 0.  0.
          5    1    3    3  502    0 -0.40196021946E+02  0.27951760308E+01 -0.42881334149E+02  0.58989951752E+02  0.41800000000E+01 0.  1.
         -5    1    3    3    0  502  0.85387214557E+02 -0.59041826316E+02 -0.10889315647E+03  0.15050616463E+03  0.41800000000E+01 0.  1.
        -11    1    1    2    0    0 -0.71591704183E+02  0.25685022751E+02 -0.58366910825E+02  0.95873816972E+02  0.00000000000E+00 0.  1.
         11    1    1    2    0    0  0.26400511572E+02  0.30561627534E+02 -0.41746198331E+02  0.58083949279E+02  0.00000000000E+00 0. -1.
</event>
<event>
 7    1  0.2714042E-009  0.1470688E+03  0.7561462E-02  0.1204122E+00
          2   -1    0    0  501    0  0.00000000000E+00  0.00000000000E+00  0.27217096899E+03  0.27217096899E+03  0.00000000000E+00 0.  1.
         -2   -1    0    0    0  501 -0.00000000000E+00 -0.00000000000E+00 -0.10851414960E+03  0.10851414960E+03  0.00000000000E+00 0. -1.
         25    2    1    2    0    0  0.57217613598E+02  0.11467652806E+03  0.50007637996E+02  0.18593830659E+03  0.12509088139E+03 0.  0.
          5    1    3    3  502    0  0.89721805382E+01 -0.54155914460E+01  0.55204594611E+02  0.56345792394E+02  0.41800000000E+01 0. -1.
         -5    1    3    3    0  502  0.48245433060E+02  0.12009211951E+03 -0.51969566152E+01  0.12959251420E+03  0.41800000000E+01 0. -1.
        -11    1    1    2    0    0  0.19909324924E+02 -0.45886090833E+02  0.60608546528E+02  0.78583143632E+02  0.00000000000E+00 0. -1.
         11    1    1    2    0    0 -0.77126938522E+02 -0.68790437226E+02  0.53040634871E+02  0.11616366836E+03  0.00000000000E+00 0.  1.
</event>
<event>
 7    1  0.2714042E-009  0.9767855E+02  0.7561462E-02  0.1285255E+00
          1   -1    0    0  501    0  0.00000000000E+00  0.00000000000E+00  0.31363606219E+03  0.31363606219E+03  0.00000000000E+00 0. -1.
         -1   -1    0    0    0  501 -0.00000000000E+00 -0.00000000000E+00 -0.55207686964E+02  0.55207686964E+02  0.00000000000E+00 0.  1.
         25    2    1    2    0    0 -0.57843881795E+02 -0.42650353875E+02  0.11668302162E+03  0.18554127952E+03  0.12508265877E+03 0.  0.
          5    1    3    3  502    0 -0.30358160485E+02 -0.16084521273E+01  0.13051640986E+03  0.13407539174E+03  0.41800000000E+01 0.  1.
         -5    1    3    3    0  502 -0.27485721310E+02 -0.41041901747E+02 -0.13833388241E+02  0.51465887782E+02  0.41800000000E+01 0.  1.
        -11    1    1    2    0    0  0.61613902470E+02  0.66672249623E+02  0.10057204575E+03  0.13548504801E+03  0.00000000000E+00 0.  1.
         11    1    1    2    0    0 -0.37700206745E+01 -0.24021895748E+02  0.41173307852E+02  0.47817421623E+02  0.00000000000E+00 0. -1.
</event>
<event>
 7    1  0.2714042E-009  0.1281740E+03  0.7561462E-02  0.1230191E+00
         -2   -1    0    0    0  501 -0.00000000000E+00  0.00000000000E+00  0.16720238184E+03  0.16720238184E+03  0.00000000000E+00 0.  1.
          2   -1    0    0  501    0  0.00000000000E+00 -0.00000000000E+00 -0.11024753341E+03  0.11024753341E+03  0.00000000000E+00 0. -1.
         25    2    1    2    0    0  0.41222484051E+02 -0.53583415599E+02  0.69636920411E+02  0.15832617941E+03  0.12508957903E+03 0.  0.
          5    1    3    3  502    0 -0.44576765301E+02 -0.19185774936E+02  0.32839230980E+02  0.58745803730E+02  0.41800000000E+01 0. -1.
         -5    1    3    3    0  502  0.85799249352E+02 -0.34397640663E+02  0.36797689431E+02  0.99580375677E+02  0.41800000000E+01 0. -1.
        -11    1    1    2    0    0  0.10821059314E+02  0.61516734027E+02 -0.20849714212E+02  0.65849179742E+02  0.00000000000E+00 0. -1.
         11    1    1    2    0    0 -0.52043543364E+02 -0.79333184278E+01  0.81676422323E+01  0.53274556092E+02  0.00000000000E+00 0.  1.
</event>
<event>
 7    1  0.2714042E-009  0.9505234E+02  0.7561462E-02  0.1291058E+00
         -2   -1    0    0    0  501 -0.00000000000E+00  0.00000000000E+00  0.14443946186E+02  0.14443946186E+02  0.00000000000E+00 0.  1.
          2   -1    0    0  501    0  0.00000000000E+00 -0.00000000000E+00 -0.10619712417E+04  0.10619712417E+04  0.00000000000E+00 0. -1.
         25    2    1    2    0    0  0.48932085424E+01  0.66616365699E+00 -0.87765686251E+03  0.88654038454E+03  0.12509155785E+03 0.  0.
          5    1    3    3  502    0 -0.41437324593E+02 -0.41462070104E+02 -0.53161518701E+03  0.53485356368E+03  0.41800000000E+01 0.  1.
         -5    1    3    3    0  502  0.46330533135E+02  0.42128233761E+02 -0.34604167550E+03  0.35168682085E+03  0.41800000000E+01 0.  1.
        -11    1    1    2    0    0 -0.34966996107E+02  0.10481283327E+02 -0.14432967549E+03  0.14887445497E+03  0.00000000000E+00 0. -1.
         11    1    1    2    0    0  0.30073787565E+02 -0.11147446984E+02 -0.25540757532E+02  0.41000348390E+02  0.00000000000E+00 0.  1.
</event>
<event>
 7    1  0.2714042E-009  0.1084814E+03  0.7561462E-02  0.1263408E+00
          2   -1    0    0  501    0  0.00000000000E+00  0.00000000000E+00  0.16707404800E+03  0.16707404800E+03  0.00000000000E+00 0. -1.
         -2   -1    0    0    0  501 -0.00000000000E+00 -0.00000000000E+00 -0.10607375680E+03  0.10607375680E+03  0.00000000000E+00 0.  1.
         25    2    1    2    0    0  0.46684213764E+02  0.61690604003E+02  0.31002146673E+02  0.15031054596E+03  0.12508789186E+03 0.  0.
          5    1    3    3  502    0 -0.40502416991E+01  0.58686139228E+02  0.65963176753E+02  0.88482091311E+02  0.41800000000E+01 0. -1.
         -5    1    3    3    0  502  0.50734455463E+02  0.30044647747E+01 -0.34961030080E+02  0.61828454646E+02  0.41800000000E+01 0. -1.
        -11    1    1    2    0    0 -0.36893188875E+02  0.70489219400E+01 -0.14618081981E+02  0.40304875719E+02  0.00000000000E+00 0.  1.
         11    1    1    2    0    0 -0.97910248882E+01 -0.68739525943E+02  0.44616226510E+02  0.82532383118E+02  0.00000000000E+00 0. -1.
</event>
<event>
 7    1  0.2714042E-009  0.1056509E+03  0.7561462E-02  0.1268843E+00
          2   -1    0    0  501    0  0.00000000000E+00  0.00000000000E+00  0.11164711331E+03  0.11164711331E+03  0.00000000000E+00 0. -1.
         -2   -1    0    0    0  501 -0.00000000000E+00 -0.00000000000E+00 -0.12375268247E+03  0.12375268247E+03  0.00000000000E+00 0.  1.
         25    2    1    2    0    0  0.34927304331E+01 -0.98662148343E+01  0.33950397158E+02  0.13003671835E+03  0.12508947714E+03 0.  0.
          5    1    3    3  502    0 -0.42969664885E+02 -0.47564588488E+02  0.81731883561E+01  0.64753807504E+02  0.41800000000E+01 0.  1.
         -5    1    3    3    0  502  0.46462395318E+02  0.37698373654E+02  0.25777208802E+02  0.65282910846E+02  0.41800000000E+01 0.  1.
        -11    1    1    2    0    0  0.40337001741E+02 -0.53530301863E+01 -0.42486902583E+02  0.58829121468E+02  0.00000000000E+00 0.  1.
         11    1    1    2    0    0 -0.43829732174E+02  0.15219245021E+02 -0.35690637438E+01  0.46533955962E+02  0.00000000000E+00 0. -1.
</event>
<event>
 7    1  0.2714042E-009  0.1283570E+03  0.7561462E-02  0.1229914E+00
          2   -1    0    0  501    0  0.00000000000E+00  0.00000000000E+00  0.30862745488E+03  0.30862745488E+03  0.00000000000E+00 0. -1.
         -2   -1    0    0    0  501 -0.00000000000E+00 -0.00000000000E+00 -0.60578717245E+02  0.60578717245E+02  0.00000000000E+00 0.  1.
         25    2    1    2    0    0 -0.10978815308E+02  0.75061550537E+02  0.19917825742E+03  0.24712999060E+03  0.12508590356E+03 0.  0.
          5    1    3    3  502    0 -0.46559319438E+02  0.94161826470E+02  0.15309116526E+03  0.18571105802E+03  0.41800000000E+01 0. -1.
         -5    1    3    3    0  502  0.35580504130E+02 -0.19100275933E+02  0.46087092162E+02  0.61418932577E+02  0.41800000000E+01 0. -1.
        -11    1    1    2    0    0  0.69945368021E+01 -0.92670441417E+02  0.46336825172E+02  0.10384524844E+03  0.00000000000E+00 0. -1.
         11    1    1    2    0    0  0.39842785059E+01  0.17608890879E+02  0.25336550422E+01  0.18230933083E+02  0.00000000000E+00 0.  1.
</event>
<event>
 7    1  0.2714042E-009  0.1005869E+03  0.7561462E-02  0.1279067E+00
         -2   -1    0    0    0  501 -0.00000000000E+00  0.00000000000E+00  0.14406213836E+02  0.14406213836E+02  0.00000000000E+00 0.  1.
          2   -1    0    0  501    0  0.00000000000E+00 -0.00000000000E+00 -0.10506276136E+04  0.10506276136E+04  0.00000000000E+00 0. -1.
         25    2    1    2    0    0 -0.31880030758E+02 -0.26464753939E+02 -0.77307517900E+03  0.78422521618E+03  0.12508891934E+03 0.  0.
          5    1    3    3  502    0 -0.67078404706E+02 -0.29942645870E+01 -0.66004705728E+03  0.66346670468E+03  0.41800000000E+01 0. -1.
         -5    1    3    3    0  502  0.35198373949E+02 -0.23470489352E+02 -0.11302812172E+03  0.12075851150E+03  0.41800000000E+01 0. -1.
        -11    1    1    2    0    0  0.35880057255E+02  0.53301887240E+02 -0.13104451645E+03  0.14594908353E+03  0.00000000000E+00 0.  1.
         11    1    1    2    0    0 -0.40000264977E+01 -0.26837133301E+02 -0.13210170429E+03  0.13485952771E+03  0.00000000000E+00 0. -1.
</event>
<event>
 7    1  0.2714042E-009  0.1124813E+03  0.7561462E-02  0.1256043E+00
         -3   -1    0    0    0  501 -0.00000000000E+00  0.00000000000E+00  0.48799325473E+03  0.48799325473E+03  0.00000000000E+00 0.  1.
          3   -1    0    0  501    0  0.00000000000E+00 -0.00000000000E+00 -0.31458922159E+02  0.31458922159E+02  0.00000000000E+00 0. -1.
         25    2    1    2    0    0  0.44433831497E+02  0.36614200840E+02  0.29336159986E+03  0.32407398170E+03  0.12509177536E+03 0.  0.
          5    1    3    3  502    0 -0.21342302278E+02  0.46395277292E+02  0.49391913213E+02  0.71169158435E+02  0.41800000000E+01 0. -1.
         -5    1    3    3    0  502  0.65776133775E+02 -0.97810764521E+01  0.24396968665E+03  0.25290482327E+03  0.41800000000E+01 0. -1.
        -11    1    1    2    0    0 -0.29874879833E+02 -0.67022040361E+02  0.11908584400E+03  0.13987816334E+03  0.00000000000E+00 0.  1.
         11    1    1    2    0    0 -0.14558951664E+02  0.30407839522E+02  0.44086888707E+02  0.55500031836E+02  0.00000000000E+00 0. -1.
</event>
<event>
 7    1  0.2714042E-009  0.5595980E+02  0.7561462E-02  0.1415614E+00
          2   -1    0    0  501    0  0.00000000000E+00  0.00000000000E+00  0.51243226221E+03  0.51243226221E+03  0.00000000000E+00 0. -1.
         -2   -1    0    0    0  501 -0.00000000000E+00 -0.00000000000E+00 -0.30504560596E+02  0.30504560596E+02  0.00000000000E+00 0.  1.
         25    2    1    2    0    0 -0.14228237261E+02 -0.27828062701E+01  0.39704136926E+03  0.41653242504E+03  0.12508887026E+03 0.  0.
          5    1    3    3  502    0 -0.27894512398E+02 -0.42344555684E+01  0.40069616536E+03  0.40170999959E+03  0.41800000000E+01 0.  1.
         -5    1    3    3    0  502  0.13666275137E+02  0.14516492983E+01 -0.36547961007E+01  0.14822425454E+02  0.41800000000E+01 0.  1.
        -11    1    1    2    0    0  0.36596261936E+02 -0.15888113572E+02  0.88468669270E+02  0.97048565074E+02  0.00000000000E+00 0. -1.
         11    1    1    2    0    0 -0.22368024675E+02  0.18670919842E+02 -0.35823369065E+01  0.29355832697E+02  0.00000000000E+00 0.  1.
</event>
<event>
 7    1  0.2714042E-009  0.9871942E+02  0.7561462E-02  0.1283012E+00
         -1   -1    0    0    0  501 -0.00000000000E+00  0.00000000000E+00  0.19003912887E+03  0.19003912887E+03  0.00000000000E+00 0.  1.
          1   -1    0    0  501    0  0.00000000000E+00 -0.00000000000E+00 -0.67706207059E+02  0.67706207059E+02  0.00000000000E+00 0. -1.
         25    2    1    2    0    0 -0.92239673775E+01  0.16952714142E+02  0.36408756106E+02  0.13170090883E+03  0.12508819198E+03 0.  0.
          5    1    3    3  502    0 -0.43572449743E+02 -0.32507680903E+02 -0.10161148075E+02  0.55461960157E+02  0.41800000000E+01 0.  1.
         -5    1    3    3    0  502  0.34348482365E+02  0.49460395045E+02  0.46569904180E+02  0.76238948669E+02  0.41800000000E+01 0.  1.
        -11    1    1    2    0    0  0.33318019124E+02 -0.38016202631E+02  0.78210896774E+02  0.93125004349E+02  0.00000000000E+00 0.  1.
         11    1    1    2    0    0 -0.24094051747E+02  0.21063488489E+02  0.77132689336E+01  0.32919422756E+02  0.00000000000E+00 0. -1.
</event>
<event>
 7    1  0.2714042E-009  0.6026160E+02  0.7561462E-02  0.1396737E+00
         -1   -1    0    0    0  501 -0.00000000000E+00  0.00000000000E+00  0.59297466156E+02  0.59297466156E+02  0.00000000000E+00 0.  1.
          1   -1    0    0  501    0  0.00000000000E+00 -0.00000000000E+00 -0.29343346378E+03  0.29343346378E+03  0.00000000000E+00 0. -1.
         25    2    1    2    0    0  0.12503055731E+02 -0.54624948232E+02 -0.18457991542E+03  0.22990984525E+03  0.12509428602E+03 0.  0.
          5    1    3    3  502    0  0.95400608769E+01 -0.66150534955E+01 -0.18108080935E+03  0.18150069865E+03  0.41800000000E+01 0.  1.
         -5    1    3    3    0  502  0.29629948545E+01 -0.48009894737E+02 -0.34991060637E+01  0.48409146598E+02  0.41800000000E+01 0.  1.
        -11    1    1    2    0    0 -0.10441233907E+02  0.78034138972E+01 -0.70350654256E+02  0.71548076062E+02  0.00000000000E+00 0. -1.
         11    1    1    2    0    0 -0.20618218240E+01  0.46821534335E+02  0.20794572049E+02  0.51273008625E+02  0.00000000000E+00 0.  1.
</event>
<event>
 7    1  0.2714042E-009  0.2008679E+03  0.7561462E-02  0.1149009E+00
          2   -1    0    0  501    0  0.00000000000E+00  0.00000000000E+00  0.47231441556E+03  0.47231441556E+03  0.00000000000E+00 0. -1.
         -2   -1    0    0    0  501 -0.00000000000E+00 -0.00000000000E+00 -0.10428112818E+03  0.10428112818E+03  0.00000000000E+00 0.  1.
         25    2    1    2    0    0 -0.14424048077E+02  0.18547750349E+03  0.13372258958E+03  0.26103557952E+03  0.12509150790E+03 0.  0.
          5    1    3    3  502    0 -0.19329824991E+02  0.35026604634E+02 -0.20789375684E+02  0.45278866016E+02  0.41800000000E+01 0. -1.
         -5    1    3    3    0  502  0.49057769138E+01  0.15045089885E+03  0.15451196526E+03  0.21575671350E+03  0.41800000000E+01 0. -1.
        -11    1    1    2    0    0  0.53603783849E+02 -0.65094849297E+02  0.83742896987E+02  0.11884266003E+03  0.00000000000E+00 0.  1.
         11    1    1    2    0    0 -0.39179735772E+02 -0.12038265419E+03  0.15056780082E+03  0.19671730419E+03  0.00000000000E+00 0. -1.
</event>
<event>
 7    1  0.2714042E-009  0.1783700E+03  0.7561462E-02  0.1169390E+00
         -1   -1    0    0    0  501 -0.00000000000E+00  0.00000000000E+00  0.10157638268E+03  0.10157638268E+03  0.00000000000E+00 0.  1.
          1   -1    0    0  501    0  0.00000000000E+00 -0.00000000000E+00 -0.32945965428E+03  0.32945965428E+03  0.00000000000E+00 0. -1.
         25    2    1    2    0    0 -0.68232987774E+02  0.12417629850E+03 -0.15491675344E+03  0.24438177345E+03  0.12509099476E+03 0.  0.
          5    1    3    3  502    0  0.35924106546E+02  0.29721922956E+02 -0.52747373598E+02  0.70524406817E+02  0.41800000000E+01 0. -1.
         -5    1    3    3    0  502 -0.10415709432E+03  0.94454375545E+02 -0.10216937984E+03  0.17385736664E+03  0.41800000000E+01 0. -1.
        -11    1    1    2    0    0  0.75142001343E+02 -0.40622602979E+02 -0.20817027422E+02  0.87919650075E+02  0.00000000000E+00 0.  1.
         11    1    1    2    0    0 -0.69090135692E+01 -0.83553695522E+02 -0.52149490738E+02  0.98734613425E+02  0.00000000000E+00 0. -1.
</event>
<event>
 7    1  0.2714042E-009  0.1475653E+03  0.7561462E-02  0.1203497E+00
          1   -1    0    0  501    0  0.00000000000E+00  0.00000000000E+00  0.13717720374E+03  0.13717720374E+03  0.00000000000E+00 0. -1.
         -1   -1    0    0    0  501 -0.00000000000E+00 -0.00000000000E+00 -0.18820242828E+03  0.18820242828E+03  0.00000000000E+00 0.  1.
         25    2    1    2    0    0 -0.57864702925E+02  0.10227989870E+03 -0.23423304496E+02  0.17322161693E+03  0.12509027082E+03 0.  0.
          5    1    3    3  502    0  0.31353098864E+02  0.26418632139E+02 -0.36832123832E+02  0.55272404312E+02  0.41800000000E+01 0. -1.
         -5    1    3    3    0  502 -0.89217801790E+02  0.75861266566E+02  0.13408819336E+02  0.11794921262E+03  0.41800000000E+01 0. -1.
        -11    1    1    2    0    0  0.66897573734E+02 -0.49584886136E+02 -0.46595751112E+02  0.95420701770E+02  0.00000000000E+00 0.  1.
         11    1    1    2    0    0 -0.90328708088E+01 -0.52695012568E+02  0.18993831063E+02  0.56737313323E+02  0.00000000000E+00 0. -1.
</event>
<event>
 7    1  0.2714042E-009  0.9857522E+02  0.7561462E-02  0.1283321E+00
          2   -1    0    0  501    0  0.00000000000E+00  0.00000000000E+00  0.37595736493E+03  0.37595736493E+03  0.00000000000E+00 0. -1.
         -2   -1    0    0    0  501 -0.00000000000E+00 -0.00000000000E+00 -0.44044797448E+02  0.44044797448E+02  0.00000000000E+00 0.  1.
         25    2    1    2    0    0 -0.46823382859E+02 -0.42012639368E+02  0.23541502651E+03  0.27390847094E+03  0.12509246459E+03 0.  0.
          5    1    3    3  502    0  0.34286706974E+02 -0.27861296861E+02  0.14459264522E+03  0.15124924988E+03  0.41800000000E+01 0.  1.
         -5    1    3    3    0  502 -0.81110089832E+02 -0.14151342507E+02  0.90822381292E+02  0.12265922106E+03  0.41800000000E+01 0.  1.
        -11    1    1    2    0    0  0.20453301334E+02 -0.32261741226E+00 -0.14049481921E+02  0.24815913437E+02  0.00000000000E+00 0.  1.
         11    1    1    2    0    0  0.26370081525E+02  0.42335256781E+02  0.11054702289E+03  0.12127777800E+03  0.00000000000E+00 0. -1.
</event>
<event>
 7    1  0.2714042E-009  0.9019049E+02  0.7561462E-02  0.1302391E+00
          2   -1    0    0  501    0  0.00000000000E+00  0.00000000000E+00  0.92602587940E+03  0.92602587940E+03  0.00000000000E+00 0. -1.
         -2   -1    0    0    0  501 -0.00000000000E+00 -0.00000000000E+00 -0.22383573261E+02  0.22383573261E+02  0.00000000000E+00 0.  1.
         25    2    1    2    0    0 -0.16127622931E+02  0.13355914204E+02  0.79404383858E+03  0.80410852071E+03  0.12508562996E+03 0.  0.
          5    1    3    3  502    0  0.53275330362E+02  0.19459243401E+02  0.33662920668E+03  0.34139949937E+03  0.41800000000E+01 0. -1.
         -5    1    3    3    0  502 -0.69402953293E+02 -0.61033291971E+01  0.45741463190E+03  0.46270902134E+03  0.41800000000E+01 0. -1.
        -11    1    1    2    0    0 -0.17877303476E+02 -0.65116263682E+01 -0.87733001543E+01  0.20951612185E+02  0.00000000000E+00 0.  1.
         11    1    1    2    0    0  0.34004926407E+02 -0.68442878353E+01  0.11837176771E+03  0.12334931977E+03  0.00000000000E+00 0. -1.
</event>
<event>
 7    1  0.2714042E-009  0.8800296E+02  0.7561462E-02  0.1307761E+00
         -3   -1    0    0    0  501 -0.00000000000E+00  0.00000000000E+00  0.41455801258E+03  0.41455801258E+03  0.00000000000E+00 0.  1.
          3   -1    0    0  501    0  0.00000000000E+00 -0.00000000000E+00 -0.45039154678E+02  0.45039154678E+02  0.00000000000E+00 0. -1.
         25    2    1    2    0    0 -0.38308768737E+02  0.62490721221E+02  0.13669357141E+03  0.19926240674E+03  0.12509085607E+03 0.  0.
          5    1    3    3  502    0 -0.24691017449E+02 -0.10647257011E+02 -0.14405647969E+02  0.30789698244E+02  0.41800000000E+01 0. -1.
         -5    1    3    3    0  502 -0.13617751288E+02  0.73137978232E+02  0.15109921938E+03  0.16847270849E+03  0.41800000000E+01 0. -1.
        -11    1    1    2    0    0  0.30426945891E+02 -0.38758218430E+02  0.22994160999E+03  0.23516194959E+03  0.00000000000E+00 0.  1.
         11    1    1    2    0    0  0.78818228461E+01 -0.23732502791E+02  0.28836765090E+01  0.25172810934E+02  0.00000000000E+00 0. -1.
</event>
<event>
 7    1  0.2714042E-009  0.1206718E+03  0.7561462E-02  0.1241993E+00
          1   -1    0    0  501    0  0.00000000000E+00  0.00000000000E+00  0.10711941180E+04  0.10711941180E+04  0.00000000000E+00 0. -1.
         -1   -1    0    0    0  501 -0.00000000000E+00 -0.00000000000E+00 -0.14339619115E+02  0.14339619115E+02  0.00000000000E+00 0.  1.
         25    2    1    2    0    0  0.34372432662E+02  0.47712904583E+02  0.61896990844E+03  0.63421753622E+03  0.12510056078E+03 0.  0.
          5    1    3    3  502    0  0.60939473298E+02  0.76248597220E+02  0.39953149245E+03  0.41130323831E+03  0.41800000000E+01 0. -1.
         -5    1    3    3    0  502 -0.26567040636E+02 -0.28535692637E+02  0.21943841599E+03  0.22291429791E+03  0.41800000000E+01 0. -1.
        -11    1    1    2    0    0  0.85324019919E+00 -0.65131125149E+02  0.33301976536E+03  0.33933015722E+03  0.00000000000E+00 0.  1.
         11    1    1    2    0    0 -0.35225672861E+02  0.17418220567E+02  0.10486482510E+03  0.11198604368E+03  0.00000000000E+00 0. -1.
</event>
<event>
 7    1  0.2714042E-009  0.4810806E+02  0.7561462E-02  0.1455822E+00
          2   -1    0    0  501    0  0.00000000000E+00  0.00000000000E+00  0.62194742436E+02  0.62194742436E+02  0.00000000000E+00 0. -1.
         -2   -1    0    0    0  501 -0.00000000000E+00 -0.00000000000E+00 -0.20575463954E+03  0.20575463954E+03  0.00000000000E+00 0.  1.
         25    2    1    2    0    0 -0.27736393352E+02 -0.60407780251E+01 -0.10315302846E+03  0.16460479903E+03  0.12509354126E+03 0.  0.
          5    1    3    3  502    0  0.86880121601E+01 -0.98589041515E+01 -0.12229449229E+03  0.12306947140E+03  0.41800000000E+01 0. -1.
         -5    1    3    3    0  502 -0.36424405512E+02  0.38181261263E+01  0.19141463823E+02  0.41535327630E+02  0.41800000000E+01 0. -1.
        -11    1    1    2    0    0 -0.23133450809E+01  0.14231904403E+02 -0.63152230024E+02  0.64777332651E+02  0.00000000000E+00 0.  1.
         11    1    1    2    0    0  0.30049738433E+02 -0.81911263781E+01  0.22745361382E+02  0.38567250299E+02  0.00000000000E+00 0. -1.
</event>
<event>
 7    1  0.2714042E-009  0.1785747E+03  0.7561462E-02  0.1169190E+00
         -1   -1    0    0    0  501 -0.00000000000E+00  0.00000000000E+00  0.23888444405E+02  0.23888444405E+02  0.00000000000E+00 0.  1.
          1   -1    0    0  501    0  0.00000000000E+00 -0.00000000000E+00 -0.17017395449E+04  0.17017395449E+04  0.00000000000E+00 0. -1.
         25    2    1    2    0    0 -0.13887504582E+03 -0.89266277372E+02 -0.10289682303E+04  0.10496085907E+04  0.12509127891E+03 0.  0.
          5    1    3    3  502    0 -0.88224137840E+02 -0.73257102208E+02 -0.34531346818E+03  0.36388042710E+03  0.41800000000E+01 0. -1.
         -5    1    3    3    0  502 -0.50650907977E+02 -0.16009175164E+02 -0.68365476216E+03  0.68572816363E+03  0.41800000000E+01 0. -1.
        -11    1    1    2    0    0  0.81127803320E+02 -0.19548217597E+01 -0.25442660461E+03  0.26705512340E+03  0.00000000000E+00 0. -1.
         11    1    1    2    0    0  0.57747242498E+02  0.91221099132E+02 -0.39445626552E+03  0.40896427515E+03  0.00000000000E+00 0.  1.
</event>
<event>
 7    1  0.2714042E-009  0.1023841E+03  0.7561462E-02  0.1275361E+00
         -3   -1    0    0    0  501 -0.00000000000E+00  0.00000000000E+00  0.93804564252E+02  0.93804564252E+02  0.00000000000E+00 0.  1.
          3   -1    0    0  501    0  0.00000000000E+00 -0.00000000000E+00 -0.23318786439E+03  0.23318786439E+03  0.00000000000E+00 0. -1.
         25    2    1    2    0    0 -0.59662086785E+02 -0.12439739528E+02 -0.16078767056E+03  0.21263679402E+03  0.12508964564E+03 0.  0.
          5    1    3    3  502    0  0.28035630927E+02 -0.31703997950E+02 -0.23635167196E+02  0.48654225056E+02  0.41800000000E+01 0.  1.
         -5    1    3    3    0  502 -0.87697717711E+02  0.19264258422E+02 -0.13715250336E+03  0.16398256896E+03  0.41800000000E+01 0.  1.
        -11    1    1    2    0    0  0.53532196904E+02 -0.50998418825E+01 -0.28673882143E+02  0.60941742753E+02  0.00000000000E+00 0. -1.
         11    1    1    2    0    0  0.61298898804E+01  0.17539581410E+02  0.50078252559E+02  0.53413891876E+02  0.00000000000E+00 0.  1.
</event>
<event>
 7    1  0.2714042E-009  0.1185108E+03  0.7561462E-02  0.1245574E+00
          1   -1    0    0  501    0  0.00000000000E+00  0.00000000000E+00  0.15254575954E+03  0.15254575954E+03  0.00000000000E+00 0. -1.
         -1   -1    0    0    0  501 -0.00000000000E+00 -0.00000000000E+00 -0.19396386305E+03  0.19396386305E+03  0.00000000000E+00 0.  1.
         25    2    1    2    0    0 -0.12449545964E+02  0.46592233312E+02 -0.14699528834E+03  0.19895083986E+03  0.12509194413E+03 0.  0.
          5    1    3    3  502    0 -0.51857324862E+02  0.70562421715E+02 -0.99503334338E+02  0.13261456724E+03  0.41800000000E+01 0. -1.
         -5    1    3    3    0  502  0.39407778899E+02 -0.23970188403E+02 -0.47491954000E+02  0.66336272616E+02  0.41800000000E+01 0. -1.
        -11    1    1    2    0    0  0.52067873451E+02 -0.22937411421E+02  0.60542048987E+02  0.83081453911E+02  0.00000000000E+00 0. -1.
         11    1    1    2    0    0 -0.39618327487E+02 -0.23654821891E+02  0.45035135846E+02  0.64477328824E+02  0.00000000000E+00 0.  1.
</event>
<event>
 7    1  0.2714042E-009  0.7246393E+02  0.7561462E-02  0.1351909E+00
          1   -1    0    0  501    0  0.00000000000E+00  0.00000000000E+00  0.30297586267E+02  0.30297586267E+02  0.00000000000E+00 0. -1.
         -1   -1    0    0    0  501 -0.00000000000E+00 -0.00000000000E+00 -0.50211539651E+03  0.50211539651E+03  0.00000000000E+00 0.  1.
         25    2    1    2    0    0 -0.16724572114E+02 -0.71736633831E+01 -0.14551362201E+03  0.19275217021E+03  0.12509201482E+03 0.  0.
          5    1    3    3  502    0  0.87595448179E+01  0.15665145114E+02 -0.15571333789E+03  0.15680000764E+03  0.41800000000E+01 0. -1.
         -5    1    3    3    0  502 -0.25484116932E+02 -0.22838808497E+02  0.10199715885E+02  0.35952162571E+02  0.41800000000E+01 0. -1.
        -11    1    1    2    0    0 -0.36448967672E+02 -0.67262282937E+01 -0.96433098435E+02  0.10331075387E+03  0.00000000000E+00 0. -1.
         11    1    1    2    0    0  0.53173539786E+02  0.13899891677E+02 -0.22987108980E+03  0.23635005870E+03  0.00000000000E+00 0.  1.
</event>
<event>
 7    1  0.2714042E-009  0.2558095E+03  0.7561462E-02  0.1109687E+00
          2   -1    0    0  501    0  0.00000000000E+00  0.00000000000E+00  0.16165417091E+04  0.16165417091E+04  0.00000000000E+00 0.  1.
         -2   -1    0    0    0  501 -0.00000000000E+00 -0.00000000000E+00 -0.45942286053E+02  0.45942286053E+02  0.00000000000E+00 0. -1.
         25    2    1    2    0    0  0.11920915561E+03 -0.21897756611E+03  0.84812780659E+03  0.89282096211E+03  0.12508595778E+03 0.  0.
          5    1    3    3  502    0  0.66585681915E+02 -0.63084620194E+02  0.15268392306E+03  0.17816614466E+03  0.41800000000E+01 0.  1.
         -5    1    3    3    0  502  0.52623473698E+02 -0.15589294591E+03  0.69544388353E+03  0.71465481745E+03  0.41800000000E+01 0.  1.
        -11    1    1    2    0    0 -0.81725516865E+02  0.19304443701E+03  0.49316543938E+03  0.53587066104E+03  0.00000000000E+00 0. -1.
         11    1    1    2    0    0 -0.37483638748E+02  0.25933129095E+02  0.22930617704E+03  0.23379237196E+03  0.00000000000E+00 0.  1.
</event>
<event>
 7    1  0.2714042E-009  0.1374080E+03  0.7561462E-02  0.1216860E+00
         -2   -1    0    0    0  501 -0.00000000000E+00  0.00000000000E+00  0.12652848146E+03  0.12652848146E+03  0.00000000000E+00 0.  1.
          2   -1    0    0  501    0  0.00000000000E+00 -0.00000000000E+00 -0.23511870316E+03  0.23511870316E+03  0.00000000000E+00 0. -1.
         25    2    1    2    0    0 -0.10348600953E+03 -0.39631007614E+02 -0.13629049645E+03  0.21565595602E+03  0.12510963597E+03 0.  0.
          5    1    3    3  502    0 -0.71397597047E+02 -0.69477981060E+02 -0.35795170835E+02  0.10594136761E+03  0.41800000000E+01 0.  1.
         -5    1    3    3    0  502 -0.32088412480E+02  0.29846973446E+02 -0.10049532561E+03  0.10971458841E+03  0.41800000000E+01 0.  1.
        -11    1    1    2    0    0  0.63668716499E+02  0.59001282368E+02 -0.10597040413E+02  0.87448007680E+02  0.00000000000E+00 0. -1.
         11    1    1    2    0    0  0.39817293028E+02 -0.19370274755E+02  0.38297315154E+02  0.58543220924E+02  0.00000000000E+00 0.  1.
</event>
<event>
 7    1  0.2714042E-009  0.2438368E+03  0.7561462E-02  0.1117263E+00
          2   -1    0    0  501    0  0.00000000000E+00  0.00000000000E+00  0.27495732193E+02  0.27495732193E+02  0.00000000000E+00 0.  1.
         -2   -1    0    0    0  501 -0.00000000000E+00 -0.00000000000E+00 -0.23391865437E+04  0.23391865437E+04  0.00000000000E+00 0. -1.
         25    2    1    2    0    0  0.10102950911E+03  0.20420406121E+03 -0.12854939573E+04  0.13115063807E+04  0.12509201455E+03 0.  0.
          5    1    3    3  502    0  0.56859209764E+02  0.20762872889E+03 -0.10514019809E+04  0.10732223706E+04  0.41800000000E+01 0. -1.
         -5    1    3    3    0  502  0.44170299350E+02 -0.34246676816E+01 -0.23409197641E+03  0.23828401019E+03  0.41800000000E+01 0. -1.
        -11    1    1    2    0    0 -0.34326883089E+02 -0.73412986003E+02 -0.19595135965E+03  0.21204890182E+03  0.00000000000E+00 0. -1.
         11    1    1    2    0    0 -0.66702626025E+02 -0.13079107520E+03 -0.83024549457E+03  0.84312699335E+03  0.00000000000E+00 0.  1.
</event>
<event>
 7    1  0.3206423E-009  0.1218205E+03  0.7561462E-02  0.1240124E+00
         -2   -1    0    0    0  501 -0.00000000000E+00  0.00000000000E+00  0.10484454197E+03  0.10484454197E+03  0.00000000000E+00 0.  1.
          2   -1    0    0  501    0  0.00000000000E+00 -0.00000000000E+00 -0.16243138164E+03  0.16243138164E+03  0.00000000000E+00 0. -1.
         25    2    1    2    0    0  0.70733626465E+02  0.10190116409E+02 -0.29614997496E+02  0.14707634180E+03  0.12508923956E+03 0.  0.
          5    1    3    3  502    0 -0.20649041399E+02 -0.35579569923E+02 -0.13678046247E+02  0.43552842108E+02  0.41800000000E+01 0.  1.
         -5    1    3    3    0  502  0.91382667863E+02  0.45769686332E+02 -0.15936951249E+02  0.10352349969E+03  0.41800000000E+01 0.  1.
        -11    1    1    2    0    0 -0.84528651143E+02 -0.33261859092E+01 -0.46154790978E+02  0.96366078612E+02  0.00000000000E+00 0. -1.
         11    1    1    2    0    0  0.13795024678E+02 -0.68639305000E+01  0.18182948806E+02  0.23833503206E+02  0.00000000000E+00 0.  1.
</event>
<event>
 7    1  0.2714042E-009  0.1012730E+03  0.7561462E-02  0.1277642E+00
         -2   -1    0    0    0  501 -0.00000000000E+00  0.00000000000E+00  0.32115830443E+02  0.32115830443E+02  0.00000000000E+00 0.  1.
          2   -1    0    0  501    0  0.00000000000E+00 -0.00000000000E+00 -0.53874176070E+03  0.53874176070E+03  0.00000000000E+00 0. -1.
         25    2    1    2    0    0  0.71978892461E+02 -0.16529638190E+02 -0.31071071668E+03  0.34298916637E+03  0.12508488674E+03 0.  0.
          5    1    3    3  502    0  0.63195992393E+02  0.27751522265E+02 -0.27955323643E+03  0.28797806313E+03  0.41800000000E+01 0.  1.
         -5    1    3    3    0  502  0.87829000684E+01 -0.44281160455E+02 -0.31157480245E+02  0.55011103243E+02  0.41800000000E+01 0.  1.
        -11    1    1    2    0    0 -0.29037376199E+02  0.31258420118E+02 -0.21759223865E+02  0.47892816455E+02  0.00000000000E+00 0.  1.
         11    1    1    2    0    0 -0.42941516262E+02 -0.14728781928E+02 -0.17415598972E+03  0.17997560832E+03  0.00000000000E+00 0. -1.
</event>
<event>
 7    1  0.2714042E-009  0.2150547E+03  0.7561462E-02  0.1137625E+00
         -1   -1    0    0    0  501 -0.00000000000E+00  0.00000000000E+00  0.12428959652E+04  0.12428959652E+04  0.00000000000E+00 0.  1.
          1   -1    0    0  501    0  0.00000000000E+00 -0.00000000000E+00 -0.49554586609E+02  0.49554586609E+02  0.00000000000E+00 0. -1.
         25    2    1    2    0    0  0.18835185984E+03 -0.65379556712E+02  0.35647590492E+03  0.42716866440E+03  0.12508831886E+03 0.  0.
          5    1    3    3  502    0  0.18945108450E+03 -0.79633632612E+02  0.35734838439E+03  0.41224818870E+03  0.41800000000E+01 0.  1.
         -5    1    3    3    0  502 -0.10992246613E+01  0.14254075899E+02 -0.87247947069E+00  0.14920475697E+02  0.41800000000E+01 0.  1.
        -11    1    1    2    0    0 -0.10052469447E+03  0.68728682397E+02  0.60895960307E+03  0.62101581634E+03  0.00000000000E+00 0. -1.
         11    1    1    2    0    0 -0.87827165364E+02 -0.33491256845E+01  0.22790587061E+03  0.24426607107E+03  0.00000000000E+00 0.  1.
</event>
<event>
 7    1  0.2714042E-009  0.7520545E+02  0.7561462E-02  0.1343236E+00
          3   -1    0    0  501    0  0.00000000000E+00  0.00000000000E+00  0.57067324946E+02  0.57067324946E+02  0.00000000000E+00 0. -1.
         -3   -1    0    0    0  501 -0.00000000000E+00 -0.00000000000E+00 -0.24973327953E+03  0.24973327953E+03  0.00000000000E+00 0.  1.
         25    2    1    2    0    0  0.89250430693E+01  0.21909683640E+02 -0.50829825391E+02  0.13707751129E+03  0.12508749867E+03 0.  0.
          5    1    3    3  502    0  0.11117737841E+02  0.38592152471E+02  0.32580922750E+02  0.51883978782E+02  0.41800000000E+01 0.  1.
         -5    1    3    3    0  502 -0.21926947715E+01 -0.16682468831E+02 -0.83410748141E+02  0.85193532513E+02  0.41800000000E+01 0.  1.
        -11    1    1    2    0    0 -0.30759640890E+02  0.25850917715E+02 -0.52739112425E+02  0.66301126942E+02  0.00000000000E+00 0.  1.
         11    1    1    2    0    0  0.21834597820E+02 -0.47760601355E+02 -0.89097016765E+02  0.10342196624E+03  0.00000000000E+00 0. -1.
</event>
<event>
 7    1  0.2714042E-009  0.1039972E+03  0.7561462E-02  0.1272108E+00
         -1   -1    0    0    0  501 -0.00000000000E+00  0.00000000000E+00  0.19018312905E+02  0.19018312905E+02  0.00000000000E+00 0.  1.
          1   -1    0    0  501    0  0.00000000000E+00 -0.00000000000E+00 -0.68845546999E+03  0.68845546999E+03  0.00000000000E+00 0. -1.
         25    2    1    2    0    0 -0.26019508831E+02  0.14517163559E+02 -0.31440571265E+03  0.33968552083E+03  0.12509011964E+03 0.  0.
          5    1    3    3  502    0  0.18300923405E+02 -0.42291365227E+02 -0.19280415910E+03  0.19827859071E+03  0.41800000000E+01 0.  1.
         -5    1    3    3    0  502 -0.44320432236E+02  0.56808528786E+02 -0.12160155356E+03  0.14140693011E+03  0.41800000000E+01 0.  1.
        -11    1    1    2    0    0  0.55010003007E+02  0.39932533127E+01 -0.27811599964E+03  0.28353228345E+03  0.00000000000E+00 0.  1.
         11    1    1    2    0    0 -0.28990494176E+02 -0.18510416872E+02 -0.76915444787E+02  0.84255978613E+02  0.00000000000E+00 0. -1.
</event>
<event>
 7    1  0.2714042E-009  0.2264838E+03  0.7561462E-02  0.1129139E+00
          2   -1    0    0  501    0  0.00000000000E+00  0.00000000000E+00  0.19480847465E+03  0.19480847465E+03  0.00000000000E+00 0.  1.
         -2   -1    0    0    0  501 -0.00000000000E+00 -0.00000000000E+00 -0.30538862968E+03  0.30538862968E+03  0.00000000000E+00 0. -1.
         25    2    1    2    0    0 -0.18763261893E+03 -0.75197004896E+02  0.25030802351E+02  0.23902886783E+03  0.12509064456E+03 0.  0.
          5    1    3    3  502    0  0.15279444180E+02  0.73347779052E+01  0.82072895243E+01  0.19289696283E+02  0.41800000000E+01 0. -1.
         -5    1    3    3    0  502 -0.20291206311E+03 -0.82531782801E+02  0.16823512827E+02  0.21973917154E+03  0.41800000000E+01 0. -1.
        -11    1    1    2    0    0  0.11770055365E+03  0.57203414388E+01 -0.10530976913E+03  0.15803888797E+03  0.00000000000E+00 0. -1.
         11    1    1    2    0    0  0.69932065275E+02  0.69476663457E+02 -0.30301188248E+02  0.10312934853E+03  0.00000000000E+00 0.  1.
</event>
<event>
 7    1  0.2714042E-009  0.1285006E+03  0.7561462E-02  0.1229698E+00
         -1   -1    0    0    0  501 -0.00000000000E+00  0.00000000000E+00  0.15928051195E+02  0.15928051195E+02  0.00000000000E+00 0.  1.
          1   -1    0    0  501    0  0.00000000000E+00 -0.00000000000E+00 -0.11177848667E+04  0.11177848667E+04  0.00000000000E+00 0. -1.
         25    2    1    2    0    0  0.66994571167E+02  0.31356811203E+02 -0.51451846848E+03  0.53464765609E+03  0.12508932643E+03 0.  0.
          5    1    3    3  502    0  0.26597859753E+02  0.75208207589E+02 -0.21823063423E+03  0.23239148596E+03  0.41800000000E+01 0. -1.
         -5    1    3    3    0  502  0.40396711414E+02 -0.43851396386E+02 -0.29628783425E+03  0.30225617013E+03  0.41800000000E+01 0. -1.
        -11    1    1    2    0    0  0.21816557789E+02  0.32050515286E+01 -0.88527141848E+02  0.91232063404E+02  0.00000000000E+00 0. -1.
         11    1    1    2    0    0 -0.88811128956E+02 -0.34561862732E+02 -0.49881120517E+03  0.50783319839E+03  0.00000000000E+00 0.  1.
</event>
<event>
 7    1  0.2714042E-009  0.1411431E+03  0.7561462E-02  0.1211799E+00
         -1   -1    0    0    0  501 -0.00000000000E+00  0.00000000000E+00  0.59445252057E+03  0.59445252057E+03  0.00000000000E+00 0.  1.
          1   -1    0    0  501    0  0.00000000000E+00 -0.00000000000E+00 -0.37944449024E+02  0.37944449024E+02  0.00000000000E+00 0. -1.
         25    2    1    2    0    0  0.98023910196E+02  0.33332287668E+02  0.26745565574E+03  0.31288959520E+03  0.12509053771E+03 0.  0.
          5    1    3    3  502    0 -0.21434923972E+02  0.12840901605E+02  0.11664948492E+03  0.11936883786E+03  0.41800000000E+01 0.  1.
         -5    1    3    3    0  502  0.11945883417E+03  0.20491386063E+02  0.15080617082E+03  0.19352075734E+03  0.41800000000E+01 0.  1.
        -11    1    1    2    0    0  0.99883076473E+01  0.14450828977E+02  0.29284661960E+02  0.34149438852E+02  0.00000000000E+00 0.  1.
         11    1    1    2    0    0 -0.10801221784E+03 -0.47783116646E+02  0.25976775384E+03  0.28535793554E+03  0.00000000000E+00 0. -1.
</event>
<event>
 7    1  0.2714042E-009  0.1193915E+03  0.7561462E-02  0.1244104E+00
          2   -1    0    0  501    0  0.00000000000E+00  0.00000000000E+00  0.44499686325E+03  0.44499686325E+03  0.00000000000E+00 0. -1.
         -2   -1    0    0    0  501 -0.00000000000E+00 -0.00000000000E+00 -0.41269235029E+02  0.41269235029E+02  0.00000000000E+00 0.  1.
         25    2    1    2    0    0  0.21606235266E+02  0.72122422701E+02  0.17799996122E+03  0.23021752619E+03  0.12509056684E+03 0.  0.
          5    1    3    3  502    0  0.35529642180E+01 -0.32033830240E+02  0.14760711842E+02  0.35695109591E+02  0.41800000000E+01 0.  1.
         -5    1    3    3    0  502  0.18053271048E+02  0.10415625294E+03  0.16323924938E+03  0.19452241660E+03  0.41800000000E+01 0.  1.
        -11    1    1    2    0    0  0.22780255619E+02 -0.38781657064E+02  0.17554373267E+03  0.18121412486E+03  0.00000000000E+00 0.  1.
         11    1    1    2    0    0 -0.44386490885E+02 -0.33340765637E+02  0.50183934328E+02  0.74834447222E+02  0.00000000000E+00 0. -1.
</event>
<event>
 7    1  0.2714042E-009  0.1052247E+03  0.7561462E-02  0.1269678E+00
         -1   -1    0    0    0  501 -0.00000000000E+00  0.00000000000E+00  0.52167439805E+03  0.52167439805E+03  0.00000000000E+00 0.  1.
          1   -1    0    0  501    0  0.00000000000E+00 -0.00000000000E+00 -0.88581943580E+02  0.88581943580E+02  0.00000000000E+00 0. -1.
         25    2    1    2    0    0  0.15602625104E+01 -0.71113120215E+02 -0.17211398075E+02  0.14492621688E+03  0.12509142988E+03 0.  0.
          5    1    3    3  502    0 -0.80678694473E+01  0.13385301510E+02  0.39457039909E+02  0.42644896673E+02  0.41800000000E+01 0. -1.
         -5    1    3    3    0  502  0.96281319578E+01 -0.84498421725E+02 -0.56668437983E+02  0.10228132020E+03  0.41800000000E+01 0. -1.
        -11    1    1    2    0    0 -0.41525221589E+02  0.45772347067E+02  0.33568715727E+03  0.34132875551E+03  0.00000000000E+00 0.  1.
         11    1    1    2    0    0  0.39964959079E+02  0.25340773148E+02  0.11461669527E+03  0.12400136924E+03  0.00000000000E+00 0. -1.
</event>
<event>
 7    1  0.2714042E-009  0.7466165E+02  0.7561462E-02  0.1344922E+00
         -1   -1    0    0    0  501 -0.00000000000E+00  0.00000000000E+00  0.81216110059E+03  0.81216110059E+03  0.00000000000E+00 0.  1.
          1   -1    0    0  501    0  0.00000000000E+00 -0.00000000000E+00 -0.16211453809E+02  0.16211453809E+02  0.00000000000E+00 0. -1.
         25    2    1    2    0    0  0.21192631222E+02 -0.28676397031E+02  0.45175517011E+03  0.47010466414E+03  0.12507676908E+03 0.  0.
          5    1    3    3  502    0  0.24085448333E+02 -0.30427223846E+01  0.84695727800E+01  0.26049434619E+02  0.41800000000E+01 0.  1.
         -5    1    3    3    0  502 -0.28928171107E+01 -0.25633674646E+02  0.44328559733E+03  0.44405522952E+03  0.41800000000E+01 0.  1.
        -11    1    1    2    0    0 -0.48740135750E+02 -0.11275906455E+02  0.19834135802E+03  0.20455327228E+03  0.00000000000E+00 0.  1.
         11    1    1    2    0    0  0.27547504528E+02  0.39952303485E+02  0.14585311865E+03  0.15371461798E+03  0.00000000000E+00 0. -1.
</event>
<event>
 7    1  0.2714042E-009  0.1364623E+03  0.7561462E-02  0.1218170E+00
         -2   -1    0    0    0  501 -0.00000000000E+00  0.00000000000E+00  0.35416271149E+03  0.35416271149E+03  0.00000000000E+00 0.  1.
          2   -1    0    0  501    0  0.00000000000E+00 -0.00000000000E+00 -0.88012434651E+02  0.88012434651E+02  0.00000000000E+00 0. -1.
         25    2    1    2    0    0  0.59755002690E+02  0.12250694324E+03  0.10529014982E+03  0.21286758032E+03  0.12509188468E+03 0.  0.
          5    1    3    3  502    0  0.23865186248E+02  0.45699670709E+02 -0.24934930006E+02  0.57421512972E+02  0.41800000000E+01 0. -1.
         -5    1    3    3    0  502  0.35889816442E+02  0.76807272532E+02  0.13022507983E+03  0.15544606735E+03  0.41800000000E+01 0. -1.
        -11    1    1    2    0    0 -0.44644385141E+02 -0.89526763565E+02  0.16483035966E+03  0.19281392580E+03  0.00000000000E+00 0.  1.
         11    1    1    2    0    0 -0.15110617549E+02 -0.32980179677E+02 -0.39702326435E+01  0.36493640014E+02  0.00000000000E+00 0. -1.
</event>
<event>
 7    1  0.2714042E-009  0.9326979E+02  0.7561462E-02  0.1295121E+00
          1   -1    0    0  501    0  0.00000000000E+00  0.00000000000E+00  0.58244960537E+03  0.58244960537E+03  0.00000000000E+00 0. -1.
         -1   -1    0    0    0  501 -0.00000000000E+00 -0.00000000000E+00 -0.36909457755E+02  0.36909457755E+02  0.00000000000E+00 0.  1.
         25    2    1    2    0    0 -0.35388317538E+01 -0.44906191672E+02  0.47895619802E+03  0.49706669042E+03  0.12508863147E+03 0.  0.
          5    1    3    3  502    0 -0.15863337796E+02 -0.87128964431E+02  0.31003061439E+03  0.32245861159E+03  0.41800000000E+01 0. -1.
         -5    1    3    3    0  502  0.12324506043E+02  0.42222772759E+02  0.16892558363E+03  0.17460807883E+03  0.41800000000E+01 0. -1.
        -11    1    1    2    0    0  0.15332677563E+02  0.14580557364E+02  0.83135892235E+02  0.85786130767E+02  0.00000000000E+00 0. -1.
         11    1    1    2    0    0 -0.11793845809E+02  0.30325634308E+02 -0.16551942640E+02  0.36506241936E+02  0.00000000000E+00 0.  1.
</event>
<event>
 7    1  0.2714042E-009  0.1278771E+03  0.7561462E-02  0.1230640E+00
         -1   -1    0    0    0  501 -0.00000000000E+00  0.00000000000E+00  0.34992509846E+03  0.34992509846E+03  0.00000000000E+00 0.  1.
          1   -1    0    0  501    0  0.00000000000E+00 -0.00000000000E+00 -0.87569634496E+02  0.87569634496E+02  0.00000000000E+00 0. -1.
         25    2    1    2    0    0  0.83834804686E+02  0.91694910517E+02  0.69024356670E+02  0.18933440364E+03  0.12508766325E+03 0.  0.
          5    1    3    3  502    0  0.74160974487E+02  0.70220035300E+02 -0.13782740686E+02  0.10314135851E+03  0.41800000000E+01 0. -1.
         -5    1    3    3    0  502  0.96738301983E+01  0.21474875217E+02  0.82807097356E+02  0.86193045130E+02  0.41800000000E+01 0. -1.
        -11    1    1    2    0    0 -0.60412726236E+02 -0.86693123582E+02  0.19736647864E+03  0.22387255763E+03  0.00000000000E+00 0.  1.
         11    1    1    2    0    0 -0.23422078450E+02 -0.50017869348E+01 -0.40353713501E+01  0.24287771684E+02  0.00000000000E+00 0. -1.
</event>
<event>
 7    1  0.2714042E-009  0.1727037E+03  0.7561462E-02  0.1175057E+00
         -4   -1    0    0    0  501 -0.00000000000E+00  0.00000000000E+00  0.74362527264E+02  0.74362527264E+02  0.00000000000E+00 0.  1.
          4   -1    0    0  501    0  0.00000000000E+00 -0.00000000000E+00 -0.58831695039E+03  0.58831695039E+03  0.00000000000E+00 0. -1.
         25    2    1    2    0    0 -0.15767166032E+03 -0.32322074313E+02 -0.14597490506E+03  0.25072304911E+03  0.12509318723E+03 0.  0.
          5    1    3    3  502    0 -0.11655557420E+03 -0.36074824569E+02 -0.27431757756E+02  0.12512621059E+03  0.41800000000E+01 0. -1.
         -5    1    3    3    0  502 -0.41116086128E+02  0.37527502560E+01 -0.11854314730E+03  0.12559683852E+03  0.41800000000E+01 0. -1.
        -11    1    1    2    0    0  0.93211787794E+02  0.60871988869E+02 -0.26198360491E+03  0.28465636416E+03  0.00000000000E+00 0.  1.
         11    1    1    2    0    0  0.64459872530E+02 -0.28549914557E+02 -0.10599591316E+03  0.12730006439E+03  0.00000000000E+00 0. -1.
</event>
<event>
 7    1  0.2714042E-009  0.1098506E+03  0.7561462E-02  0.1260847E+00
         -2   -1    0    0    0  501 -0.00000000000E+00  0.00000000000E+00  0.55057235513E+02  0.55057235513E+02  0.00000000000E+00 0.  1.
          2   -1    0    0  501    0  0.00000000000E+00 -0.00000000000E+00 -0.41487019786E+03  0.41487019786E+03  0.00000000000E+00 0. -1.
         25    2    1    2    0    0 -0.78189601131E+02  0.51551607905E+02 -0.26470405366E+03  0.30738619436E+03  0.12508738728E+03 0.  0.
          5    1    3    3  502    0 -0.10538180459E+02  0.36349699550E+01 -0.20449667409E+03  0.20484293585E+03  0.41800000000E+01 0. -1.
         -5    1    3    3    0  502 -0.67651420672E+02  0.47916637950E+02 -0.60207379572E+02  0.10254325851E+03  0.41800000000E+01 0. -1.
        -11    1    1    2    0    0 -0.17674381827E+02 -0.61188302591E+01  0.18857451802E+01  0.18798401304E+02  0.00000000000E+00 0.  1.
         11    1    1    2    0    0  0.95863982958E+02 -0.45432777645E+02 -0.96994653864E+02  0.14374283770E+03  0.00000000000E+00 0. -1.
</event>
<event>
 7    1  0.2714042E-009  0.1062844E+03  0.7561462E-02  0.1267610E+00
         -1   -1    0    0    0  501 -0.00000000000E+00  0.00000000000E+00  0.43913440731E+03  0.43913440731E+03  0.00000000000E+00 0.  1.
          1   -1    0    0  501    0  0.00000000000E+00 -0.00000000000E+00 -0.88706478948E+02  0.88706478948E+02  0.00000000000E+00 0. -1.
         25    2    1    2    0    0  0.22592576444E+01 -0.15229910504E+02  0.40240744866E+03  0.42168225428E+03  0.12508842640E+03 0.  0.
          5    1    3    3  502    0  0.11421724883E+01 -0.68972235109E+02  0.17942308964E+03  0.19227218018E+03  0.41800000000E+01 0. -1.
         -5    1    3    3    0  502  0.11170851561E+01  0.53742324605E+02  0.22298435902E+03  0.22941007411E+03  0.41800000000E+01 0. -1.
        -11    1    1    2    0    0  0.11741729740E+01  0.52301204405E+02 -0.43350898057E+02  0.67941850333E+02  0.00000000000E+00 0. -1.
         11    1    1    2    0    0 -0.34334306184E+01 -0.37071293901E+02 -0.86286222431E+01  0.38216781642E+02  0.00000000000E+00 0.  1.
</event>
<event>
 7    1  0.2714042E-009  0.1304479E+03  0.7561462E-02  0.1226793E+00
         -1   -1    0    0    0  501 -0.00000000000E+00  0.00000000000E+00  0.36134789357E+02  0.36134789357E+02  0.00000000000E+00 0.  1.
          1   -1    0    0  501    0  0.00000000000E+00 -0.00000000000E+00 -0.57696273317E+03  0.57696273317E+03  0.00000000000E+00 0. -1.
         25    2    1    2    0    0 -0.64584994139E+02 -0.57312626651E+02 -0.21865624996E+03  0.26629684074E+03  0.12508994003E+03 0.  0.
          5    1    3    3  502    0 -0.42036773830E+02  0.24680347886E+02 -0.14728879312E+03  0.15520203254E+03  0.41800000000E+01 0. -1.
         -5    1    3    3    0  502 -0.22548220310E+02 -0.81992974537E+02 -0.71367456846E+02  0.11109480820E+03  0.41800000000E+01 0. -1.
        -11    1    1    2    0    0  0.33907823229E+02 -0.22924025820E+02 -0.80333068799E+02  0.90159044907E+02  0.00000000000E+00 0.  1.
         11    1    1    2    0    0  0.30677170911E+02  0.80236652471E+02 -0.24183862506E+03  0.25664163689E+03  0.00000000000E+00 0. -1.
</event>
<event>
 7    1  0.2714042E-009  0.1019286E+03  0.7561462E-02  0.1276292E+00
         -1   -1    0    0    0  501 -0.00000000000E+00  0.00000000000E+00  0.44777274683E+03  0.44777274683E+03  0.00000000000E+00 0.  1.
          1   -1    0    0  501    0  0.00000000000E+00 -0.00000000000E+00 -0.39022202339E+02  0.39022202339E+02  0.00000000000E+00 0. -1.
         25    2    1    2    0    0  0.30093457259E+01 -0.51904320084E+02  0.11998758488E+03  0.18095976760E+03  0.12508518042E+03 0.  0.
          5    1    3    3  502    0  0.45851387489E+02 -0.28058785907E+02  0.12021239752E+03  0.13175028698E+03  0.41800000000E+01 0. -1.
         -5    1    3    3    0  502 -0.42842041763E+02 -0.23845534177E+02 -0.22481263638E+00  0.49209480625E+02  0.41800000000E+01 0. -1.
        -11    1    1    2    0    0 -0.42793107958E+02  0.12140461048E+02  0.12433917925E+03  0.13205632276E+03  0.00000000000E+00 0.  1.
         11    1    1    2    0    0  0.39783762232E+02  0.39763859036E+02  0.16442378036E+03  0.17377885881E+03  0.00000000000E+00 0. -1.
</event>
<event>
 7    1  0.2714042E-009  0.1514428E+03  0.7561462E-02  0.1198711E+00
         -2   -1    0    0    0  501 -0.00000000000E+00  0.00000000000E+00  0.24052468600E+02  0.24052468600E+02  0.00000000000E+00 0.  1.
          2   -1    0    0  501    0  0.00000000000E+00 -0.00000000000E+00 -0.14360095823E+04  0.14360095823E+04  0.00000000000E+00 0. -1.
         25    2    1    2    0    0  0.12380326876E+03  0.24515336884E+02 -0.10685048357E+04  0.10831796925E+04  0.12508961248E+03 0.  0.
          5    1    3    3  502    0  0.11262145266E+03 -0.16359279965E+02 -0.95815806789E+03  0.96490184636E+03  0.41800000000E+01 0. -1.
         -5    1    3    3    0  502  0.11181816099E+02  0.40874616848E+02 -0.11034676785E+03  0.11827784615E+03  0.41800000000E+01 0. -1.
        -11    1    1    2    0    0 -0.69883956578E+02 -0.50840525704E+02 -0.26080707999E+03  0.27475236016E+03  0.00000000000E+00 0. -1.
         11    1    1    2    0    0 -0.53919312186E+02  0.26325188820E+02 -0.82645197988E+02  0.10212999825E+03  0.00000000000E+00 0.  1.
</event>
<event>
 7    1  0.2824187E-009  0.1375530E+03  0.7561462E-02  0.1216660E+00
          2   -1    0    0  501    0  0.00000000000E+00  0.00000000000E+00  0.80044063651E+02  0.80044063651E+02  0.00000000000E+00 0.  1.
         -2   -1    0    0    0  501 -0.00000000000E+00 -0.00000000000E+00 -0.35197661689E+03  0.35197661689E+03  0.00000000000E+00 0. -1.
         25    2    1    2    0    0 -0.99331750881E+02 -0.33275792002E+02 -0.23879023849E+03  0.28920993063E+03  0.12509009119E+03 0.  0.
          5    1    3    3  502    0  0.82525697857E+01  0.27752950458E+02 -0.13617928722E+02  0.32268429615E+02  0.41800000000E+01 0.  1.
         -5    1    3    3    0  502 -0.10758432067E+03 -0.61028742460E+02 -0.22517230977E+03  0.25694150102E+03  0.41800000000E+01 0.  1.
        -11    1    1    2    0    0  0.38062338943E+02  0.45804808815E+02 -0.50308669286E+02  0.77960145983E+02  0.00000000000E+00 0. -1.
         11    1    1    2    0    0  0.61269411938E+02 -0.12529016813E+02  0.17166354535E+02  0.64850603926E+02  0.00000000000E+00 0.  1.
</event>
<event>
 7    1  0.2714042E-009  0.7139996E+02  0.7561462E-02  0.1355396E+00
          1   -1    0    0  501    0  0.00000000000E+00  0.00000000000E+00  0.40528919325E+03  0.40528919325E+03  0.00000000000E+00 0. -1.
         -1   -1    0    0    0  501 -0.00000000000E+00 -0.00000000000E+00 -0.34524121427E+02  0.34524121427E+02  0.00000000000E+00 0.  1.
         25    2    1    2    0    0 -0.34653496635E+02 -0.32087163575E+02  0.21209367017E+03  0.25072250062E+03  0.12509035334E+03 0.  0.
          5    1    3    3  502    0 -0.19503278020E+02  0.22456790425E+02  0.18571737243E+03  0.18813054008E+03  0.41800000000E+01 0. -1.
         -5    1    3    3    0  502 -0.15150218615E+02 -0.54543954001E+02  0.26376297737E+02  0.62591960541E+02  0.41800000000E+01 0. -1.
        -11    1    1    2    0    0  0.20451907398E+02 -0.49535815578E+00 -0.54446642978E+01  0.21170032244E+02  0.00000000000E+00 0.  1.
         11    1    1    2    0    0  0.14201589238E+02  0.32582521731E+02  0.16411606595E+03  0.16792078181E+03  0.00000000000E+00 0. -1.
</event>
<event>
 7    1  0.2714042E-009  0.1054744E+03  0.7561462E-02  0.1269188E+00
          2   -1    0    0  501    0  0.00000000000E+00  0.00000000000E+00  0.18833538952E+03  0.18833538952E+03  0.00000000000E+00 0.  1.
         -2   -1    0    0    0  501 -0.00000000000E+00 -0.00000000000E+00 -0.95692040827E+02  0.95692040827E+02  0.00000000000E+00 0. -1.
         25    2    1    2    0    0  0.46013642328E+02  0.14591882478E+02  0.11715216426E+03  0.17804950635E+03  0.12508724479E+03 0.  0.
          5    1    3    3  502    0  0.73153469092E+02 -0.18323825573E+02  0.11169893910E+03  0.13483811783E+03  0.41800000000E+01 0. -1.
         -5    1    3    3    0  502 -0.27139826765E+02  0.32915708051E+02  0.54532251535E+01  0.43211388521E+02  0.41800000000E+01 0. -1.
        -11    1    1    2    0    0  0.20985837678E+02  0.70613661398E+01 -0.27738672212E+02  0.35492283822E+02  0.00000000000E+00 0. -1.
         11    1    1    2    0    0 -0.66999480006E+02 -0.21653248618E+02  0.32298566517E+01  0.70485640174E+02  0.00000000000E+00 0.  1.
</event>
<event>
 7    1  0.2714042E-009  0.3064994E+03  0.7561462E-02  0.1082036E+00
          1   -1    0    0  501    0  0.00000000000E+00  0.00000000000E+00  0.20522529056E+04  0.20522529056E+04  0.00000000000E+00 0. -1.
         -1   -1    0    0    0  501 -0.00000000000E+00 -0.00000000000E+00 -0.47551953323E+02  0.47551953323E+02  0.00000000000E+00 0.  1.
         25    2    1    2    0    0 -0.34459255439E+02 -0.28940807223E+03  0.11094474504E+04  0.11538916741E+04  0.12509147791E+03 0.  0.
          5    1    3    3  502    0 -0.30415047913E+02 -0.36150962303E+01  0.92205947289E+02  0.97249952060E+02  0.41800000000E+01 0. -1.
         -5    1    3    3    0  502 -0.40442075261E+01 -0.28579297600E+03  0.10172415031E+04  0.10566417221E+04  0.41800000000E+01 0. -1.
        -11    1    1    2    0    0  0.47301311202E+02  0.18143243582E+03  0.67074738522E+03  0.69646047812E+03  0.00000000000E+00 0.  1.
         11    1    1    2    0    0 -0.12842055763E+02  0.10797563641E+03  0.22450611669E+03  0.24945270671E+03  0.00000000000E+00 0. -1.
</event>
<event>
 7    1  0.2714042E-009  0.1456086E+03  0.7561462E-02  0.1205975E+00
         -2   -1    0    0    0  501 -0.00000000000E+00  0.00000000000E+00  0.36505755911E+02  0.36505755911E+02  0.00000000000E+00 0.  1.
          2   -1    0    0  501    0  0.00000000000E+00 -0.00000000000E+00 -0.70667161775E+03  0.70667161775E+03  0.00000000000E+00 0. -1.
         25    2    1    2    0    0 -0.90724248662E+02 -0.74655364597E+02 -0.39005184695E+03  0.42613656971E+03  0.12509044719E+03 0.  0.
          5    1    3    3  502    0 -0.21024783242E+02  0.17144004474E+02 -0.10401736366E+02  0.29353482234E+02  0.41800000000E+01 0.  1.
         -5    1    3    3    0  502 -0.69699465419E+02 -0.91799369071E+02 -0.37965011058E+03  0.39678308747E+03  0.41800000000E+01 0.  1.
        -11    1    1    2    0    0  0.10618988348E+03  0.79016580162E+02 -0.25259373480E+03  0.28517276545E+03  0.00000000000E+00 0. -1.
         11    1    1    2    0    0 -0.15465634823E+02 -0.43612155646E+01 -0.27520280096E+02  0.31868038506E+02  0.00000000000E+00 0.  1.
</event>
<event>
 7    1  0.2714042E-009  0.1079527E+03  0.7561462E-02  0.1264409E+00
          1   -1    0    0  501    0  0.00000000000E+00  0.00000000000E+00  0.22584506966E+02  0.22584506966E+02  0.00000000000E+00 0. -1.
         -1   -1    0    0    0  501 -0.00000000000E+00 -0.00000000000E+00 -0.68642070349E+03  0.68642070349E+03  0.00000000000E+00 0.  1.
         25    2    1    2    0    0 -0.67438798919E+00 -0.47569338692E+02 -0.47738078632E+03  0.49578473000E+03  0.12508711593E+03 0.  0.
          5    1    3    3  502    0 -0.47015774194E+02  0.14938673764E+02 -0.11644323230E+03  0.12653120463E+03  0.41800000000E+01 0.  1.
         -5    1    3    3    0  502  0.46341386205E+02 -0.62508012456E+02 -0.36093755402E+03  0.36925352538E+03  0.41800000000E+01 0.  1.
        -11    1    1    2    0    0 -0.28131277197E+02 -0.49577903774E+01 -0.16436886871E+02  0.32956330077E+02  0.00000000000E+00 0. -1.
         11    1    1    2    0    0  0.28805665186E+02  0.52527129069E+02 -0.17001852333E+03  0.18026415038E+03  0.00000000000E+00 0.  1.
</event>
<event>
 7    1  0.2714042E-009  0.1032922E+03  0.7561462E-02  0.1273521E+00
          2   -1    0    0  501    0  0.00000000000E+00  0.00000000000E+00  0.17632734162E+02  0.17632734162E+02  0.00000000000E+00 0. -1.
         -2   -1    0    0    0  501 -0.00000000000E+00 -0.00000000000E+00 -0.74109505268E+03  0.74109505268E+03  0.00000000000E+00 0.  1.
         25    2    1    2    0    0 -0.88188053551E+01  0.11418607676E+02 -0.52533707334E+03  0.54021784458E+03  0.12509245801E+03 0.  0.
          5    1    3    3  502    0  0.42255343747E+02  0.45125689200E+02 -0.31878579797E+03  0.32475175024E+03  0.41800000000E+01 0. -1.
         -5    1    3    3    0  502 -0.51074149102E+02 -0.33707081524E+02 -0.20655127537E+03  0.21546609434E+03  0.41800000000E+01 0. -1.
        -11    1    1    2    0    0  0.17333599780E+02 -0.45219850061E+02 -0.15850850109E+03  0.16574146565E+03  0.00000000000E+00 0.  1.
         11    1    1    2    0    0 -0.85147944249E+01  0.33801242385E+02 -0.39616744096E+02  0.52768476609E+02  0.00000000000E+00 0. -1.
</event>
<event>
 7    1  0.2714042E-009  0.1258363E+03  0.7561462E-02  0.1233768E+00
          2   -1    0    0  501    0  0.00000000000E+00  0.00000000000E+00  0.27596582697E+03  0.27596582697E+03  0.00000000000E+00 0.  1.
         -2   -1    0    0    0  501 -0.00000000000E+00 -0.00000000000E+00 -0.11780572155E+03  0.11780572155E+03  0.00000000000E+00 0. -1.
         25    2    1    2    0    0 -0.55482057961E+02  0.10233967364E+03 -0.68751886519E+01  0.17101768940E+03  0.12509242308E+03 0.  0.
          5    1    3    3  502    0  0.80334021296E+00  0.66740684406E+02 -0.56749568594E+02  0.87709464975E+02  0.41800000000E+01 0. -1.
         -5    1    3    3    0  502 -0.56285398174E+02  0.35598989235E+02  0.49874379942E+02  0.83308224424E+02  0.41800000000E+01 0. -1.
        -11    1    1    2    0    0  0.32462989030E+02 -0.39406117747E+02  0.75584302993E+01  0.51612185007E+02  0.00000000000E+00 0. -1.
         11    1    1    2    0    0  0.23019068931E+02 -0.62933555894E+02  0.15747686378E+03  0.17114167411E+03  0.00000000000E+00 0.  1.
</event>
<event>
 7    1  0.2714042E-009  0.1380113E+03  0.7561462E-02  0.1216030E+00
         -2   -1    0    0    0  501 -0.00000000000E+00  0.00000000000E+00  0.19365293048E+02  0.19365293048E+02  0.00000000000E+00 0.  1.
          2   -1    0    0  501    0  0.00000000000E+00 -0.00000000000E+00 -0.10397827009E+04  0.10397827009E+04  0.00000000000E+00 0. -1.
         25    2    1    2    0    0  0.74064450981E+02 -0.47978257211E+02 -0.61853104751E+03  0.63719290066E+03  0.12508668939E+03 0.  0.
          5    1    3    3  502    0  0.10843597653E+03 -0.28537933881E+02 -0.42003170108E+03  0.43476071233E+03  0.41800000000E+01 0. -1.
         -5    1    3    3    0  502 -0.34371525553E+02 -0.19440323330E+02 -0.19849934643E+03  0.20243218833E+03  0.41800000000E+01 0. -1.
        -11    1    1    2    0    0 -0.48096907164E+02 -0.19427734795E+02 -0.11574914644E+03  0.12684090137E+03  0.00000000000E+00 0.  1.
         11    1    1    2    0    0 -0.25967543817E+02  0.67405992006E+02 -0.28613721395E+03  0.29511419196E+03  0.00000000000E+00 0. -1.
</event>
<event>
 7    1  0.2714042E-009  0.1146860E+03  0.7561462E-02  0.1252130E+00
          1   -1    0    0  501    0  0.00000000000E+00  0.00000000000E+00  0.66340390249E+03  0.66340390249E+03  0.00000000000E+00 0. -1.
         -1   -1    0    0    0  501 -0.00000000000E+00 -0.00000000000E+00 -0.35594475309E+02  0.35594475309E+02  0.00000000000E+00 0.  1.
         25    2    1    2    0    0 -0.61761424310E+02 -0.18678544379E+02  0.53872037433E+03  0.55680255589E+03  0.12508430349E+03 0.  0.
          5    1    3    3  502    0  0.40092570647E+01 -0.46908072267E+02  0.83311442957E+02  0.95784708141E+02  0.41800000000E+01 0. -1.
         -5    1    3    3    0  502 -0.65770681374E+02  0.28229527888E+02  0.45540893137E+03  0.46101784775E+03  0.41800000000E+01 0. -1.
        -11    1    1    2    0    0  0.22666647236E+02  0.53471811306E+02  0.40705684438E+02  0.70922240848E+02  0.00000000000E+00 0.  1.
         11    1    1    2    0    0  0.39094777073E+02 -0.34793266927E+02  0.48383368416E+02  0.71273581060E+02  0.00000000000E+00 0. -1.
</event>
<event>
 7    1  0.2714042E-009  0.1084216E+03  0.7561462E-02  0.1263521E+00
          2   -1    0    0  501    0  0.00000000000E+00  0.00000000000E+00  0.82127231943E+02  0.82127231943E+02  0.00000000000E+00 0. -1.
         -2   -1    0    0    0  501 -0.00000000000E+00 -0.00000000000E+00 -0.18186499774E+03  0.18186499774E+03  0.00000000000E+00 0.  1.
         25    2    1    2    0    0  0.12900300451E+02 -0.18275272992E+02 -0.11348823087E+03  0.17037560079E+03  0.12509142035E+03 0.  0.
          5    1    3    3  502    0  0.63802200389E+02 -0.35309196204E+02 -0.60626562824E+02  0.94923720065E+02  0.41800000000E+01 0.  1.
         -5    1    3    3    0  502 -0.50901899938E+02  0.17033923212E+02 -0.52861668042E+02  0.75451880728E+02  0.41800000000E+01 0.  1.
        -11    1    1    2    0    0  0.14515008669E+02 -0.30631741086E+02  0.16045855600E+02  0.37502780171E+02  0.00000000000E+00 0. -1.
         11    1    1    2    0    0 -0.27415309120E+02  0.48907014079E+02 -0.22953905299E+01  0.56113848718E+02  0.00000000000E+00 0.  1.
</event>
<event>
 7    1  0.2714042E-009  0.9092682E+02  0.7561462E-02  0.1300623E+00
          2   -1    0    0  501    0  0.00000000000E+00  0.00000000000E+00  0.37568658168E+03  0.37568658168E+03  0.00000000000E+00 0. -1.
         -2   -1    0    0    0  501 -0.00000000000E+00 -0.00000000000E+00 -0.49491548992E+02  0.49491548992E+02  0.00000000000E+00 0.  1.
         25    2    1    2    0    0  0.94689613336E+01  0.70392854425E+01  0.56017177560E+02  0.13757198206E+03  0.12509561662E+03 0.  0.
          5    1    3    3  502    0 -0.53317183725E+01 -0.45633039708E+02 -0.14373870764E+02  0.48320617696E+02  0.41800000000E+01 0.  1.
         -5    1    3    3    0  502  0.14800679706E+02  0.52672325151E+02  0.70391048324E+02  0.89251364363E+02  0.41800000000E+01 0.  1.
        -11    1    1    2    0    0 -0.32016481340E+02 -0.33328171816E+02  0.22983873492E+03  0.23443904577E+03  0.00000000000E+00 0. -1.
         11    1    1    2    0    0  0.22547520006E+02  0.26288886373E+02  0.40339120213E+02  0.53167102843E+02  0.00000000000E+00 0.  1.
</event>
<event>
 7    1  0.2714042E-009  0.9339929E+02  0.7561462E-02  0.1294823E+00
         -1   -1    0    0    0  501 -0.00000000000E+00  0.00000000000E+00  0.20486239392E+03  0.20486239392E+03  0.00000000000E+00 0.  1.
          1   -1    0    0  501    0  0.00000000000E+00 -0.00000000000E+00 -0.65277938456E+02  0.65277938456E+02  0.00000000000E+00 0. -1.
         25    2    1    2    0    0 -0.32273998351E+02 -0.17985399087E+01  0.10489886895E+03  0.16642112406E+03  0.12508945643E+03 0.  0.
          5    1    3    3  502    0 -0.75671090831E+02  0.28215527741E-01  0.33760880222E+02  0.82966163085E+02  0.41800000000E+01 0. -1.
         -5    1    3    3    0  502  0.43397092480E+02 -0.18267554364E+01  0.71137988728E+02  0.83454960975E+02  0.41800000000E+01 0. -1.
        -11    1    1    2    0    0 -0.10311540975E+02  0.18863969592E+02 -0.22023116798E+02  0.30776531636E+02  0.00000000000E+00 0. -1.
         11    1    1    2    0    0  0.42585539326E+02 -0.17065429684E+02  0.56708703313E+02  0.72942676681E+02  0.00000000000E+00 0.  1.
</event>
<event>
 7    1  0.2714042E-009  0.1163290E+03  0.7561462E-02  0.1249279E+00
         -3   -1    0    0    0  501 -0.00000000000E+00  0.00000000000E+00  0.52808692406E+03  0.52808692406E+03  0.00000000000E+00 0.  1.
          3   -1    0    0  501    0  0.00000000000E+00 -0.00000000000E+00 -0.46071098809E+02  0.46071098809E+02  0.00000000000E+00 0. -1.
         25    2    1    2    0    0  0.30189564298E+02 -0.69846081392E+02  0.10861900467E+03  0.18230652119E+03  0.12509074551E+03 0.  0.
          5    1    3    3  502    0 -0.29913955122E+02 -0.27209237014E+02 -0.10669583284E+02  0.42029747767E+02  0.41800000000E+01 0.  1.
         -5    1    3    3    0  502  0.60103519421E+02 -0.42636844379E+02  0.11928858795E+03  0.14027677342E+03  0.41800000000E+01 0.  1.
        -11    1    1    2    0    0 -0.46390842850E+02  0.84470008143E+02  0.31901746359E+03  0.33325580963E+03  0.00000000000E+00 0.  1.
         11    1    1    2    0    0  0.16201278551E+02 -0.14623926751E+02  0.54379356994E+02  0.58595692055E+02  0.00000000000E+00 0. -1.
</event>
<event>
 7    1  0.2714042E-009  0.1258991E+03  0.7561462E-02  0.1233671E+00
         -2   -1    0    0    0  501 -0.00000000000E+00  0.00000000000E+00  0.93111180606E+03  0.93111180606E+03  0.00000000000E+00 0.  1.
          2   -1    0    0  501    0  0.00000000000E+00 -0.00000000000E+00 -0.18958648240E+02  0.18958648240E+02  0.00000000000E+00 0. -1.
         25    2    1    2    0    0  0.66151701102E+02 -0.32821634278E+02  0.59751972446E+03  0.61492349108E+03  0.12509105296E+03 0.  0.
          5    1    3    3  502    0  0.79041390489E+02 -0.68600050335E+02  0.48141473951E+03  0.49267751332E+03  0.41800000000E+01 0.  1.
         -5    1    3    3    0  502 -0.12889689387E+02  0.35778416056E+02  0.11610498495E+03  0.12224597776E+03  0.41800000000E+01 0.  1.
        -11    1    1    2    0    0 -0.54488449346E+02 -0.17431133020E+02  0.22053987275E+03  0.22783913400E+03  0.00000000000E+00 0.  1.
         11    1    1    2    0    0 -0.11663251756E+02  0.50252767299E+02  0.94093560607E+02  0.10730782921E+03  0.00000000000E+00 0. -1.
</event>
<event>
 7    1  0.2714042E-009  0.1743682E+03  0.7561462E-02  0.1173368E+00
         -2   -1    0    0    0  501 -0.00000000000E+00  0.00000000000E+00  0.17334779877E+02  0.17334779877E+02  0.00000000000E+00 0. -1.
          2   -1    0    0  501    0  0.00000000000E+00 -0.00000000000E+00 -0.25318099057E+04  0.25318099057E+04  0.00000000000E+00 0.  1.
         25    2    1    2    0    0 -0.50517281472E+02 -0.13978872436E+03 -0.19070498673E+04  0.19169194194E+04  0.12509188895E+03 0.  0.
          5    1    3    3  502    0 -0.62489423343E+02 -0.98370893206E+01 -0.67466125548E+03  0.67763336577E+03  0.41800000000E+01 0. -1.
         -5    1    3    3    0  502  0.11972141871E+02 -0.12995163504E+03 -0.12323886118E+04  0.12392860536E+04  0.41800000000E+01 0. -1.
        -11    1    1    2    0    0  0.45716774764E+02  0.63041604989E+02 -0.15665413532E+03  0.17494223495E+03  0.00000000000E+00 0.  1.
         11    1    1    2    0    0  0.48005067073E+01  0.76747119371E+02 -0.45077112318E+03  0.45728303127E+03  0.00000000000E+00 0. -1.
</event>
<event>
 7    1  0.2714042E-009  0.1076796E+03  0.7561462E-02  0.1264928E+00
          2   -1    0    0  501    0  0.00000000000E+00  0.00000000000E+00  0.76932395407E+03  0.76932395407E+03  0.00000000000E+00 0. -1.
         -2   -1    0    0    0  501 -0.00000000000E+00 -0.00000000000E+00 -0.19101272818E+02  0.19101272818E+02  0.00000000000E+00 0.  1.
         25    2    1    2    0    0  0.23910105046E+02  0.17215023449E+02  0.58739605953E+03  0.60128896805E+03  0.12508493990E+03 0.  0.
          5    1    3    3  502    0  0.50091877906E+02 -0.40055344974E+02  0.25665123406E+03  0.26457693633E+03  0.41800000000E+01 0.  1.
         -5    1    3    3    0  502 -0.26181772859E+02  0.57270368423E+02  0.33074482546E+03  0.33671203171E+03  0.41800000000E+01 0.  1.
        -11    1    1    2    0    0 -0.52925265988E+02  0.23550007740E+01  0.68981003449E+02  0.86977058155E+02  0.00000000000E+00 0. -1.
         11    1    1    2    0    0  0.29015160942E+02 -0.19570024223E+02  0.93845618278E+02  0.10015920069E+03  0.00000000000E+00 0.  1.
</event>
<event>
 7    1  0.2714042E-009  0.8213646E+02  0.7561462E-02  0.1323096E+00
          2   -1    0    0  501    0  0.00000000000E+00  0.00000000000E+00  0.17606217564E+03  0.17606217564E+03  0.00000000000E+00 0. -1.
         -2   -1    0    0    0  501 -0.00000000000E+00 -0.00000000000E+00 -0.70198675952E+02  0.70198675952E+02  0.00000000000E+00 0.  1.
         25    2    1    2    0    0 -0.10596913989E+02  0.12013885006E+02  0.92586660093E+02  0.15644164375E+03  0.12508025525E+03 0.  0.
          5    1    3    3  502    0  0.11812065709E+02  0.52693701381E+02  0.15826844347E+01  0.54186053109E+02  0.41800000000E+01 0. -1.
         -5    1    3    3    0  502 -0.22408979699E+02 -0.40679816375E+02  0.91003975659E+02  0.10225559064E+03  0.41800000000E+01 0. -1.
        -11    1    1    2    0    0 -0.11389268238E+02  0.20955604225E+02  0.36712729340E+02  0.43779872945E+02  0.00000000000E+00 0. -1.
         11    1    1    2    0    0  0.21986182227E+02 -0.32969489231E+02 -0.23435889749E+02  0.46039334893E+02  0.00000000000E+00 0.  1.
</event>
<event>
 7    1  0.2714042E-009  0.8228635E+02  0.7561462E-02  0.1322686E+00
         -1   -1    0    0    0  501 -0.00000000000E+00  0.00000000000E+00  0.29082219560E+02  0.29082219560E+02  0.00000000000E+00 0.  1.
          1   -1    0    0  501    0  0.00000000000E+00 -0.00000000000E+00 -0.44835892230E+03  0.44835892230E+03  0.00000000000E+00 0. -1.
         25    2    1    2    0    0  0.11028811446E+00  0.23195532703E+02 -0.30031966051E+03  0.32615584520E+03  0.12509073492E+03 0.  0.
          5    1    3    3  502    0  0.45298198091E+01 -0.45154982561E+02 -0.55043509752E+02  0.71461542689E+02  0.41800000000E+01 0.  1.
         -5    1    3    3    0  502 -0.44195316946E+01  0.68350515264E+02 -0.24527615076E+03  0.25469430251E+03  0.41800000000E+01 0.  1.
        -11    1    1    2    0    0 -0.13401280424E+02  0.85953754887E+01  0.93286339204E+01  0.18452593520E+02  0.00000000000E+00 0.  1.
         11    1    1    2    0    0  0.13290992310E+02 -0.31790908192E+02 -0.12828567615E+03  0.13283270315E+03  0.00000000000E+00 0. -1.
</event>
<event>
 7    1  0.2714042E-009  0.2064760E+03  0.7561462E-02  0.1144387E+00
         -2   -1    0    0    0  501 -0.00000000000E+00  0.00000000000E+00  0.27828456179E+03  0.27828456179E+03  0.00000000000E+00 0.  1.
          2   -1    0    0  501    0  0.00000000000E+00 -0.00000000000E+00 -0.19518103838E+03  0.19518103838E+03  0.00000000000E+00 0. -1.
         25    2    1    2    0    0  0.83449835004E+02  0.18470200022E+03  0.17871979765E+02  0.23884164209E+03  0.12508884236E+03 0.  0.
          5    1    3    3  502    0  0.56784329077E+02  0.13729270241E+03 -0.45293073884E+02  0.15537915274E+03  0.41800000000E+01 0.  1.
         -5    1    3    3    0  502  0.26665505927E+02  0.47409297818E+02  0.63165053649E+02  0.83462489350E+02  0.41800000000E+01 0.  1.
        -11    1    1    2    0    0 -0.58413192819E+02 -0.17208863270E+03  0.84691419300E+02  0.20049746907E+03  0.00000000000E+00 0.  1.
         11    1    1    2    0    0 -0.25036642185E+02 -0.12613367522E+02 -0.19459875657E+02  0.34126489019E+02  0.00000000000E+00 0. -1.
</event>
<event>
 7    1  0.2871602E-009  0.9722084E+02  0.7561462E-02  0.1286251E+00
          1   -1    0    0  501    0  0.00000000000E+00  0.00000000000E+00  0.34462373665E+03  0.34462373665E+03  0.00000000000E+00 0. -1.
         -1   -1    0    0    0  501 -0.00000000000E+00 -0.00000000000E+00 -0.60932715970E+02  0.60932715970E+02  0.00000000000E+00 0.  1.
         25    2    1    2    0    0  0.94542489731E+02 -0.86691997977E+01  0.17091047406E+03  0.23210244769E+03  0.12509084174E+03 0.  0.
          5    1    3    3  502    0  0.33270335937E+02 -0.14443271832E+02  0.16628264532E+03  0.17024368972E+03  0.41800000000E+01 0.  1.
         -5    1    3    3    0  502  0.61272153794E+02  0.57740720346E+01  0.46278287427E+01  0.61858757967E+02  0.41800000000E+01 0.  1.
        -11    1    1    2    0    0 -0.58511589013E+02  0.13051802244E+02  0.55020147292E+01  0.60201559421E+02  0.00000000000E+00 0.  1.
         11    1    1    2    0    0 -0.36030900718E+02 -0.43826024465E+01  0.10727853189E+03  0.11325244551E+03  0.00000000000E+00 0. -1.
</event>
<event>
 7    1  0.2714042E-009  0.1289153E+03  0.7561462E-02  0.1229074E+00
         -2   -1    0    0    0  501 -0.00000000000E+00  0.00000000000E+00  0.22364119453E+04  0.22364119453E+04  0.00000000000E+00 0.  1.
          2   -1    0    0  501    0  0.00000000000E+00 -0.00000000000E+00 -0.84878333301E+01  0.84878333301E+01  0.00000000000E+00 0. -1.
         25    2    1    2    0    0  0.44007451215E+02  0.51664683631E+02  0.15949321264E+04  0.16012688639E+04  0.12509033371E+03 0.  0.
          5    1    3    3  502    0  0.47171567502E+02  0.90529112832E+02  0.10659042867E+04  0.10707894741E+04  0.41800000000E+01 0.  1.
         -5    1    3    3    0  502 -0.31641162864E+01 -0.38864429200E+02  0.52902783966E+03  0.53047938982E+03  0.41800000000E+01 0.  1.
        -11    1    1    2    0    0  0.30056507540E+02 -0.18525160636E+02  0.20404236709E+03  0.20707453438E+03  0.00000000000E+00 0. -1.
         11    1    1    2    0    0 -0.74063958755E+02 -0.33139522996E+02  0.42894961853E+03  0.43655638033E+03  0.00000000000E+00 0.  1.
</event>
<event>
 7    1  0.2714042E-009  0.1249352E+03  0.7561462E-02  0.1235171E+00
          1   -1    0    0  501    0  0.00000000000E+00  0.00000000000E+00  0.92463472471E+03  0.92463472471E+03  0.00000000000E+00 0. -1.
         -1   -1    0    0    0  501 -0.00000000000E+00 -0.00000000000E+00 -0.30116722520E+02  0.30116722520E+02  0.00000000000E+00 0.  1.
         25    2    1    2    0    0  0.78851849368E+02 -0.69365794473E+02  0.69026720807E+03  0.70932742691E+03  0.12508937782E+03 0.  0.
          5    1    3    3  502    0  0.91993301412E+01 -0.54221699854E+02  0.54161415586E+03  0.54441527040E+03  0.41800000000E+01 0.  1.
         -5    1    3    3    0  502  0.69652519226E+02 -0.15144094618E+02  0.14865305220E+03  0.16491215651E+03  0.41800000000E+01 0.  1.
        -11    1    1    2    0    0 -0.28993236883E+02  0.67450164420E+02  0.16921732190E+03  0.18445767671E+03  0.00000000000E+00 0.  1.
         11    1    1    2    0    0 -0.49858612485E+02  0.19156300527E+01  0.35033472224E+02  0.60966343612E+02  0.00000000000E+00 0. -1.
</event>
<event>
 7    1  0.2714042E-009  0.1940567E+03  0.7561462E-02  0.1154853E+00
          2   -1    0    0  501    0  0.00000000000E+00  0.00000000000E+00  0.27181970605E+03  0.27181970605E+03  0.00000000000E+00 0. -1.
         -2   -1    0    0    0  501 -0.00000000000E+00 -0.00000000000E+00 -0.18633555332E+03  0.18633555332E+03  0.00000000000E+00 0.  1.
         25    2    1    2    0    0  0.64405397914E+02 -0.15570279131E+03 -0.59029004462E+02  0.21799787756E+03  0.12508891539E+03 0.  0.
          5    1    3    3  502    0  0.91837581047E+02 -0.15715210355E+03 -0.51320792217E+02  0.18916189113E+03  0.41800000000E+01 0.  1.
         -5    1    3    3    0  502 -0.27432183133E+02  0.14493122427E+01 -0.77082122456E+01  0.28835986431E+02  0.41800000000E+01 0.  1.
        -11    1    1    2    0    0 -0.73332151750E+02  0.11354211999E+03  0.65597362375E+02  0.15024124415E+03  0.00000000000E+00 0.  1.
         11    1    1    2    0    0  0.89267538359E+01  0.42160671314E+02  0.78915794813E+02  0.89916137654E+02  0.00000000000E+00 0. -1.
</event>
<event>
 7    1  0.2714042E-009  0.1430077E+03  0.7561462E-02  0.1209338E+00
          3   -1    0    0  501    0  0.00000000000E+00  0.00000000000E+00  0.45973166131E+03  0.45973166131E+03  0.00000000000E+00 0. -1.
         -3   -1    0    0    0  501 -0.00000000000E+00 -0.00000000000E+00 -0.63616209842E+02  0.63616209842E+02  0.00000000000E+00 0.  1.
         25    2    1    2    0    0  0.17661194871E+02  0.12730633182E+03  0.17088374209E+03  0.24772397931E+03  0.12508835553E+03 0.  0.
          5    1    3    3  502    0  0.49543899618E+02  0.81549715966E+02  0.16608922133E+03  0.19159346546E+03  0.41800000000E+01 0.  1.
         -5    1    3    3    0  502 -0.31882704747E+02  0.45756615854E+02  0.47945207604E+01  0.56130513856E+02  0.41800000000E+01 0.  1.
        -11    1    1    2    0    0 -0.48367200820E+01 -0.11943131278E+03  0.23052484580E+03  0.25967082406E+03  0.00000000000E+00 0. -1.
         11    1    1    2    0    0 -0.12824474789E+02 -0.78750190416E+01 -0.52931364246E+01  0.15953067784E+02  0.00000000000E+00 0.  1.
</event>
<event>
 7    1  0.2714042E-009  0.1580248E+03  0.7561462E-02  0.1190945E+00
          2   -1    0    0  501    0  0.00000000000E+00  0.00000000000E+00  0.53473159216E+03  0.53473159216E+03  0.00000000000E+00 0. -1.
         -2   -1    0    0    0  501 -0.00000000000E+00 -0.00000000000E+00 -0.54863560361E+02  0.54863560361E+02  0.00000000000E+00 0.  1.
         25    2    1    2    0    0  0.90973793137E+02  0.94400780324E+02  0.22879809047E+03  0.29186343541E+03  0.12509180773E+03 0.  0.
          5    1    3    3  502    0 -0.20597410079E+02 -0.86467094865E+01  0.63021262545E+02  0.66993811802E+02  0.41800000000E+01 0. -1.
         -5    1    3    3    0  502  0.11157120322E+03  0.10304748981E+03  0.16577682793E+03  0.22486962361E+03  0.41800000000E+01 0. -1.
        -11    1    1    2    0    0 -0.72287137607E+02 -0.37373816964E+02  0.20944389277E+03  0.22469752264E+03  0.00000000000E+00 0. -1.
         11    1    1    2    0    0 -0.18686655530E+02 -0.57026963359E+02  0.41626048553E+02  0.73034194478E+02  0.00000000000E+00 0.  1.
</event>
<event>
 7    1  0.2714042E-009  0.1039229E+03  0.7561462E-02  0.1272256E+00
          1   -1    0    0  501    0  0.00000000000E+00  0.00000000000E+00  0.57125651580E+02  0.57125651580E+02  0.00000000000E+00 0. -1.
         -1   -1    0    0    0  501 -0.00000000000E+00 -0.00000000000E+00 -0.24095139351E+03  0.24095139351E+03  0.00000000000E+00 0.  1.
         25    2    1    2    0    0 -0.31328659243E+01 -0.30184150551E+01 -0.16162106094E+03  0.20443301762E+03  0.12511021411E+03 0.  0.
          5    1    3    3  502    0 -0.57112095311E+02  0.26958089512E+02 -0.82822472698E+02  0.10423801804E+03  0.41800000000E+01 0. -1.
         -5    1    3    3    0  502  0.53979229387E+02 -0.29976504567E+02 -0.78798588245E+02  0.10019499958E+03  0.41800000000E+01 0. -1.
        -11    1    1    2    0    0  0.80127799011E+01  0.42315910600E+02 -0.31018975229E+02  0.53075585309E+02  0.00000000000E+00 0.  1.
         11    1    1    2    0    0 -0.48799139768E+01 -0.39297495545E+02  0.88142942420E+01  0.40568442162E+02  0.00000000000E+00 0. -1.
</event>
<event>
 7    1  0.2714042E-009  0.9962246E+02  0.7561462E-02  0.1281092E+00
         -1   -1    0    0    0  501 -0.00000000000E+00  0.00000000000E+00  0.15429036353E+02  0.15429036353E+02  0.00000000000E+00 0.  1.
          1   -1    0    0  501    0  0.00000000000E+00 -0.00000000000E+00 -0.13948770778E+04  0.13948770778E+04  0.00000000000E+00 0. -1.
         25    2    1    2    0    0 -0.64556791466E+01  0.13355306501E+02 -0.12141543757E+04  0.12206709600E+04  0.12508678809E+03 0.  0.
          5    1    3    3  502    0  0.17072303780E+02  0.59648384439E+02 -0.39531490312E+03  0.40017588427E+03  0.41800000000E+01 0.  1.
         -5    1    3    3    0  502 -0.23527982926E+02 -0.46293077938E+02 -0.81883947254E+03  0.82049507570E+03  0.41800000000E+01 0.  1.
        -11    1    1    2    0    0 -0.38300070815E+01 -0.48343589602E+02 -0.54295651072E+02  0.72799652027E+02  0.00000000000E+00 0.  1.
         11    1    1    2    0    0  0.10285686228E+02  0.34988283101E+02 -0.11099801474E+03  0.11683550219E+03  0.00000000000E+00 0. -1.
</event>
<event>
 7    1  0.2714042E-009  0.1423379E+03  0.7561462E-02  0.1210217E+00
          2   -1    0    0  501    0  0.00000000000E+00  0.00000000000E+00  0.20383789665E+03  0.20383789665E+03  0.00000000000E+00 0. -1.
         -2   -1    0    0    0  501 -0.00000000000E+00 -0.00000000000E+00 -0.10386622378E+03  0.10386622378E+03  0.00000000000E+00 0.  1.
         25    2    1    2    0    0  0.27020656524E+02  0.91322478065E+02  0.37977371230E+02  0.16173720094E+03  0.12508689205E+03 0.  0.
          5    1    3    3  502    0 -0.37776129479E+02 -0.51810904915E+01 -0.28538863297E+01  0.38464226553E+02  0.41800000000E+01 0. -1.
         -5    1    3    3    0  502  0.64796786004E+02  0.96503568557E+02  0.40831257560E+02  0.12327297439E+03  0.41800000000E+01 0. -1.
        -11    1    1    2    0    0 -0.21091868310E+02  0.13481023566E+02  0.21228889335E+01  0.25121933894E+02  0.00000000000E+00 0.  1.
         11    1    1    2    0    0 -0.59287882148E+01 -0.10480350163E+03  0.59871412709E+02  0.12084498560E+03  0.00000000000E+00 0. -1.
</event>
<event>
 7    1  0.2714042E-009  0.9256103E+02  0.7561462E-02  0.1296766E+00
          1   -1    0    0  501    0  0.00000000000E+00  0.00000000000E+00  0.85004762537E+03  0.85004762537E+03  0.00000000000E+00 0. -1.
         -1   -1    0    0    0  501 -0.00000000000E+00 -0.00000000000E+00 -0.24155524281E+02  0.24155524281E+02  0.00000000000E+00 0.  1.
         25    2    1    2    0    0  0.18677670128E+02 -0.64387860299E+02  0.63929822463E+03  0.65486217071E+03  0.12509033017E+03 0.  0.
          5    1    3    3  502    0  0.16442335501E+02 -0.72530516105E+02  0.64097806845E+03  0.64529170365E+03  0.41800000000E+01 0. -1.
         -5    1    3    3    0  502  0.22353346268E+01  0.81426558056E+01 -0.16798438257E+01  0.95704670597E+01  0.41800000000E+01 0. -1.
        -11    1    1    2    0    0 -0.48285425361E+02  0.43361716046E+02  0.62714548515E+02  0.90248741355E+02  0.00000000000E+00 0.  1.
         11    1    1    2    0    0  0.29607755233E+02  0.21026144253E+02  0.12387932795E+03  0.12909223759E+03  0.00000000000E+00 0. -1.
</event>
<event>
 7    1  0.2714042E-009  0.1342302E+03  0.7561462E-02  0.1221311E+00
         -2   -1    0    0    0  501 -0.00000000000E+00  0.00000000000E+00  0.24109952656E+02  0.24109952656E+02  0.00000000000E+00 0.  1.
          2   -1    0    0  501    0  0.00000000000E+00 -0.00000000000E+00 -0.88081746947E+03  0.88081746947E+03  0.00000000000E+00 0. -1.
         25    2    1    2    0    0  0.10525221316E+03 -0.16794020383E+02 -0.52039103750E+03  0.54572440402E+03  0.12509286847E+03 0.  0.
          5    1    3    3  502    0  0.28375865248E+02  0.46799691655E+02 -0.28151693238E+03  0.28681815926E+03  0.41800000000E+01 0.  1.
         -5    1    3    3    0  502  0.76876347912E+02 -0.63593712039E+02 -0.23887410512E+03  0.25890624476E+03  0.41800000000E+01 0.  1.
        -11    1    1    2    0    0 -0.49796168333E+02 -0.12007741703E+02 -0.77129547305E+02  0.92589477312E+02  0.00000000000E+00 0. -1.
         11    1    1    2    0    0 -0.55456044828E+02  0.28801762086E+02 -0.25918693201E+03  0.26661354079E+03  0.00000000000E+00 0.  1.
</event>
<event>
 7    1  0.2879005E-009  0.2061157E+03  0.7561462E-02  0.1144679E+00
          2   -1    0    0  501    0  0.00000000000E+00  0.00000000000E+00  0.10151306810E+04  0.10151306810E+04  0.00000000000E+00 0. -1.
         -2   -1    0    0    0  501 -0.00000000000E+00 -0.00000000000E+00 -0.54180192398E+02  0.54180192398E+02  0.00000000000E+00 0.  1.
         25    2    1    2    0    0  0.19225700366E+03 -0.44012401414E+02  0.34961129489E+03  0.42044642460E+03  0.12508913423E+03 0.  0.
          5    1    3    3  502    0  0.17290629875E+03 -0.44750553749E+02  0.35707734992E+03  0.39927547688E+03  0.41800000000E+01 0.  1.
         -5    1    3    3    0  502  0.19350704915E+02  0.73815233569E+00 -0.74660550292E+01  0.21170947718E+02  0.41800000000E+01 0.  1.
        -11    1    1    2    0    0 -0.11790407310E+03 -0.14984476834E+02  0.39792141488E+03  0.41529189424E+03  0.00000000000E+00 0.  1.
         11    1    1    2    0    0 -0.74352930557E+02  0.58996878248E+02  0.21341777881E+03  0.23357255455E+03  0.00000000000E+00 0. -1.
</event>
<event>
 7    1  0.2714042E-009  0.1099618E+03  0.7561462E-02  0.1260641E+00
         -2   -1    0    0    0  501 -0.00000000000E+00  0.00000000000E+00  0.58559300236E+02  0.58559300236E+02  0.00000000000E+00 0.  1.
          2   -1    0    0  501    0  0.00000000000E+00 -0.00000000000E+00 -0.34848852425E+03  0.34848852425E+03  0.00000000000E+00 0. -1.
         25    2    1    2    0    0 -0.61940243360E+02 -0.68654286490E+02 -0.16027224625E+03  0.22334909698E+03  0.12509045288E+03 0.  0.
          5    1    3    3  502    0 -0.62356699498E+02 -0.11947480545E+02 -0.12271550150E+02  0.64800953748E+02  0.41800000000E+01 0. -1.
         -5    1    3    3    0  502  0.41645613717E+00 -0.56706805945E+02 -0.14800069610E+03  0.15854814323E+03  0.41800000000E+01 0. -1.
        -11    1    1    2    0    0  0.42504152462E+02  0.67746011843E+02 -0.14032008797E+03  0.16151115189E+03  0.00000000000E+00 0. -1.
         11    1    1    2    0    0  0.19436090899E+02  0.90827464715E+00  0.10663110209E+02  0.22187575613E+02  0.00000000000E+00 0.  1.
</event>
<event>
 7    1  0.2714042E-009  0.6656325E+02  0.7561462E-02  0.1372186E+00
         -4   -1    0    0    0  501 -0.00000000000E+00  0.00000000000E+00  0.56408651472E+02  0.56408651472E+02  0.00000000000E+00 0.  1.
          4   -1    0    0  501    0  0.00000000000E+00 -0.00000000000E+00 -0.26831556804E+03  0.26831556804E+03  0.00000000000E+00 0. -1.
         25    2    1    2    0    0  0.16969960901E+02 -0.56254191644E+02 -0.10823359641E+03  0.17554101870E+03  0.12509046408E+03 0.  0.
          5    1    3    3  502    0  0.88909739076E+01 -0.62028240701E+02 -0.13379542351E+03  0.14780135255E+03  0.41800000000E+01 0.  1.
         -5    1    3    3    0  502  0.80789869933E+01  0.57740490571E+01  0.25561827105E+02  0.27739666154E+02  0.41800000000E+01 0.  1.
        -11    1    1    2    0    0 -0.17526117127E+02  0.45142760059E+02 -0.12001353243E+03  0.12941515187E+03  0.00000000000E+00 0. -1.
         11    1    1    2    0    0  0.55615622581E+00  0.11111431585E+02  0.16340212274E+02  0.19768048937E+02  0.00000000000E+00 0.  1.
</event>
<event>
 7    1  0.2714042E-009  0.1313537E+03  0.7561462E-02  0.1225461E+00
          1   -1    0    0  501    0  0.00000000000E+00  0.00000000000E+00  0.73078764178E+02  0.73078764178E+02  0.00000000000E+00 0. -1.
         -1   -1    0    0    0  501 -0.00000000000E+00 -0.00000000000E+00 -0.30036862268E+03  0.30036862268E+03  0.00000000000E+00 0.  1.
         25    2    1    2    0    0  0.12889101320E+02  0.91796048658E+02 -0.17034003363E+03  0.23077210607E+03  0.12508954553E+03 0.  0.
          5    1    3    3  502    0  0.45646703769E+02 -0.24312819740E+01 -0.19483345338E+02  0.49865878540E+02  0.41800000000E+01 0.  1.
         -5    1    3    3    0  502 -0.32757602449E+02  0.94227330632E+02 -0.15085668829E+03  0.18090622753E+03  0.41800000000E+01 0.  1.
        -11    1    1    2    0    0  0.21517316889E+02 -0.76205258099E+02 -0.66845054178E+02  0.10362672221E+03  0.00000000000E+00 0.  1.
         11    1    1    2    0    0 -0.34406418209E+02 -0.15590790559E+02  0.98952293044E+01  0.39048558580E+02  0.00000000000E+00 0. -1.
</event>
<event>
 7    1  0.2714042E-009  0.1274499E+03  0.7561462E-02  0.1231289E+00
         -2   -1    0    0    0  501 -0.00000000000E+00  0.00000000000E+00  0.21558137318E+02  0.21558137318E+02  0.00000000000E+00 0. -1.
          2   -1    0    0  501    0  0.00000000000E+00 -0.00000000000E+00 -0.86435634624E+03  0.86435634624E+03  0.00000000000E+00 0.  1.
         25    2    1    2    0    0 -0.69715518342E+02 -0.26076107232E+01 -0.31044202043E+03  0.34189014138E+03  0.12509023780E+03 0.  0.
          5    1    3    3  502    0 -0.83812561010E+02  0.43460819348E+02 -0.19350804161E+03  0.21535139370E+03  0.41800000000E+01 0.  1.
         -5    1    3    3    0  502  0.14097042668E+02 -0.46068430072E+02 -0.11693397882E+03  0.12653874768E+03  0.41800000000E+01 0.  1.
        -11    1    1    2    0    0 -0.17890141998E+02  0.15272007439E+02 -0.10671028140E+03  0.10927202546E+03  0.00000000000E+00 0. -1.
         11    1    1    2    0    0  0.87605660340E+02 -0.12664396715E+02 -0.42564590709E+03  0.43475231671E+03  0.00000000000E+00 0.  1.
</event>
<event>
 7    1  0.2714042E-009  0.8948804E+02  0.7561462E-02  0.1304096E+00
          2   -1    0    0  501    0  0.00000000000E+00  0.00000000000E+00  0.23832820333E+03  0.23832820333E+03  0.00000000000E+00 0. -1.
         -2   -1    0    0    0  501 -0.00000000000E+00 -0.00000000000E+00 -0.71504004754E+02  0.71504004754E+02  0.00000000000E+00 0.  1.
         25    2    1    2    0    0 -0.34270420823E+02  0.25812027985E+02  0.16347143562E+03  0.21026437860E+03  0.12508987214E+03 0.  0.
          5    1    3    3  502    0 -0.72405019787E+02  0.52260061769E+01  0.48707494061E+02  0.87519657269E+02  0.41800000000E+01 0.  1.
         -5    1    3    3    0  502  0.38134598964E+02  0.20586021808E+02  0.11476394156E+03  0.12274472133E+03  0.41800000000E+01 0.  1.
        -11    1    1    2    0    0 -0.11200199042E+02 -0.85397512139E+01 -0.34934023214E+02  0.37666401306E+02  0.00000000000E+00 0.  1.
         11    1    1    2    0    0  0.45470619865E+02 -0.17272276771E+02  0.38286786176E+02  0.61901428186E+02  0.00000000000E+00 0. -1.
</event>
<event>
 7    1  0.2714042E-009  0.2588364E+03  0.7561462E-02  0.1107844E+00
          2   -1    0    0  501    0  0.00000000000E+00  0.00000000000E+00  0.62957048937E+03  0.62957048937E+03  0.00000000000E+00 0. -1.
         -2   -1    0    0    0  501 -0.00000000000E+00 -0.00000000000E+00 -0.11205189114E+03  0.11205189114E+03  0.00000000000E+00 0.  1.
         25    2    1    2    0    0 -0.22139886158E+03  0.85784642955E+02  0.33971845904E+03  0.43293500259E+03  0.12509046396E+03 0.  0.
          5    1    3    3  502    0 -0.14153727791E+03  0.11501921604E+03  0.24680133215E+03  0.30690485668E+03  0.41800000000E+01 0.  1.
         -5    1    3    3    0  502 -0.79861583666E+02 -0.29234573085E+02  0.92917126886E+02  0.12603014591E+03  0.41800000000E+01 0.  1.
        -11    1    1    2    0    0  0.10921114703E+03 -0.84197805873E+02  0.11828880094E+03  0.18168265073E+03  0.00000000000E+00 0.  1.
         11    1    1    2    0    0  0.11218771455E+03 -0.15868370826E+01  0.59511338257E+02  0.12700472719E+03  0.00000000000E+00 0. -1.
</event>
<event>
 7    1  0.2714042E-009  0.3095856E+03  0.7561462E-02  0.1080545E+00
         -1   -1    0    0    0  501 -0.00000000000E+00  0.00000000000E+00  0.49209322150E+02  0.49209322150E+02  0.00000000000E+00 0.  1.
          1   -1    0    0  501    0  0.00000000000E+00 -0.00000000000E+00 -0.22803744315E+04  0.22803744315E+04  0.00000000000E+00 0. -1.
         25    2    1    2    0    0 -0.42771448314E+02  0.29060795556E+03 -0.71892337199E+03  0.78662611037E+03  0.12508973623E+03 0.  0.
          5    1    3    3  502    0  0.36205153611E+02  0.17771018738E+03 -0.40504641040E+03  0.44381504124E+03  0.41800000000E+01 0. -1.
         -5    1    3    3    0  502 -0.78976601925E+02  0.11289776818E+03 -0.31387696158E+03  0.34281106914E+03  0.41800000000E+01 0. -1.
        -11    1    1    2    0    0  0.53251948813E+02 -0.15471795283E+03 -0.97864692346E+03  0.99223143257E+03  0.00000000000E+00 0. -1.
         11    1    1    2    0    0 -0.10480500499E+02 -0.13589000272E+03 -0.53359481386E+03  0.55072621066E+03  0.00000000000E+00 0.  1.
</event>
<event>
 7    1  0.3094698E-009  0.1261128E+03  0.7561462E-02  0.1233340E+00
          1   -1    0    0  501    0  0.00000000000E+00  0.00000000000E+00  0.57729573255E+03  0.57729573255E+03  0.00000000000E+00 0. -1.
         -1   -1    0    0    0  501 -0.00000000000E+00 -0.00000000000E+00 -0.37507260354E+02  0.37507260354E+02  0.00000000000E+00 0.  1.
         25    2    1    2    0    0 -0.48058189873E+02 -0.77627889071E+02  0.37096864087E+03  0.40199651698E+03  0.12509112031E+03 0.  0.
          5    1    3    3  502    0 -0.40942884615E+02 -0.10090054604E+03  0.35777101751E+03  0.37399841358E+03  0.41800000000E+01 0.  1.
         -5    1    3    3    0  502 -0.71153052581E+01  0.23272656971E+02  0.13197623357E+02  0.27998103395E+02  0.41800000000E+01 0.  1.
        -11    1    1    2    0    0 -0.12044429761E+01  0.68439020177E+02  0.13781654432E+03  0.15387901109E+03  0.00000000000E+00 0. -1.
         11    1    1    2    0    0  0.49262632849E+02  0.91888688947E+01  0.31003287008E+02  0.58927464837E+02  0.00000000000E+00 0.  1.
</event>
<event>
 7    1  0.2714042E-009  0.1130999E+03  0.7561462E-02  0.1254935E+00
         -1   -1    0    0    0  501 -0.00000000000E+00  0.00000000000E+00  0.68108153447E+02  0.68108153447E+02  0.00000000000E+00 0.  1.
          1   -1    0    0  501    0  0.00000000000E+00 -0.00000000000E+00 -0.19476413106E+03  0.19476413106E+03  0.00000000000E+00 0. -1.
         25    2    1    2    0    0 -0.35836961028E+02 -0.38246143935E+01 -0.53654846233E+02  0.14080103314E+03  0.12508866039E+03 0.  0.
          5    1    3    3  502    0  0.34185762561E+02  0.35744923682E+02 -0.20825917993E+02  0.53828962383E+02  0.41800000000E+01 0.  1.
         -5    1    3    3    0  502 -0.70022723590E+02 -0.39569538076E+02 -0.32828928240E+02  0.86972070757E+02  0.41800000000E+01 0.  1.
        -11    1    1    2    0    0  0.44244572024E+02 -0.34928401761E+02 -0.31096772599E+02  0.64378448795E+02  0.00000000000E+00 0.  1.
         11    1    1    2    0    0 -0.84076109955E+01  0.38753016155E+02 -0.41904358780E+02  0.57692802571E+02  0.00000000000E+00 0. -1.
</event>
<event>
 7    1  0.2714042E-009  0.1996396E+03  0.7561462E-02  0.1150043E+00
         -2   -1    0    0    0  501 -0.00000000000E+00  0.00000000000E+00  0.92920386891E+02  0.92920386891E+02  0.00000000000E+00 0.  1.
          2   -1    0    0  501    0  0.00000000000E+00 -0.00000000000E+00 -0.52263486297E+03  0.52263486297E+03  0.00000000000E+00 0. -1.
         25    2    1    2    0    0 -0.17780897053E+03 -0.71798021461E+02 -0.22243958884E+03  0.31921516088E+03  0.12509181575E+03 0.  0.
          5    1    3    3  502    0 -0.14454704900E+03 -0.55681241453E+02 -0.23365173125E+03  0.28036557196E+03  0.41800000000E+01 0.  1.
         -5    1    3    3    0  502 -0.33261921527E+02 -0.16116780008E+02  0.11212142414E+02  0.38849588917E+02  0.41800000000E+01 0.  1.
        -11    1    1    2    0    0  0.11877322053E+03  0.62880538869E+01 -0.87760617789E+02  0.14781252847E+03  0.00000000000E+00 0.  1.
         11    1    1    2    0    0  0.59035749997E+02  0.65509967574E+02 -0.11951426945E+03  0.14852756051E+03  0.00000000000E+00 0. -1.
</event>
<event>
 7    1  0.2714042E-009  0.1896248E+03  0.7561462E-02  0.1158800E+00
          2   -1    0    0  501    0  0.00000000000E+00  0.00000000000E+00  0.35620506250E+03  0.35620506250E+03  0.00000000000E+00 0. -1.
         -2   -1    0    0    0  501 -0.00000000000E+00 -0.00000000000E+00 -0.18568874941E+03  0.18568874941E+03  0.00000000000E+00 0.  1.
         25    2    1    2    0    0 -0.16291341106E+03  0.65695224578E+01 -0.87640534400E+02  0.22340981578E+03  0.12508854619E+03 0.  0.
          5    1    3    3  502    0 -0.21603816051E+02  0.44089572639E+02 -0.54429585794E+02  0.73421165158E+02  0.41800000000E+01 0. -1.
         -5    1    3    3    0  502 -0.14130959501E+03 -0.37520050182E+02 -0.33210948606E+02  0.14998865062E+03  0.41800000000E+01 0. -1.
        -11    1    1    2    0    0  0.35859289353E+02 -0.38592476309E+02  0.50706252605E+02  0.73119025662E+02  0.00000000000E+00 0.  1.
         11    1    1    2    0    0  0.12705412171E+03  0.32022953851E+02  0.20745059488E+03  0.24536497047E+03  0.00000000000E+00 0. -1.
</event>
<event>
 7    1  0.2714042E-009  0.9817166E+02  0.7561462E-02  0.1284188E+00
          2   -1    0    0  501    0  0.00000000000E+00  0.00000000000E+00  0.21029458515E+03  0.21029458515E+03  0.00000000000E+00 0. -1.
         -2   -1    0    0    0  501 -0.00000000000E+00 -0.00000000000E+00 -0.60788792114E+02  0.60788792114E+02  0.00000000000E+00 0.  1.
         25    2    1    2    0    0 -0.14368499065E+02 -0.17738578261E+02  0.11403541235E+03  0.17079927474E+03  0.12508879269E+03 0.  0.
          5    1    3    3  502    0  0.12938367519E+02  0.50577671150E+02  0.36535577683E+02  0.63857834364E+02  0.41800000000E+01 0.  1.
         -5    1    3    3    0  502 -0.27306866584E+02 -0.68316249411E+02  0.77499834666E+02  0.10694144037E+03  0.41800000000E+01 0.  1.
        -11    1    1    2    0    0  0.41080983340E+02  0.13439682893E+02 -0.12686739683E+02  0.45046927001E+02  0.00000000000E+00 0.  1.
         11    1    1    2    0    0 -0.26712484275E+02  0.42988953676E+01  0.48157120370E+02  0.55237175524E+02  0.00000000000E+00 0. -1.
</event>
<event>
 7    1  0.2714042E-009  0.1517541E+03  0.7561462E-02  0.1198334E+00
          1   -1    0    0  501    0  0.00000000000E+00  0.00000000000E+00  0.66916271026E+02  0.66916271026E+02  0.00000000000E+00 0. -1.
         -1   -1    0    0    0  501 -0.00000000000E+00 -0.00000000000E+00 -0.42017365358E+03  0.42017365358E+03  0.00000000000E+00 0.  1.
         25    2    1    2    0    0 -0.26176112506E+02 -0.11367703129E+03 -0.26329333768E+03  0.31396879666E+03  0.12508144267E+03 0.  0.
          5    1    3    3  502    0 -0.56972212422E+01 -0.13172574946E+03 -0.16166678789E+03  0.20865702506E+03  0.41800000000E+01 0. -1.
         -5    1    3    3    0  502 -0.20478891264E+02  0.18048718168E+02 -0.10162654980E+03  0.10531177160E+03  0.41800000000E+01 0. -1.
        -11    1    1    2    0    0 -0.53165152175E+01 -0.12683053531E+02 -0.22723036902E+02  0.26560526858E+02  0.00000000000E+00 0.  1.
         11    1    1    2    0    0  0.31492627724E+02  0.12636008482E+03 -0.67241007968E+02  0.14656060108E+03  0.00000000000E+00 0. -1.
</event>
<event>
 7    1  0.2714042E-009  0.1234971E+03  0.7561462E-02  0.1237437E+00
          2   -1    0    0  501    0  0.00000000000E+00  0.00000000000E+00  0.37627007254E+03  0.37627007254E+03  0.00000000000E+00 0. -1.
         -2   -1    0    0    0  501 -0.00000000000E+00 -0.00000000000E+00 -0.45608308015E+02  0.45608308015E+02  0.00000000000E+00 0.  1.
         25    2    1    2    0    0  0.54358717656E+02 -0.49712868779E+02  0.20629900760E+03  0.25225490316E+03  0.12508803350E+03 0.  0.
          5    1    3    3  502    0  0.91108352162E+02 -0.47551966399E+02  0.11822429984E+03  0.15670475045E+03  0.41800000000E+01 0.  1.
         -5    1    3    3    0  502 -0.36749634506E+02 -0.21609023796E+01  0.88074707761E+02  0.95550152709E+02  0.41800000000E+01 0.  1.
        -11    1    1    2    0    0 -0.53297992706E+02  0.69326452118E+02  0.12161497194E+03  0.14978996759E+03  0.00000000000E+00 0. -1.
         11    1    1    2    0    0 -0.10607249502E+01 -0.19613583340E+02  0.27477849818E+01  0.19833509804E+02  0.00000000000E+00 0.  1.
</event>
<event>
 7    1  0.2714042E-009  0.1192217E+03  0.7561462E-02  0.1244387E+00
         -1   -1    0    0    0  501 -0.00000000000E+00  0.00000000000E+00  0.13584302846E+03  0.13584302846E+03  0.00000000000E+00 0.  1.
          1   -1    0    0  501    0  0.00000000000E+00 -0.00000000000E+00 -0.17792296788E+03  0.17792296788E+03  0.00000000000E+00 0. -1.
         25    2    1    2    0    0 -0.46836490810E+02  0.83656201333E+02 -0.77747673006E+02  0.17573892423E+03  0.12508977551E+03 0.  0.
          5    1    3    3  502    0  0.32536001005E+02  0.10707995317E+02 -0.55857774106E+02  0.65656803556E+02  0.41800000000E+01 0.  1.
         -5    1    3    3    0  502 -0.79372491815E+02  0.72948206015E+02 -0.21889898901E+02  0.11008212067E+03  0.41800000000E+01 0.  1.
        -11    1    1    2    0    0  0.33732001500E+02 -0.54621314030E+02 -0.25487960289E+02  0.69072223008E+02  0.00000000000E+00 0. -1.
         11    1    1    2    0    0  0.13104489309E+02 -0.29034887303E+02  0.61155693874E+02  0.68954849096E+02  0.00000000000E+00 0.  1.
</event>
<event>
 7    1  0.2714042E-009  0.9924920E+02  0.7561462E-02  0.1281883E+00
          1   -1    0    0  501    0  0.00000000000E+00  0.00000000000E+00  0.79836683654E+02  0.79836683654E+02  0.00000000000E+00 0. -1.
         -1   -1    0    0    0  501 -0.00000000000E+00 -0.00000000000E+00 -0.27825041035E+03  0.27825041035E+03  0.00000000000E+00 0.  1.
         25    2    1    2    0    0  0.11053281360E+02  0.29249334299E+02 -0.22454048616E+03  0.25893021992E+03  0.12509488510E+03 0.  0.
          5    1    3    3  502    0 -0.43485053702E+02  0.37273123339E+02 -0.51021650188E+02  0.76817425151E+02  0.41800000000E+01 0.  1.
         -5    1    3    3    0  502  0.54538335062E+02 -0.80237890397E+01 -0.17351883597E+03  0.18211279477E+03  0.41800000000E+01 0.  1.
        -11    1    1    2    0    0 -0.30349830134E+02 -0.49343400458E+02 -0.40689399176E+01  0.58072709856E+02  0.00000000000E+00 0.  1.
         11    1    1    2    0    0  0.19296548774E+02  0.20094066159E+02  0.30195699380E+02  0.41084164229E+02  0.00000000000E+00 0. -1.
</event>
<event>
 7    1  0.2714042E-009  0.1011211E+03  0.7561462E-02  0.1277956E+00
          2   -1    0    0  501    0  0.00000000000E+00  0.00000000000E+00  0.51230634844E+03  0.51230634844E+03  0.00000000000E+00 0. -1.
         -2   -1    0    0    0  501 -0.00000000000E+00 -0.00000000000E+00 -0.27360383894E+02  0.27360383894E+02  0.00000000000E+00 0.  1.
         25    2    1    2    0    0 -0.77938571253E+01  0.45219706711E+02  0.29028449692E+03  0.31940108983E+03  0.12508557452E+03 0.  0.
          5    1    3    3  502    0 -0.47321301676E+02  0.55596642036E+02  0.95236336401E+02  0.12007382883E+03  0.41800000000E+01 0.  1.
         -5    1    3    3    0  502  0.39527444551E+02 -0.10376935325E+02  0.19504816052E+03  0.19932726101E+03  0.41800000000E+01 0.  1.
        -11    1    1    2    0    0 -0.26725760069E+02  0.49052461712E+01  0.12429504104E+03  0.12723044022E+03  0.00000000000E+00 0. -1.
         11    1    1    2    0    0  0.34519617194E+02 -0.50124952882E+02  0.70366426586E+02  0.93035202280E+02  0.00000000000E+00 0.  1.
</event>
<event>
 7    1  0.2714042E-009  0.1335295E+03  0.7561462E-02  0.1222311E+00
          2   -1    0    0  501    0  0.00000000000E+00  0.00000000000E+00  0.19923632671E+03  0.19923632671E+03  0.00000000000E+00 0. -1.
         -2   -1    0    0    0  501 -0.00000000000E+00 -0.00000000000E+00 -0.12632764925E+03  0.12632764925E+03  0.00000000000E+00 0.  1.
         25    2    1    2    0    0 -0.11269304270E+03 -0.23838352126E+01  0.15364833617E+02  0.16908468021E+03  0.12509255145E+03 0.  0.
          5    1    3    3  502    0 -0.36437560692E+02  0.24801849036E+02 -0.48658355481E+02  0.65787046620E+02  0.41800000000E+01 0.  1.
         -5    1    3    3    0  502 -0.76255482006E+02 -0.27185684248E+02  0.64023189099E+02  0.10329763360E+03  0.41800000000E+01 0.  1.
        -11    1    1    2    0    0  0.99073005486E+02 -0.32502664470E+02  0.25868561347E+02  0.10742935390E+03  0.00000000000E+00 0.  1.
         11    1    1    2    0    0  0.13620037212E+02  0.34886499683E+02  0.31675282499E+02  0.49049941847E+02  0.00000000000E+00 0. -1.
</event>
<event>
 7    1  0.2714042E-009  0.4346715E+03  0.7561462E-02  0.1032394E+00
         -1   -1    0    0    0  501 -0.00000000000E+00  0.00000000000E+00  0.13052144156E+03  0.13052144156E+03  0.00000000000E+00 0.  1.
          1   -1    0    0  501    0  0.00000000000E+00 -0.00000000000E+00 -0.15286167412E+04  0.15286167412E+04  0.00000000000E+00 0. -1.
         25    2    1    2    0    0  0.31667573124E+03 -0.28840511496E+03 -0.58658873546E+03  0.73701782823E+03  0.12509158837E+03 0.  0.
          5    1    3    3  502    0  0.26557981291E+03 -0.26477207916E+03 -0.43005097724E+03  0.57061213302E+03  0.41800000000E+01 0. -1.
         -5    1    3    3    0  502  0.51095918330E+02 -0.23633035797E+02 -0.15653775822E+03  0.16640569521E+03  0.41800000000E+01 0. -1.
        -11    1    1    2    0    0 -0.22808804683E+03  0.14820367895E+03 -0.49699732662E+03  0.56656405660E+03  0.00000000000E+00 0. -1.
         11    1    1    2    0    0 -0.88587684411E+02  0.14020143601E+03 -0.31450923755E+03  0.35555629793E+03  0.00000000000E+00 0.  1.
</event>
<event>
 7    1  0.2714042E-009  0.1141063E+03  0.7561462E-02  0.1253149E+00
          3   -1    0    0  501    0  0.00000000000E+00  0.00000000000E+00  0.19060091448E+03  0.19060091448E+03  0.00000000000E+00 0. -1.
         -3   -1    0    0    0  501 -0.00000000000E+00 -0.00000000000E+00 -0.79529427907E+02  0.79529427907E+02  0.00000000000E+00 0.  1.
         25    2    1    2    0    0  0.14311333445E+02  0.51387131900E+02  0.90909940779E+02  0.16357849081E+03  0.12509138153E+03 0.  0.
          5    1    3    3  502    0 -0.28414880552E+02  0.79460511573E+02  0.60876990660E+02  0.10413865146E+03  0.41800000000E+01 0.  1.
         -5    1    3    3    0  502  0.42726213997E+02 -0.28073379673E+02  0.30032950119E+02  0.59439839347E+02  0.41800000000E+01 0.  1.
        -11    1    1    2    0    0 -0.12277400676E+02 -0.71330649971E+02  0.36154547068E+02  0.80907029771E+02  0.00000000000E+00 0. -1.
         11    1    1    2    0    0 -0.20339327693E+01  0.19943518071E+02 -0.15993001278E+02  0.25644821805E+02  0.00000000000E+00 0.  1.
</event>
<event>
 7    1  0.2714042E-009  0.9134107E+02  0.7561462E-02  0.1299636E+00
         -1   -1    0    0    0  501 -0.00000000000E+00  0.00000000000E+00  0.50154078487E+02  0.50154078487E+02  0.00000000000E+00 0.  1.
          1   -1    0    0  501    0  0.00000000000E+00 -0.00000000000E+00 -0.30839663252E+03  0.30839663252E+03  0.00000000000E+00 0. -1.
         25    2    1    2    0    0 -0.24014492506E+02  0.55517157769E+02 -0.13042987162E+03  0.19057379815E+03  0.12509024931E+03 0.  0.
          5    1    3    3  502    0 -0.49318796880E+02  0.66109957321E+01 -0.12557320546E+03  0.13513752743E+03  0.41800000000E+01 0.  1.
         -5    1    3    3    0  502  0.25304304374E+02  0.48906162037E+02 -0.48566661615E+01  0.55436270719E+02  0.41800000000E+01 0.  1.
        -11    1    1    2    0    0 -0.11535861033E+02  0.75595089356E-01  0.99444490262E+01  0.15230688456E+02  0.00000000000E+00 0.  1.
         11    1    1    2    0    0  0.35550353539E+02 -0.55592752859E+02 -0.13775713143E+03  0.15274622440E+03  0.00000000000E+00 0. -1.
</event>
<event>
 7    1  0.2714042E-009  0.9093849E+02  0.7561462E-02  0.1300595E+00
          2   -1    0    0  501    0  0.00000000000E+00  0.00000000000E+00  0.20693752119E+03  0.20693752119E+03  0.00000000000E+00 0. -1.
         -2   -1    0    0    0  501 -0.00000000000E+00 -0.00000000000E+00 -0.10752880953E+03  0.10752880953E+03  0.00000000000E+00 0.  1.
         25    2    1    2    0    0  0.70867317599E+02 -0.21725914660E+02 -0.28492718193E+02  0.14816866740E+03  0.12509167413E+03 0.  0.
          5    1    3    3  502    0  0.39474006564E+02 -0.18406439604E+02 -0.77924251874E+02  0.89368090744E+02  0.41800000000E+01 0. -1.
         -5    1    3    3    0  502  0.31393311035E+02 -0.33194750560E+01  0.49431533682E+02  0.58800576651E+02  0.41800000000E+01 0. -1.
        -11    1    1    2    0    0 -0.20882565625E+02  0.46143275176E+02  0.60165441222E+02  0.78645811767E+02  0.00000000000E+00 0.  1.
         11    1    1    2    0    0 -0.49984751974E+02 -0.24417360516E+02  0.67735988634E+02  0.87651851553E+02  0.00000000000E+00 0. -1.
</event>
<event>
 7    1  0.3601239E-009  0.9492451E+02  0.7561462E-02  0.1291346E+00
         -1   -1    0    0    0  501 -0.00000000000E+00  0.00000000000E+00  0.88055433584E+01  0.88055433584E+01  0.00000000000E+00 0. -1.
          1   -1    0    0  501    0  0.00000000000E+00 -0.00000000000E+00 -0.21195391653E+04  0.21195391653E+04  0.00000000000E+00 0.  1.
         25    2    1    2    0    0 -0.28338784217E+01  0.56800929542E+01 -0.17988805986E+04  0.18032358425E+04  0.12509117111E+03 0.  0.
          5    1    3    3  502    0  0.35981578860E+02 -0.29004107437E+02 -0.31137681740E+03  0.31481567159E+03  0.41800000000E+01 0. -1.
         -5    1    3    3    0  502 -0.38815457282E+02  0.34684200391E+02 -0.14875037812E+04  0.14884201709E+04  0.41800000000E+01 0. -1.
        -11    1    1    2    0    0  0.37184485813E+02  0.25292084048E+02 -0.13424039465E+03  0.14157280479E+03  0.00000000000E+00 0. -1.
         11    1    1    2    0    0 -0.34350607391E+02 -0.30972177002E+02 -0.17761262869E+03  0.18353606143E+03  0.00000000000E+00 0.  1.
</event>
<event>
 7    1  0.2714042E-009  0.1189702E+03  0.7561462E-02  0.1244806E+00
         -3   -1    0    0    0  501 -0.00000000000E+00  0.00000000000E+00  0.43983360336E+03  0.43983360336E+03  0.00000000000E+00 0.  1.
          3   -1    0    0  501    0  0.00000000000E+00 -0.00000000000E+00 -0.38805919110E+02  0.38805919110E+02  0.00000000000E+00 0. -1.
         25    2    1    2    0    0  0.52585102609E+02  0.13492304729E+02  0.28252564231E+03  0.31371824405E+03  0.12510460735E+03 0.  0.
          5    1    3    3  502    0 -0.33690710457E+02 -0.73446055485E+01  0.29590054700E+02  0.45629496369E+02  0.41800000000E+01 0.  1.
         -5    1    3    3    0  502  0.86275813066E+02  0.20836910277E+02  0.25293558761E+03  0.26808874768E+03  0.41800000000E+01 0.  1.
        -11    1    1    2    0    0  0.65386996091E+01 -0.46283310378E+02  0.54832721337E+02  0.72052250079E+02  0.00000000000E+00 0. -1.
         11    1    1    2    0    0 -0.59123802218E+02  0.32791005650E+02  0.63669320602E+02  0.92869028347E+02  0.00000000000E+00 0.  1.
</event>
<event>
 7    1  0.2714042E-009  0.1648606E+03  0.7561462E-02  0.1183316E+00
         -1   -1    0    0    0  501 -0.00000000000E+00  0.00000000000E+00  0.51970549960E+02  0.51970549960E+02  0.00000000000E+00 0.  1.
          1   -1    0    0  501    0  0.00000000000E+00 -0.00000000000E+00 -0.82593552727E+03  0.82593552727E+03  0.00000000000E+00 0. -1.
         25    2    1    2    0    0  0.86020320156E+02 -0.11316793826E+03 -0.18404703666E+03  0.26406119785E+03  0.12509407172E+03 0.  0.
          5    1    3    3  502    0  0.10025985875E+03 -0.12978292659E+03 -0.17540321393E+03  0.24016537462E+03  0.41800000000E+01 0. -1.
         -5    1    3    3    0  502 -0.14239538591E+02  0.16614988330E+02 -0.86438227284E+01  0.23895823231E+02  0.41800000000E+01 0. -1.
        -11    1    1    2    0    0 -0.36592466661E+02  0.33359128427E+02 -0.71350512435E+02  0.86848924521E+02  0.00000000000E+00 0.  1.
         11    1    1    2    0    0 -0.49427853495E+02  0.79808809833E+02 -0.51856742821E+03  0.52699595485E+03  0.00000000000E+00 0. -1.
</event>
<event>
 7    1  0.2714042E-009  0.1759339E+03  0.7561462E-02  0.1171797E+00
          1   -1    0    0  501    0  0.00000000000E+00  0.00000000000E+00  0.31500093162E+03  0.31500093162E+03  0.00000000000E+00 0. -1.
         -1   -1    0    0    0  501 -0.00000000000E+00 -0.00000000000E+00 -0.10631129181E+03  0.10631129181E+03  0.00000000000E+00 0.  1.
         25    2    1    2    0    0 -0.14482739114E+03  0.20849553804E+02  0.12404164432E+03  0.22901249013E+03  0.12510281368E+03 0.  0.
          5    1    3    3  502    0 -0.56842728686E+02 -0.42172342268E+02  0.91829788005E+02  0.11601631188E+03  0.41800000000E+01 0. -1.
         -5    1    3    3    0  502 -0.87984662459E+02  0.63021896072E+02  0.32211856313E+02  0.11299617825E+03  0.41800000000E+01 0. -1.
        -11    1    1    2    0    0  0.90742759531E+02  0.32789851035E+02  0.46347733070E+02  0.10703987621E+03  0.00000000000E+00 0.  1.
         11    1    1    2    0    0  0.54084631614E+02 -0.53639404839E+02  0.38300262424E+02  0.85259857084E+02  0.00000000000E+00 0. -1.
</event>
<event>
 7    1  0.2714042E-009  0.1181164E+03  0.7561462E-02  0.1246237E+00
         -2   -1    0    0    0  501 -0.00000000000E+00  0.00000000000E+00  0.20943709493E+03  0.20943709493E+03  0.00000000000E+00 0.  1.
          2   -1    0    0  501    0  0.00000000000E+00 -0.00000000000E+00 -0.78571032766E+02  0.78571032766E+02  0.00000000000E+00 0. -1.
         25    2    1    2    0    0  0.50358234833E+02 -0.86009997496E+01  0.23237563017E+02  0.13709859003E+03  0.12508441166E+03 0.  0.
          5    1    3    3  502    0  0.65268642547E+02  0.44773678505E+02  0.17988178960E+02  0.81275611158E+02  0.41800000000E+01 0.  1.
         -5    1    3    3    0  502 -0.14910407715E+02 -0.53374678255E+02  0.52493840566E+01  0.55822978870E+02  0.41800000000E+01 0.  1.
        -11    1    1    2    0    0  0.36900462763E+01  0.39142787468E+02  0.63708797746E+02  0.74863777373E+02  0.00000000000E+00 0.  1.
         11    1    1    2    0    0 -0.54048281109E+02 -0.30541787719E+02  0.43919701406E+02  0.76045760299E+02  0.00000000000E+00 0. -1.
</event>
<event>
 7    1  0.2714042E-009  0.9500211E+02  0.7561462E-02  0.1291171E+00
          2   -1    0    0  501    0  0.00000000000E+00  0.00000000000E+00  0.43909084399E+03  0.43909084399E+03  0.00000000000E+00 0. -1.
         -2   -1    0    0    0  501 -0.00000000000E+00 -0.00000000000E+00 -0.39709531001E+02  0.39709531001E+02  0.00000000000E+00 0.  1.
         25    2    1    2    0    0  0.71351495929E+02 -0.12085428292E+01  0.28802796574E+03  0.32202341592E+03  0.12508586973E+03 0.  0.
          5    1    3    3  502    0  0.79924154133E+02 -0.53169578061E+01  0.29740512316E+03  0.30803152458E+03  0.41800000000E+01 0. -1.
         -5    1    3    3    0  502 -0.85726582038E+01  0.41084149768E+01 -0.93771574136E+01  0.13991891347E+02  0.41800000000E+01 0. -1.
        -11    1    1    2    0    0 -0.69169933075E+02 -0.24671302295E+02  0.46513499694E+02  0.86929042628E+02  0.00000000000E+00 0.  1.
         11    1    1    2    0    0 -0.21815628549E+01  0.25879845124E+02  0.64839847552E+02  0.69847916437E+02  0.00000000000E+00 0. -1.
</event>
<event>
 7    1  0.2714042E-009  0.8824103E+02  0.7561462E-02  0.1307168E+00
         -1   -1    0    0    0  501 -0.00000000000E+00  0.00000000000E+00  0.30908048194E+03  0.30908048194E+03  0.00000000000E+00 0.  1.
          1   -1    0    0  501    0  0.00000000000E+00 -0.00000000000E+00 -0.43503438572E+02  0.43503438572E+02  0.00000000000E+00 0. -1.
         25    2    1    2    0    0 -0.32647504014E+01  0.35270118872E+02  0.12543372578E+03  0.18065215819E+03  0.12508774046E+03 0.  0.
          5    1    3    3  502    0  0.46579761249E+02  0.86706277621E+01  0.11306946297E+03  0.12266633523E+03  0.41800000000E+01 0. -1.
         -5    1    3    3    0  502 -0.49844511650E+02  0.26599491110E+02  0.12364262816E+02  0.57985822956E+02  0.41800000000E+01 0. -1.
        -11    1    1    2    0    0 -0.17417170996E+02  0.11674125160E+02 -0.17594986136E+01  0.21041361152E+02  0.00000000000E+00 0. -1.
         11    1    1    2    0    0  0.20681921397E+02 -0.46944244032E+02  0.14190281620E+03  0.15089040117E+03  0.00000000000E+00 0.  1.
</event>
<event>
 7    1  0.2714042E-009  0.1092878E+03  0.7561462E-02  0.1261895E+00
          1   -1    0    0  501    0  0.00000000000E+00  0.00000000000E+00  0.39935911438E+03  0.39935911438E+03  0.00000000000E+00 0. -1.
         -1   -1    0    0    0  501 -0.00000000000E+00 -0.00000000000E+00 -0.52437293591E+02  0.52437293591E+02  0.00000000000E+00 0.  1.
         25    2    1    2    0    0 -0.92531647571E+02  0.10824515300E+02  0.22414286151E+03  0.27306974077E+03  0.12509110691E+03 0.  0.
          5    1    3    3  502    0 -0.39685367517E+02 -0.78449845940E+01  0.21161520252E+03  0.21548767602E+03  0.41800000000E+01 0. -1.
         -5    1    3    3    0  502 -0.52846280054E+02  0.18669499894E+02  0.12527658992E+02  0.57582064757E+02  0.41800000000E+01 0. -1.
        -11    1    1    2    0    0  0.11373773822E+02 -0.35177996486E+02  0.11217928833E+02  0.38635425390E+02  0.00000000000E+00 0.  1.
         11    1    1    2    0    0  0.81157873749E+02  0.24353481186E+02  0.11156103045E+03  0.14009124181E+03  0.00000000000E+00 0. -1.
</event>
<event>
 7    1  0.2714042E-009  0.1437936E+03  0.7561462E-02  0.1208314E+00
          2   -1    0    0  501    0  0.00000000000E+00  0.00000000000E+00  0.48666617982E+02  0.48666617982E+02  0.00000000000E+00 0.  1.
         -2   -1    0    0    0  501 -0.00000000000E+00 -0.00000000000E+00 -0.95446152593E+03  0.95446152593E+03  0.00000000000E+00 0. -1.
         25    2    1    2    0    0  0.10362108706E+03 -0.32365123229E+02 -0.82380277046E+03  0.84028768492E+03  0.12509019914E+03 0.  0.
          5    1    3    3  502    0  0.93048499549E+02 -0.69012295848E+02 -0.45660260315E+03  0.47108823998E+03  0.41800000000E+01 0. -1.
         -5    1    3    3    0  502  0.10572587506E+02  0.36647172619E+02 -0.36720016731E+03  0.36919944493E+03  0.41800000000E+01 0. -1.
        -11    1    1    2    0    0 -0.17568966328E+02  0.43130009020E+02 -0.54883081264E+02  0.71979294696E+02  0.00000000000E+00 0. -1.
         11    1    1    2    0    0 -0.86052120727E+02 -0.10764885791E+02 -0.27109056219E+02  0.90861164294E+02  0.00000000000E+00 0.  1.
</event>
<event>
 7    1  0.2714042E-009  0.9985564E+02  0.7561462E-02  0.1280600E+00
         -2   -1    0    0    0  501 -0.00000000000E+00  0.00000000000E+00  0.24136377409E+03  0.24136377409E+03  0.00000000000E+00 0.  1.
          2   -1    0    0  501    0  0.00000000000E+00 -0.00000000000E+00 -0.55556006988E+02  0.55556006988E+02  0.00000000000E+00 0. -1.
         25    2    1    2    0    0  0.25840534078E+01 -0.20061295532E+02  0.15906812873E+03  0.20336812607E+03  0.12508713848E+03 0.  0.
          5    1    3    3  502    0 -0.53827726590E+02  0.12557025400E+02  0.42848172301E+02  0.70060982768E+02  0.41800000000E+01 0.  1.
         -5    1    3    3    0  502  0.56411779998E+02 -0.32618320933E+02  0.11621995643E+03  0.13330714330E+03  0.41800000000E+01 0.  1.
        -11    1    1    2    0    0  0.81397853600E+01  0.48193718280E+02  0.37473303484E+02  0.61588465327E+02  0.00000000000E+00 0.  1.
         11    1    1    2    0    0 -0.10723838768E+02 -0.28132422748E+02 -0.10733665116E+02  0.31963189678E+02  0.00000000000E+00 0. -1.
</event>
<event>
 7    1  0.2714042E-009  0.6522804E+02  0.7561462E-02  0.1377116E+00
         -3   -1    0    0    0  501 -0.00000000000E+00  0.00000000000E+00  0.32085212991E+02  0.32085212991E+02  0.00000000000E+00 0.  1.
          3   -1    0    0  501    0  0.00000000000E+00 -0.00000000000E+00 -0.43728313309E+03  0.43728313309E+03  0.00000000000E+00 0. -1.
         25    2    1    2    0    0 -0.21927652701E+02 -0.38479606457E+02 -0.20395480674E+03  0.24331653170E+03  0.12507545460E+03 0.  0.
          5    1    3    3  502    0 -0.15318671304E+02  0.56239508952E+00  0.14350339215E+02  0.21409871890E+02  0.41800000000E+01 0. -1.
         -5    1    3    3    0  502 -0.66089813967E+01 -0.39042001546E+02 -0.21830514595E+03  0.22190665981E+03  0.41800000000E+01 0. -1.
        -11    1    1    2    0    0 -0.20961707572E+02  0.96833130190E+01 -0.56772989374E+01  0.23777961615E+02  0.00000000000E+00 0.  1.
         11    1    1    2    0    0  0.42889360273E+02  0.28796293438E+02 -0.19556581442E+03  0.20227385276E+03  0.00000000000E+00 0. -1.
</event>
<event>
 7    1  0.2714042E-009  0.7791735E+02  0.7561462E-02  0.1335068E+00
          2   -1    0    0  501    0  0.00000000000E+00  0.00000000000E+00  0.23401356412E+03  0.23401356412E+03  0.00000000000E+00 0.  1.
         -2   -1    0    0    0  501 -0.00000000000E+00 -0.00000000000E+00 -0.74084181428E+02  0.74084181428E+02  0.00000000000E+00 0. -1.
         25    2    1    2    0    0  0.35011308584E+02  0.60191888923E+02  0.57907537877E+02  0.15443487416E+03  0.12509193496E+03 0.  0.
          5    1    3    3  502    0 -0.81611189177E+01  0.33970192227E+02  0.88496777138E+02  0.95235128948E+02  0.41800000000E+01 0. -1.
         -5    1    3    3    0  502  0.43172427501E+02  0.26221696696E+02 -0.30589239261E+02  0.59199745207E+02  0.41800000000E+01 0. -1.
        -11    1    1    2    0    0 -0.21069918624E+02 -0.29471803000E+02  0.11261837119E+03  0.11830226614E+03  0.00000000000E+00 0.  1.
         11    1    1    2    0    0 -0.13941389960E+02 -0.30720085923E+02 -0.10596526374E+02  0.35360605260E+02  0.00000000000E+00 0. -1.
</event>
<event>
 7    1  0.2714042E-009  0.9252627E+02  0.7561462E-02  0.1296847E+00
         -4   -1    0    0    0  501 -0.00000000000E+00  0.00000000000E+00  0.42081044134E+03  0.42081044134E+03  0.00000000000E+00 0.  1.
          4   -1    0    0  501    0  0.00000000000E+00 -0.00000000000E+00 -0.36794479479E+02  0.36794479479E+02  0.00000000000E+00 0. -1.
         25    2    1    2    0    0  0.55807381948E+02  0.21543986081E+02  0.23242811605E+03  0.27064431344E+03  0.12508760149E+03 0.  0.
          5    1    3    3  502    0  0.48592733645E+02  0.40909258813E+02  0.23995631058E+03  0.24825657012E+03  0.41800000000E+01 0. -1.
         -5    1    3    3    0  502  0.72146483029E+01 -0.19365272732E+02 -0.75281945253E+01  0.22387743319E+02  0.41800000000E+01 0. -1.
        -11    1    1    2    0    0 -0.17078884130E+02 -0.49619464905E+02  0.11607090379E+03  0.12738223693E+03  0.00000000000E+00 0.  1.
         11    1    1    2    0    0 -0.38728497818E+02  0.28075478824E+02  0.35516942017E+02  0.59578370443E+02  0.00000000000E+00 0. -1.
</event>
<event>
 7    1  0.2714042E-009  0.1078170E+03  0.7561462E-02  0.1264667E+00
         -2   -1    0    0    0  501 -0.00000000000E+00  0.00000000000E+00  0.16836081278E+03  0.16836081278E+03  0.00000000000E+00 0.  1.
          2   -1    0    0  501    0  0.00000000000E+00 -0.00000000000E+00 -0.14945863041E+03  0.14945863041E+03  0.00000000000E+00 0. -1.
         25    2    1    2    0    0 -0.37865553051E+02  0.41515385683E+02 -0.90188497549E+02  0.16413088348E+03  0.12509058503E+03 0.  0.
          5    1    3    3  502    0  0.30697298153E+02 -0.12231945238E+02  0.64789120381E+01  0.33932186776E+02  0.41800000000E+01 0.  1.
         -5    1    3    3    0  502 -0.68562851203E+02  0.53747330921E+02 -0.96667409587E+02  0.13019869670E+03  0.41800000000E+01 0.  1.
        -11    1    1    2    0    0 -0.21866000319E+02 -0.24837269151E+02  0.77113147569E+02  0.83913344808E+02  0.00000000000E+00 0.  1.
         11    1    1    2    0    0  0.59731553369E+02 -0.16678116532E+02  0.31977532355E+02  0.69775214901E+02  0.00000000000E+00 0. -1.
</event>
<event>
 7    1  0.2714042E-009  0.1783289E+03  0.7561462E-02  0.1169430E+00
         -3   -1    0    0    0  501 -0.00000000000E+00  0.00000000000E+00  0.82337392176E+03  0.82337392176E+03  0.00000000000E+00 0.  1.
          3   -1    0    0  501    0  0.00000000000E+00 -0.00000000000E+00 -0.55180054012E+02  0.55180054012E+02  0.00000000000E+00 0. -1.
         25    2    1    2    0    0  0.44420178256E+02 -0.14381750320E+03  0.60582553601E+03  0.63665466722E+03  0.12509180130E+03 0.  0.
          5    1    3    3  502    0  0.41312339689E+01  0.17473835346E+02  0.18028505518E+02  0.25785682597E+02  0.41800000000E+01 0. -1.
         -5    1    3    3    0  502  0.40288944287E+02 -0.16129133854E+03  0.58779703049E+03  0.61086898463E+03  0.41800000000E+01 0. -1.
        -11    1    1    2    0    0 -0.55535700442E+02  0.42331387678E+02  0.33381346171E+02  0.77398156816E+02  0.00000000000E+00 0.  1.
         11    1    1    2    0    0  0.11115522186E+02  0.10148611552E+03  0.12898698557E+03  0.16450115174E+03  0.00000000000E+00 0. -1.
</event>
<event>
 7    1  0.2714042E-009  0.9369015E+02  0.7561462E-02  0.1294154E+00
         -1   -1    0    0    0  501 -0.00000000000E+00  0.00000000000E+00  0.21480410452E+02  0.21480410452E+02  0.00000000000E+00 0.  1.
          1   -1    0    0  501    0  0.00000000000E+00 -0.00000000000E+00 -0.68175132511E+03  0.68175132511E+03  0.00000000000E+00 0. -1.
         25    2    1    2    0    0 -0.24945371740E+02  0.43460675266E+02 -0.42908510571E+03  0.44974737745E+03  0.12509026228E+03 0.  0.
          5    1    3    3  502    0 -0.32186157471E+02 -0.93159665669E+01 -0.24673602223E+02  0.41820987703E+02  0.41800000000E+01 0.  1.
         -5    1    3    3    0  502  0.72407857304E+01  0.52776641833E+02 -0.40441150349E+03  0.40792638975E+03  0.41800000000E+01 0.  1.
        -11    1    1    2    0    0  0.20708255843E+02 -0.70156315645E+02 -0.19536077595E+03  0.20860626372E+03  0.00000000000E+00 0. -1.
         11    1    1    2    0    0  0.42371158971E+01  0.26695640380E+02 -0.35825033001E+02  0.44878094388E+02  0.00000000000E+00 0.  1.
</event>
<event>
 7    1  0.2714042E-009  0.9672695E+02  0.7561462E-02  0.1287333E+00
         -2   -1    0    0    0  501 -0.00000000000E+00  0.00000000000E+00  0.14055994601E+03  0.14055994601E+03  0.00000000000E+00 0.  1.
          2   -1    0    0  501    0  0.00000000000E+00 -0.00000000000E+00 -0.16546909504E+03  0.16546909504E+03  0.00000000000E+00 0. -1.
         25    2    1    2    0    0 -0.82913216101E+00  0.20743026169E+02  0.91514754083E+02  0.15637241930E+03  0.12508566148E+03 0.  0.
          5    1    3    3  502    0 -0.13615277218E+01 -0.43807267888E+02  0.79066108020E+02  0.90497802818E+02  0.41800000000E+01 0. -1.
         -5    1    3    3    0  502  0.53239556080E+00  0.64550294056E+02  0.12448646063E+02  0.65874616481E+02  0.41800000000E+01 0. -1.
        -11    1    1    2    0    0 -0.39624265456E+02 -0.19749558348E+02 -0.27922894156E+02  0.52343246804E+02  0.00000000000E+00 0.  1.
         11    1    1    2    0    0  0.40453397617E+02 -0.99346782020E+00 -0.88501008954E+02  0.97313374944E+02  0.00000000000E+00 0. -1.
</event>
<event>
 7    1  0.2714042E-009  0.1142711E+03  0.7561462E-02  0.1252859E+00
          1   -1    0    0  501    0  0.00000000000E+00  0.00000000000E+00  0.79682595689E+03  0.79682595689E+03  0.00000000000E+00 0. -1.
         -1   -1    0    0    0  501 -0.00000000000E+00 -0.00000000000E+00 -0.18699323516E+02  0.18699323516E+02  0.00000000000E+00 0.  1.
         25    2    1    2    0    0 -0.12805810403E+02  0.55549666339E+02  0.47125834757E+03  0.49089948419E+03  0.12509244267E+03 0.  0.
          5    1    3    3  502    0  0.42302302445E+02 -0.78901260013E+01  0.82515706779E+02  0.93156068754E+02  0.41800000000E+01 0. -1.
         -5    1    3    3    0  502 -0.55108112848E+02  0.63439792340E+02  0.38874264079E+03  0.39774341544E+03  0.41800000000E+01 0. -1.
        -11    1    1    2    0    0 -0.20663614318E+02 -0.63493920659E+02  0.24389073708E+03  0.25286588254E+03  0.00000000000E+00 0. -1.
         11    1    1    2    0    0  0.33469424721E+02  0.79442543202E+01  0.62977548725E+02  0.71759913680E+02  0.00000000000E+00 0.  1.
</event>
<event>
 7    1  0.2714042E-009  0.1899899E+03  0.7561462E-02  0.1158470E+00
         -2   -1    0    0    0  501 -0.00000000000E+00  0.00000000000E+00  0.31831696836E+02  0.31831696836E+02  0.00000000000E+00 0.  1.
          2   -1    0    0  501    0  0.00000000000E+00 -0.00000000000E+00 -0.12033747592E+04  0.12033747592E+04  0.00000000000E+00 0. -1.
         25    2    1    2    0    0  0.14708557121E+03  0.67490155777E+02 -0.57625959746E+03  0.61148281661E+03  0.12508806886E+03 0.  0.
          5    1    3    3  502    0  0.33821586207E+02 -0.36940955067E+02 -0.13145112664E+03  0.14073167713E+03  0.41800000000E+01 0.  1.
         -5    1    3    3    0  502  0.11326398500E+03  0.10443111084E+03 -0.44480847082E+03  0.47075113948E+03  0.41800000000E+01 0.  1.
        -11    1    1    2    0    0 -0.23488126000E+02 -0.43880165624E+02 -0.88331401302E+02  0.10138834970E+03  0.00000000000E+00 0.  1.
         11    1    1    2    0    0 -0.12359744521E+03 -0.23609990153E+02 -0.50695206363E+03  0.52233528975E+03  0.00000000000E+00 0. -1.
</event>
<event>
 7    1  0.2714042E-009  0.1096675E+03  0.7561462E-02  0.1261187E+00
          1   -1    0    0  501    0  0.00000000000E+00  0.00000000000E+00  0.97963971427E+02  0.97963971427E+02  0.00000000000E+00 0. -1.
         -1   -1    0    0    0  501 -0.00000000000E+00 -0.00000000000E+00 -0.19710511695E+03  0.19710511695E+03  0.00000000000E+00 0.  1.
         25    2    1    2    0    0  0.75697472511E+02  0.46746644456E+02 -0.32385589562E+02  0.15688100608E+03  0.12508983789E+03 0.  0.
          5    1    3    3  502    0  0.66707335769E+02  0.18232663321E+02  0.38908800710E+02  0.79458579334E+02  0.41800000000E+01 0.  1.
         -5    1    3    3    0  502  0.89901367425E+01  0.28513981136E+02 -0.71294390272E+02  0.77422426745E+02  0.41800000000E+01 0.  1.
        -11    1    1    2    0    0 -0.92096123682E+02 -0.31113564059E+02 -0.46338184309E+02  0.10768926219E+03  0.00000000000E+00 0.  1.
         11    1    1    2    0    0  0.16398651171E+02 -0.15633080398E+02 -0.20417371652E+02  0.30498820110E+02  0.00000000000E+00 0. -1.
</event>
<event>
 7    1  0.2714042E-009  0.9661982E+02  0.7561462E-02  0.1287569E+00
         -1   -1    0    0    0  501 -0.00000000000E+00  0.00000000000E+00  0.18560211139E+02  0.18560211139E+02  0.00000000000E+00 0.  1.
          1   -1    0    0  501    0  0.00000000000E+00 -0.00000000000E+00 -0.70465939986E+03  0.70465939986E+03  0.00000000000E+00 0. -1.
         25    2    1    2    0    0 -0.26392619518E+02 -0.14189272673E+02 -0.47466313268E+03  0.49178386805E+03  0.12509347514E+03 0.  0.
          5    1    3    3  502    0 -0.55218003649E+02  0.33400814657E+02 -0.33867923946E+03  0.34479811773E+03  0.41800000000E+01 0.  1.
         -5    1    3    3    0  502  0.28825384131E+02 -0.47590087330E+02 -0.13598389321E+03  0.14698575032E+03  0.41800000000E+01 0.  1.
        -11    1    1    2    0    0 -0.21934145951E+02 -0.14447734057E+01 -0.10840336561E+02  0.24509325277E+02  0.00000000000E+00 0.  1.
         11    1    1    2    0    0  0.48326765469E+02  0.15634046078E+02 -0.20059571949E+03  0.20692641768E+03  0.00000000000E+00 0. -1.
</event>
<event>
 7    1  0.2714042E-009  0.1400706E+03  0.7561462E-02  0.1213234E+00
          3   -1    0    0  501    0  0.00000000000E+00  0.00000000000E+00  0.14988327568E+03  0.14988327568E+03  0.00000000000E+00 0. -1.
         -3   -1    0    0    0  501 -0.00000000000E+00 -0.00000000000E+00 -0.27656023126E+03  0.27656023126E+03  0.00000000000E+00 0.  1.
         25    2    1    2    0    0 -0.74448175709E+02 -0.62190847684E+02 -0.21524804446E+03  0.26718677293E+03  0.12508724387E+03 0.  0.
          5    1    3    3  502    0 -0.80637598209E+02 -0.91563146515E+02 -0.19714932810E+03  0.23188695956E+03  0.41800000000E+01 0.  1.
         -5    1    3    3    0  502  0.61894225000E+01  0.29372298831E+02 -0.18098716365E+02  0.35299813364E+02  0.41800000000E+01 0.  1.
        -11    1    1    2    0    0 -0.16238267119E+02 -0.24019844153E+01 -0.87627827012E+00  0.16438330565E+02  0.00000000000E+00 0.  1.
         11    1    1    2    0    0  0.90686442828E+02  0.64592832100E+02  0.89447367157E+02  0.14281840345E+03  0.00000000000E+00 0. -1.
</event>
<event>
 7    1  0.2714042E-009  0.1331020E+03  0.7561462E-02  0.1222924E+00
          2   -1    0    0  501    0  0.00000000000E+00  0.00000000000E+00  0.75996055932E+03  0.75996055932E+03  0.00000000000E+00 0. -1.
         -2   -1    0    0    0  501 -0.00000000000E+00 -0.00000000000E+00 -0.25123885899E+02  0.25123885899E+02  0.00000000000E+00 0.  1.
         25    2    1    2    0    0 -0.78212288539E+02 -0.25724941183E+02  0.40135339749E+03  0.42838157191E+03  0.12508911541E+03 0.  0.
          5    1    3    3  502    0 -0.10542793722E+03  0.29231307959E+01  0.23959847492E+03  0.26181767745E+03  0.41800000000E+01 0.  1.
         -5    1    3    3    0  502  0.27215648679E+02 -0.28648071979E+02  0.16175492257E+03  0.16656389446E+03  0.41800000000E+01 0.  1.
        -11    1    1    2    0    0 -0.80615259391E+01  0.33347147274E+02  0.14902768874E+03  0.15292570890E+03  0.00000000000E+00 0. -1.
         11    1    1    2    0    0  0.86273814478E+02 -0.76222060910E+01  0.18445558719E+03  0.20377716441E+03  0.00000000000E+00 0.  1.
</event>
<event>
 7    1  0.2714042E-009  0.1411580E+03  0.7561462E-02  0.1211779E+00
          2   -1    0    0  501    0  0.00000000000E+00  0.00000000000E+00  0.90224974199E+03  0.90224974199E+03  0.00000000000E+00 0. -1.
         -2   -1    0    0    0  501 -0.00000000000E+00 -0.00000000000E+00 -0.25424878958E+02  0.25424878958E+02  0.00000000000E+00 0.  1.
         25    2    1    2    0    0  0.14876471447E+02 -0.98342436915E+02  0.36245115203E+03  0.39611976535E+03  0.12508991405E+03 0.  0.
          5    1    3    3  502    0 -0.50422247512E+02 -0.32836122982E+02  0.20262898103E+03  0.21141568147E+03  0.41800000000E+01 0. -1.
         -5    1    3    3    0  502  0.65298718959E+02 -0.65506313933E+02  0.15982217099E+03  0.18470408388E+03  0.41800000000E+01 0. -1.
        -11    1    1    2    0    0 -0.37283165756E+02  0.10466691616E+02  0.22485470311E+03  0.22816490439E+03  0.00000000000E+00 0.  1.
         11    1    1    2    0    0  0.22406694309E+02  0.87875745299E+02  0.28951900789E+03  0.30338995120E+03  0.00000000000E+00 0. -1.
</event>
<event>
 7    1  0.2714042E-009  0.2434671E+03  0.7561462E-02  0.1117504E+00
          2   -1    0    0  501    0  0.00000000000E+00  0.00000000000E+00  0.81799892993E+03  0.81799892993E+03  0.00000000000E+00 0. -1.
         -2   -1    0    0    0  501 -0.00000000000E+00 -0.00000000000E+00 -0.85422455967E+02  0.85422455967E+02  0.00000000000E+00 0.  1.
         25    2    1    2    0    0  0.18062950516E+03 -0.15109147895E+03  0.28828497222E+03  0.39269811479E+03  0.12509169041E+03 0.  0.
          5    1    3    3  502    0  0.12461915419E+03 -0.11598941458E+03  0.27750793222E+03  0.32559423019E+03  0.41800000000E+01 0. -1.
         -5    1    3    3    0  502  0.56010350969E+02 -0.35102064367E+02  0.10777040003E+02  0.67103884609E+02  0.41800000000E+01 0. -1.
        -11    1    1    2    0    0 -0.50715520890E+02  0.97440297173E+02  0.16783400099E+03  0.20058645882E+03  0.00000000000E+00 0.  1.
         11    1    1    2    0    0 -0.12991398427E+03  0.53651181774E+02  0.27645750075E+03  0.31013681228E+03  0.00000000000E+00 0. -1.
</event>
<event>
 7    1  0.2714042E-009  0.1038540E+03  0.7561462E-02  0.1272394E+00
          2   -1    0    0  501    0  0.00000000000E+00  0.00000000000E+00  0.45158169165E+03  0.45158169165E+03  0.00000000000E+00 0. -1.
         -2   -1    0    0    0  501 -0.00000000000E+00 -0.00000000000E+00 -0.41043398312E+02  0.41043398312E+02  0.00000000000E+00 0.  1.
         25    2    1    2    0    0 -0.78520908733E+02 -0.39877981942E+01  0.25145041581E+03  0.29164427246E+03  0.12509050486E+03 0.  0.
          5    1    3    3  502    0 -0.23195166632E+02 -0.42258608877E+02  0.23221334990E+02  0.53670369647E+02  0.41800000000E+01 0.  1.
         -5    1    3    3    0  502 -0.55325742101E+02  0.38270810683E+02  0.22822908082E+03  0.23797390281E+03  0.41800000000E+01 0.  1.
        -11    1    1    2    0    0  0.59877882720E+02 -0.18535391110E+02  0.31624442466E+02  0.70207029021E+02  0.00000000000E+00 0.  1.
         11    1    1    2    0    0  0.18643026013E+02  0.22523189304E+02  0.12746343507E+03  0.13077378849E+03  0.00000000000E+00 0. -1.
</event>
<event>
 7    1  0.2714042E-009  0.1070675E+03  0.7561462E-02  0.1266099E+00
          1   -1    0    0  501    0  0.00000000000E+00  0.00000000000E+00  0.13316051913E+02  0.13316051913E+02  0.00000000000E+00 0. -1.
         -1   -1    0    0    0  501 -0.00000000000E+00 -0.00000000000E+00 -0.14832645759E+04  0.14832645759E+04  0.00000000000E+00 0.  1.
         25    2    1    2    0    0 -0.43333795568E+00 -0.23525382303E+02 -0.12617503702E+04  0.12681542249E+04  0.12509000844E+03 0.  0.
          5    1    3    3  502    0 -0.55766879319E+02 -0.33352215609E+02 -0.86132818071E+03  0.86378586605E+03  0.41800000000E+01 0. -1.
         -5    1    3    3    0  502  0.55333541364E+02  0.98268333058E+01 -0.40042218946E+03  0.40436835888E+03  0.41800000000E+01 0. -1.
        -11    1    1    2    0    0  0.43789663902E+02  0.98366663419E+00 -0.11756153474E+03  0.12545603499E+03  0.00000000000E+00 0.  1.
         11    1    1    2    0    0 -0.43356325947E+02  0.22541715669E+02 -0.90636619075E+02  0.10297036788E+03  0.00000000000E+00 0. -1.
</event>
<event>
 7    1  0.2714042E-009  0.1365916E+03  0.7561462E-02  0.1217990E+00
         -2   -1    0    0    0  501 -0.00000000000E+00  0.00000000000E+00  0.11057126090E+03  0.11057126090E+03  0.00000000000E+00 0.  1.
          2   -1    0    0  501    0  0.00000000000E+00 -0.00000000000E+00 -0.26885121920E+03  0.26885121920E+03  0.00000000000E+00 0. -1.
         25    2    1    2    0    0 -0.20368131379E+02 -0.10464034257E+03  0.52547407362E+01  0.16444471744E+03  0.12509992296E+03 0.  0.
          5    1    3    3  502    0 -0.68902292482E+02 -0.44872518049E+02 -0.17255571293E+02  0.84120722334E+02  0.41800000000E+01 0. -1.
         -5    1    3    3    0  502  0.48534161102E+02 -0.59767824524E+02  0.22510312029E+02  0.80323995106E+02  0.41800000000E+01 0. -1.
        -11    1    1    2    0    0 -0.34577432144E+01  0.77717975049E+02 -0.16115294584E+03  0.17894779012E+03  0.00000000000E+00 0. -1.
         11    1    1    2    0    0  0.23825874594E+02  0.26922367524E+02 -0.23817531842E+01  0.36029972544E+02  0.00000000000E+00 0.  1.
</event>
<event>
 7    1  0.2714042E-009  0.1353199E+03  0.7561462E-02  0.1219769E+00
          2   -1    0    0  501    0  0.00000000000E+00  0.00000000000E+00  0.43354100735E+03  0.43354100735E+03  0.00000000000E+00 0. -1.
         -2   -1    0    0    0  501 -0.00000000000E+00 -0.00000000000E+00 -0.67041407235E+02  0.67041407235E+02  0.00000000000E+00 0.  1.
         25    2    1    2    0    0 -0.10923239310E+02  0.12884877615E+03  0.16168205514E+03  0.24188652787E+03  0.12508669448E+03 0.  0.
          5    1    3    3  502    0 -0.16288707177E+01  0.13557060158E+02  0.11692358505E+03  0.11779237768E+03  0.41800000000E+01 0.  1.
         -5    1    3    3    0  502 -0.92943685926E+01  0.11529171599E+03  0.44758470090E+02  0.12409415018E+03  0.41800000000E+01 0.  1.
        -11    1    1    2    0    0 -0.18188495534E+02 -0.91363911517E+02  0.18525904434E+03  0.20736224152E+03  0.00000000000E+00 0.  1.
         11    1    1    2    0    0  0.29111734844E+02 -0.37484864635E+02  0.19558500633E+02  0.51333645199E+02  0.00000000000E+00 0. -1.
</event>
<event>
 7    1  0.2714042E-009  0.1070905E+03  0.7561462E-02  0.1266055E+00
         -2   -1    0    0    0  501 -0.00000000000E+00  0.00000000000E+00  0.30163096582E+02  0.30163096582E+02  0.00000000000E+00 0.  1.
          2   -1    0    0  501    0  0.00000000000E+00 -0.00000000000E+00 -0.72564540855E+03  0.72564540855E+03  0.00000000000E+00 0. -1.
         25    2    1    2    0    0  0.92054713787E+01 -0.85283252707E+02 -0.24094823036E+03  0.28471351827E+03  0.12509102236E+03 0.  0.
          5    1    3    3  502    0  0.21677431450E+02 -0.50544187043E+02 -0.17014678152E+02  0.57719992643E+02  0.41800000000E+01 0.  1.
         -5    1    3    3    0  502 -0.12471960071E+02 -0.34739065664E+02 -0.22393355221E+03  0.22699352563E+03  0.41800000000E+01 0.  1.
        -11    1    1    2    0    0 -0.48129413433E+02  0.45909150112E+02 -0.28868662831E+03  0.29624999555E+03  0.00000000000E+00 0.  1.
         11    1    1    2    0    0  0.38923942054E+02  0.39374102594E+02 -0.16584745329E+03  0.17484499131E+03  0.00000000000E+00 0. -1.
</event>
<event>
 7    1  0.2714042E-009  0.1303088E+03  0.7561462E-02  0.1226998E+00
         -2   -1    0    0    0  501 -0.00000000000E+00  0.00000000000E+00  0.42144177620E+02  0.42144177620E+02  0.00000000000E+00 0.  1.
          2   -1    0    0  501    0  0.00000000000E+00 -0.00000000000E+00 -0.53361697783E+03  0.53361697783E+03  0.00000000000E+00 0. -1.
         25    2    1    2    0    0 -0.74758558473E+02  0.19758337479E+00 -0.37154880325E+03  0.39910535861E+03  0.12509073894E+03 0.  0.
          5    1    3    3  502    0  0.30269734572E+02  0.22456536296E+02 -0.84981695412E+02  0.93058657891E+02  0.41800000000E+01 0. -1.
         -5    1    3    3    0  502 -0.10502829304E+03 -0.22258952921E+02 -0.28656710784E+03  0.30604670072E+03  0.41800000000E+01 0. -1.
        -11    1    1    2    0    0  0.81120730499E+02  0.28406707694E+02 -0.11968694697E+03  0.14735154982E+03  0.00000000000E+00 0. -1.
         11    1    1    2    0    0 -0.63621720265E+01 -0.28604291069E+02 -0.23704998246E+00  0.29304247016E+02  0.00000000000E+00 0.  1.
</event>
<event>
 7    1  0.2714042E-009  0.9232842E+02  0.7561462E-02  0.1297309E+00
          2   -1    0    0  501    0  0.00000000000E+00  0.00000000000E+00  0.14656399368E+03  0.14656399368E+03  0.00000000000E+00 0. -1.
         -2   -1    0    0    0  501 -0.00000000000E+00 -0.00000000000E+00 -0.12302659364E+03  0.12302659364E+03  0.00000000000E+00 0.  1.
         25    2    1    2    0    0 -0.52920213895E+02  0.12884915815E+02 -0.44462124002E+02  0.14349801046E+03  0.12509287926E+03 0.  0.
          5    1    3    3  502    0  0.73767255974E+01 -0.45409237043E+02 -0.37017300435E+02  0.59196011866E+02  0.41800000000E+01 0. -1.
         -5    1    3    3    0  502 -0.60296939492E+02  0.58294152858E+02 -0.74448235665E+01  0.84301998597E+02  0.41800000000E+01 0. -1.
        -11    1    1    2    0    0  0.16852452310E+02 -0.48801939195E+01  0.84013470441E+02  0.85825897357E+02  0.00000000000E+00 0. -1.
         11    1    1    2    0    0  0.36067761585E+02 -0.80047218958E+01 -0.16013946405E+02  0.40266679498E+02  0.00000000000E+00 0.  1.
</event>
<event>
 7    1  0.2714042E-009  0.1172103E+03  0.7561462E-02  0.1247771E+00
          2   -1    0    0  501    0  0.00000000000E+00  0.00000000000E+00  0.11789305178E+03  0.11789305178E+03  0.00000000000E+00 0. -1.
         -2   -1    0    0    0  501 -0.00000000000E+00 -0.00000000000E+00 -0.15019049489E+03  0.15019049489E+03  0.00000000000E+00 0.  1.
         25    2    1    2    0    0  0.23964811059E+02 -0.72463067188E+02 -0.85736600288E+01  0.14678737867E+03  0.12509124117E+03 0.  0.
          5    1    3    3  502    0  0.37301233901E+02  0.43595072942E+01 -0.46551836036E+02  0.59957761739E+02  0.41800000000E+01 0.  1.
         -5    1    3    3    0  502 -0.13336422842E+02 -0.76822574482E+02  0.37978176007E+02  0.86829616936E+02  0.41800000000E+01 0.  1.
        -11    1    1    2    0    0  0.34908399600E+02  0.25230403384E+02 -0.13443697814E+02  0.45120977699E+02  0.00000000000E+00 0.  1.
         11    1    1    2    0    0 -0.58873210659E+02  0.47232663804E+02 -0.10280085269E+02  0.76175190295E+02  0.00000000000E+00 0. -1.
</event>
<event>
 7    1  0.2714042E-009  0.9945248E+02  0.7561462E-02  0.1281452E+00
          2   -1    0    0  501    0  0.00000000000E+00  0.00000000000E+00  0.12348755867E+03  0.12348755867E+03  0.00000000000E+00 0. -1.
         -2   -1    0    0    0  501 -0.00000000000E+00 -0.00000000000E+00 -0.16503393625E+03  0.16503393625E+03  0.00000000000E+00 0.  1.
         25    2    1    2    0    0 -0.84797180681E+02  0.22163167758E+02  0.19261871971E+01  0.15275460986E+03  0.12509393583E+03 0.  0.
          5    1    3    3  502    0 -0.20192375287E+02  0.16261876683E+02  0.60056208275E+02  0.65546938947E+02  0.41800000000E+01 0. -1.
         -5    1    3    3    0  502 -0.64604805393E+02  0.59012910752E+01 -0.58130021078E+02  0.87207670917E+02  0.41800000000E+01 0. -1.
        -11    1    1    2    0    0  0.39561859216E+02 -0.42478239560E+02  0.14147686700E+02  0.59746954564E+02  0.00000000000E+00 0. -1.
         11    1    1    2    0    0  0.45235321465E+02  0.20315071802E+02 -0.57620251478E+02  0.76019930483E+02  0.00000000000E+00 0.  1.
</event>
<event>
 7    1  0.2714042E-009  0.1792857E+03  0.7561462E-02  0.1168496E+00
          1   -1    0    0  501    0  0.00000000000E+00  0.00000000000E+00  0.32119253249E+03  0.32119253249E+03  0.00000000000E+00 0. -1.
         -1   -1    0    0    0  501 -0.00000000000E+00 -0.00000000000E+00 -0.10634099666E+03  0.10634099666E+03  0.00000000000E+00 0.  1.
         25    2    1    2    0    0  0.56958969253E+02 -0.13138851638E+03  0.16251516202E+03  0.25013436559E+03  0.12509499010E+03 0.  0.
          5    1    3    3  502    0  0.32523820897E+02  0.18777082666E+02  0.28279323359E+02  0.47197142804E+02  0.41800000000E+01 0.  1.
         -5    1    3    3    0  502  0.24435148356E+02 -0.15016559905E+03  0.13423583866E+03  0.20293722279E+03  0.41800000000E+01 0.  1.
        -11    1    1    2    0    0 -0.71853844218E+02  0.54277881311E+02  0.18743880823E+02  0.91980413116E+02  0.00000000000E+00 0.  1.
         11    1    1    2    0    0  0.14894874965E+02  0.77110635069E+02  0.33592492993E+02  0.85418750438E+02  0.00000000000E+00 0. -1.
</event>
<event>
 7    1  0.2714042E-009  0.1916485E+03  0.7561462E-02  0.1156983E+00
          1   -1    0    0  501    0  0.00000000000E+00  0.00000000000E+00  0.12213965396E+03  0.12213965396E+03  0.00000000000E+00 0. -1.
         -1   -1    0    0    0  501 -0.00000000000E+00 -0.00000000000E+00 -0.35358025927E+03  0.35358025927E+03  0.00000000000E+00 0.  1.
         25    2    1    2    0    0 -0.10958425604E+03  0.12842772162E+03 -0.18128219076E+03  0.27751279590E+03  0.12509088834E+03 0.  0.
          5    1    3    3  502    0 -0.90254284225E+02  0.32330116530E+02 -0.14296451353E+03  0.17218419436E+03  0.41800000000E+01 0. -1.
         -5    1    3    3    0  502 -0.19329971813E+02  0.96097605091E+02 -0.38317677229E+02  0.10532860154E+03  0.41800000000E+01 0. -1.
        -11    1    1    2    0    0  0.12412950971E+03 -0.11852150378E+03 -0.54518040152E+02  0.18007692451E+03  0.00000000000E+00 0.  1.
         11    1    1    2    0    0 -0.14545253676E+02 -0.99062178393E+01  0.43596256031E+01  0.18130192822E+02  0.00000000000E+00 0. -1.
</event>
<event>
 7    1  0.2714042E-009  0.1433818E+03  0.7561462E-02  0.1208850E+00
         -4   -1    0    0    0  501 -0.00000000000E+00  0.00000000000E+00  0.34001911623E+03  0.34001911623E+03  0.00000000000E+00 0.  1.
          4   -1    0    0  501    0  0.00000000000E+00 -0.00000000000E+00 -0.70349738943E+02  0.70349738943E+02  0.00000000000E+00 0. -1.
         25    2    1    2    0    0  0.46168106165E+02 -0.99325335102E+02  0.13354028819E+03  0.21325676407E+03  0.12509365545E+03 0.  0.
          5    1    3    3  502    0 -0.12407988736E+02  0.17538512044E+02 -0.52955230087E+01  0.22518271540E+02  0.41800000000E+01 0. -1.
         -5    1    3    3    0  502  0.58576094901E+02 -0.11686384715E+03  0.13883581119E+03  0.19073849253E+03  0.41800000000E+01 0. -1.
        -11    1    1    2    0    0 -0.50021785727E+02  0.18750174478E+02  0.22983701680E+02  0.58154953642E+02  0.00000000000E+00 0. -1.
         11    1    1    2    0    0  0.38536795616E+01  0.80575160624E+02  0.11314538742E+03  0.13895713746E+03  0.00000000000E+00 0.  1.
</event>
<event>
 7    1  0.2714042E-009  0.1137268E+03  0.7561462E-02  0.1253820E+00
          2   -1    0    0  501    0  0.00000000000E+00  0.00000000000E+00  0.49984621360E+03  0.49984621360E+03  0.00000000000E+00 0. -1.
         -2   -1    0    0    0  501 -0.00000000000E+00 -0.00000000000E+00 -0.39247124436E+02  0.39247124436E+02  0.00000000000E+00 0.  1.
         25    2    1    2    0    0 -0.74794357816E+02  0.42711155078E+02  0.31205543660E+03  0.34704483237E+03  0.12507230484E+03 0.  0.
          5    1    3    3  502    0 -0.23109315825E+02 -0.17598036860E+02  0.48923111497E+01  0.29751277075E+02  0.41800000000E+01 0. -1.
         -5    1    3    3    0  502 -0.51685041991E+02  0.60309191938E+02  0.30716312545E+03  0.31729355530E+03  0.41800000000E+01 0. -1.
        -11    1    1    2    0    0  0.92695217241E+02 -0.36519470808E+02  0.10596288142E+03  0.14544485995E+03  0.00000000000E+00 0.  1.
         11    1    1    2    0    0 -0.17900859425E+02 -0.61916842697E+01  0.42580771143E+02  0.46603645709E+02  0.00000000000E+00 0. -1.
</event>
<event>
 7    1  0.2714042E-009  0.7544574E+02  0.7561462E-02  0.1342496E+00
          1   -1    0    0  501    0  0.00000000000E+00  0.00000000000E+00  0.19063080564E+03  0.19063080564E+03  0.00000000000E+00 0. -1.
         -1   -1    0    0    0  501 -0.00000000000E+00 -0.00000000000E+00 -0.50131648875E+02  0.50131648875E+02  0.00000000000E+00 0.  1.
         25    2    1    2    0    0  0.11410963317E+02  0.33708664164E+02  0.98266828539E+02  0.16300423420E+03  0.12509007416E+03 0.  0.
          5    1    3    3  502    0  0.79196381455E+01  0.72703909627E+02  0.20870735312E+02  0.76168491753E+02  0.41800000000E+01 0.  1.
         -5    1    3    3    0  502  0.34913251710E+01 -0.38995245463E+02  0.77396093227E+02  0.86835742451E+02  0.41800000000E+01 0.  1.
        -11    1    1    2    0    0  0.13095279829E+01 -0.18016521969E+02 -0.10774124286E+02  0.21033109174E+02  0.00000000000E+00 0.  1.
         11    1    1    2    0    0 -0.12720491299E+02 -0.15692142195E+02  0.53006452513E+02  0.56725111138E+02  0.00000000000E+00 0. -1.
</event>
<event>
 7    1  0.2714042E-009  0.1079238E+03  0.7561462E-02  0.1264464E+00
         -1   -1    0    0    0  501 -0.00000000000E+00  0.00000000000E+00  0.11986298891E+03  0.11986298891E+03  0.00000000000E+00 0.  1.
          1   -1    0    0  501    0  0.00000000000E+00 -0.00000000000E+00 -0.15846812055E+03  0.15846812055E+03  0.00000000000E+00 0. -1.
         25    2    1    2    0    0 -0.60026876980E+02 -0.58183621546E+02 -0.25930174736E+02  0.15267144409E+03  0.12509051164E+03 0.  0.
          5    1    3    3  502    0 -0.62719881090E+02 -0.58480002266E+02  0.34140583143E+02  0.92394512642E+02  0.41800000000E+01 0. -1.
         -5    1    3    3    0  502  0.26930041100E+01  0.29638071944E+00 -0.60070757879E+02  0.60276931449E+02  0.41800000000E+01 0. -1.
        -11    1    1    2    0    0 -0.43333154943E+01 -0.21869193171E+02 -0.28007112926E+01  0.22469606513E+02  0.00000000000E+00 0.  1.
         11    1    1    2    0    0  0.64360192474E+02  0.80052814717E+02 -0.98742456079E+01  0.10319005885E+03  0.00000000000E+00 0. -1.
</event>
<event>
 7    1  0.2714042E-009  0.8301007E+02  0.7561462E-02  0.1320720E+00
          1   -1    0    0  501    0  0.00000000000E+00  0.00000000000E+00  0.17899363333E+02  0.17899363333E+02  0.00000000000E+00 0. -1.
         -1   -1    0    0    0  501 -0.00000000000E+00 -0.00000000000E+00 -0.72430095482E+03  0.72430095482E+03  0.00000000000E+00 0.  1.
         25    2    1    2    0    0  0.21859142638E+02 -0.25380670028E+02 -0.39342174699E+03  0.41418593862E+03  0.12508924902E+03 0.  0.
          5    1    3    3  502    0  0.37884125365E+02 -0.32359166995E+02 -0.39304324517E+03  0.39621053446E+03  0.41800000000E+01 0.  1.
         -5    1    3    3    0  502 -0.16024982727E+02  0.69784969661E+01 -0.37850182307E+00  0.17975404166E+02  0.41800000000E+01 0.  1.
        -11    1    1    2    0    0 -0.55860954439E+02  0.40603196868E+00 -0.17031069133E+03  0.17923822883E+03  0.00000000000E+00 0.  1.
         11    1    1    2    0    0  0.34001811801E+02  0.24974638060E+02 -0.14266915317E+03  0.14877615070E+03  0.00000000000E+00 0. -1.
</event>
<event>
 7    1  0.2714042E-009  0.1109332E+03  0.7561462E-02  0.1258851E+00
          1   -1    0    0  501    0  0.00000000000E+00  0.00000000000E+00  0.27709119130E+03  0.27709119130E+03  0.00000000000E+00 0. -1.
         -1   -1    0    0    0  501 -0.00000000000E+00 -0.00000000000E+00 -0.91315241738E+02  0.91315241738E+02  0.00000000000E+00 0.  1.
         25    2    1    2    0    0 -0.75280941866E+02  0.41481480129E+02  0.19176812414E+03  0.24456270191E+03  0.12509183958E+03 0.  0.
          5    1    3    3  502    0  0.76944556204E+01 -0.12634184192E+02  0.12286075416E+03  0.12381867618E+03  0.41800000000E+01 0.  1.
         -5    1    3    3    0  502 -0.82975397487E+02  0.54115664320E+02  0.68907369974E+02  0.12074402573E+03  0.41800000000E+01 0.  1.
        -11    1    1    2    0    0  0.17412684754E+02  0.17519265113E+02  0.25408929562E+02  0.35436421122E+02  0.00000000000E+00 0. -1.
         11    1    1    2    0    0  0.57868257112E+02 -0.59000745242E+02 -0.31401104141E+02  0.88407310001E+02  0.00000000000E+00 0.  1.
</event>
<event>
 7    1  0.2714042E-009  0.1261297E+03  0.7561462E-02  0.1233314E+00
         -1   -1    0    0    0  501 -0.00000000000E+00  0.00000000000E+00  0.66302607123E+03  0.66302607123E+03  0.00000000000E+00 0.  1.
          1   -1    0    0  501    0  0.00000000000E+00 -0.00000000000E+00 -0.32479667461E+02  0.32479667461E+02  0.00000000000E+00 0. -1.
         25    2    1    2    0    0  0.62376598958E+02  0.27442570095E+02  0.47819388452E+03  0.49895890659E+03  0.12508662810E+03 0.  0.
          5    1    3    3  502    0  0.17078973122E+01 -0.42879045619E+02  0.22820371119E+03  0.23224111537E+03  0.41800000000E+01 0.  1.
         -5    1    3    3    0  502  0.60668701646E+02  0.70321615714E+02  0.24999017333E+03  0.26671779123E+03  0.41800000000E+01 0.  1.
        -11    1    1    2    0    0 -0.55472078094E+02  0.26720812364E+02  0.11482691641E+03  0.13029341501E+03  0.00000000000E+00 0.  1.
         11    1    1    2    0    0 -0.69045208642E+01 -0.54163382460E+02  0.37525602844E+02  0.66253417094E+02  0.00000000000E+00 0. -1.
</event>
<event>
 7    1  0.2714042E-009  0.1078737E+03  0.7561462E-02  0.1264559E+00
         -1   -1    0    0    0  501 -0.00000000000E+00  0.00000000000E+00  0.31404909002E+03  0.31404909002E+03  0.00000000000E+00 0.  1.
          1   -1    0    0  501    0  0.00000000000E+00 -0.00000000000E+00 -0.16768676850E+03  0.16768676850E+03  0.00000000000E+00 0. -1.
         25    2    1    2    0    0 -0.13548961146E+02 -0.10649788288E+03  0.25454419027E+03  0.30325784541E+03  0.12508877885E+03 0.  0.
          5    1    3    3  502    0 -0.13734629498E+02 -0.84688054732E+02  0.53940302600E+02  0.10142847384E+03  0.41800000000E+01 0. -1.
         -5    1    3    3    0  502  0.18566835177E+00 -0.21809828153E+02  0.20060388767E+03  0.20182937156E+03  0.41800000000E+01 0. -1.
        -11    1    1    2    0    0  0.19019037896E+00  0.29145027232E+02  0.14715923739E+02  0.32650071918E+02  0.00000000000E+00 0.  1.
         11    1    1    2    0    0  0.13358770767E+02  0.77352855652E+02 -0.12289779249E+03  0.14582794119E+03  0.00000000000E+00 0. -1.
</event>
<event>
 7    1  0.2714042E-009  0.1065825E+03  0.7561462E-02  0.1267033E+00
          2   -1    0    0  501    0  0.00000000000E+00  0.00000000000E+00  0.49978201472E+03  0.49978201472E+03  0.00000000000E+00 0. -1.
         -2   -1    0    0    0  501 -0.00000000000E+00 -0.00000000000E+00 -0.38671781258E+02  0.38671781258E+02  0.00000000000E+00 0.  1.
         25    2    1    2    0    0  0.61226130472E+01 -0.29581842199E+02  0.39570515001E+03  0.41610269328E+03  0.12508522628E+03 0.  0.
          5    1    3    3  502    0  0.53270112942E+02 -0.37182009182E+02  0.12248935677E+03  0.13871309116E+03  0.41800000000E+01 0.  1.
         -5    1    3    3    0  502 -0.47147499895E+02  0.76001669833E+01  0.27321579324E+03  0.27738960212E+03  0.41800000000E+01 0.  1.
        -11    1    1    2    0    0  0.26090345810E+02  0.53823313949E+02  0.23677591706E+02  0.64329492598E+02  0.00000000000E+00 0. -1.
         11    1    1    2    0    0 -0.32212958857E+02 -0.24241471750E+02  0.41727491749E+02  0.58021610100E+02  0.00000000000E+00 0.  1.
</event>
<event>
 7    1  0.2714042E-009  0.9675693E+02  0.7561462E-02  0.1287267E+00
          2   -1    0    0  501    0  0.00000000000E+00  0.00000000000E+00  0.11863777265E+03  0.11863777265E+03  0.00000000000E+00 0. -1.
         -2   -1    0    0    0  501 -0.00000000000E+00 -0.00000000000E+00 -0.14145530038E+03  0.14145530038E+03  0.00000000000E+00 0.  1.
         25    2    1    2    0    0  0.94595198411E+01 -0.31146948533E+02  0.51375759185E+02  0.13908948620E+03  0.12508717608E+03 0.  0.
          5    1    3    3  502    0  0.53895428556E+02  0.80172684772E+01 -0.78661827467E+01  0.55211801674E+02  0.41800000000E+01 0. -1.
         -5    1    3    3    0  502 -0.44435908715E+02 -0.39164217011E+02  0.59241941931E+02  0.83877684525E+02  0.41800000000E+01 0. -1.
        -11    1    1    2    0    0  0.55194585517E+01 -0.22820617748E+02  0.50013127760E+01  0.24005377452E+02  0.00000000000E+00 0. -1.
         11    1    1    2    0    0 -0.14978978393E+02  0.53967566282E+02 -0.79194599686E+02  0.96998209383E+02  0.00000000000E+00 0.  1.
</event>
<event>
 7    1  0.2714042E-009  0.9576667E+02  0.7561462E-02  0.1289459E+00
         -4   -1    0    0    0  501 -0.00000000000E+00  0.00000000000E+00  0.27932351932E+03  0.27932351932E+03  0.00000000000E+00 0.  1.
          4   -1    0    0  501    0  0.00000000000E+00 -0.00000000000E+00 -0.47264560169E+02  0.47264560169E+02  0.00000000000E+00 0. -1.
         25    2    1    2    0    0 -0.16949412213E+02  0.55987952725E+01  0.85363726658E+02  0.15249005239E+03  0.12509045194E+03 0.  0.
          5    1    3    3  502    0  0.29650774119E+02 -0.47132854169E+02  0.36340930979E+02  0.66624395025E+02  0.41800000000E+01 0.  1.
         -5    1    3    3    0  502 -0.46600186333E+02  0.52731649442E+02  0.49022795679E+02  0.85865657368E+02  0.41800000000E+01 0.  1.
        -11    1    1    2    0    0  0.33061943915E+02  0.17208567043E+02  0.16186668434E+02  0.40635392825E+02  0.00000000000E+00 0. -1.
         11    1    1    2    0    0 -0.16112531701E+02 -0.22807362315E+02  0.13050856406E+03  0.13346263427E+03  0.00000000000E+00 0.  1.
</event>
<event>
 7    1  0.2714042E-009  0.2220080E+03  0.7561462E-02  0.1132395E+00
         -2   -1    0    0    0  501 -0.00000000000E+00  0.00000000000E+00  0.51471963518E+03  0.51471963518E+03  0.00000000000E+00 0.  1.
          2   -1    0    0  501    0  0.00000000000E+00 -0.00000000000E+00 -0.10005552306E+03  0.10005552306E+03  0.00000000000E+00 0. -1.
         25    2    1    2    0    0 -0.15534084045E+03 -0.12170777353E+03  0.25070014159E+03  0.34270231381E+03  0.12510298179E+03 0.  0.
          5    1    3    3  502    0 -0.52662274057E+02  0.20672798869E+02  0.46208717557E+02  0.73166916706E+02  0.41800000000E+01 0.  1.
         -5    1    3    3    0  502 -0.10267856640E+03 -0.14238057240E+03  0.20449142403E+03  0.26953539711E+03  0.41800000000E+01 0.  1.
        -11    1    1    2    0    0  0.11655089660E+03  0.43514503721E+02  0.65885084314E+02  0.14077808021E+03  0.00000000000E+00 0. -1.
         11    1    1    2    0    0  0.38789943857E+02  0.78193269805E+02  0.98078886220E+02  0.13129476421E+03  0.00000000000E+00 0.  1.
</event>
<event>
 7    1  0.2714042E-009  0.1855977E+03  0.7561462E-02  0.1162493E+00
         -1   -1    0    0    0  501 -0.00000000000E+00  0.00000000000E+00  0.71549379725E+02  0.71549379725E+02  0.00000000000E+00 0.  1.
          1   -1    0    0  501    0  0.00000000000E+00 -0.00000000000E+00 -0.66809174665E+03  0.66809174665E+03  0.00000000000E+00 0. -1.
         25    2    1    2    0    0  0.39055701787E+02 -0.16687631149E+03 -0.17191241408E+03  0.27307980970E+03  0.12508258541E+03 0.  0.
          5    1    3    3  502    0  0.64346323409E+02 -0.58668876391E+02 -0.28736256740E+02  0.91791782011E+02  0.41800000000E+01 0.  1.
         -5    1    3    3    0  502 -0.25290621622E+02 -0.10820743510E+03 -0.14317615734E+03  0.18128802769E+03  0.41800000000E+01 0.  1.
        -11    1    1    2    0    0 -0.18690425470E+02  0.12337872672E+03 -0.19173951336E+03  0.22876993508E+03  0.00000000000E+00 0.  1.
         11    1    1    2    0    0 -0.20365276317E+02  0.43497584765E+02 -0.23289043949E+03  0.23779138160E+03  0.00000000000E+00 0. -1.
</event>
<event>
 7    1  0.2714042E-009  0.9034253E+02  0.7561462E-02  0.1302024E+00
          1   -1    0    0  501    0  0.00000000000E+00  0.00000000000E+00  0.51504966568E+03  0.51504966568E+03  0.00000000000E+00 0. -1.
         -1   -1    0    0    0  501 -0.00000000000E+00 -0.00000000000E+00 -0.28044226837E+02  0.28044226837E+02  0.00000000000E+00 0.  1.
         25    2    1    2    0    0  0.22424758886E+01  0.60960127225E+02  0.25678265017E+03  0.29207310775E+03  0.12509278570E+03 0.  0.
          5    1    3    3  502    0 -0.12583442244E+02 -0.17502698538E+02 -0.11920297185E+01  0.21990470883E+02  0.41800000000E+01 0.  1.
         -5    1    3    3    0  502  0.14825918132E+02  0.78462825763E+02  0.25797467989E+03  0.27008263687E+03  0.41800000000E+01 0.  1.
        -11    1    1    2    0    0 -0.22032733550E+02 -0.53068824668E+02  0.22001763975E+03  0.22739723679E+03  0.00000000000E+00 0. -1.
         11    1    1    2    0    0  0.19790257661E+02 -0.78913025574E+01  0.10205148927E+02  0.23623547976E+02  0.00000000000E+00 0.  1.
</event>
<event>
 7    1  0.2714042E-009  0.8126972E+02  0.7561462E-02  0.1325486E+00
          1   -1    0    0  501    0  0.00000000000E+00  0.00000000000E+00  0.45724261591E+02  0.45724261591E+02  0.00000000000E+00 0. -1.
         -1   -1    0    0    0  501 -0.00000000000E+00 -0.00000000000E+00 -0.34492295246E+03  0.34492295246E+03  0.00000000000E+00 0.  1.
         25    2    1    2    0    0 -0.51511236109E+02 -0.33879056288E+02 -0.16479031719E+03  0.21587201920E+03  0.12507470622E+03 0.  0.
          5    1    3    3  502    0 -0.66639444144E+02 -0.15328768090E+02 -0.23376773973E+02  0.72385997322E+02  0.41800000000E+01 0. -1.
         -5    1    3    3    0  502  0.15128208035E+02 -0.18550288198E+02 -0.14141354321E+03  0.14348602188E+03  0.41800000000E+01 0. -1.
        -11    1    1    2    0    0  0.31811566607E+02  0.15184635513E+01  0.32364534309E+01  0.32011812388E+02  0.00000000000E+00 0.  1.
         11    1    1    2    0    0  0.19699669501E+02  0.32360592737E+02 -0.13764482711E+03  0.14276338246E+03  0.00000000000E+00 0. -1.
</event>
<event>
 7    1  0.2714042E-009  0.1326025E+03  0.7561462E-02  0.1223644E+00
          2   -1    0    0  501    0  0.00000000000E+00  0.00000000000E+00  0.31056981683E+03  0.31056981683E+03  0.00000000000E+00 0. -1.
         -2   -1    0    0    0  501 -0.00000000000E+00 -0.00000000000E+00 -0.58242419390E+02  0.58242419390E+02  0.00000000000E+00 0.  1.
         25    2    1    2    0    0  0.61122541790E+01 -0.77588425557E+02  0.16063500032E+03  0.21796458740E+03  0.12509050563E+03 0.  0.
          5    1    3    3  502    0 -0.38765148997E+02 -0.90676191088E+02  0.12362354302E+03  0.15819342968E+03  0.41800000000E+01 0.  1.
         -5    1    3    3    0  502  0.44877403176E+02  0.13087765532E+02  0.37011457303E+02  0.59771157711E+02  0.41800000000E+01 0.  1.
        -11    1    1    2    0    0  0.34783359388E+02  0.69730281544E+02  0.63993577648E+02  0.10083338849E+03  0.00000000000E+00 0. -1.
         11    1    1    2    0    0 -0.40895613567E+02  0.78581440130E+01  0.27698819467E+02  0.50014260328E+02  0.00000000000E+00 0.  1.
</event>
<event>
 7    1  0.2714042E-009  0.1087379E+03  0.7561462E-02  0.1262925E+00
         -1   -1    0    0    0  501 -0.00000000000E+00  0.00000000000E+00  0.27414776817E+02  0.27414776817E+02  0.00000000000E+00 0.  1.
          1   -1    0    0  501    0  0.00000000000E+00 -0.00000000000E+00 -0.64883617460E+03  0.64883617460E+03  0.00000000000E+00 0. -1.
         25    2    1    2    0    0  0.56842716259E+02  0.12581821376E+02 -0.20992511375E+03  0.25120685447E+03  0.12508770415E+03 0.  0.
          5    1    3    3  502    0  0.44695181346E+02  0.52520948288E+02 -0.19466655376E+03  0.20656390972E+03  0.41800000000E+01 0.  1.
         -5    1    3    3    0  502  0.12147534913E+02 -0.39939126913E+02 -0.15258559984E+02  0.44642944748E+02  0.41800000000E+01 0.  1.
        -11    1    1    2    0    0 -0.42540503477E+02  0.36036326531E+02 -0.21072468075E+03  0.21797523332E+03  0.00000000000E+00 0. -1.
         11    1    1    2    0    0 -0.14302212783E+02 -0.48618147906E+02 -0.20077160329E+03  0.20706886363E+03  0.00000000000E+00 0.  1.
</event>
<event>
 7    1  0.2714042E-009  0.1029371E+03  0.7561462E-02  0.1274238E+00
          3   -1    0    0  501    0  0.00000000000E+00  0.00000000000E+00  0.30622631624E+03  0.30622631624E+03  0.00000000000E+00 0. -1.
         -3   -1    0    0    0  501 -0.00000000000E+00 -0.00000000000E+00 -0.39716588551E+02  0.39716588551E+02  0.00000000000E+00 0.  1.
         25    2    1    2    0    0  0.13357474089E+01 -0.89055277259E+01  0.12978706308E+03  0.18047964805E+03  0.12508848458E+03 0.  0.
          5    1    3    3  502    0 -0.34337526962E+02 -0.49180233337E+02  0.30371463254E+02  0.67362150271E+02  0.41800000000E+01 0.  1.
         -5    1    3    3    0  502  0.35673274370E+02  0.40274705612E+02  0.99415599822E+02  0.11311749778E+03  0.41800000000E+01 0.  1.
        -11    1    1    2    0    0 -0.14836101380E+02  0.48096272253E+02  0.89049401226E+02  0.10228957507E+03  0.00000000000E+00 0. -1.
         11    1    1    2    0    0  0.13500353971E+02 -0.39190744528E+02  0.47673263390E+02  0.63173681674E+02  0.00000000000E+00 0.  1.
</event>
<event>
 7    1  0.2714042E-009  0.1105898E+03  0.7561462E-02  0.1259482E+00
          1   -1    0    0  501    0  0.00000000000E+00  0.00000000000E+00  0.45238627702E+02  0.45238627702E+02  0.00000000000E+00 0. -1.
         -1   -1    0    0    0  501 -0.00000000000E+00 -0.00000000000E+00 -0.55012995856E+03  0.55012995856E+03  0.00000000000E+00 0.  1.
         25    2    1    2    0    0 -0.88304062792E+02 -0.63922199804E+02 -0.24825803521E+03  0.29859824056E+03  0.12508078224E+03 0.  0.
          5    1    3    3  502    0 -0.44460187650E+02 -0.17488742607E+02 -0.22570200686E+03  0.23074105119E+03  0.41800000000E+01 0. -1.
         -5    1    3    3    0  502 -0.43843875143E+02 -0.46433457197E+02 -0.22556028357E+02  0.67857189376E+02  0.41800000000E+01 0. -1.
        -11    1    1    2    0    0  0.43810966857E+02  0.27539849890E+02 -0.22558794892E+03  0.23144711458E+03  0.00000000000E+00 0.  1.
         11    1    1    2    0    0  0.44493095936E+02  0.36382349914E+02 -0.31045346730E+02  0.65323231126E+02  0.00000000000E+00 0. -1.
</event>
<event>
 7    1  0.2714042E-009  0.8475066E+02  0.7561462E-02  0.1316086E+00
          2   -1    0    0  501    0  0.00000000000E+00  0.00000000000E+00  0.13761857168E+03  0.13761857168E+03  0.00000000000E+00 0.  1.
         -2   -1    0    0    0  501 -0.00000000000E+00 -0.00000000000E+00 -0.10545418574E+03  0.10545418574E+03  0.00000000000E+00 0. -1.
         25    2    1    2    0    0 -0.43981793974E+02  0.27409411784E+02  0.54267648659E+01  0.13550970905E+03  0.12509099653E+03 0.  0.
          5    1    3    3  502    0 -0.15905729394E+02 -0.95749777692E+01  0.60459392917E+02  0.63383617905E+02  0.41800000000E+01 0. -1.
         -5    1    3    3    0  502 -0.28076064580E+02  0.36984389554E+02 -0.55032628051E+02  0.72126091140E+02  0.41800000000E+01 0. -1.
        -11    1    1    2    0    0  0.65023350788E+02  0.49927225599E+01  0.12586884994E+02  0.66418319010E+02  0.00000000000E+00 0.  1.
         11    1    1    2    0    0 -0.21041556814E+02 -0.32402134344E+02  0.14150736073E+02  0.41144729366E+02  0.00000000000E+00 0. -1.
</event>
<event>
 7    1  0.2714042E-009  0.9521699E+02  0.7561462E-02  0.1290688E+00
         -2   -1    0    0    0  501 -0.00000000000E+00  0.00000000000E+00  0.12383735138E+03  0.12383735138E+03  0.00000000000E+00 0.  1.
          2   -1    0    0  501    0  0.00000000000E+00 -0.00000000000E+00 -0.15654070215E+03  0.15654070215E+03  0.00000000000E+00 0. -1.
         25    2    1    2    0    0  0.42286421735E+02  0.64656717101E+02  0.20677628168E+02  0.14847047326E+03  0.12508910662E+03 0.  0.
          5    1    3    3  502    0  0.63428783869E+02  0.60332594259E+02  0.58044116487E+02  0.10511814502E+03  0.41800000000E+01 0. -1.
         -5    1    3    3    0  502 -0.21142362134E+02  0.43241228423E+01 -0.37366488319E+02  0.43352328245E+02  0.41800000000E+01 0. -1.
        -11    1    1    2    0    0 -0.33212501604E+02 -0.29231061028E+02 -0.76692825366E+02  0.88539904304E+02  0.00000000000E+00 0. -1.
         11    1    1    2    0    0 -0.90739201306E+01 -0.35425656073E+02  0.23311846421E+02  0.43367675962E+02  0.00000000000E+00 0.  1.
</event>
<event>
 7    1  0.2714042E-009  0.1392177E+03  0.7561462E-02  0.1214385E+00
          1   -1    0    0  501    0  0.00000000000E+00  0.00000000000E+00  0.82287787179E+02  0.82287787179E+02  0.00000000000E+00 0. -1.
         -1   -1    0    0    0  501 -0.00000000000E+00 -0.00000000000E+00 -0.28555050153E+03  0.28555050153E+03  0.00000000000E+00 0.  1.
         25    2    1    2    0    0  0.57435736353E+02 -0.85609727748E+02 -0.14788528426E+03  0.21941449385E+03  0.12507906905E+03 0.  0.
          5    1    3    3  502    0 -0.31921206119E+02  0.45365866314E+01 -0.47361924997E+02  0.57447091813E+02  0.41800000000E+01 0.  1.
         -5    1    3    3    0  502  0.89356942472E+02 -0.90146314379E+02 -0.10052335926E+03  0.16196740203E+03  0.41800000000E+01 0.  1.
        -11    1    1    2    0    0  0.94433783415E+01  0.31540769467E+02  0.16050769582E+02  0.36628195932E+02  0.00000000000E+00 0. -1.
         11    1    1    2    0    0 -0.66879114694E+02  0.54068958281E+02 -0.71428199673E+02  0.11179559893E+03  0.00000000000E+00 0.  1.
</event>
<event>
 7    1  0.2714042E-009  0.9807586E+02  0.7561462E-02  0.1284395E+00
          1   -1    0    0  501    0  0.00000000000E+00  0.00000000000E+00  0.49700638868E+02  0.49700638868E+02  0.00000000000E+00 0. -1.
         -1   -1    0    0    0  501 -0.00000000000E+00 -0.00000000000E+00 -0.28043120802E+03  0.28043120802E+03  0.00000000000E+00 0.  1.
         25    2    1    2    0    0 -0.42661033876E+02 -0.15074697628E+02 -0.10910548476E+03  0.17204327444E+03  0.12509065175E+03 0.  0.
          5    1    3    3  502    0 -0.60740256382E+02 -0.53918412754E+02 -0.40012600154E+02  0.90636938113E+02  0.41800000000E+01 0.  1.
         -5    1    3    3    0  502  0.18079222506E+02  0.38843715126E+02 -0.69092884606E+02  0.81406336328E+02  0.41800000000E+01 0.  1.
        -11    1    1    2    0    0  0.98106293266E+01 -0.20882756151E+02  0.39420174263E+01  0.23406782214E+02  0.00000000000E+00 0. -1.
         11    1    1    2    0    0  0.32850404549E+02  0.35957453779E+02 -0.12556710182E+03  0.13468179023E+03  0.00000000000E+00 0.  1.
</event>
<event>
 7    1  0.2714042E-009  0.1621363E+03  0.7561462E-02  0.1186306E+00
         -2   -1    0    0    0  501 -0.00000000000E+00  0.00000000000E+00  0.64780795868E+03  0.64780795868E+03  0.00000000000E+00 0.  1.
          2   -1    0    0  501    0  0.00000000000E+00 -0.00000000000E+00 -0.98285585179E+02  0.98285585179E+02  0.00000000000E+00 0. -1.
         25    2    1    2    0    0  0.14301032105E+03 -0.36707241039E+02  0.54852652298E+03  0.58165990759E+03  0.12509008037E+03 0.  0.
          5    1    3    3  502    0  0.88123109686E+02 -0.53803515767E+02  0.48497973827E+03  0.49586623166E+03  0.41800000000E+01 0. -1.
         -5    1    3    3    0  502  0.54887211368E+02  0.17096274728E+02  0.63546784708E+02  0.85793675921E+02  0.41800000000E+01 0. -1.
        -11    1    1    2    0    0 -0.68618450301E+02 -0.18019435913E+02 -0.91159582457E+01  0.71528263555E+02  0.00000000000E+00 0. -1.
         11    1    1    2    0    0 -0.74391870753E+02  0.54726676953E+02  0.10111808770E+02  0.92905372724E+02  0.00000000000E+00 0.  1.
</event>
<event>
 7    1  0.2714042E-009  0.1106936E+03  0.7561462E-02  0.1259291E+00
         -1   -1    0    0    0  501 -0.00000000000E+00  0.00000000000E+00  0.18625448291E+02  0.18625448291E+02  0.00000000000E+00 0.  1.
          1   -1    0    0  501    0  0.00000000000E+00 -0.00000000000E+00 -0.91416841443E+03  0.91416841443E+03  0.00000000000E+00 0. -1.
         25    2    1    2    0    0  0.24935661233E+02 -0.52048114878E+02 -0.64902629244E+03  0.66348587851E+03  0.12509032430E+03 0.  0.
          5    1    3    3  502    0  0.49224626337E+02  0.20085675815E+02 -0.38499513314E+03  0.38867109894E+03  0.41800000000E+01 0.  1.
         -5    1    3    3    0  502 -0.24288965104E+02 -0.72133790693E+02 -0.26403115930E+03  0.27481477956E+03  0.41800000000E+01 0.  1.
        -11    1    1    2    0    0  0.24140375636E+02  0.68041624114E+01 -0.17043440870E+02  0.30323806467E+02  0.00000000000E+00 0. -1.
         11    1    1    2    0    0 -0.49076036869E+02  0.45243952466E+02 -0.22947323283E+03  0.23898417775E+03  0.00000000000E+00 0.  1.
</event>
<event>
 7    1  0.2714042E-009  0.8954020E+02  0.7561462E-02  0.1303969E+00
         -1   -1    0    0    0  501 -0.00000000000E+00  0.00000000000E+00  0.56298172984E+03  0.56298172984E+03  0.00000000000E+00 0.  1.
          1   -1    0    0  501    0  0.00000000000E+00 -0.00000000000E+00 -0.33233354679E+02  0.33233354679E+02  0.00000000000E+00 0. -1.
         25    2    1    2    0    0  0.53686991915E+02 -0.55533478508E+02  0.37338937875E+03  0.40128975028E+03  0.12509026813E+03 0.  0.
          5    1    3    3  502    0  0.46553377386E+02 -0.23029365969E+02  0.36220665573E+03  0.36593538022E+03  0.41800000000E+01 0.  1.
         -5    1    3    3    0  502  0.71336145286E+01 -0.32504112538E+02  0.11182723023E+02  0.35354370060E+02  0.41800000000E+01 0.  1.
        -11    1    1    2    0    0  0.92964313617E+01  0.17616887971E+02  0.10087226663E+03  0.10282019526E+03  0.00000000000E+00 0.  1.
         11    1    1    2    0    0 -0.62983423277E+02  0.37916590537E+02  0.55486729787E+02  0.92105138989E+02  0.00000000000E+00 0. -1.
</event>
<event>
 7    1  0.2714042E-009  0.1279489E+03  0.7561462E-02  0.1230531E+00
         -2   -1    0    0    0  501 -0.00000000000E+00  0.00000000000E+00  0.21045522490E+02  0.21045522490E+02  0.00000000000E+00 0.  1.
          2   -1    0    0  501    0  0.00000000000E+00 -0.00000000000E+00 -0.89373925107E+03  0.89373925107E+03  0.00000000000E+00 0. -1.
         25    2    1    2    0    0  0.78142146458E+02  0.29205274476E+02 -0.49120996532E+03  0.51370536580E+03  0.12508728834E+03 0.  0.
          5    1    3    3  502    0  0.40686918611E+02  0.74965594531E+02 -0.21782707448E+03  0.23396874254E+03  0.41800000000E+01 0.  1.
         -5    1    3    3    0  502  0.37455227847E+02 -0.45760320055E+02 -0.27338289084E+03  0.27973662325E+03  0.41800000000E+01 0.  1.
        -11    1    1    2    0    0 -0.22056404153E+02  0.24917155756E+02 -0.46703808621E+02  0.57346275859E+02  0.00000000000E+00 0.  1.
         11    1    1    2    0    0 -0.56085742305E+02 -0.54122430232E+02 -0.33477995464E+03  0.34373313191E+03  0.00000000000E+00 0. -1.
</event>
<event>
 7    1  0.2714042E-009  0.3095934E+03  0.7561462E-02  0.1080541E+00
         -2   -1    0    0    0  501 -0.00000000000E+00  0.00000000000E+00  0.57872018673E+03  0.57872018673E+03  0.00000000000E+00 0. -1.
          2   -1    0    0  501    0  0.00000000000E+00 -0.00000000000E+00 -0.17397253610E+03  0.17397253610E+03  0.00000000000E+00 0.  1.
         25    2    1    2    0    0  0.26866923832E+03  0.12053116161E+03  0.25530694530E+03  0.40931607379E+03  0.12508833441E+03 0.  0.
          5    1    3    3  502    0  0.22006466215E+03  0.14674172519E+03  0.20939200175E+03  0.33737823320E+03  0.41800000000E+01 0. -1.
         -5    1    3    3    0  502  0.48604576174E+02 -0.26210563578E+02  0.45914943545E+02  0.71937840591E+02  0.41800000000E+01 0. -1.
        -11    1    1    2    0    0 -0.13662800370E+03 -0.90427521034E+02  0.38492246524E+02  0.16830330061E+03  0.00000000000E+00 0.  1.
         11    1    1    2    0    0 -0.13204123463E+03 -0.30103640579E+02  0.11094845881E+03  0.17507334843E+03  0.00000000000E+00 0. -1.
</event>
<event>
 7    1  0.2714042E-009  0.8609018E+02  0.7561462E-02  0.1312606E+00
         -4   -1    0    0    0  501 -0.00000000000E+00  0.00000000000E+00  0.40784742419E+02  0.40784742419E+02  0.00000000000E+00 0.  1.
          4   -1    0    0  501    0  0.00000000000E+00 -0.00000000000E+00 -0.31721038760E+03  0.31721038760E+03  0.00000000000E+00 0. -1.
         25    2    1    2    0    0  0.25997597522E+02 -0.15485316549E+02 -0.16288332855E+03  0.20759730627E+03  0.12509993105E+03 0.  0.
          5    1    3    3  502    0 -0.31133037644E+02  0.30090723880E+02 -0.21805737833E+02  0.48658815224E+02  0.41800000000E+01 0.  1.
         -5    1    3    3    0  502  0.57130635166E+02 -0.45576040429E+02 -0.14107759071E+03  0.15893849105E+03  0.41800000000E+01 0.  1.
        -11    1    1    2    0    0 -0.14587921724E+02  0.32137159059E+02 -0.12310306972E+03  0.12806236851E+03  0.00000000000E+00 0. -1.
         11    1    1    2    0    0 -0.11409675798E+02 -0.16651842511E+02  0.95607530911E+01  0.22335455234E+02  0.00000000000E+00 0.  1.
</event>
<event>
 7    1  0.2714042E-009  0.1016095E+03  0.7561462E-02  0.1276947E+00
          2   -1    0    0  501    0  0.00000000000E+00  0.00000000000E+00  0.52560703173E+02  0.52560703173E+02  0.00000000000E+00 0. -1.
         -2   -1    0    0    0  501 -0.00000000000E+00 -0.00000000000E+00 -0.24592236849E+03  0.24592236849E+03  0.00000000000E+00 0.  1.
         25    2    1    2    0    0 -0.24606553707E+02  0.22701633011E+01 -0.13845315191E+03  0.18822001255E+03  0.12508741633E+03 0.  0.
          5    1    3    3  502    0 -0.75723074941E+02  0.13156523275E+01 -0.89446067254E+02  0.11727653801E+03  0.41800000000E+01 0.  1.
         -5    1    3    3    0  502  0.51116521234E+02  0.95451097358E+00 -0.49007084651E+02  0.70943474543E+02  0.41800000000E+01 0.  1.
        -11    1    1    2    0    0  0.36930727547E+02 -0.28791879584E+02 -0.64302015438E+02  0.79546213967E+02  0.00000000000E+00 0.  1.
         11    1    1    2    0    0 -0.12324173840E+02  0.26521716283E+02  0.93935020258E+01  0.30716845146E+02  0.00000000000E+00 0. -1.
</event>
<event>
 7    1  0.2806375E-009  0.1550182E+03  0.7561462E-02  0.1194439E+00
         -1   -1    0    0    0  501 -0.00000000000E+00  0.00000000000E+00  0.72986289531E+02  0.72986289531E+02  0.00000000000E+00 0.  1.
          1   -1    0    0  501    0  0.00000000000E+00 -0.00000000000E+00 -0.44468518491E+03  0.44468518491E+03  0.00000000000E+00 0. -1.
         25    2    1    2    0    0 -0.32443623717E+02  0.13374274250E+03 -0.25562476857E+03  0.31612015095E+03  0.12509283609E+03 0.  0.
          5    1    3    3  502    0  0.37970481911E+02  0.46130352132E+02 -0.37395209125E+02  0.70609071300E+02  0.41800000000E+01 0. -1.
         -5    1    3    3    0  502 -0.70414105628E+02  0.87612390364E+02 -0.21822955944E+03  0.24551107965E+03  0.41800000000E+01 0. -1.
        -11    1    1    2    0    0  0.68294818067E+01 -0.22696800840E+02  0.14854788858E+02  0.27972331725E+02  0.00000000000E+00 0.  1.
         11    1    1    2    0    0  0.25614141911E+02 -0.11104594166E+03 -0.13092891567E+03  0.17357899177E+03  0.00000000000E+00 0. -1.
</event>
<event>
 7    1  0.2714042E-009  0.1495088E+03  0.7561462E-02  0.1201078E+00
         -2   -1    0    0    0  501 -0.00000000000E+00  0.00000000000E+00  0.24741624784E+03  0.24741624784E+03  0.00000000000E+00 0.  1.
          2   -1    0    0  501    0  0.00000000000E+00 -0.00000000000E+00 -0.12374981034E+03  0.12374981034E+03  0.00000000000E+00 0. -1.
         25    2    1    2    0    0 -0.21755918392E+02 -0.11491095868E+03 -0.10216737327E+02  0.17155048506E+03  0.12508932326E+03 0.  0.
          5    1    3    3  502    0  0.30844352973E+02 -0.85410620463E+01  0.32076308205E+02  0.45504788751E+02  0.41800000000E+01 0. -1.
         -5    1    3    3    0  502 -0.52600271365E+02 -0.10636989663E+03 -0.42293045532E+02  0.12604569631E+03  0.41800000000E+01 0. -1.
        -11    1    1    2    0    0 -0.32007189014E+02  0.73411549544E+02  0.75209808062E+02  0.10986460296E+03  0.00000000000E+00 0.  1.
         11    1    1    2    0    0  0.53763107406E+02  0.41499409132E+02  0.58673366765E+02  0.89750970155E+02  0.00000000000E+00 0. -1.
</event>
<event>
 7    1  0.2714042E-009  0.1155647E+03  0.7561462E-02  0.1250599E+00
          1   -1    0    0  501    0  0.00000000000E+00  0.00000000000E+00  0.40522544766E+03  0.40522544766E+03  0.00000000000E+00 0. -1.
         -1   -1    0    0    0  501 -0.00000000000E+00 -0.00000000000E+00 -0.53063485871E+02  0.53063485871E+02  0.00000000000E+00 0.  1.
         25    2    1    2    0    0  0.92181163013E+02 -0.19652562888E+02  0.15068719815E+03  0.21734204591E+03  0.12508934083E+03 0.  0.
          5    1    3    3  502    0 -0.40955752979E+01  0.51519818322E+00 -0.19698645185E+02  0.20555976948E+02  0.41800000000E+01 0.  1.
         -5    1    3    3    0  502  0.96276738311E+02 -0.20167761071E+02  0.17038584334E+03  0.19678606896E+03  0.41800000000E+01 0.  1.
        -11    1    1    2    0    0  0.88746978130E+01 -0.17101833636E+02  0.61428257952E+02  0.64379063755E+02  0.00000000000E+00 0. -1.
         11    1    1    2    0    0 -0.10105586083E+03  0.36754396524E+02  0.14004650568E+03  0.17656782387E+03  0.00000000000E+00 0.  1.
</event>
<event>
 7    1  0.2714042E-009  0.1335629E+03  0.7561462E-02  0.1222263E+00
         -1   -1    0    0    0  501 -0.00000000000E+00  0.00000000000E+00  0.23339475890E+02  0.23339475890E+02  0.00000000000E+00 0.  1.
          1   -1    0    0  501    0  0.00000000000E+00 -0.00000000000E+00 -0.88163280807E+03  0.88163280807E+03  0.00000000000E+00 0. -1.
         25    2    1    2    0    0 -0.45250393718E+02 -0.72292818409E+02 -0.57318874114E+03  0.59284695391E+03  0.12509327749E+03 0.  0.
          5    1    3    3  502    0  0.36880009075E+02 -0.47962030116E+02 -0.31508152182E+03  0.32086497034E+03  0.41800000000E+01 0. -1.
         -5    1    3    3    0  502 -0.82130402793E+02 -0.24330788293E+02 -0.25810721932E+03  0.27198198357E+03  0.41800000000E+01 0. -1.
        -11    1    1    2    0    0 -0.78988624297E+00  0.74616072475E+02 -0.12561533081E+03  0.14610747252E+03  0.00000000000E+00 0.  1.
         11    1    1    2    0    0  0.46040279961E+02 -0.23232540659E+01 -0.15948926023E+03  0.16601785753E+03  0.00000000000E+00 0. -1.
</event>
<event>
 7    1  0.2714042E-009  0.1434567E+03  0.7561462E-02  0.1208752E+00
          1   -1    0    0  501    0  0.00000000000E+00  0.00000000000E+00  0.49850055045E+03  0.49850055045E+03  0.00000000000E+00 0. -1.
         -1   -1    0    0    0  501 -0.00000000000E+00 -0.00000000000E+00 -0.51842245335E+02  0.51842245335E+02  0.00000000000E+00 0.  1.
         25    2    1    2    0    0 -0.10564172100E+03 -0.28985301082E+02  0.30767909901E+03  0.34973424658E+03  0.12508914568E+03 0.  0.
          5    1    3    3  502    0 -0.33488246298E+02 -0.70312754044E+02  0.19177018846E+03  0.20702324411E+03  0.41800000000E+01 0.  1.
         -5    1    3    3    0  502 -0.72153474703E+02  0.41327452961E+02  0.11590891055E+03  0.14271100247E+03  0.41800000000E+01 0.  1.
        -11    1    1    2    0    0  0.88011695564E+02 -0.41737459453E+01  0.13714421803E+03  0.16300924898E+03  0.00000000000E+00 0. -1.
         11    1    1    2    0    0  0.17630025438E+02  0.33159047028E+02  0.18349880733E+01  0.37599300232E+02  0.00000000000E+00 0.  1.
</event>
<event>
 7    1  0.2714042E-009  0.7746286E+02  0.7561462E-02  0.1336410E+00
          4   -1    0    0  501    0  0.00000000000E+00  0.00000000000E+00  0.83519732270E+02  0.83519732270E+02  0.00000000000E+00 0.  1.
         -4   -1    0    0    0  501 -0.00000000000E+00 -0.00000000000E+00 -0.17806558200E+03  0.17806558200E+03  0.00000000000E+00 0. -1.
         25    2    1    2    0    0  0.49379246196E+01 -0.56098072947E+01  0.10115023670E+01  0.12531709611E+03  0.12508996124E+03 0.  0.
          5    1    3    3  502    0  0.43442281735E+02 -0.46695858283E+02  0.17912935391E+02  0.66378314813E+02  0.41800000000E+01 0. -1.
         -5    1    3    3    0  502 -0.38504357115E+02  0.41086050988E+02 -0.16901433024E+02  0.58938781298E+02  0.41800000000E+01 0. -1.
        -11    1    1    2    0    0  0.14535759156E+02  0.35601067345E+01  0.16637248467E+02  0.22377682873E+02  0.00000000000E+00 0.  1.
         11    1    1    2    0    0 -0.19473683775E+02  0.20497005602E+01 -0.11219460056E+03  0.11389053528E+03  0.00000000000E+00 0. -1.
</event>
<event>
 7    1  0.2714042E-009  0.8848204E+02  0.7561462E-02  0.1306570E+00
         -1   -1    0    0    0  501 -0.00000000000E+00  0.00000000000E+00  0.92393657330E+01  0.92393657330E+01  0.00000000000E+00 0.  1.
          1   -1    0    0  501    0  0.00000000000E+00 -0.00000000000E+00 -0.21153473123E+04  0.21153473123E+04  0.00000000000E+00 0. -1.
         25    2    1    2    0    0  0.45381495104E+01 -0.55567930375E+02 -0.16776702100E+04  0.16832504286E+04  0.12508510055E+03 0.  0.
          5    1    3    3  502    0 -0.18486392412E+02 -0.36312724275E+02 -0.15893134560E+04  0.15898412167E+04  0.41800000000E+01 0. -1.
         -5    1    3    3    0  502  0.23024541922E+02 -0.19255206101E+02 -0.88356753988E+02  0.93409211901E+02  0.41800000000E+01 0. -1.
        -11    1    1    2    0    0  0.38925137388E+02  0.47635896221E+02 -0.26325025081E+03  0.27034244854E+03  0.00000000000E+00 0.  1.
         11    1    1    2    0    0 -0.43463286899E+02  0.79320341541E+01 -0.16518748582E+03  0.17099380090E+03  0.00000000000E+00 0. -1.
</event>
<event>
 7    1  0.2714042E-009  0.1201775E+03  0.7561462E-02  0.1242805E+00
          3   -1    0    0  501    0  0.00000000000E+00  0.00000000000E+00  0.22471011361E+02  0.22471011361E+02  0.00000000000E+00 0. -1.
         -3   -1    0    0    0  501 -0.00000000000E+00 -0.00000000000E+00 -0.91499118573E+03  0.91499118573E+03  0.00000000000E+00 0.  1.
         25    2    1    2    0    0 -0.14981237730E+02  0.65804872052E+02 -0.27264838758E+03  0.30747298854E+03  0.12509107388E+03 0.  0.
          5    1    3    3  502    0  0.36161429782E+02  0.68817988957E+02 -0.96560426537E+02  0.12403609548E+03  0.41800000000E+01 0.  1.
         -5    1    3    3    0  502 -0.51142667512E+02 -0.30131169054E+01 -0.17608796104E+03  0.18343689306E+03  0.41800000000E+01 0.  1.
        -11    1    1    2    0    0  0.30441435914E+02 -0.82744621927E+02 -0.52721937541E+03  0.53454057216E+03  0.00000000000E+00 0.  1.
         11    1    1    2    0    0 -0.15460198184E+02  0.16939749875E+02 -0.92652411385E+02  0.95448636392E+02  0.00000000000E+00 0. -1.
</event>
<event>
 7    1  0.2714042E-009  0.1492933E+03  0.7561462E-02  0.1201344E+00
          1   -1    0    0  501    0  0.00000000000E+00  0.00000000000E+00  0.13101240976E+04  0.13101240976E+04  0.00000000000E+00 0. -1.
         -1   -1    0    0    0  501 -0.00000000000E+00 -0.00000000000E+00 -0.22255354528E+02  0.22255354528E+02  0.00000000000E+00 0.  1.
         25    2    1    2    0    0 -0.31626733721E+02 -0.11856157301E+03  0.85535641258E+03  0.87312029473E+03  0.12508940663E+03 0.  0.
          5    1    3    3  502    0 -0.62099699747E+02 -0.13204700540E+02  0.25529724186E+03  0.26310623506E+03  0.41800000000E+01 0.  1.
         -5    1    3    3    0  502  0.30472966026E+02 -0.10535687247E+03  0.60005917072E+03  0.61001405967E+03  0.41800000000E+01 0.  1.
        -11    1    1    2    0    0 -0.43063506135E+01  0.12021203901E+02  0.41851069551E+00  0.12776116391E+02  0.00000000000E+00 0.  1.
         11    1    1    2    0    0  0.35933084335E+02  0.10654036911E+03  0.43209381978E+03  0.44648304099E+03  0.00000000000E+00 0. -1.
</event>
<event>
 7    1  0.2714042E-009  0.1220556E+03  0.7561462E-02  0.1239744E+00
         -2   -1    0    0    0  501 -0.00000000000E+00  0.00000000000E+00  0.45652628662E+03  0.45652628662E+03  0.00000000000E+00 0.  1.
          2   -1    0    0  501    0  0.00000000000E+00 -0.00000000000E+00 -0.47823524950E+02  0.47823524950E+02  0.00000000000E+00 0. -1.
         25    2    1    2    0    0 -0.14708676091E+02 -0.96512693133E+02  0.17984852224E+03  0.23984310871E+03  0.12509268864E+03 0.  0.
          5    1    3    3  502    0  0.30432742911E+02 -0.79362735253E+02  0.17038908232E+03  0.19045867625E+03  0.41800000000E+01 0. -1.
         -5    1    3    3    0  502 -0.45141419002E+02 -0.17149957880E+02  0.94594399272E+01  0.49384432451E+02  0.41800000000E+01 0. -1.
        -11    1    1    2    0    0  0.30881278095E+02  0.33829509723E+02  0.17314177595E+03  0.17909819553E+03  0.00000000000E+00 0.  1.
         11    1    1    2    0    0 -0.16172602005E+02  0.62683183410E+02  0.55712463481E+02  0.85408507334E+02  0.00000000000E+00 0. -1.
</event>
<event>
 7    1  0.2714042E-009  0.1271435E+03  0.7561462E-02  0.1231757E+00
          2   -1    0    0  501    0  0.00000000000E+00  0.00000000000E+00  0.72300937578E+03  0.72300937578E+03  0.00000000000E+00 0. -1.
         -2   -1    0    0    0  501 -0.00000000000E+00 -0.00000000000E+00 -0.29138008894E+02  0.29138008894E+02  0.00000000000E+00 0.  1.
         25    2    1    2    0    0  0.91018175300E+02 -0.28859334936E+02  0.42119796519E+03  0.44963448885E+03  0.12508508398E+03 0.  0.
          5    1    3    3  502    0 -0.44151517515E+01 -0.31672845255E+02  0.26183258194E+03  0.26381136453E+03  0.41800000000E+01 0.  1.
         -5    1    3    3    0  502  0.95433327051E+02  0.28135103185E+01  0.15936538325E+03  0.18582312432E+03  0.41800000000E+01 0.  1.
        -11    1    1    2    0    0 -0.80210371469E+02 -0.14737500586E+02  0.13524677880E+03  0.15793222847E+03  0.00000000000E+00 0.  1.
         11    1    1    2    0    0 -0.10807803831E+02  0.43596835522E+02  0.13742662290E+03  0.14458066735E+03  0.00000000000E+00 0. -1.
</event>
<event>
 7    1  0.2714042E-009  0.1507371E+03  0.7561462E-02  0.1199570E+00
          2   -1    0    0  501    0  0.00000000000E+00  0.00000000000E+00  0.13921034893E+03  0.13921034893E+03  0.00000000000E+00 0.  1.
         -2   -1    0    0    0  501 -0.00000000000E+00 -0.00000000000E+00 -0.21159553743E+03  0.21159553743E+03  0.00000000000E+00 0. -1.
         25    2    1    2    0    0  0.68991924960E+02  0.79888535315E+02 -0.12073536879E+03  0.20338944068E+03  0.12509265174E+03 0.  0.
          5    1    3    3  502    0  0.99597062288E+02  0.30631377163E+02 -0.89296782497E+02  0.13729254841E+03  0.41800000000E+01 0.  1.
         -5    1    3    3    0  502 -0.30605137328E+02  0.49257158152E+02 -0.31438586290E+02  0.66096892272E+02  0.41800000000E+01 0.  1.
        -11    1    1    2    0    0 -0.75911650235E+02 -0.19650394295E+02  0.23207107251E+02  0.81775830563E+02  0.00000000000E+00 0.  1.
         11    1    1    2    0    0  0.69197252754E+01 -0.60238141020E+02  0.25143073038E+02  0.65640615119E+02  0.00000000000E+00 0. -1.
</event>
<event>
 7    1  0.2714042E-009  0.1175028E+03  0.7561462E-02  0.1247275E+00
         -1   -1    0    0    0  501 -0.00000000000E+00  0.00000000000E+00  0.52559690848E+02  0.52559690848E+02  0.00000000000E+00 0.  1.
          1   -1    0    0  501    0  0.00000000000E+00 -0.00000000000E+00 -0.36368239826E+03  0.36368239826E+03  0.00000000000E+00 0. -1.
         25    2    1    2    0    0  0.84276333690E+02  0.33356085080E+01 -0.15065618515E+03  0.21320886100E+03  0.12508839106E+03 0.  0.
          5    1    3    3  502    0  0.32778040546E+01  0.53278079512E+02 -0.37857509768E+02  0.65574089409E+02  0.41800000000E+01 0. -1.
         -5    1    3    3    0  502  0.80998529635E+02 -0.49942471004E+02 -0.11279867538E+03  0.14763477159E+03  0.41800000000E+01 0. -1.
        -11    1    1    2    0    0 -0.64736575677E+02  0.50865945248E+01 -0.16827386872E+03  0.18036849106E+03  0.00000000000E+00 0. -1.
         11    1    1    2    0    0 -0.19539758013E+02 -0.84222030328E+01  0.78073464542E+01  0.22664737055E+02  0.00000000000E+00 0.  1.
</event>
<event>
 7    1  0.2714042E-009  0.1017341E+03  0.7561462E-02  0.1276691E+00
          2   -1    0    0  501    0  0.00000000000E+00  0.00000000000E+00  0.15439988017E+03  0.15439988017E+03  0.00000000000E+00 0. -1.
         -2   -1    0    0    0  501 -0.00000000000E+00 -0.00000000000E+00 -0.12440656395E+03  0.12440656395E+03  0.00000000000E+00 0.  1.
         25    2    1    2    0    0 -0.34351048058E+02  0.79238353341E+02  0.19426221563E+02  0.15324235823E+03  0.12508849319E+03 0.  0.
          5    1    3    3  502    0 -0.12959511240E+02  0.45268312046E+02 -0.52573882050E+02  0.70701163222E+02  0.41800000000E+01 0. -1.
         -5    1    3    3    0  502 -0.21391536819E+02  0.33970041295E+02  0.72000103614E+02  0.82541195008E+02  0.41800000000E+01 0. -1.
        -11    1    1    2    0    0  0.51143327387E+02 -0.21108445520E+02 -0.18630952267E+02  0.58380808412E+02  0.00000000000E+00 0.  1.
         11    1    1    2    0    0 -0.16792279329E+02 -0.58129907821E+02  0.29198046929E+02  0.67183277479E+02  0.00000000000E+00 0. -1.
</event>
<event>
 7    1  0.2714042E-009  0.1113292E+03  0.7561462E-02  0.1258128E+00
          3   -1    0    0  501    0  0.00000000000E+00  0.00000000000E+00  0.16362278254E+02  0.16362278254E+02  0.00000000000E+00 0.  1.
         -3   -1    0    0    0  501 -0.00000000000E+00 -0.00000000000E+00 -0.10293490580E+04  0.10293490580E+04  0.00000000000E+00 0. -1.
         25    2    1    2    0    0 -0.18562987756E+02  0.70619242113E+02 -0.58767131533E+03  0.60525764139E+03  0.12509027029E+03 0.  0.
          5    1    3    3  502    0 -0.22833136950E+02 -0.27839176635E+02 -0.27546751153E+03  0.27784203103E+03  0.41800000000E+01 0.  1.
         -5    1    3    3    0  502  0.42701491937E+01  0.98458418748E+02 -0.31220380381E+03  0.32741561036E+03  0.41800000000E+01 0.  1.
        -11    1    1    2    0    0  0.32391270985E+02 -0.65417622549E+02 -0.41731692936E+03  0.42365325363E+03  0.00000000000E+00 0. -1.
         11    1    1    2    0    0 -0.13828283229E+02 -0.52016195642E+01 -0.79985350664E+01  0.16800441255E+02  0.00000000000E+00 0.  1.
</event>
<event>
 7    1  0.2714042E-009  0.1329448E+03  0.7561462E-02  0.1223151E+00
          1   -1    0    0  501    0  0.00000000000E+00  0.00000000000E+00  0.38804464690E+03  0.38804464690E+03  0.00000000000E+00 0. -1.
         -1   -1    0    0    0  501 -0.00000000000E+00 -0.00000000000E+00 -0.72898176169E+02  0.72898176169E+02  0.00000000000E+00 0.  1.
         25    2    1    2    0    0 -0.62827494116E+02  0.61275699317E+02  0.29671060061E+03  0.33374802701E+03  0.12509420320E+03 0.  0.
          5    1    3    3  502    0 -0.94200643019E+02  0.41523233741E+02  0.26656207349E+03  0.28578095022E+03  0.41800000000E+01 0. -1.
         -5    1    3    3    0  502  0.31373148902E+02  0.19752465576E+02  0.30148527125E+02  0.47967076794E+02  0.41800000000E+01 0. -1.
        -11    1    1    2    0    0  0.67481408545E+01 -0.68656324282E+02  0.14504010528E+02  0.70495351551E+02  0.00000000000E+00 0. -1.
         11    1    1    2    0    0  0.56079353262E+02  0.73806249652E+01  0.39318595880E+01  0.56699444503E+02  0.00000000000E+00 0.  1.
</event>
<event>
 7    1  0.2714042E-009  0.8984083E+02  0.7561462E-02  0.1303238E+00
         -1   -1    0    0    0  501 -0.00000000000E+00  0.00000000000E+00  0.36167427678E+02  0.36167427678E+02  0.00000000000E+00 0. -1.
          1   -1    0    0  501    0  0.00000000000E+00 -0.00000000000E+00 -0.41909245702E+03  0.41909245702E+03  0.00000000000E+00 0.  1.
         25    2    1    2    0    0  0.13570476766E+02 -0.53188594250E+02 -0.17670317474E+03  0.22334894156E+03  0.12509018080E+03 0.  0.
          5    1    3    3  502    0 -0.13841732629E+02 -0.43329516217E+02 -0.18674722780E+03  0.19225254232E+03  0.41800000000E+01 0. -1.
         -5    1    3    3    0  502  0.27412209395E+02 -0.98590780334E+01  0.10044053061E+02  0.31096399236E+02  0.41800000000E+01 0. -1.
        -11    1    1    2    0    0  0.36604344518E+02  0.36509231922E+02 -0.12152284094E+03  0.13206287489E+03  0.00000000000E+00 0. -1.
         11    1    1    2    0    0 -0.50174821284E+02  0.16679362328E+02 -0.84699013662E+02  0.99848068253E+02  0.00000000000E+00 0.  1.
</event>
<event>
 7    1  0.3078446E-009  0.9122480E+02  0.7561462E-02  0.1299912E+00
         -1   -1    0    0    0  501 -0.00000000000E+00  0.00000000000E+00  0.32521721072E+02  0.32521721072E+02  0.00000000000E+00 0.  1.
          1   -1    0    0  501    0  0.00000000000E+00 -0.00000000000E+00 -0.41476130589E+03  0.41476130589E+03  0.00000000000E+00 0. -1.
         25    2    1    2    0    0  0.20029131458E+02 -0.19712895918E+02 -0.15796324267E+03  0.20344381357E+03  0.12508890788E+03 0.  0.
          5    1    3    3  502    0  0.48751703818E+02  0.48664270098E+01 -0.15793177998E+03  0.16540958335E+03  0.41800000000E+01 0.  1.
         -5    1    3    3    0  502 -0.28722572360E+02 -0.24579322928E+02 -0.31462689233E-01  0.38034230221E+02  0.41800000000E+01 0.  1.
        -11    1    1    2    0    0 -0.56599629063E+02  0.11262940649E+02 -0.14724304453E+03  0.15814830383E+03  0.00000000000E+00 0. -1.
         11    1    1    2    0    0  0.36570497605E+02  0.84499552687E+01 -0.77033297618E+02  0.85690909559E+02  0.00000000000E+00 0.  1.
</event>
<event>
 7    1  0.2714042E-009  0.9897255E+02  0.7561462E-02  0.1282471E+00
         -2   -1    0    0    0  501 -0.00000000000E+00  0.00000000000E+00  0.25415666855E+02  0.25415666855E+02  0.00000000000E+00 0.  1.
          2   -1    0    0  501    0  0.00000000000E+00 -0.00000000000E+00 -0.73867559060E+03  0.73867559060E+03  0.00000000000E+00 0. -1.
         25    2    1    2    0    0 -0.38548679218E+02 -0.56039164552E+02 -0.52158733441E+03  0.54067324594E+03  0.12509125796E+03 0.  0.
          5    1    3    3  502    0 -0.73850304896E+02 -0.14825031797E+02 -0.18625760623E+03  0.20095526214E+03  0.41800000000E+01 0. -1.
         -5    1    3    3    0  502  0.35301625678E+02 -0.41214132755E+02 -0.33532972818E+03  0.33971798380E+03  0.41800000000E+01 0. -1.
        -11    1    1    2    0    0  0.22174707616E+02  0.34724213828E+02 -0.19216825584E+03  0.19653530786E+03  0.00000000000E+00 0. -1.
         11    1    1    2    0    0  0.16373971602E+02  0.21314950724E+02  0.49566651259E+00  0.26882703652E+02  0.00000000000E+00 0.  1.
</event>
<event>
 7    1  0.2714042E-009  0.1019705E+03  0.7561462E-02  0.1276206E+00
         -2   -1    0    0    0  501 -0.00000000000E+00  0.00000000000E+00  0.50435419340E+02  0.50435419340E+02  0.00000000000E+00 0.  1.
          2   -1    0    0  501    0  0.00000000000E+00 -0.00000000000E+00 -0.39224182818E+03  0.39224182818E+03  0.00000000000E+00 0. -1.
         25    2    1    2    0    0 -0.16298925923E+02  0.33307965520E+02 -0.31167619501E+03  0.33788401039E+03  0.12509387828E+03 0.  0.
          5    1    3    3  502    0 -0.56461349220E+02  0.54949584750E+01 -0.26193309166E+03  0.26803823501E+03  0.41800000000E+01 0. -1.
         -5    1    3    3    0  502  0.40162423298E+02  0.27813007045E+02 -0.49743103357E+02  0.69845775374E+02  0.41800000000E+01 0. -1.
        -11    1    1    2    0    0 -0.37125920975E+02 -0.22834647821E+02 -0.22906877167E+01  0.43646333175E+02  0.00000000000E+00 0. -1.
         11    1    1    2    0    0  0.53424846898E+02 -0.10473317699E+02 -0.27839526113E+02  0.61146903960E+02  0.00000000000E+00 0.  1.
</event>
<event>
 7    1  0.2714042E-009  0.7759178E+02  0.7561462E-02  0.1336028E+00
          2   -1    0    0  501    0  0.00000000000E+00  0.00000000000E+00  0.81765174227E+02  0.81765174227E+02  0.00000000000E+00 0. -1.
         -2   -1    0    0    0  501 -0.00000000000E+00 -0.00000000000E+00 -0.18567005723E+03  0.18567005723E+03  0.00000000000E+00 0.  1.
         25    2    1    2    0    0 -0.38849566051E+02  0.17850205897E+02 -0.14481520020E+02  0.13298583351E+03  0.12509036278E+03 0.  0.
          5    1    3    3  502    0  0.14415628202E+02  0.45285856081E+01  0.47533511087E+02  0.50052227726E+02  0.41800000000E+01 0. -1.
         -5    1    3    3    0  502 -0.53265194253E+02  0.13321620289E+02 -0.62015031107E+02  0.82933605789E+02  0.41800000000E+01 0. -1.
        -11    1    1    2    0    0 -0.11461586793E+02  0.18923073276E+02  0.36673558013E+01  0.22425435839E+02  0.00000000000E+00 0. -1.
         11    1    1    2    0    0  0.50311152844E+02 -0.36773279173E+02 -0.93090718788E+02  0.11202396211E+03  0.00000000000E+00 0.  1.
</event>
<event>
 7    1  0.2714042E-009  0.8581499E+02  0.7561462E-02  0.1313315E+00
         -3   -1    0    0    0  501 -0.00000000000E+00  0.00000000000E+00  0.62336656194E+02  0.62336656194E+02  0.00000000000E+00 0.  1.
          3   -1    0    0  501    0  0.00000000000E+00 -0.00000000000E+00 -0.26167187797E+03  0.26167187797E+03  0.00000000000E+00 0. -1.
         25    2    1    2    0    0 -0.47569959610E+02 -0.29255931788E+02 -0.15472541744E+03  0.20665584608E+03  0.12509145981E+03 0.  0.
          5    1    3    3  502    0 -0.71994636390E+02  0.16406712706E+00 -0.15182430913E+03  0.16808137264E+03  0.41800000000E+01 0. -1.
         -5    1    3    3    0  502  0.24424676780E+02 -0.29419998915E+02 -0.29011083099E+01  0.38574473443E+02  0.41800000000E+01 0. -1.
        -11    1    1    2    0    0  0.34295443180E+02  0.68006581214E+01 -0.71684373878E+02  0.79756352926E+02  0.00000000000E+00 0. -1.
         11    1    1    2    0    0  0.13274516430E+02  0.22455273667E+02  0.27074569534E+02  0.37596335158E+02  0.00000000000E+00 0.  1.
</event>
<event>
 7    1  0.2714042E-009  0.1041699E+03  0.7561462E-02  0.1271764E+00
         -1   -1    0    0    0  501 -0.00000000000E+00  0.00000000000E+00  0.79738240552E+02  0.79738240552E+02  0.00000000000E+00 0.  1.
          1   -1    0    0  501    0  0.00000000000E+00 -0.00000000000E+00 -0.18015567258E+03  0.18015567258E+03  0.00000000000E+00 0. -1.
         25    2    1    2    0    0  0.26048999967E+02  0.23339017513E+02 -0.10281607390E+02  0.13029986260E+03  0.12509629333E+03 0.  0.
          5    1    3    3  502    0  0.60249024814E+02  0.54356743027E+02  0.52110018800E+01  0.81420067822E+02  0.41800000000E+01 0. -1.
         -5    1    3    3    0  502 -0.34200024847E+02 -0.31017725514E+02 -0.15492609270E+02  0.48879794778E+02  0.41800000000E+01 0. -1.
        -11    1    1    2    0    0 -0.39053117657E+02 -0.42405087534E+02 -0.29590251272E+02  0.64799077292E+02  0.00000000000E+00 0. -1.
         11    1    1    2    0    0  0.13004117690E+02  0.19066070020E+02 -0.60545573369E+02  0.64794973243E+02  0.00000000000E+00 0.  1.
</event>
<event>
 7    1  0.2714042E-009  0.1095225E+03  0.7561462E-02  0.1261457E+00
          2   -1    0    0  501    0  0.00000000000E+00  0.00000000000E+00  0.26109453358E+03  0.26109453358E+03  0.00000000000E+00 0. -1.
         -2   -1    0    0    0  501 -0.00000000000E+00 -0.00000000000E+00 -0.71109146883E+02  0.71109146883E+02  0.00000000000E+00 0.  1.
         25    2    1    2    0    0 -0.55550372144E+02  0.36165229976E+02  0.15970301194E+03  0.21341788848E+03  0.12509346664E+03 0.  0.
          5    1    3    3  502    0  0.66291450469E+01 -0.32197442831E+02  0.54920448822E+01  0.33589519882E+02  0.41800000000E+01 0.  1.
         -5    1    3    3    0  502 -0.62179517191E+02  0.68362672807E+02  0.15421096706E+03  0.17982836860E+03  0.41800000000E+01 0.  1.
        -11    1    1    2    0    0  0.10653816246E+02  0.19298879145E+02  0.41074632231E+02  0.46616262718E+02  0.00000000000E+00 0. -1.
         11    1    1    2    0    0  0.44896555898E+02 -0.55464109121E+02 -0.10792257481E+02  0.72169529260E+02  0.00000000000E+00 0.  1.
</event>
<event>
 7    1  0.2714042E-009  0.2396647E+03  0.7561462E-02  0.1120016E+00
          2   -1    0    0  501    0  0.00000000000E+00  0.00000000000E+00  0.64085547876E+03  0.64085547876E+03  0.00000000000E+00 0. -1.
         -2   -1    0    0    0  501 -0.00000000000E+00 -0.00000000000E+00 -0.10102077927E+03  0.10102077927E+03  0.00000000000E+00 0.  1.
         25    2    1    2    0    0  0.11588875917E+03  0.18353715932E+03  0.16569133647E+03  0.30036180013E+03  0.12508996219E+03 0.  0.
          5    1    3    3  502    0  0.95537509835E+02  0.19792820855E+03  0.12618289500E+03  0.25346121383E+03  0.41800000000E+01 0.  1.
         -5    1    3    3    0  502  0.20351249340E+02 -0.14391049232E+02  0.39508441475E+02  0.46900586302E+02  0.41800000000E+01 0.  1.
        -11    1    1    2    0    0 -0.10119426098E+03 -0.78223829064E+02  0.21291037897E+03  0.24837486862E+03  0.00000000000E+00 0.  1.
         11    1    1    2    0    0 -0.14694498190E+02 -0.10531333025E+03  0.16123298404E+03  0.19313958928E+03  0.00000000000E+00 0. -1.
</event>
<event>
 7    1  0.2714042E-009  0.1117395E+03  0.7561462E-02  0.1257382E+00
          4   -1    0    0  501    0  0.00000000000E+00  0.00000000000E+00  0.12358083238E+03  0.12358083238E+03  0.00000000000E+00 0. -1.
         -4   -1    0    0    0  501 -0.00000000000E+00 -0.00000000000E+00 -0.18331319392E+03  0.18331319392E+03  0.00000000000E+00 0.  1.
         25    2    1    2    0    0 -0.77381788111E+02  0.54308155154E+02 -0.77561224339E+02  0.17493115858E+03  0.12509136611E+03 0.  0.
          5    1    3    3  502    0 -0.45976910854E+02  0.16150569347E+02  0.29375271154E+02  0.57053450179E+02  0.41800000000E+01 0. -1.
         -5    1    3    3    0  502 -0.31404877257E+02  0.38157585807E+02 -0.10693649549E+03  0.11787770840E+03  0.41800000000E+01 0. -1.
        -11    1    1    2    0    0  0.19272952077E+02 -0.63303359793E+02  0.28764444315E+02  0.72153692210E+02  0.00000000000E+00 0. -1.
         11    1    1    2    0    0  0.58108836034E+02  0.89952046395E+01 -0.10935581507E+02  0.59809175505E+02  0.00000000000E+00 0.  1.
</event>
<event>
 7    1  0.3833795E-009  0.1325902E+03  0.7561462E-02  0.1223662E+00
         -2   -1    0    0    0  501 -0.00000000000E+00  0.00000000000E+00  0.29487877740E+02  0.29487877740E+02  0.00000000000E+00 0.  1.
          2   -1    0    0  501    0  0.00000000000E+00 -0.00000000000E+00 -0.78043581286E+03  0.78043581286E+03  0.00000000000E+00 0. -1.
         25    2    1    2    0    0 -0.92227229130E+02  0.47717281110E+02 -0.35159963537E+03  0.38736603302E+03  0.12508932505E+03 0.  0.
          5    1    3    3  502    0 -0.84999163697E+02  0.81408763224E+02 -0.20228896136E+03  0.23407379359E+03  0.41800000000E+01 0. -1.
         -5    1    3    3    0  502 -0.72280654324E+01 -0.33691482114E+02 -0.14931067401E+03  0.15329223943E+03  0.41800000000E+01 0. -1.
        -11    1    1    2    0    0  0.50351961710E+02 -0.15574398713E+01 -0.63902257160E+02  0.81371027627E+02  0.00000000000E+00 0.  1.
         11    1    1    2    0    0  0.41875267420E+02 -0.46159841239E+02 -0.33544604259E+03  0.34118662995E+03  0.00000000000E+00 0. -1.
</event>
<event>
 7    1  0.2714042E-009  0.8869214E+02  0.7561462E-02  0.1306050E+00
         -2   -1    0    0    0  501 -0.00000000000E+00  0.00000000000E+00  0.35931356881E+02  0.35931356881E+02  0.00000000000E+00 0.  1.
          2   -1    0    0  501    0  0.00000000000E+00 -0.00000000000E+00 -0.34538907290E+03  0.34538907290E+03  0.00000000000E+00 0. -1.
         25    2    1    2    0    0  0.56889446063E+01  0.54457122278E+01 -0.22479270075E+03  0.25737487887E+03  0.12509216639E+03 0.  0.
          5    1    3    3  502    0  0.80065380599E+01  0.47789014161E+02 -0.20445161021E+03  0.21015667452E+03  0.41800000000E+01 0. -1.
         -5    1    3    3    0  502 -0.23175934536E+01 -0.42343301933E+02 -0.20341090537E+02  0.47218204353E+02  0.41800000000E+01 0. -1.
        -11    1    1    2    0    0  0.14430880801E+02  0.36699925305E+02 -0.20104782505E+02  0.44264400116E+02  0.00000000000E+00 0.  1.
         11    1    1    2    0    0 -0.20119825408E+02 -0.42145637533E+02 -0.64560232770E+02  0.79681150800E+02  0.00000000000E+00 0. -1.
</event>
<event>
 7    1  0.2714042E-009  0.1115291E+03  0.7561462E-02  0.1257764E+00
          1   -1    0    0  501    0  0.00000000000E+00  0.00000000000E+00  0.13829090611E+03  0.13829090611E+03  0.00000000000E+00 0. -1.
         -1   -1    0    0    0  501 -0.00000000000E+00 -0.00000000000E+00 -0.94324750611E+02  0.94324750611E+02  0.00000000000E+00 0.  1.
         25    2    1    2    0    0  0.33249690218E+02  0.93022565030E+01  0.10381753557E+02  0.13018034429E+03  0.12508823829E+03 0.  0.
          5    1    3    3  502    0  0.23001736875E+02  0.66662959621E+02  0.12415836282E+02  0.71726253738E+02  0.41800000000E+01 0.  1.
         -5    1    3    3    0  502  0.10247953343E+02 -0.57360703118E+02 -0.20340827250E+01  0.58454090554E+02  0.41800000000E+01 0.  1.
        -11    1    1    2    0    0 -0.32968513632E+02 -0.46387420691E+02  0.32057467911E+02  0.65317661764E+02  0.00000000000E+00 0. -1.
         11    1    1    2    0    0 -0.28117658672E+00  0.37085164188E+02  0.15269340271E+01  0.37117650662E+02  0.00000000000E+00 0.  1.
</event>
<event>
 7    1  0.2714042E-009  0.1018655E+03  0.7561462E-02  0.1276421E+00
          1   -1    0    0  501    0  0.00000000000E+00  0.00000000000E+00  0.10474265573E+03  0.10474265573E+03  0.00000000000E+00 0. -1.
         -1   -1    0    0    0  501 -0.00000000000E+00 -0.00000000000E+00 -0.12765670240E+03  0.12765670240E+03  0.00000000000E+00 0.  1.
         25    2    1    2    0    0 -0.40938789047E+02 -0.10130103258E+02  0.10798691834E+01  0.13200810639E+03  0.12508545317E+03 0.  0.
          5    1    3    3  502    0  0.34240318929E+02 -0.28155141029E+02  0.24885087990E+02  0.51008346484E+02  0.41800000000E+01 0.  1.
         -5    1    3    3    0  502 -0.75179107976E+02  0.18025037772E+02 -0.23805218807E+02  0.80999759908E+02  0.41800000000E+01 0.  1.
        -11    1    1    2    0    0  0.58630993997E+02 -0.45293895808E+01 -0.41101271548E+02  0.71745545854E+02  0.00000000000E+00 0.  1.
         11    1    1    2    0    0 -0.17692204950E+02  0.14659492839E+02  0.17107355695E+02  0.28645705876E+02  0.00000000000E+00 0. -1.
</event>
<event>
 7    1  0.2714042E-009  0.9057600E+02  0.7561462E-02  0.1301463E+00
          1   -1    0    0  501    0  0.00000000000E+00  0.00000000000E+00  0.11104240464E+03  0.11104240464E+03  0.00000000000E+00 0. -1.
         -1   -1    0    0    0  501 -0.00000000000E+00 -0.00000000000E+00 -0.13443851369E+03  0.13443851369E+03  0.00000000000E+00 0.  1.
         25    2    1    2    0    0  0.27580510626E+02 -0.41992007302E+00 -0.42809536770E+02  0.13506122403E+03  0.12509203371E+03 0.  0.
          5    1    3    3  502    0  0.29239303289E+01  0.32441291874E+02 -0.75539047265E+02  0.82368724943E+02  0.41800000000E+01 0.  1.
         -5    1    3    3    0  502  0.24656580297E+02 -0.32861211947E+02  0.32729510495E+02  0.52692499085E+02  0.41800000000E+01 0.  1.
        -11    1    1    2    0    0 -0.51983000032E+02  0.36458665132E+02  0.20974401467E+02  0.66868468447E+02  0.00000000000E+00 0. -1.
         11    1    1    2    0    0  0.24402489406E+02 -0.36038745059E+02 -0.15609737425E+01  0.43551225858E+02  0.00000000000E+00 0.  1.
</event>
<event>
 7    1  0.2714042E-009  0.1145850E+03  0.7561462E-02  0.1252307E+00
         -1   -1    0    0    0  501 -0.00000000000E+00  0.00000000000E+00  0.16809437618E+02  0.16809437618E+02  0.00000000000E+00 0.  1.
          1   -1    0    0  501    0  0.00000000000E+00 -0.00000000000E+00 -0.13226542240E+04  0.13226542240E+04  0.00000000000E+00 0. -1.
         25    2    1    2    0    0  0.30837841770E+02  0.86200765261E+02 -0.94266749709E+03  0.95532846066E+03  0.12509561650E+03 0.  0.
          5    1    3    3  502    0  0.43817266624E+02  0.91470031323E+02 -0.40721206995E+03  0.41967351810E+03  0.41800000000E+01 0.  1.
         -5    1    3    3    0  502 -0.12979424854E+02 -0.52692660627E+01 -0.53545542714E+03  0.53565494256E+03  0.41800000000E+01 0.  1.
        -11    1    1    2    0    0  0.20139882746E+02 -0.13487364728E+02 -0.26369807499E+02  0.35817462667E+02  0.00000000000E+00 0. -1.
         11    1    1    2    0    0 -0.50977724517E+02 -0.72713400533E+02 -0.33680748178E+03  0.34831773827E+03  0.00000000000E+00 0.  1.
</event>
<event>
 7    1  0.2714042E-009  0.1785697E+03  0.7561462E-02  0.1169195E+00
          2   -1    0    0  501    0  0.00000000000E+00  0.00000000000E+00  0.86718643875E+03  0.86718643875E+03  0.00000000000E+00 0. -1.
         -2   -1    0    0    0  501 -0.00000000000E+00 -0.00000000000E+00 -0.44367037056E+02  0.44367037056E+02  0.00000000000E+00 0.  1.
         25    2    1    2    0    0  0.33549843859E+02 -0.14471774693E+03  0.58433753745E+03  0.61576455697E+03  0.12508722415E+03 0.  0.
          5    1    3    3  502    0  0.60663476669E+02 -0.18951556326E+02  0.15594358180E+03  0.16844907834E+03  0.41800000000E+01 0. -1.
         -5    1    3    3    0  502 -0.27113632810E+02 -0.12576619060E+03  0.42839395565E+03  0.44731547863E+03  0.41800000000E+01 0. -1.
        -11    1    1    2    0    0 -0.41799113929E+02  0.34500874929E+02  0.35875143954E+02  0.64996171040E+02  0.00000000000E+00 0.  1.
         11    1    1    2    0    0  0.82492700698E+01  0.11021687200E+03  0.20260672029E+03  0.23079274780E+03  0.00000000000E+00 0. -1.
</event>
<event>
 7    1  0.2714042E-009  0.2289104E+03  0.7561462E-02  0.1127409E+00
          1   -1    0    0  501    0  0.00000000000E+00  0.00000000000E+00  0.97437908901E+03  0.97437908901E+03  0.00000000000E+00 0. -1.
         -1   -1    0    0    0  501 -0.00000000000E+00 -0.00000000000E+00 -0.60120829424E+02  0.60120829424E+02  0.00000000000E+00 0.  1.
         25    2    1    2    0    0  0.16190287603E+03 -0.13180626956E+03  0.58732411721E+03  0.63575351805E+03  0.12508990003E+03 0.  0.
          5    1    3    3  502    0  0.17523499831E+03 -0.85536130500E+02  0.47192019944E+03  0.51063674103E+03  0.41800000000E+01 0. -1.
         -5    1    3    3    0  502 -0.13332122281E+02 -0.46270139059E+02  0.11540391777E+03  0.12511677701E+03  0.41800000000E+01 0. -1.
        -11    1    1    2    0    0 -0.62178768721E+02  0.21615290132E+02  0.44074998780E+02  0.79221370631E+02  0.00000000000E+00 0.  1.
         11    1    1    2    0    0 -0.99724107312E+02  0.11019097943E+03  0.28285914360E+03  0.31952502976E+03  0.00000000000E+00 0. -1.
</event>
<event>
 7    1  0.2714042E-009  0.1583186E+03  0.7561462E-02  0.1190608E+00
          2   -1    0    0  501    0  0.00000000000E+00  0.00000000000E+00  0.28499487080E+03  0.28499487080E+03  0.00000000000E+00 0. -1.
         -2   -1    0    0    0  501 -0.00000000000E+00 -0.00000000000E+00 -0.10582980680E+03  0.10582980680E+03  0.00000000000E+00 0.  1.
         25    2    1    2    0    0 -0.12955605599E+03 -0.10961711646E+02  0.13696724026E+03  0.22652074202E+03  0.12508673349E+03 0.  0.
          5    1    3    3  502    0 -0.34987245892E+02 -0.59750504470E+02  0.79507486202E+02  0.10551370964E+03  0.41800000000E+01 0. -1.
         -5    1    3    3    0  502 -0.94568810103E+02  0.48788792824E+02  0.57459754055E+02  0.12100703238E+03  0.41800000000E+01 0. -1.
        -11    1    1    2    0    0  0.27973945665E+02  0.25874210873E+02  0.48217383971E+02  0.61456753424E+02  0.00000000000E+00 0. -1.
         11    1    1    2    0    0  0.10158211033E+03 -0.14912499227E+02 -0.60195602223E+01  0.10284718216E+03  0.00000000000E+00 0.  1.
</event>
<event>
 7    1  0.2714042E-009  0.1812062E+03  0.7561462E-02  0.1166641E+00
         -2   -1    0    0    0  501 -0.00000000000E+00  0.00000000000E+00  0.12234979838E+03  0.12234979838E+03  0.00000000000E+00 0.  1.
          2   -1    0    0  501    0  0.00000000000E+00 -0.00000000000E+00 -0.34368932433E+03  0.34368932433E+03  0.00000000000E+00 0. -1.
         25    2    1    2    0    0 -0.29023282271E+01 -0.16097434017E+03 -0.18881971369E+03  0.27788424192E+03  0.12508239655E+03 0.  0.
          5    1    3    3  502    0 -0.34688017522E+02 -0.16346459984E+03 -0.13361116869E+03  0.21399381010E+03  0.41800000000E+01 0. -1.
         -5    1    3    3    0  502  0.31785689295E+02  0.24902596784E+01 -0.55208544996E+02  0.63890431817E+02  0.41800000000E+01 0. -1.
        -11    1    1    2    0    0 -0.10849026708E+02  0.43914430946E+02  0.30445028197E+02  0.54525942153E+02  0.00000000000E+00 0.  1.
         11    1    1    2    0    0  0.13751354936E+02  0.11705990922E+03 -0.62964840457E+02  0.13362893864E+03  0.00000000000E+00 0. -1.
</event>
<event>
 7    1  0.2714042E-009  0.5635819E+02  0.7561462E-02  0.1413783E+00
          1   -1    0    0  501    0  0.00000000000E+00  0.00000000000E+00  0.16050981782E+03  0.16050981782E+03  0.00000000000E+00 0. -1.
         -1   -1    0    0    0  501 -0.00000000000E+00 -0.00000000000E+00 -0.76275905191E+02  0.76275905191E+02  0.00000000000E+00 0.  1.
         25    2    1    2    0    0 -0.75108652606E+01 -0.12710392270E+02  0.63909062492E+02  0.14124699780E+03  0.12509348085E+03 0.  0.
          5    1    3    3  502    0  0.24614604971E+02 -0.88916761732E+00  0.92896176206E+02  0.96196888466E+02  0.41800000000E+01 0. -1.
         -5    1    3    3    0  502 -0.32125470232E+02 -0.11821224652E+02 -0.28987113713E+02  0.45050109338E+02  0.41800000000E+01 0. -1.
        -11    1    1    2    0    0  0.17623880757E+02  0.29081591273E+02 -0.27663399217E+02  0.43836101334E+02  0.00000000000E+00 0.  1.
         11    1    1    2    0    0 -0.10113015496E+02 -0.16371199004E+02  0.47988249358E+02  0.51702623877E+02  0.00000000000E+00 0. -1.
</event>
<event>
 7    1  0.2714042E-009  0.1523964E+03  0.7561462E-02  0.1197559E+00
          2   -1    0    0  501    0  0.00000000000E+00  0.00000000000E+00  0.92491999296E+03  0.92491999296E+03  0.00000000000E+00 0. -1.
         -2   -1    0    0    0  501 -0.00000000000E+00 -0.00000000000E+00 -0.30554523045E+02  0.30554523045E+02  0.00000000000E+00 0.  1.
         25    2    1    2    0    0  0.12618101822E+02 -0.10956621829E+03  0.65837476402E+03  0.67916775199E+03  0.12509009857E+03 0.  0.
          5    1    3    3  502    0 -0.54999038385E+02 -0.42300180590E+02  0.22949585971E+03  0.23979162105E+03  0.41800000000E+01 0.  1.
         -5    1    3    3    0  502  0.67617140207E+02 -0.67266037696E+02  0.42887890431E+03  0.43937613094E+03  0.41800000000E+01 0.  1.
        -11    1    1    2    0    0  0.26141887834E+02  0.94796851234E+02  0.13405027405E+03  0.16625076624E+03  0.00000000000E+00 0. -1.
         11    1    1    2    0    0 -0.38759989656E+02  0.14769367052E+02  0.10194043185E+03  0.11005599778E+03  0.00000000000E+00 0.  1.
</event>
<event>
 7    1  0.2714042E-009  0.9909884E+02  0.7561462E-02  0.1282202E+00
         -3   -1    0    0    0  501 -0.00000000000E+00  0.00000000000E+00  0.98119322947E+02  0.98119322947E+02  0.00000000000E+00 0.  1.
          3   -1    0    0  501    0  0.00000000000E+00 -0.00000000000E+00 -0.14350491142E+03  0.14350491142E+03  0.00000000000E+00 0. -1.
         25    2    1    2    0    0  0.48044753743E+02  0.28172427121E+02 -0.29760024129E+02  0.14012617666E+03  0.12509077638E+03 0.  0.
          5    1    3    3  502    0  0.51803999689E+02 -0.16534217061E+02 -0.63594808700E+02  0.83778319458E+02  0.41800000000E+01 0. -1.
         -5    1    3    3    0  502 -0.37592459465E+01  0.44706644182E+02  0.33834784571E+02  0.56347857200E+02  0.41800000000E+01 0. -1.
        -11    1    1    2    0    0 -0.62445296180E+02 -0.44612761597E+02 -0.19777135235E+02  0.79251804966E+02  0.00000000000E+00 0.  1.
         11    1    1    2    0    0  0.14400542437E+02  0.16440334476E+02  0.41515708933E+01  0.22246252741E+02  0.00000000000E+00 0. -1.
</event>
<event>
 7    1  0.2714042E-009  0.1228424E+03  0.7561462E-02  0.1238480E+00
         -2   -1    0    0    0  501 -0.00000000000E+00  0.00000000000E+00  0.29661757864E+02  0.29661757864E+02  0.00000000000E+00 0. -1.
          2   -1    0    0  501    0  0.00000000000E+00 -0.00000000000E+00 -0.96340602018E+03  0.96340602018E+03  0.00000000000E+00 0.  1.
         25    2    1    2    0    0  0.10989697864E+03 -0.47301138520E+02 -0.64114883272E+03  0.66410413060E+03  0.12509087484E+03 0.  0.
          5    1    3    3  502    0  0.34592083729E+02 -0.33625544698E+02 -0.56324053991E+02  0.74277594004E+02  0.41800000000E+01 0. -1.
         -5    1    3    3    0  502  0.75304894913E+02 -0.13675593821E+02 -0.58482477873E+03  0.58982653660E+03  0.41800000000E+01 0. -1.
        -11    1    1    2    0    0 -0.63249539821E+02  0.35348352928E+02 -0.26217984784E+03  0.27200787297E+03  0.00000000000E+00 0.  1.
         11    1    1    2    0    0 -0.46647438822E+02  0.11952785592E+02 -0.30415581754E+02  0.56955774470E+02  0.00000000000E+00 0. -1.
</event>
<event>
 7    1  0.3120984E-009  0.8891925E+02  0.7561462E-02  0.1305490E+00
         -1   -1    0    0    0  501 -0.00000000000E+00  0.00000000000E+00  0.30073866568E+02  0.30073866568E+02  0.00000000000E+00 0.  1.
          1   -1    0    0  501    0  0.00000000000E+00 -0.00000000000E+00 -0.47129199326E+03  0.47129199326E+03  0.00000000000E+00 0. -1.
         25    2    1    2    0    0 -0.16041615110E+02 -0.12180273495E+02 -0.34251243369E+03  0.36519723690E+03  0.12509421301E+03 0.  0.
          5    1    3    3  502    0  0.44997396137E+02 -0.22340719901E+02 -0.73491539244E+02  0.89119875254E+02  0.41800000000E+01 0. -1.
         -5    1    3    3    0  502 -0.61039011246E+02  0.10160446405E+02 -0.26902089445E+03  0.27607736165E+03  0.41800000000E+01 0. -1.
        -11    1    1    2    0    0  0.24525352214E+02  0.34042091571E+02 -0.82982199788E+01  0.42769350644E+02  0.00000000000E+00 0.  1.
         11    1    1    2    0    0 -0.84837371040E+01 -0.21861818076E+02 -0.90407473021E+02  0.93399272282E+02  0.00000000000E+00 0. -1.
</event>
<event>
 7    1  0.2714042E-009  0.1033789E+03  0.7561462E-02  0.1273347E+00
         -1   -1    0    0    0  501 -0.00000000000E+00  0.00000000000E+00  0.43684708881E+02  0.43684708881E+02  0.00000000000E+00 0.  1.
          1   -1    0    0  501    0  0.00000000000E+00 -0.00000000000E+00 -0.33942672063E+03  0.33942672063E+03  0.00000000000E+00 0. -1.
         25    2    1    2    0    0 -0.13622761474E+02  0.26170689135E+02 -0.90578421512E+02  0.15723371941E+03  0.12508999751E+03 0.  0.
          5    1    3    3  502    0  0.29298664887E+02  0.61068828800E+02 -0.71477769836E+02  0.98561440716E+02  0.41800000000E+01 0. -1.
         -5    1    3    3    0  502 -0.42921426361E+02 -0.34898139665E+02 -0.19100651676E+02  0.58672278696E+02  0.41800000000E+01 0. -1.
        -11    1    1    2    0    0  0.46311495743E+02 -0.18304024746E+02 -0.17034909201E+03  0.17747846379E+03  0.00000000000E+00 0. -1.
         11    1    1    2    0    0 -0.32688734269E+02 -0.78666643890E+01 -0.34814498234E+02  0.48399246317E+02  0.00000000000E+00 0.  1.
</event>
<event>
 7    1  0.2714042E-009  0.1099954E+03  0.7561462E-02  0.1260578E+00
         -2   -1    0    0    0  501 -0.00000000000E+00  0.00000000000E+00  0.11812126384E+03  0.11812126384E+03  0.00000000000E+00 0.  1.
          2   -1    0    0  501    0  0.00000000000E+00 -0.00000000000E+00 -0.15829474677E+03  0.15829474677E+03  0.00000000000E+00 0. -1.
         25    2    1    2    0    0  0.92332703737E+01  0.72553200253E+02 -0.94503064175E+01  0.14521571305E+03  0.12509626244E+03 0.  0.
          5    1    3    3  502    0 -0.18446422737E+02 -0.19837078848E+02  0.30261274605E+02  0.40828878869E+02  0.41800000000E+01 0. -1.
         -5    1    3    3    0  502  0.27679693111E+02  0.92390279101E+02 -0.39711581023E+02  0.10438683418E+03  0.41800000000E+01 0. -1.
        -11    1    1    2    0    0  0.26708940605E+02 -0.35460558829E+02  0.28394616283E+02  0.52697940894E+02  0.00000000000E+00 0.  1.
         11    1    1    2    0    0 -0.35942210978E+02 -0.37092641424E+02 -0.59117792794E+02  0.78502356670E+02  0.00000000000E+00 0. -1.
</event>
<event>
 7    1  0.2714042E-009  0.1007810E+03  0.7561462E-02  0.1278662E+00
         -2   -1    0    0    0  501 -0.00000000000E+00  0.00000000000E+00  0.43209025967E+02  0.43209025967E+02  0.00000000000E+00 0.  1.
          2   -1    0    0  501    0  0.00000000000E+00 -0.00000000000E+00 -0.33737955300E+03  0.33737955300E+03  0.00000000000E+00 0. -1.
         25    2    1    2    0    0 -0.11555175400E+02  0.29149841824E+02 -0.23268206867E+03  0.26602855918E+03  0.12508802446E+03 0.  0.
          5    1    3    3  502    0  0.45168636134E+02  0.10818933079E+02 -0.31794930883E+02  0.56441518699E+02  0.41800000000E+01 0. -1.
         -5    1    3    3    0  502 -0.56723811535E+02  0.18330908746E+02 -0.20088713779E+03  0.20958704048E+03  0.41800000000E+01 0. -1.
        -11    1    1    2    0    0  0.26685065580E+02 -0.57301109768E+02 -0.31048382857E+02  0.70423802679E+02  0.00000000000E+00 0. -1.
         11    1    1    2    0    0 -0.15129890180E+02  0.28151267944E+02 -0.30440075511E+02  0.44136217110E+02  0.00000000000E+00 0.  1.
</event>
<event>
 7    1  0.2714042E-009  0.6820880E+02  0.7561462E-02  0.1366292E+00
          3   -1    0    0  501    0  0.00000000000E+00  0.00000000000E+00  0.11709319037E+03  0.11709319037E+03  0.00000000000E+00 0. -1.
         -3   -1    0    0    0  501 -0.00000000000E+00 -0.00000000000E+00 -0.15223114567E+03  0.15223114567E+03  0.00000000000E+00 0.  1.
         25    2    1    2    0    0  0.11328082099E+02 -0.40386770595E+02 -0.93509670736E+02  0.16171435501E+03  0.12509219564E+03 0.  0.
          5    1    3    3  502    0  0.40894420999E+02 -0.28675608073E+02 -0.11339329616E+03  0.12397643398E+03  0.41800000000E+01 0.  1.
         -5    1    3    3    0  502 -0.29566338900E+02 -0.11711162522E+02  0.19883625426E+02  0.37737921029E+02  0.41800000000E+01 0.  1.
        -11    1    1    2    0    0 -0.13061750269E+02 -0.71706577494E+00 -0.17173942417E+02  0.21588603511E+02  0.00000000000E+00 0.  1.
         11    1    1    2    0    0  0.17336681698E+01  0.41103836370E+02  0.75545657854E+02  0.86021377519E+02  0.00000000000E+00 0. -1.
</event>
<event>
 7    1  0.2714042E-009  0.1019087E+03  0.7561462E-02  0.1276333E+00
          1   -1    0    0  501    0  0.00000000000E+00  0.00000000000E+00  0.34742338866E+02  0.34742338866E+02  0.00000000000E+00 0. -1.
         -1   -1    0    0    0  501 -0.00000000000E+00 -0.00000000000E+00 -0.48678812193E+03  0.48678812193E+03  0.00000000000E+00 0.  1.
         25    2    1    2    0    0  0.20029015249E+02  0.46756951847E+02 -0.13511333922E+03  0.19102543353E+03  0.12509087825E+03 0.  0.
          5    1    3    3  502    0 -0.20518524746E+02 -0.32092409814E+02 -0.13847530674E+02  0.40745050388E+02  0.41800000000E+01 0.  1.
         -5    1    3    3    0  502  0.40547539994E+02  0.78849361661E+02 -0.12126580855E+03  0.15028038314E+03  0.41800000000E+01 0.  1.
        -11    1    1    2    0    0  0.16069320309E+02  0.18655290455E+01 -0.13445790429E+02  0.21035506509E+02  0.00000000000E+00 0. -1.
         11    1    1    2    0    0 -0.36098335558E+02 -0.48622480893E+02 -0.30348665341E+03  0.30946952076E+03  0.00000000000E+00 0.  1.
</event>
<event>
 7    1  0.2714042E-009  0.1128852E+03  0.7561462E-02  0.1255318E+00
          2   -1    0    0  501    0  0.00000000000E+00  0.00000000000E+00  0.22155551267E+03  0.22155551267E+03  0.00000000000E+00 0. -1.
         -2   -1    0    0    0  501 -0.00000000000E+00 -0.00000000000E+00 -0.73523811787E+02  0.73523811787E+02  0.00000000000E+00 0.  1.
         25    2    1    2    0    0  0.47720958802E+02 -0.12786368924E+02  0.35920872271E+02  0.13920922801E+03  0.12509244165E+03 0.  0.
          5    1    3    3  502    0  0.13376469846E+01 -0.54670093524E+02 -0.16776910278E+02  0.57354559922E+02  0.41800000000E+01 0. -1.
         -5    1    3    3    0  502  0.46383311818E+02  0.41883724600E+02  0.52697782549E+02  0.81854668084E+02  0.41800000000E+01 0. -1.
        -11    1    1    2    0    0  0.89066290949E+01  0.43133140896E+02  0.45517374591E+02  0.63337408181E+02  0.00000000000E+00 0. -1.
         11    1    1    2    0    0 -0.56627587897E+02 -0.30346771973E+02  0.66593454020E+02  0.92532688270E+02  0.00000000000E+00 0.  1.
</event>
<event>
 7    1  0.2714042E-009  0.1003424E+03  0.7561462E-02  0.1279578E+00
         -2   -1    0    0    0  501 -0.00000000000E+00  0.00000000000E+00  0.76157909271E+02  0.76157909271E+02  0.00000000000E+00 0.  1.
          2   -1    0    0  501    0  0.00000000000E+00 -0.00000000000E+00 -0.22619887535E+03  0.22619887535E+03  0.00000000000E+00 0. -1.
         25    2    1    2    0    0  0.92384938563E+01  0.73369563402E+02 -0.88139121743E+02  0.16995786765E+03  0.12509488156E+03 0.  0.
          5    1    3    3  502    0 -0.10518196163E+02  0.49721203450E+01  0.29727329216E+02  0.32195355776E+02  0.41800000000E+01 0.  1.
         -5    1    3    3    0  502  0.19756690020E+02  0.68397443057E+02 -0.11786645096E+03  0.13776251188E+03  0.41800000000E+01 0.  1.
        -11    1    1    2    0    0  0.30222735224E+02  0.36734440580E+01 -0.14784341315E+02  0.33845009437E+02  0.00000000000E+00 0.  1.
         11    1    1    2    0    0 -0.39461229080E+02 -0.77043007460E+02 -0.47117503024E+02  0.98553907534E+02  0.00000000000E+00 0. -1.
</event>
<event>
 7    1  0.2714042E-009  0.2588862E+03  0.7561462E-02  0.1107814E+00
          2   -1    0    0  501    0  0.00000000000E+00  0.00000000000E+00  0.76798140336E+03  0.76798140336E+03  0.00000000000E+00 0. -1.
         -2   -1    0    0    0  501 -0.00000000000E+00 -0.00000000000E+00 -0.97120433500E+02  0.97120433500E+02  0.00000000000E+00 0.  1.
         25    2    1    2    0    0  0.21473227854E+03 -0.11575976569E+03  0.26029952392E+03  0.37803869869E+03  0.12508853166E+03 0.  0.
          5    1    3    3  502    0  0.45753514388E+02 -0.66399060584E+02  0.14972514485E+03  0.17010970203E+03  0.41800000000E+01 0.  1.
         -5    1    3    3    0  502  0.16897876415E+03 -0.49360705105E+02  0.11057437907E+03  0.20792899665E+03  0.41800000000E+01 0.  1.
        -11    1    1    2    0    0 -0.56241175493E+02 -0.11829180811E+02  0.11000673952E+03  0.12411479396E+03  0.00000000000E+00 0. -1.
         11    1    1    2    0    0 -0.15849110305E+03  0.12758894650E+03  0.30055470641E+03  0.36294834420E+03  0.00000000000E+00 0.  1.
</event>
<event>
 7    1  0.2714042E-009  0.3881393E+03  0.7561462E-02  0.1047966E+00
          2   -1    0    0  501    0  0.00000000000E+00  0.00000000000E+00  0.11645043745E+04  0.11645043745E+04  0.00000000000E+00 0. -1.
         -2   -1    0    0    0  501 -0.00000000000E+00 -0.00000000000E+00 -0.14194382929E+03  0.14194382929E+03  0.00000000000E+00 0.  1.
         25    2    1    2    0    0 -0.17748483598E+03 -0.32913010401E+03  0.70218589600E+03  0.80532017076E+03  0.12509217613E+03 0.  0.
          5    1    3    3  502    0 -0.17957603461E+03 -0.21653489541E+03  0.51465692038E+03  0.58653570329E+03  0.41800000000E+01 0. -1.
         -5    1    3    3    0  502  0.20911986310E+01 -0.11259520860E+03  0.18752897562E+03  0.21878446747E+03  0.41800000000E+01 0. -1.
        -11    1    1    2    0    0  0.82805681595E+02  0.23318694790E+03  0.17632521093E+03  0.30384784610E+03  0.00000000000E+00 0.  1.
         11    1    1    2    0    0  0.94679154383E+02  0.95943156110E+02  0.14404943828E+03  0.19728018691E+03  0.00000000000E+00 0. -1.
</event>
<event>
 7    1  0.2714042E-009  0.1163207E+03  0.7561462E-02  0.1249293E+00
          2   -1    0    0  501    0  0.00000000000E+00  0.00000000000E+00  0.46297677426E+03  0.46297677426E+03  0.00000000000E+00 0. -1.
         -2   -1    0    0    0  501 -0.00000000000E+00 -0.00000000000E+00 -0.51394128958E+02  0.51394128958E+02  0.00000000000E+00 0.  1.
         25    2    1    2    0    0  0.91825657001E+02  0.45021199762E+02  0.28735009875E+03  0.32966062959E+03  0.12508873547E+03 0.  0.
          5    1    3    3  502    0 -0.11251597739E+02 -0.33844825566E+01 -0.68031851970E+01  0.14205946033E+02  0.41800000000E+01 0.  1.
         -5    1    3    3    0  502  0.10307725474E+03  0.48405682319E+02  0.29415328394E+03  0.31545468356E+03  0.41800000000E+01 0.  1.
        -11    1    1    2    0    0 -0.49512311659E+01 -0.12516378923E+02 -0.13234274793E+02  0.18876452546E+02  0.00000000000E+00 0.  1.
         11    1    1    2    0    0 -0.86874425835E+02 -0.32504820839E+02  0.13746682135E+03  0.16583382108E+03  0.00000000000E+00 0. -1.
</event>
<event>
 7    1  0.2714042E-009  0.9744229E+02  0.7561462E-02  0.1285768E+00
          2   -1    0    0  501    0  0.00000000000E+00  0.00000000000E+00  0.67527536208E+03  0.67527536208E+03  0.00000000000E+00 0. -1.
         -2   -1    0    0    0  501 -0.00000000000E+00 -0.00000000000E+00 -0.20430351182E+02  0.20430351182E+02  0.00000000000E+00 0.  1.
         25    2    1    2    0    0  0.12472358439E+02 -0.33792633554E+02  0.49861742398E+03  0.51532874893E+03  0.12508749806E+03 0.  0.
          5    1    3    3  502    0  0.44888080376E+02  0.32171598126E+02  0.24881302342E+03  0.25490261769E+03  0.41800000000E+01 0.  1.
         -5    1    3    3    0  502 -0.32415721937E+02 -0.65964231680E+02  0.24980440056E+03  0.26042613123E+03  0.41800000000E+01 0.  1.
        -11    1    1    2    0    0 -0.34448970506E+02  0.22796038671E+02  0.28209708695E+02  0.50021781382E+02  0.00000000000E+00 0.  1.
         11    1    1    2    0    0  0.21976612067E+02  0.10996594883E+02  0.12801787823E+03  0.13035518296E+03  0.00000000000E+00 0. -1.
</event>
<event>
 7    1  0.2714042E-009  0.1691669E+03  0.7561462E-02  0.1178719E+00
          2   -1    0    0  501    0  0.00000000000E+00  0.00000000000E+00  0.54923231076E+03  0.54923231076E+03  0.00000000000E+00 0. -1.
         -2   -1    0    0    0  501 -0.00000000000E+00 -0.00000000000E+00 -0.61948699782E+02  0.61948699782E+02  0.00000000000E+00 0.  1.
         25    2    1    2    0    0  0.33071568510E+02  0.13201966574E+03  0.35310162744E+03  0.39856107955E+03  0.12508898450E+03 0.  0.
          5    1    3    3  502    0 -0.45080120888E+02  0.50094994742E+02  0.17387899569E+03  0.18652909516E+03  0.41800000000E+01 0.  1.
         -5    1    3    3    0  502  0.78151689397E+02  0.81924670994E+02  0.17922263175E+03  0.21203198439E+03  0.41800000000E+01 0.  1.
        -11    1    1    2    0    0 -0.59001373723E+02 -0.10208318541E+03  0.69762757177E+02  0.13699993114E+03  0.00000000000E+00 0.  1.
         11    1    1    2    0    0  0.25929805213E+02 -0.29936480329E+02  0.64419226357E+02  0.75619999850E+02  0.00000000000E+00 0. -1.
</event>
<event>
 7    1  0.2714042E-009  0.8509221E+02  0.7561462E-02  0.1315192E+00
          2   -1    0    0  501    0  0.00000000000E+00  0.00000000000E+00  0.66570631180E+03  0.66570631180E+03  0.00000000000E+00 0. -1.
         -2   -1    0    0    0  501 -0.00000000000E+00 -0.00000000000E+00 -0.29523318935E+02  0.29523318935E+02  0.00000000000E+00 0.  1.
         25    2    1    2    0    0 -0.18063410263E+02 -0.14926890418E+02  0.56185265541E+03  0.57608277679E+03  0.12507541917E+03 0.  0.
          5    1    3    3  502    0 -0.25668977912E+02 -0.51654431471E+02  0.50203668382E+03  0.50535668692E+03  0.41800000000E+01 0.  1.
         -5    1    3    3    0  502  0.76055676487E+01  0.36727541053E+02  0.59815971585E+02  0.70726089866E+02  0.41800000000E+01 0.  1.
        -11    1    1    2    0    0  0.40831988813E+02 -0.87566564536E+01  0.75492741769E+02  0.86273312226E+02  0.00000000000E+00 0. -1.
         11    1    1    2    0    0 -0.22768578550E+02  0.23683546872E+02 -0.11624043069E+01  0.32873541722E+02  0.00000000000E+00 0.  1.
</event>
<event>
 7    1  0.2714042E-009  0.1597099E+03  0.7561462E-02  0.1189025E+00
         -2   -1    0    0    0  501 -0.00000000000E+00  0.00000000000E+00  0.34299047809E+02  0.34299047809E+02  0.00000000000E+00 0. -1.
          2   -1    0    0  501    0  0.00000000000E+00 -0.00000000000E+00 -0.86758751144E+03  0.86758751144E+03  0.00000000000E+00 0.  1.
         25    2    1    2    0    0  0.58246100963E+02 -0.12026883162E+03 -0.46681901685E+03  0.50142748251E+03  0.12510925459E+03 0.  0.
          5    1    3    3  502    0  0.14703473148E+02 -0.12480171874E+03 -0.24597892791E+03  0.27625127421E+03  0.41800000000E+01 0.  1.
         -5    1    3    3    0  502  0.43542627815E+02  0.45328871248E+01 -0.22084008894E+03  0.22517620830E+03  0.41800000000E+01 0.  1.
        -11    1    1    2    0    0 -0.70735035518E+02  0.76491279584E+02 -0.31481693997E+03  0.33160830327E+03  0.00000000000E+00 0.  1.
         11    1    1    2    0    0  0.12488934555E+02  0.43777552033E+02 -0.51652506807E+02  0.68850773472E+02  0.00000000000E+00 0. -1.
</event>
<event>
 7    1  0.2714042E-009  0.1039806E+03  0.7561462E-02  0.1272141E+00
          1   -1    0    0  501    0  0.00000000000E+00  0.00000000000E+00  0.67261915472E+02  0.67261915472E+02  0.00000000000E+00 0. -1.
         -1   -1    0    0    0  501 -0.00000000000E+00 -0.00000000000E+00 -0.25304004963E+03  0.25304004963E+03  0.00000000000E+00 0.  1.
         25    2    1    2    0    0  0.37470727761E+02  0.20725215163E+02 -0.17255375931E+03  0.21738378875E+03  0.12508925524E+03 0.  0.
          5    1    3    3  502    0 -0.30581831954E+02 -0.21104535180E+02 -0.10895354872E+03  0.11519113694E+03  0.41800000000E+01 0. -1.
         -5    1    3    3    0  502  0.68052559715E+02  0.41829750343E+02 -0.63600210592E+02  0.10219265181E+03  0.41800000000E+01 0. -1.
        -11    1    1    2    0    0 -0.62780140223E+02 -0.16588907004E+02  0.13016654367E+02  0.66226664818E+02  0.00000000000E+00 0. -1.
         11    1    1    2    0    0  0.25309412462E+02 -0.41363081585E+01 -0.26241029222E+02  0.36691511538E+02  0.00000000000E+00 0.  1.
</event>
<event>
 7    1  0.2714042E-009  0.7923609E+02  0.7561462E-02  0.1331233E+00
          1   -1    0    0  501    0  0.00000000000E+00  0.00000000000E+00  0.20153155949E+03  0.20153155949E+03  0.00000000000E+00 0. -1.
         -1   -1    0    0    0  501 -0.00000000000E+00 -0.00000000000E+00 -0.62527891284E+02  0.62527891284E+02  0.00000000000E+00 0.  1.
         25    2    1    2    0    0 -0.96890141818E+01  0.29292686696E+02  0.76981749915E+02  0.15007746013E+03  0.12508043703E+03 0.  0.
          5    1    3    3  502    0 -0.26481282841E+02  0.49831420201E+02 -0.11385244361E+02  0.57719363903E+02  0.41800000000E+01 0. -1.
         -5    1    3    3    0  502  0.16792268659E+02 -0.20538733505E+02  0.88366994276E+02  0.92358096224E+02  0.41800000000E+01 0. -1.
        -11    1    1    2    0    0  0.24541094859E+02 -0.46329686676E+02  0.72172655018E+02  0.89205366076E+02  0.00000000000E+00 0. -1.
         11    1    1    2    0    0 -0.14852080677E+02  0.17036999979E+02 -0.10150736732E+02  0.24776624567E+02  0.00000000000E+00 0.  1.
</event>
<event>
 7    1  0.2714042E-009  0.1815292E+03  0.7561462E-02  0.1166331E+00
         -2   -1    0    0    0  501 -0.00000000000E+00  0.00000000000E+00  0.34064819378E+03  0.34064819378E+03  0.00000000000E+00 0.  1.
          2   -1    0    0  501    0  0.00000000000E+00 -0.00000000000E+00 -0.10872965623E+03  0.10872965623E+03  0.00000000000E+00 0. -1.
         25    2    1    2    0    0  0.45869040055E+02 -0.14972583420E+03  0.11478287999E+03  0.23096146100E+03  0.12508514168E+03 0.  0.
          5    1    3    3  502    0 -0.71877309155E+01 -0.14676197160E+03  0.87719963429E+02  0.17118120272E+03  0.41800000000E+01 0.  1.
         -5    1    3    3    0  502  0.53056770970E+02 -0.29638626046E+01  0.27062916558E+02  0.59780258280E+02  0.41800000000E+01 0.  1.
        -11    1    1    2    0    0 -0.92712054724E+01  0.10294590696E+03  0.21094476475E+02  0.10549308958E+03  0.00000000000E+00 0.  1.
         11    1    1    2    0    0 -0.36597834583E+02  0.46779927235E+02  0.96041181083E+02  0.11292329942E+03  0.00000000000E+00 0. -1.
</event>
<event>
 7    1  0.2714042E-009  0.8039742E+02  0.7561462E-02  0.1327927E+00
          2   -1    0    0  501    0  0.00000000000E+00  0.00000000000E+00  0.31629708157E+03  0.31629708157E+03  0.00000000000E+00 0.  1.
         -2   -1    0    0    0  501 -0.00000000000E+00 -0.00000000000E+00 -0.41873205189E+02  0.41873205189E+02  0.00000000000E+00 0. -1.
         25    2    1    2    0    0  0.26010780603E+02 -0.20604805803E+02  0.18567422063E+03  0.22632476920E+03  0.12508743428E+03 0.  0.
          5    1    3    3  502    0 -0.11199543191E+02  0.17630729635E+02 -0.99512853123E+01  0.23511122358E+02  0.41800000000E+01 0.  1.
         -5    1    3    3    0  502  0.37210323794E+02 -0.38235535438E+02  0.19562550595E+03  0.20281364684E+03  0.41800000000E+01 0.  1.
        -11    1    1    2    0    0  0.26114913556E+02 -0.69394120730E+01  0.60935857132E+02  0.66658254060E+02  0.00000000000E+00 0.  1.
         11    1    1    2    0    0 -0.52125694159E+02  0.27544217876E+02  0.27813798620E+02  0.65187263508E+02  0.00000000000E+00 0. -1.
</event>
<event>
 7    1  0.2714042E-009  0.9738501E+02  0.7561462E-02  0.1285893E+00
          2   -1    0    0  501    0  0.00000000000E+00  0.00000000000E+00  0.39642282255E+03  0.39642282255E+03  0.00000000000E+00 0. -1.
         -2   -1    0    0    0  501 -0.00000000000E+00 -0.00000000000E+00 -0.57842296451E+02  0.57842296451E+02  0.00000000000E+00 0.  1.
         25    2    1    2    0    0  0.82251535364E+02 -0.51643694836E+01  0.82984394606E+02  0.17124384719E+03  0.12508421032E+03 0.  0.
          5    1    3    3  502    0  0.70907403965E+02 -0.35514457091E+02 -0.27852750815E+01  0.79462989856E+02  0.41800000000E+01 0. -1.
         -5    1    3    3    0  502  0.11344131399E+02  0.30350087608E+02  0.85769669687E+02  0.91780857336E+02  0.41800000000E+01 0. -1.
        -11    1    1    2    0    0 -0.44045172624E+02  0.61189388104E+01  0.23584576821E+03  0.24000134380E+03  0.00000000000E+00 0. -1.
         11    1    1    2    0    0 -0.38206362740E+02 -0.95456932686E+00  0.19750363289E+02  0.43019928015E+02  0.00000000000E+00 0.  1.
</event>
<event>
 7    1  0.2714042E-009  0.1667499E+03  0.7561462E-02  0.1181280E+00
          1   -1    0    0  501    0  0.00000000000E+00  0.00000000000E+00  0.94514741037E+03  0.94514741037E+03  0.00000000000E+00 0. -1.
         -1   -1    0    0    0  501 -0.00000000000E+00 -0.00000000000E+00 -0.42676760417E+02  0.42676760417E+02  0.00000000000E+00 0.  1.
         25    2    1    2    0    0 -0.72648397088E+02 -0.10850659642E+03  0.73525221443E+03  0.75716267518E+03  0.12509207327E+03 0.  0.
          5    1    3    3  502    0 -0.10504916183E+03 -0.87955955616E+02  0.48679613038E+03  0.50572672609E+03  0.41800000000E+01 0. -1.
         -5    1    3    3    0  502  0.32400764739E+02 -0.20550640801E+02  0.24845608406E+03  0.25143594909E+03  0.41800000000E+01 0. -1.
        -11    1    1    2    0    0  0.15037530175E+02  0.98151947177E+02  0.92134593020E+02  0.13545742977E+03  0.00000000000E+00 0.  1.
         11    1    1    2    0    0  0.57610866913E+02  0.10354649240E+02  0.75083842501E+02  0.95204065838E+02  0.00000000000E+00 0. -1.
</event>
<event>
 7    1  0.2714042E-009  0.8386026E+02  0.7561462E-02  0.1318440E+00
          1   -1    0    0  501    0  0.00000000000E+00  0.00000000000E+00  0.37713167578E+03  0.37713167578E+03  0.00000000000E+00 0.  1.
         -1   -1    0    0    0  501 -0.00000000000E+00 -0.00000000000E+00 -0.41805881153E+02  0.41805881153E+02  0.00000000000E+00 0. -1.
         25    2    1    2    0    0 -0.40850137925E+02 -0.28886672152E+02  0.27279368638E+03  0.30424963327E+03  0.12509304705E+03 0.  0.
          5    1    3    3  502    0  0.73797105875E+01 -0.20944582870E+02 -0.41670679563E+01  0.22977652954E+02  0.41800000000E+01 0.  1.
         -5    1    3    3    0  502 -0.48229848512E+02 -0.79420892821E+01  0.27696075434E+03  0.28127198032E+03  0.41800000000E+01 0.  1.
        -11    1    1    2    0    0  0.48180705116E+02  0.52549390520E+02  0.44405428859E+02  0.83992028798E+02  0.00000000000E+00 0. -1.
         11    1    1    2    0    0 -0.73305671910E+01 -0.23662718368E+02  0.18126679392E+02  0.30695894867E+02  0.00000000000E+00 0.  1.
</event>
<event>
 7    1  0.2714042E-009  0.3065768E+03  0.7561462E-02  0.1081998E+00
          3   -1    0    0  501    0  0.00000000000E+00  0.00000000000E+00  0.13110384358E+03  0.13110384358E+03  0.00000000000E+00 0. -1.
         -3   -1    0    0    0  501 -0.00000000000E+00 -0.00000000000E+00 -0.78976577968E+03  0.78976577968E+03  0.00000000000E+00 0.  1.
         25    2    1    2    0    0 -0.27957793187E+03  0.10491585399E+03 -0.26135357145E+03  0.41608245418E+03  0.12509101869E+03 0.  0.
          5    1    3    3  502    0 -0.14340487322E+03  0.46997087521E+01 -0.17451507628E+03  0.22596466356E+03  0.41800000000E+01 0.  1.
         -5    1    3    3    0  502 -0.13617305865E+03  0.10021614524E+03 -0.86838495171E+02  0.19011779062E+03  0.41800000000E+01 0.  1.
        -11    1    1    2    0    0  0.69680368234E+02 -0.11037703028E+02 -0.15737582726E+03  0.17246546208E+03  0.00000000000E+00 0.  1.
         11    1    1    2    0    0  0.20989756364E+03 -0.93878150964E+02 -0.23993253739E+03  0.33232170700E+03  0.00000000000E+00 0. -1.
</event>
<event>
 7    1  0.2714042E-009  0.3338356E+03  0.7561462E-02  0.1069452E+00
         -2   -1    0    0    0  501 -0.00000000000E+00  0.00000000000E+00  0.39956036358E+03  0.39956036358E+03  0.00000000000E+00 0.  1.
          2   -1    0    0  501    0  0.00000000000E+00 -0.00000000000E+00 -0.38012223329E+03  0.38012223329E+03  0.00000000000E+00 0. -1.
         25    2    1    2    0    0 -0.16027755887E+03 -0.28748156665E+03 -0.16857552483E+03  0.39038695914E+03  0.12509885396E+03 0.  0.
          5    1    3    3  502    0 -0.90482058688E+02 -0.13537935816E+03 -0.15091797960E+03  0.22205468364E+03  0.41800000000E+01 0. -1.
         -5    1    3    3    0  502 -0.69795500182E+02 -0.15210220849E+03 -0.17657545223E+02  0.16833227550E+03  0.41800000000E+01 0. -1.
        -11    1    1    2    0    0  0.25050664282E+02  0.70114085155E+01  0.31348532210E+02  0.40736054080E+02  0.00000000000E+00 0. -1.
         11    1    1    2    0    0  0.13522689459E+03  0.28047015813E+03  0.15666512290E+03  0.34855958365E+03  0.00000000000E+00 0.  1.
</event>
<event>
 7    1  0.2714042E-009  0.3177528E+03  0.7561462E-02  0.1076688E+00
          1   -1    0    0  501    0  0.00000000000E+00  0.00000000000E+00  0.65848803221E+03  0.65848803221E+03  0.00000000000E+00 0.  1.
         -1   -1    0    0    0  501 -0.00000000000E+00 -0.00000000000E+00 -0.16334783946E+03  0.16334783946E+03  0.00000000000E+00 0. -1.
         25    2    1    2    0    0 -0.53756075166E+02  0.30404988483E+03  0.23108478081E+03  0.40544261966E+03  0.12508994296E+03 0.  0.
          5    1    3    3  502    0  0.14841641978E+02  0.19864716987E+03  0.18364389140E+03  0.27096775395E+03  0.41800000000E+01 0. -1.
         -5    1    3    3    0  502 -0.68597717144E+02  0.10540271497E+03  0.47440889413E+02  0.13447486571E+03  0.41800000000E+01 0. -1.
        -11    1    1    2    0    0  0.41433780040E+02 -0.14218804470E+03  0.71243848013E+02  0.16434684075E+03  0.00000000000E+00 0. -1.
         11    1    1    2    0    0  0.12322295126E+02 -0.16186184014E+03  0.19281156392E+03  0.25204641127E+03  0.00000000000E+00 0.  1.
</event>
<event>
 7    1  0.2714042E-009  0.1047342E+03  0.7561462E-02  0.1270644E+00
          1   -1    0    0  501    0  0.00000000000E+00  0.00000000000E+00  0.99158532604E+03  0.99158532604E+03  0.00000000000E+00 0. -1.
         -1   -1    0    0    0  501 -0.00000000000E+00 -0.00000000000E+00 -0.13506815113E+02  0.13506815113E+02  0.00000000000E+00 0.  1.
         25    2    1    2    0    0  0.34523909521E+00 -0.25477147401E+02  0.67446478938E+03  0.68643928096E+03  0.12508768968E+03 0.  0.
          5    1    3    3  502    0 -0.56128370880E+02 -0.39379715792E+01  0.46431015745E+03  0.46772566355E+03  0.41800000000E+01 0. -1.
         -5    1    3    3    0  502  0.56473609975E+02 -0.21539175822E+02  0.21015463193E+03  0.21871361741E+03  0.41800000000E+01 0. -1.
        -11    1    1    2    0    0  0.36606823066E+02 -0.13251693083E+02  0.83593804724E+02  0.92214917734E+02  0.00000000000E+00 0.  1.
         11    1    1    2    0    0 -0.36952062161E+02  0.38728840485E+02  0.22001991683E+03  0.22643794246E+03  0.00000000000E+00 0. -1.
</event>
<event>
 7    1  0.2714042E-009  0.1348158E+03  0.7561462E-02  0.1220480E+00
         -1   -1    0    0    0  501 -0.00000000000E+00  0.00000000000E+00  0.78471463236E+02  0.78471463236E+02  0.00000000000E+00 0.  1.
          1   -1    0    0  501    0  0.00000000000E+00 -0.00000000000E+00 -0.42728917846E+03  0.42728917846E+03  0.00000000000E+00 0. -1.
         25    2    1    2    0    0  0.10341425700E+03 -0.15053183504E+02 -0.31342396828E+03  0.35327613154E+03  0.12509330253E+03 0.  0.
          5    1    3    3  502    0  0.10689518935E+03 -0.42161484401E+02 -0.30237755597E+03  0.32350244362E+03  0.41800000000E+01 0.  1.
         -5    1    3    3    0  502 -0.34809323487E+01  0.27108300898E+02 -0.11046412313E+02  0.29773687924E+02  0.41800000000E+01 0.  1.
        -11    1    1    2    0    0 -0.49321782901E+02 -0.29017696906E+02 -0.55658839210E+02  0.79828387084E+02  0.00000000000E+00 0. -1.
         11    1    1    2    0    0 -0.54092474102E+02  0.44070880409E+02  0.20265092270E+02  0.72656123068E+02  0.00000000000E+00 0.  1.
</event>
<event>
 7    1  0.2714042E-009  0.1033896E+03  0.7561462E-02  0.1273325E+00
          1   -1    0    0  501    0  0.00000000000E+00  0.00000000000E+00  0.10753843940E+03  0.10753843940E+03  0.00000000000E+00 0. -1.
         -1   -1    0    0    0  501 -0.00000000000E+00 -0.00000000000E+00 -0.21349487085E+03  0.21349487085E+03  0.00000000000E+00 0.  1.
         25    2    1    2    0    0  0.28105559924E+02  0.28890477909E+02 -0.16163466797E+03  0.20831977282E+03  0.12508708824E+03 0.  0.
          5    1    3    3  502    0 -0.46764987030E+02 -0.80717360030E+01 -0.63951787810E+02  0.79745974808E+02  0.41800000000E+01 0.  1.
         -5    1    3    3    0  502  0.74870546954E+02  0.36962213912E+02 -0.97682880158E+02  0.12857379801E+03  0.41800000000E+01 0.  1.
        -11    1    1    2    0    0 -0.13833075887E+02 -0.48978759520E+02 -0.10059239668E+01  0.50904663398E+02  0.00000000000E+00 0.  1.
         11    1    1    2    0    0 -0.14272484037E+02  0.20088281611E+02  0.56684160490E+02  0.61808874032E+02  0.00000000000E+00 0. -1.
</event>
<event>
 7    1  0.2714042E-009  0.1418037E+03  0.7561462E-02  0.1210922E+00
         -1   -1    0    0    0  501 -0.00000000000E+00  0.00000000000E+00  0.70173845155E+03  0.70173845155E+03  0.00000000000E+00 0.  1.
          1   -1    0    0  501    0  0.00000000000E+00 -0.00000000000E+00 -0.31641400866E+02  0.31641400866E+02  0.00000000000E+00 0. -1.
         25    2    1    2    0    0  0.57809032892E+02  0.79026580350E+02  0.37724852763E+03  0.40932999134E+03  0.12508998970E+03 0.  0.
          5    1    3    3  502    0  0.68978738037E+02 -0.42015586647E+01  0.11825393722E+03  0.13702987070E+03  0.41800000000E+01 0. -1.
         -5    1    3    3    0  502 -0.11169705145E+02  0.83228139015E+02  0.25899459041E+03  0.27230012064E+03  0.41800000000E+01 0. -1.
        -11    1    1    2    0    0 -0.56591218245E+02 -0.56089428111E+01  0.74755296646E+02  0.93927528439E+02  0.00000000000E+00 0. -1.
         11    1    1    2    0    0 -0.12178146468E+01 -0.73417637539E+02  0.21809322641E+03  0.23012233265E+03  0.00000000000E+00 0.  1.
</event>
<event>
 7    1  0.2969463E-009  0.1655369E+03  0.7561462E-02  0.1182584E+00
         -2   -1    0    0    0  501 -0.00000000000E+00  0.00000000000E+00  0.41693168209E+02  0.41693168209E+02  0.00000000000E+00 0. -1.
          2   -1    0    0  501    0  0.00000000000E+00 -0.00000000000E+00 -0.75744076200E+03  0.75744076200E+03  0.00000000000E+00 0.  1.
         25    2    1    2    0    0  0.71116030944E+02 -0.11832759131E+03 -0.32185467966E+03  0.37188280675E+03  0.12508988136E+03 0.  0.
          5    1    3    3  502    0 -0.17604895405E+01 -0.11107840887E+03 -0.16824352896E+03  0.20165532395E+03  0.41800000000E+01 0.  1.
         -5    1    3    3    0  502  0.72876520484E+02 -0.72491824477E+01 -0.15361115069E+03  0.17022748280E+03  0.41800000000E+01 0.  1.
        -11    1    1    2    0    0 -0.31976125801E+02  0.96656712091E+02 -0.16389131088E+03  0.19293873223E+03  0.00000000000E+00 0.  1.
         11    1    1    2    0    0 -0.39139905142E+02  0.21670879223E+02 -0.23000160326E+03  0.23431239123E+03  0.00000000000E+00 0. -1.
</event>
<event>
 7    1  0.2714042E-009  0.1129646E+03  0.7561462E-02  0.1255176E+00
          1   -1    0    0  501    0  0.00000000000E+00  0.00000000000E+00  0.54983350983E+02  0.54983350983E+02  0.00000000000E+00 0. -1.
         -1   -1    0    0    0  501 -0.00000000000E+00 -0.00000000000E+00 -0.28635721925E+03  0.28635721925E+03  0.00000000000E+00 0.  1.
         25    2    1    2    0    0 -0.45978595401E+02  0.73382103624E+01 -0.18646114537E+03  0.22930991512E+03  0.12508955940E+03 0.  0.
          5    1    3    3  502    0  0.10998375658E+02 -0.45819655725E+02 -0.11142309870E+03  0.12104951235E+03  0.41800000000E+01 0.  1.
         -5    1    3    3    0  502 -0.56976971059E+02  0.53157866087E+02 -0.75038046677E+02  0.10826040277E+03  0.41800000000E+01 0.  1.
        -11    1    1    2    0    0 -0.20506873515E+02 -0.24473152013E+02 -0.41864481496E+01  0.32202381572E+02  0.00000000000E+00 0. -1.
         11    1    1    2    0    0  0.66485468916E+02  0.17134941650E+02 -0.40726274746E+02  0.79828273544E+02  0.00000000000E+00 0.  1.
</event>
<event>
 7    1  0.2714042E-009  0.1035784E+03  0.7561462E-02  0.1272946E+00
         -1   -1    0    0    0  501 -0.00000000000E+00  0.00000000000E+00  0.20080662635E+03  0.20080662635E+03  0.00000000000E+00 0.  1.
          1   -1    0    0  501    0  0.00000000000E+00 -0.00000000000E+00 -0.82122318904E+02  0.82122318904E+02  0.00000000000E+00 0. -1.
         25    2    1    2    0    0  0.61243137643E+02 -0.43545126761E+01  0.10077501609E+03  0.17196873320E+03  0.12509179686E+03 0.  0.
          5    1    3    3  502    0  0.82034441114E+02  0.24275855027E+02  0.26613255855E+02  0.89692276442E+02  0.41800000000E+01 0. -1.
         -5    1    3    3    0  502 -0.20791303472E+02 -0.28630367703E+02  0.74161760239E+02  0.82276456758E+02  0.41800000000E+01 0. -1.
        -11    1    1    2    0    0 -0.57607122775E+02  0.26516022542E+02 -0.20345564217E+02  0.66600465682E+02  0.00000000000E+00 0. -1.
         11    1    1    2    0    0 -0.36360148680E+01 -0.22161509866E+02  0.38254855573E+02  0.44359746377E+02  0.00000000000E+00 0.  1.
</event>
<event>
 7    1  0.2714042E-009  0.9507564E+02  0.7561462E-02  0.1291006E+00
         -1   -1    0    0    0  501 -0.00000000000E+00  0.00000000000E+00  0.17924043333E+02  0.17924043333E+02  0.00000000000E+00 0.  1.
          1   -1    0    0  501    0  0.00000000000E+00 -0.00000000000E+00 -0.97437824845E+03  0.97437824845E+03  0.00000000000E+00 0. -1.
         25    2    1    2    0    0  0.73314764922E+02 -0.14292810841E+02 -0.50546935586E+03  0.52604831248E+03  0.12509283813E+03 0.  0.
          5    1    3    3  502    0  0.15165802196E+02 -0.24347613177E+02 -0.42595525891E+03  0.42694046753E+03  0.41800000000E+01 0. -1.
         -5    1    3    3    0  502  0.58148962726E+02  0.10054802336E+02 -0.79514096951E+02  0.99107844947E+02  0.41800000000E+01 0. -1.
        -11    1    1    2    0    0 -0.87116365374E+02  0.10936848217E+02 -0.43892687411E+03  0.44762224764E+03  0.00000000000E+00 0. -1.
         11    1    1    2    0    0  0.13801600451E+02  0.33559626246E+01 -0.12057975142E+02  0.18631731661E+02  0.00000000000E+00 0.  1.
</event>
<event>
 7    1  0.2714042E-009  0.1000534E+03  0.7561462E-02  0.1280184E+00
         -1   -1    0    0    0  501 -0.00000000000E+00  0.00000000000E+00  0.35974884759E+02  0.35974884759E+02  0.00000000000E+00 0.  1.
          1   -1    0    0  501    0  0.00000000000E+00 -0.00000000000E+00 -0.58007595557E+03  0.58007595557E+03  0.00000000000E+00 0. -1.
         25    2    1    2    0    0 -0.13681655579E+02 -0.53055847560E+02 -0.47397381110E+03  0.49325607136E+03  0.12509303600E+03 0.  0.
          5    1    3    3  502    0  0.29242179608E+02 -0.47373632891E+02 -0.42111573078E+03  0.42480030282E+03  0.41800000000E+01 0.  1.
         -5    1    3    3    0  502 -0.42923835187E+02 -0.56822146693E+01 -0.52858080319E+02  0.68455768535E+02  0.41800000000E+01 0.  1.
        -11    1    1    2    0    0 -0.35005036659E+02  0.11731637172E+02 -0.24460377338E+02  0.44286498640E+02  0.00000000000E+00 0. -1.
         11    1    1    2    0    0  0.48686692239E+02  0.41324210389E+02 -0.45666882364E+02  0.78508270330E+02  0.00000000000E+00 0.  1.
</event>
<event>
 7    1  0.2714042E-009  0.9663349E+02  0.7561462E-02  0.1287539E+00
         -1   -1    0    0    0  501 -0.00000000000E+00  0.00000000000E+00  0.40047601130E+02  0.40047601130E+02  0.00000000000E+00 0.  1.
          1   -1    0    0  501    0  0.00000000000E+00 -0.00000000000E+00 -0.33992289568E+03  0.33992289568E+03  0.00000000000E+00 0. -1.
         25    2    1    2    0    0 -0.50989132220E+01 -0.43646037794E+02 -0.17457706642E+03  0.21921472211E+03  0.12508783609E+03 0.  0.
          5    1    3    3  502    0  0.59216613239E+02 -0.19539970935E+02 -0.98305815770E+02  0.11649001486E+03  0.41800000000E+01 0. -1.
         -5    1    3    3    0  502 -0.64315526461E+02 -0.24106066858E+02 -0.76271250652E+02  0.10272470725E+03  0.41800000000E+01 0. -1.
        -11    1    1    2    0    0 -0.15136422325E+02  0.38069698860E+02 -0.81870220035E+01  0.41778470309E+02  0.00000000000E+00 0.  1.
         11    1    1    2    0    0  0.20235335547E+02  0.55763389341E+01 -0.11711120612E+03  0.11897730439E+03  0.00000000000E+00 0. -1.
</event>
<event>
 7    1  0.2714042E-009  0.1010009E+03  0.7561462E-02  0.1278205E+00
          1   -1    0    0  501    0  0.00000000000E+00  0.00000000000E+00  0.71599054813E+02  0.71599054813E+02  0.00000000000E+00 0. -1.
         -1   -1    0    0    0  501 -0.00000000000E+00 -0.00000000000E+00 -0.17388996143E+03  0.17388996143E+03  0.00000000000E+00 0.  1.
         25    2    1    2    0    0 -0.18579267973E+02 -0.20672802936E+02 -0.65547500686E+02  0.14393258472E+03  0.12509020792E+03 0.  0.
          5    1    3    3  502    0  0.69842048679E+01 -0.68189805940E+02 -0.15899459225E+02  0.70490382006E+02  0.41800000000E+01 0.  1.
         -5    1    3    3    0  502 -0.25563472841E+02  0.47517003004E+02 -0.49648041461E+02  0.73442202712E+02  0.41800000000E+01 0.  1.
        -11    1    1    2    0    0  0.34270925330E+02  0.41059716005E+02 -0.49470310428E+02  0.72854019898E+02  0.00000000000E+00 0.  1.
         11    1    1    2    0    0 -0.15691657357E+02 -0.20386913069E+02  0.12726904497E+02  0.28702411627E+02  0.00000000000E+00 0. -1.
</event>
<event>
 7    1  0.2714042E-009  0.1891904E+03  0.7561462E-02  0.1159194E+00
          2   -1    0    0  501    0  0.00000000000E+00  0.00000000000E+00  0.15425972323E+04  0.15425972323E+04  0.00000000000E+00 0. -1.
         -2   -1    0    0    0  501 -0.00000000000E+00 -0.00000000000E+00 -0.32056797918E+02  0.32056797918E+02  0.00000000000E+00 0.  1.
         25    2    1    2    0    0 -0.10079320311E+03  0.13408897985E+03  0.60953938044E+03  0.64445712212E+03  0.12509037387E+03 0.  0.
          5    1    3    3  502    0 -0.47170307250E+02  0.44353361264E+02  0.44339704177E+03  0.44811903284E+03  0.41800000000E+01 0. -1.
         -5    1    3    3    0  502 -0.53622895863E+02  0.89735618590E+02  0.16614233867E+03  0.19633808928E+03  0.41800000000E+01 0. -1.
        -11    1    1    2    0    0 -0.13147195085E+02 -0.82954181164E+02  0.18219549079E+03  0.20062263525E+03  0.00000000000E+00 0.  1.
         11    1    1    2    0    0  0.11394039820E+03 -0.51134798690E+02  0.71880556315E+03  0.72957427284E+03  0.00000000000E+00 0. -1.
</event>
<event>
 7    1  0.2714042E-009  0.9397827E+02  0.7561462E-02  0.1293494E+00
          1   -1    0    0  501    0  0.00000000000E+00  0.00000000000E+00  0.50723816265E+03  0.50723816265E+03  0.00000000000E+00 0. -1.
         -1   -1    0    0    0  501 -0.00000000000E+00 -0.00000000000E+00 -0.31077336819E+02  0.31077336819E+02  0.00000000000E+00 0.  1.
         25    2    1    2    0    0 -0.18345982169E+02 -0.38659828237E+02  0.36725891574E+03  0.39032984382E+03  0.12508844232E+03 0.  0.
          5    1    3    3  502    0 -0.58187559515E+02  0.14434457434E+02  0.11897780253E+03  0.13329416918E+03  0.41800000000E+01 0.  1.
         -5    1    3    3    0  502  0.39841577346E+02 -0.53094285671E+02  0.24828111321E+03  0.25703567463E+03  0.41800000000E+01 0.  1.
        -11    1    1    2    0    0 -0.56929216310E+00  0.42115712302E+02  0.11902330386E+03  0.12625610551E+03  0.00000000000E+00 0. -1.
         11    1    1    2    0    0  0.18915274332E+02 -0.34558840652E+01 -0.10121393768E+02  0.21729550146E+02  0.00000000000E+00 0.  1.
</event>
<event>
 7    1  0.2714042E-009  0.1011357E+03  0.7561462E-02  0.1277926E+00
         -2   -1    0    0    0  501 -0.00000000000E+00  0.00000000000E+00  0.10265292647E+04  0.10265292647E+04  0.00000000000E+00 0.  1.
          2   -1    0    0  501    0  0.00000000000E+00 -0.00000000000E+00 -0.18088100183E+02  0.18088100183E+02  0.00000000000E+00 0. -1.
         25    2    1    2    0    0  0.64632633419E+02  0.20809527599E+02  0.72648645490E+03  0.74029729140E+03  0.12508835583E+03 0.  0.
          5    1    3    3  502    0  0.71197264727E+02  0.66435571919E+01  0.71886986828E+03  0.72242961406E+03  0.41800000000E+01 0. -1.
         -5    1    3    3    0  502 -0.65646313076E+01  0.14165970407E+02  0.76165866201E+01  0.17867677339E+02  0.41800000000E+01 0. -1.
        -11    1    1    2    0    0 -0.76213880015E+01  0.34330207460E+02  0.89795567950E+02  0.96435951402E+02  0.00000000000E+00 0. -1.
         11    1    1    2    0    0 -0.57011245418E+02 -0.55139735058E+02  0.19215914170E+03  0.20788412211E+03  0.00000000000E+00 0.  1.
</event>
<event>
 7    1  0.2714042E-009  0.3464815E+03  0.7561462E-02  0.1064069E+00
          2   -1    0    0  501    0  0.00000000000E+00  0.00000000000E+00  0.13283278705E+04  0.13283278705E+04  0.00000000000E+00 0. -1.
         -2   -1    0    0    0  501 -0.00000000000E+00 -0.00000000000E+00 -0.10411282729E+03  0.10411282729E+03  0.00000000000E+00 0.  1.
         25    2    1    2    0    0  0.21249510741E+03  0.25916848697E+03  0.84561401782E+03  0.91816758359E+03  0.12508464783E+03 0.  0.
          5    1    3    3  502    0  0.52810831957E+02  0.14996657893E+03  0.30519693568E+03  0.34415345519E+03  0.41800000000E+01 0.  1.
         -5    1    3    3    0  502  0.15968427545E+03  0.10920190804E+03  0.54041708213E+03  0.57401412840E+03  0.41800000000E+01 0.  1.
        -11    1    1    2    0    0 -0.13688797632E+03 -0.20843051062E+03  0.32121025798E+03  0.40664188871E+03  0.00000000000E+00 0.  1.
         11    1    1    2    0    0 -0.75607131086E+02 -0.50737976347E+02  0.57390767383E+02  0.10763122547E+03  0.00000000000E+00 0. -1.
</event>
<event>
 7    1  0.2714042E-009  0.1383181E+03  0.7561462E-02  0.1215610E+00
         -1   -1    0    0    0  501 -0.00000000000E+00  0.00000000000E+00  0.38112152700E+02  0.38112152700E+02  0.00000000000E+00 0.  1.
          1   -1    0    0  501    0  0.00000000000E+00 -0.00000000000E+00 -0.63836812041E+03  0.63836812041E+03  0.00000000000E+00 0. -1.
         25    2    1    2    0    0 -0.28668120039E+02 -0.96171694597E+02 -0.39714903442E+03  0.42830542187E+03  0.12508925978E+03 0.  0.
          5    1    3    3  502    0  0.34591064167E+02 -0.24650885902E+02 -0.24455575256E+03  0.24825228379E+03  0.41800000000E+01 0.  1.
         -5    1    3    3    0  502 -0.63259184205E+02 -0.71520808695E+02 -0.15259328186E+03  0.18005313807E+03  0.41800000000E+01 0.  1.
        -11    1    1    2    0    0  0.21381601165E+02 -0.15539702437E+02 -0.18453619975E+02  0.32236490355E+02  0.00000000000E+00 0. -1.
         11    1    1    2    0    0  0.72865188733E+01  0.11171139703E+03 -0.18465331331E+03  0.21593836089E+03  0.00000000000E+00 0.  1.
</event>
<event>
 7    1  0.2714042E-009  0.1022770E+03  0.7561462E-02  0.1275579E+00
         -3   -1    0    0    0  501 -0.00000000000E+00  0.00000000000E+00  0.17106388708E+03  0.17106388708E+03  0.00000000000E+00 0.  1.
          3   -1    0    0  501    0  0.00000000000E+00 -0.00000000000E+00 -0.92181625146E+02  0.92181625146E+02  0.00000000000E+00 0. -1.
         25    2    1    2    0    0  0.46339112840E+02 -0.23657930903E+02  0.81164623010E+02  0.15793175643E+03  0.12509089730E+03 0.  0.
          5    1    3    3  502    0  0.77493381249E+02 -0.14178203593E+01  0.11682237253E+02  0.78493193458E+02  0.41800000000E+01 0. -1.
         -5    1    3    3    0  502 -0.31154268409E+02 -0.22240110544E+02  0.69482385756E+02  0.79438562975E+02  0.41800000000E+01 0. -1.
        -11    1    1    2    0    0 -0.53340735373E+02 -0.98113305221E+01  0.26735115415E+02  0.60467037739E+02  0.00000000000E+00 0.  1.
         11    1    1    2    0    0  0.70016225328E+01  0.33469261426E+02 -0.29017476489E+02  0.44846718055E+02  0.00000000000E+00 0. -1.
</event>
<event>
 7    1  0.2714042E-009  0.8661162E+02  0.7561462E-02  0.1311271E+00
         -1   -1    0    0    0  501 -0.00000000000E+00  0.00000000000E+00  0.80737319974E+02  0.80737319974E+02  0.00000000000E+00 0.  1.
          1   -1    0    0  501    0  0.00000000000E+00 -0.00000000000E+00 -0.31710166506E+03  0.31710166506E+03  0.00000000000E+00 0. -1.
         25    2    1    2    0    0 -0.30803295794E+01 -0.25531141737E+02 -0.26797175531E+03  0.29684877627E+03  0.12509598994E+03 0.  0.
          5    1    3    3  502    0  0.27849668378E+02  0.16146472293E+02 -0.10430414352E+02  0.34096605987E+02  0.41800000000E+01 0. -1.
         -5    1    3    3    0  502 -0.30929997958E+02 -0.41677614030E+02 -0.25754134095E+03  0.26275217028E+03  0.41800000000E+01 0. -1.
        -11    1    1    2    0    0 -0.26001554075E+02 -0.21268975082E+02  0.31262834975E+02  0.45889159570E+02  0.00000000000E+00 0.  1.
         11    1    1    2    0    0  0.29081883654E+02  0.46800116818E+02  0.34457524258E+00  0.55101049202E+02  0.00000000000E+00 0. -1.
</event>
<event>
 7    1  0.2714042E-009  0.1376588E+03  0.7561462E-02  0.1216514E+00
         -1   -1    0    0    0  501 -0.00000000000E+00  0.00000000000E+00  0.54091787085E+02  0.54091787085E+02  0.00000000000E+00 0.  1.
          1   -1    0    0  501    0  0.00000000000E+00 -0.00000000000E+00 -0.56705745920E+03  0.56705745920E+03  0.00000000000E+00 0. -1.
         25    2    1    2    0    0  0.11422492011E+03  0.15840389053E+02 -0.39813676239E+03  0.43296582779E+03  0.12509307001E+03 0.  0.
          5    1    3    3  502    0  0.10544461464E+03  0.29932500039E+02 -0.40088854497E+03  0.41562437273E+03  0.41800000000E+01 0. -1.
         -5    1    3    3    0  502  0.87803054697E+01 -0.14092110986E+02  0.27517825817E+01  0.17341455059E+02  0.41800000000E+01 0. -1.
        -11    1    1    2    0    0 -0.10064695233E+03  0.26470145624E+02 -0.72671593225E+02  0.12693162760E+03  0.00000000000E+00 0. -1.
         11    1    1    2    0    0 -0.13577967783E+02 -0.42310534677E+02 -0.42157316495E+02  0.61251790895E+02  0.00000000000E+00 0.  1.
</event>
<event>
 7    1  0.2791257E-009  0.1005999E+03  0.7561462E-02  0.1279039E+00
         -1   -1    0    0    0  501 -0.00000000000E+00  0.00000000000E+00  0.28185635580E+02  0.28185635580E+02  0.00000000000E+00 0.  1.
          1   -1    0    0  501    0  0.00000000000E+00 -0.00000000000E+00 -0.57282221220E+03  0.57282221220E+03  0.00000000000E+00 0. -1.
         25    2    1    2    0    0 -0.25438586037E+02 -0.92780299940E+01 -0.44490873185E+03  0.46295134986E+03  0.12508784577E+03 0.  0.
          5    1    3    3  502    0 -0.30832321435E+02 -0.59400261953E+02 -0.33917855998E+03  0.34574353373E+03  0.41800000000E+01 0.  1.
         -5    1    3    3    0  502  0.53937353979E+01  0.50122231959E+02 -0.10573017187E+03  0.11720781613E+03  0.41800000000E+01 0.  1.
        -11    1    1    2    0    0  0.30553722220E+02  0.41164862848E+02 -0.25817569850E+02  0.57398804759E+02  0.00000000000E+00 0.  1.
         11    1    1    2    0    0 -0.51151361833E+01 -0.31886832854E+02 -0.73910274921E+02  0.80657693164E+02  0.00000000000E+00 0. -1.
</event>
<event>
 7    1  0.2714042E-009  0.2462189E+03  0.7561462E-02  0.1115718E+00
         -4   -1    0    0    0  501 -0.00000000000E+00  0.00000000000E+00  0.46558084015E+03  0.46558084015E+03  0.00000000000E+00 0.  1.
          4   -1    0    0  501    0  0.00000000000E+00 -0.00000000000E+00 -0.13999002975E+03  0.13999002975E+03  0.00000000000E+00 0. -1.
         25    2    1    2    0    0  0.13741558421E+03  0.18437463192E+03  0.19000612536E+03  0.32345905984E+03  0.12508552291E+03 0.  0.
          5    1    3    3  502    0 -0.16018093069E+02  0.65047668833E+02  0.42911176737E+02  0.79665676518E+02  0.41800000000E+01 0.  1.
         -5    1    3    3    0  502  0.15343367728E+03  0.11932696309E+03  0.14709494862E+03  0.24379338332E+03  0.41800000000E+01 0.  1.
        -11    1    1    2    0    0 -0.57214490795E+02 -0.59987530008E+02  0.22826140527E+01  0.82928957791E+02  0.00000000000E+00 0. -1.
         11    1    1    2    0    0 -0.80201093414E+02 -0.12438710191E+03  0.13330207099E+03  0.19918285227E+03  0.00000000000E+00 0.  1.
</event>
<event>
 7    1  0.2714042E-009  0.1756431E+03  0.7561462E-02  0.1172088E+00
         -3   -1    0    0    0  501 -0.00000000000E+00  0.00000000000E+00  0.22746965764E+02  0.22746965764E+02  0.00000000000E+00 0.  1.
          3   -1    0    0  501    0  0.00000000000E+00 -0.00000000000E+00 -0.20683199092E+04  0.20683199092E+04  0.00000000000E+00 0. -1.
         25    2    1    2    0    0 -0.15250498445E+03  0.47571509999E+02 -0.15406074670E+04  0.15539106836E+04  0.12508487688E+03 0.  0.
          5    1    3    3  502    0 -0.74569643873E+00  0.11469325221E+02 -0.11265562721E+02  0.16627891857E+02  0.41800000000E+01 0.  1.
         -5    1    3    3    0  502 -0.15175928801E+03  0.36102184779E+02 -0.15293419043E+04  0.15372827917E+04  0.41800000000E+01 0.  1.
        -11    1    1    2    0    0  0.21381796163E+02  0.25195035473E+02 -0.99856549436E+02  0.10518222989E+03  0.00000000000E+00 0. -1.
         11    1    1    2    0    0  0.13112318829E+03 -0.72766545473E+02 -0.40510892704E+03  0.43197396150E+03  0.00000000000E+00 0.  1.
</event>
<event>
 7    1  0.2714042E-009  0.1434530E+03  0.7561462E-02  0.1208757E+00
         -2   -1    0    0    0  501 -0.00000000000E+00  0.00000000000E+00  0.67030811528E+02  0.67030811528E+02  0.00000000000E+00 0.  1.
          2   -1    0    0  501    0  0.00000000000E+00 -0.00000000000E+00 -0.40487091589E+03  0.40487091589E+03  0.00000000000E+00 0. -1.
         25    2    1    2    0    0 -0.32561769265E+02 -0.10582923903E+03 -0.10155361428E+03  0.19549202842E+03  0.12507557695E+03 0.  0.
          5    1    3    3  502    0 -0.74726004692E+01 -0.12350645425E+03 -0.10748845881E+03  0.16395403374E+03  0.41800000000E+01 0. -1.
         -5    1    3    3    0  502 -0.25089168796E+02  0.17677215221E+02  0.59348445346E+01  0.31537994681E+02  0.41800000000E+01 0. -1.
        -11    1    1    2    0    0  0.39500967370E+02  0.16958507218E+02 -0.13402367416E+03  0.14074893473E+03  0.00000000000E+00 0. -1.
         11    1    1    2    0    0 -0.69391981053E+01  0.88870731816E+02 -0.10226281592E+03  0.13566076427E+03  0.00000000000E+00 0.  1.
</event>
<event>
 7    1  0.2714042E-009  0.1442380E+03  0.7561462E-02  0.1207738E+00
          2   -1    0    0  501    0  0.00000000000E+00  0.00000000000E+00  0.43377697914E+03  0.43377697914E+03  0.00000000000E+00 0. -1.
         -2   -1    0    0    0  501 -0.00000000000E+00 -0.00000000000E+00 -0.51440781079E+02  0.51440781079E+02  0.00000000000E+00 0.  1.
         25    2    1    2    0    0 -0.92239578056E+02  0.44947032992E+02  0.19014573993E+03  0.24966197264E+03  0.12508925867E+03 0.  0.
          5    1    3    3  502    0 -0.94184974414E+02 -0.15496176051E+02  0.83013872699E+02  0.12656901808E+03  0.41800000000E+01 0. -1.
         -5    1    3    3    0  502  0.19453963577E+01  0.60443209043E+02  0.10713186723E+03  0.12309295456E+03  0.41800000000E+01 0. -1.
        -11    1    1    2    0    0  0.91460310829E+02 -0.41965103530E+01  0.10501228715E+03  0.13932042065E+03  0.00000000000E+00 0. -1.
         11    1    1    2    0    0  0.77926722721E+00 -0.40750522639E+02  0.87178170983E+02  0.96235366933E+02  0.00000000000E+00 0.  1.
</event>
<event>
 7    1  0.2714042E-009  0.1029510E+03  0.7561462E-02  0.1274210E+00
         -2   -1    0    0    0  501 -0.00000000000E+00  0.00000000000E+00  0.35689284376E+02  0.35689284376E+02  0.00000000000E+00 0.  1.
          2   -1    0    0  501    0  0.00000000000E+00 -0.00000000000E+00 -0.45978475522E+03  0.45978475522E+03  0.00000000000E+00 0. -1.
         25    2    1    2    0    0  0.72283472967E+01  0.55280986530E+02 -0.31893239130E+03  0.34709154893E+03  0.12508571718E+03 0.  0.
          5    1    3    3  502    0  0.48969067834E+02  0.34424764904E+02 -0.27946610391E+03  0.28583528417E+03  0.41800000000E+01 0. -1.
         -5    1    3    3    0  502 -0.41740720538E+02  0.20856221626E+02 -0.39466287385E+02  0.61256264753E+02  0.41800000000E+01 0. -1.
        -11    1    1    2    0    0 -0.35536665506E+02  0.15373323234E+01 -0.16179726432E+02  0.39076866985E+02  0.00000000000E+00 0.  1.
         11    1    1    2    0    0  0.28308318209E+02 -0.56818318853E+02 -0.88983353112E+02  0.10930562368E+03  0.00000000000E+00 0. -1.
</event>
<event>
 7    1  0.2714042E-009  0.8101983E+02  0.7561462E-02  0.1326182E+00
          2   -1    0    0  501    0  0.00000000000E+00  0.00000000000E+00  0.52149182345E+03  0.52149182345E+03  0.00000000000E+00 0. -1.
         -2   -1    0    0    0  501 -0.00000000000E+00 -0.00000000000E+00 -0.26049724920E+02  0.26049724920E+02  0.00000000000E+00 0.  1.
         25    2    1    2    0    0  0.29736034694E+02  0.19201797447E+02  0.22249518751E+03  0.25769137323E+03  0.12509114512E+03 0.  0.
          5    1    3    3  502    0  0.24518953718E+02  0.47790369719E+02  0.27481132618E+02  0.60479612922E+02  0.41800000000E+01 0. -1.
         -5    1    3    3    0  502  0.52170809759E+01 -0.28588572272E+02  0.19501405489E+03  0.19721176030E+03  0.41800000000E+01 0. -1.
        -11    1    1    2    0    0 -0.91461146853E+01  0.26846887490E+02  0.28332869549E+02  0.40089378625E+02  0.00000000000E+00 0.  1.
         11    1    1    2    0    0 -0.20589920009E+02 -0.46048684937E+02  0.24461404147E+03  0.24976079651E+03  0.00000000000E+00 0. -1.
</event>
<event>
 7    1  0.2714042E-009  0.1474636E+03  0.7561462E-02  0.1203625E+00
         -1   -1    0    0    0  501 -0.00000000000E+00  0.00000000000E+00  0.26497292273E+03  0.26497292273E+03  0.00000000000E+00 0.  1.
          1   -1    0    0  501    0  0.00000000000E+00 -0.00000000000E+00 -0.10521157937E+03  0.10521157937E+03  0.00000000000E+00 0. -1.
         25    2    1    2    0    0 -0.89007925127E+02 -0.88461900803E+02  0.56438880668E+02  0.18595037930E+03  0.12507708695E+03 0.  0.
          5    1    3    3  502    0 -0.50087718470E+02 -0.10291657141E+03 -0.15065221661E+01  0.11454406236E+03  0.41800000000E+01 0. -1.
         -5    1    3    3    0  502 -0.38920206657E+02  0.14454670611E+02  0.57945402834E+02  0.71406316935E+02  0.41800000000E+01 0. -1.
        -11    1    1    2    0    0 -0.47239696227E+01  0.25066667650E+02  0.56084223688E+02  0.61612448927E+02  0.00000000000E+00 0.  1.
         11    1    1    2    0    0  0.93731894750E+02  0.63395233153E+02  0.47238238999E+02  0.12262167387E+03  0.00000000000E+00 0. -1.
</event>
<event>
 7    1  0.2714042E-009  0.1819853E+03  0.7561462E-02  0.1165895E+00
         -1   -1    0    0    0  501 -0.00000000000E+00  0.00000000000E+00  0.19352787627E+03  0.19352787627E+03  0.00000000000E+00 0.  1.
          1   -1    0    0  501    0  0.00000000000E+00 -0.00000000000E+00 -0.22420746199E+03  0.22420746199E+03  0.00000000000E+00 0. -1.
         25    2    1    2    0    0 -0.10670161980E+03  0.36645242280E+02 -0.95508828923E+02  0.19363141996E+03  0.12507230286E+03 0.  0.
          5    1    3    3  502    0 -0.13328839387E+03  0.15727784387E+02 -0.73855171077E+02  0.15324887549E+03  0.41800000000E+01 0. -1.
         -5    1    3    3    0  502  0.26586774071E+02  0.20917457893E+02 -0.21653657845E+02  0.40382544475E+02  0.41800000000E+01 0. -1.
        -11    1    1    2    0    0  0.62031303821E+02 -0.10024562382E+03 -0.72446204160E+01  0.11810822272E+03  0.00000000000E+00 0. -1.
         11    1    1    2    0    0  0.44670315982E+02  0.63600381544E+02  0.72073863618E+02  0.10599569557E+03  0.00000000000E+00 0.  1.
</event>
<event>
 7    1  0.2714042E-009  0.1077436E+03  0.7561462E-02  0.1264806E+00
          2   -1    0    0  501    0  0.00000000000E+00  0.00000000000E+00  0.62817413808E+03  0.62817413808E+03  0.00000000000E+00 0.  1.
         -2   -1    0    0    0  501 -0.00000000000E+00 -0.00000000000E+00 -0.27505795102E+02  0.27505795102E+02  0.00000000000E+00 0. -1.
         25    2    1    2    0    0 -0.48957371615E+01 -0.71947791005E+02  0.37893417410E+03  0.40551122811E+03  0.12509114657E+03 0.  0.
          5    1    3    3  502    0  0.44160435394E+02 -0.81126041249E+02  0.27526026369E+03  0.29037435112E+03  0.41800000000E+01 0.  1.
         -5    1    3    3    0  502 -0.49056172555E+02  0.91782502441E+01  0.10367391041E+03  0.11513687699E+03  0.41800000000E+01 0.  1.
        -11    1    1    2    0    0 -0.34169067781E+01  0.14454395859E+02 -0.53385846705E+01  0.15783069976E+02  0.00000000000E+00 0. -1.
         11    1    1    2    0    0  0.83126439396E+01  0.57493395145E+02  0.22707275355E+03  0.23438563509E+03  0.00000000000E+00 0.  1.
</event>
<event>
 7    1  0.2714042E-009  0.1233629E+03  0.7561462E-02  0.1237650E+00
         -1   -1    0    0    0  501 -0.00000000000E+00  0.00000000000E+00  0.46862015965E+03  0.46862015965E+03  0.00000000000E+00 0.  1.
          1   -1    0    0  501    0  0.00000000000E+00 -0.00000000000E+00 -0.47547911894E+02  0.47547911894E+02  0.00000000000E+00 0. -1.
         25    2    1    2    0    0 -0.55940252381E+02 -0.32625301047E+02  0.36631489380E+03  0.39246493591E+03  0.12509357455E+03 0.  0.
          5    1    3    3  502    0  0.39206273844E+02 -0.57816819042E+01  0.77065614755E+02  0.86759098266E+02  0.41800000000E+01 0.  1.
         -5    1    3    3    0  502 -0.95146526225E+02 -0.26843619143E+02  0.28924927904E+03  0.30570583764E+03  0.41800000000E+01 0.  1.
        -11    1    1    2    0    0  0.39852518182E+02 -0.25701784939E+02  0.38417874050E+02  0.61030631662E+02  0.00000000000E+00 0. -1.
         11    1    1    2    0    0  0.16087734199E+02  0.58327085987E+02  0.16339479913E+02  0.62672503980E+02  0.00000000000E+00 0.  1.
</event>
<event>
 7    1  0.2714042E-009  0.9053752E+02  0.7561462E-02  0.1301555E+00
         -1   -1    0    0    0  501 -0.00000000000E+00  0.00000000000E+00  0.68882581536E+02  0.68882581536E+02  0.00000000000E+00 0.  1.
          1   -1    0    0  501    0  0.00000000000E+00 -0.00000000000E+00 -0.22191838833E+03  0.22191838833E+03  0.00000000000E+00 0. -1.
         25    2    1    2    0    0  0.17836691888E+02  0.13055388922E+01 -0.17536632865E+02  0.12757177399E+03  0.12508865663E+03 0.  0.
          5    1    3    3  502    0  0.60455109337E+02 -0.12619303202E+02 -0.43441521617E+02  0.75622121490E+02  0.41800000000E+01 0.  1.
         -5    1    3    3    0  502 -0.42618417449E+02  0.13924842094E+02  0.25904888752E+02  0.51949652496E+02  0.41800000000E+01 0.  1.
        -11    1    1    2    0    0  0.20338968391E+02 -0.22622738293E+02 -0.10650679428E+03  0.11076623651E+03  0.00000000000E+00 0. -1.
         11    1    1    2    0    0 -0.38175660278E+02  0.21317199401E+02 -0.28992379648E+02  0.52462959368E+02  0.00000000000E+00 0.  1.
</event>
<event>
 7    1  0.2714042E-009  0.1077241E+03  0.7561462E-02  0.1264844E+00
         -1   -1    0    0    0  501 -0.00000000000E+00  0.00000000000E+00  0.63171612916E+03  0.63171612916E+03  0.00000000000E+00 0.  1.
          1   -1    0    0  501    0  0.00000000000E+00 -0.00000000000E+00 -0.19633224564E+02  0.19633224564E+02  0.00000000000E+00 0. -1.
         25    2    1    2    0    0 -0.72689924096E+01  0.14882516039E+01  0.27909838476E+03  0.30594145935E+03  0.12509682261E+03 0.  0.
          5    1    3    3  502    0 -0.13867849952E+02 -0.60360120733E+02  0.15758924916E+03  0.16937386247E+03  0.41800000000E+01 0. -1.
         -5    1    3    3    0  502  0.65988575426E+01  0.61848372337E+02  0.12150913561E+03  0.13656759688E+03  0.41800000000E+01 0. -1.
        -11    1    1    2    0    0  0.45918705388E+02 -0.17580097618E+02  0.20186111961E+03  0.20776308370E+03  0.00000000000E+00 0. -1.
         11    1    1    2    0    0 -0.38649712978E+02  0.16091846014E+02  0.13112340022E+03  0.13764481068E+03  0.00000000000E+00 0.  1.
</event>
<event>
 7    1  0.2714042E-009  0.1207915E+03  0.7561462E-02  0.1241797E+00
         -2   -1    0    0    0  501 -0.00000000000E+00  0.00000000000E+00  0.38346887836E+02  0.38346887836E+02  0.00000000000E+00 0.  1.
          2   -1    0    0  501    0  0.00000000000E+00 -0.00000000000E+00 -0.77071864199E+03  0.77071864199E+03  0.00000000000E+00 0. -1.
         25    2    1    2    0    0 -0.10879816470E+03  0.64418368801E+01 -0.57070121718E+03  0.59432963133E+03  0.12509713619E+03 0.  0.
          5    1    3    3  502    0 -0.42768017473E+02 -0.24669365472E+02 -0.57316275152E+02  0.75764825009E+02  0.41800000000E+01 0.  1.
         -5    1    3    3    0  502 -0.66030147223E+02  0.31111202352E+02 -0.51338494203E+03  0.51856480632E+03  0.41800000000E+01 0.  1.
        -11    1    1    2    0    0  0.76361122503E+02  0.17822377312E+02 -0.15496776883E+03  0.17367690560E+03  0.00000000000E+00 0. -1.
         11    1    1    2    0    0  0.32437042193E+02 -0.24264214192E+02 -0.67027681423E+01  0.41058992893E+02  0.00000000000E+00 0.  1.
</event>
<event>
 7    1  0.2714042E-009  0.8896924E+02  0.7561462E-02  0.1305367E+00
          1   -1    0    0  501    0  0.00000000000E+00  0.00000000000E+00  0.21472004516E+03  0.21472004516E+03  0.00000000000E+00 0. -1.
         -1   -1    0    0    0  501 -0.00000000000E+00 -0.00000000000E+00 -0.59762885518E+02  0.59762885518E+02  0.00000000000E+00 0.  1.
         25    2    1    2    0    0 -0.10997265992E+02  0.33009076073E+02  0.76030781487E+02  0.15045993895E+03  0.12508786724E+03 0.  0.
          5    1    3    3  502    0 -0.38044773912E+02  0.56077738350E+02  0.16491238550E+01  0.67913986556E+02  0.41800000000E+01 0.  1.
         -5    1    3    3    0  502  0.27047507920E+02 -0.23068662277E+02  0.74381657632E+02  0.82545952390E+02  0.41800000000E+01 0.  1.
        -11    1    1    2    0    0 -0.18274368174E+02  0.11049082924E+02 -0.75512615300E+01  0.22650746485E+02  0.00000000000E+00 0.  1.
         11    1    1    2    0    0  0.29271634166E+02 -0.44058158997E+02  0.86477639685E+02  0.10137224525E+03  0.00000000000E+00 0. -1.
</event>
<event>
 7    1  0.2714042E-009  0.1287730E+03  0.7561462E-02  0.1229288E+00
          3   -1    0    0  501    0  0.00000000000E+00  0.00000000000E+00  0.21263894378E+03  0.21263894378E+03  0.00000000000E+00 0. -1.
         -3   -1    0    0    0  501 -0.00000000000E+00 -0.00000000000E+00 -0.99459819862E+02  0.99459819862E+02  0.00000000000E+00 0.  1.
         25    2    1    2    0    0  0.59398714512E+02 -0.76048994686E+02  0.65229762142E+02  0.17092240283E+03  0.12509152266E+03 0.  0.
          5    1    3    3  502    0  0.13034406515E+02  0.34917158119E+02  0.18660503756E+02  0.41890219440E+02  0.41800000000E+01 0. -1.
         -5    1    3    3    0  502  0.46364307997E+02 -0.11096615280E+03  0.46569258386E+02  0.12903218339E+03  0.41800000000E+01 0. -1.
        -11    1    1    2    0    0 -0.27642774049E+02  0.55151522643E+02  0.73055883523E+02  0.95618907776E+02  0.00000000000E+00 0. -1.
         11    1    1    2    0    0 -0.31755940463E+02  0.20897472043E+02 -0.25106521749E+02  0.45557453033E+02  0.00000000000E+00 0.  1.
</event>
<event>
 7    1  0.2714042E-009  0.1148457E+03  0.7561462E-02  0.1251851E+00
         -1   -1    0    0    0  501 -0.00000000000E+00  0.00000000000E+00  0.25903930685E+02  0.25903930685E+02  0.00000000000E+00 0.  1.
          1   -1    0    0  501    0  0.00000000000E+00 -0.00000000000E+00 -0.56963291037E+03  0.56963291037E+03  0.00000000000E+00 0. -1.
         25    2    1    2    0    0  0.36792934239E+02 -0.15227230577E+02 -0.21507718890E+03  0.25197871545E+03  0.12509791082E+03 0.  0.
          5    1    3    3  502    0  0.82677623351E+02 -0.15691062395E+02 -0.15304952051E+03  0.17470955031E+03  0.41800000000E+01 0. -1.
         -5    1    3    3    0  502 -0.45884689112E+02  0.46383181794E+00 -0.62027668394E+02  0.77269165139E+02  0.41800000000E+01 0. -1.
        -11    1    1    2    0    0 -0.58514781461E+02  0.36490569664E+02 -0.20787572863E+03  0.21901566126E+03  0.00000000000E+00 0.  1.
         11    1    1    2    0    0  0.21721847223E+02 -0.21263339087E+02 -0.12077606215E+03  0.12454246434E+03  0.00000000000E+00 0. -1.
</event>
<event>
 7    1  0.2714042E-009  0.1115877E+03  0.7561462E-02  0.1257658E+00
         -2   -1    0    0    0  501 -0.00000000000E+00  0.00000000000E+00  0.47213599005E+02  0.47213599005E+02  0.00000000000E+00 0. -1.
          2   -1    0    0  501    0  0.00000000000E+00 -0.00000000000E+00 -0.34474220767E+03  0.34474220767E+03  0.00000000000E+00 0.  1.
         25    2    1    2    0    0 -0.89775784827E+01 -0.63731893177E+02 -0.13242511639E+03  0.19319971383E+03  0.12508943540E+03 0.  0.
          5    1    3    3  502    0  0.51970908080E+02 -0.46215755923E+02 -0.99929751154E+02  0.12182076567E+03  0.41800000000E+01 0. -1.
         -5    1    3    3    0  502 -0.60948486563E+02 -0.17516137254E+02 -0.32495365237E+02  0.71378948160E+02  0.41800000000E+01 0. -1.
        -11    1    1    2    0    0  0.29283763867E+02  0.63178801781E+02 -0.60646673878E+02  0.92342400192E+02  0.00000000000E+00 0. -1.
         11    1    1    2    0    0 -0.20306185385E+02  0.55309139602E+00 -0.10445681840E+03  0.10641369266E+03  0.00000000000E+00 0.  1.
</event>
<event>
 7    1  0.2714042E-009  0.1243910E+03  0.7561462E-02  0.1236024E+00
         -4   -1    0    0    0  501 -0.00000000000E+00  0.00000000000E+00  0.19988963184E+03  0.19988963184E+03  0.00000000000E+00 0.  1.
          4   -1    0    0  501    0  0.00000000000E+00 -0.00000000000E+00 -0.13627337219E+03  0.13627337219E+03  0.00000000000E+00 0. -1.
         25    2    1    2    0    0 -0.76157573482E+02  0.54105153829E+02  0.11653978034E+03  0.19482310172E+03  0.12508867612E+03 0.  0.
          5    1    3    3  502    0  0.84003255864E+00  0.54454171647E+02  0.10292260694E+03  0.11651822984E+03  0.41800000000E+01 0.  1.
         -5    1    3    3    0  502 -0.76997606041E+02 -0.34901781725E+00  0.13617173394E+02  0.78304871883E+02  0.41800000000E+01 0.  1.
        -11    1    1    2    0    0  0.59819535448E+02  0.73826327287E+00  0.48527614057E+01  0.60020589360E+02  0.00000000000E+00 0.  1.
         11    1    1    2    0    0  0.16338038034E+02 -0.54843417102E+02 -0.57776282091E+02  0.81319312949E+02  0.00000000000E+00 0. -1.
</event>
<event>
 7    1  0.2714042E-009  0.1426842E+03  0.7561462E-02  0.1209762E+00
         -1   -1    0    0    0  501 -0.00000000000E+00  0.00000000000E+00  0.10072707532E+03  0.10072707532E+03  0.00000000000E+00 0.  1.
          1   -1    0    0  501    0  0.00000000000E+00 -0.00000000000E+00 -0.26595256537E+03  0.26595256537E+03  0.00000000000E+00 0. -1.
         25    2    1    2    0    0  0.64977945953E+02  0.10179897368E+03 -0.36038551841E+02  0.17757384557E+03  0.12509408023E+03 0.  0.
          5    1    3    3  502    0  0.69866234055E+02  0.26612694049E+02  0.26639628823E+02  0.79477470829E+02  0.41800000000E+01 0. -1.
         -5    1    3    3    0  502 -0.48882881020E+01  0.75186279634E+02 -0.62678180664E+02  0.98096374741E+02  0.41800000000E+01 0. -1.
        -11    1    1    2    0    0 -0.86036624786E+01  0.79067029206E+01 -0.25202376766E+02  0.27779466405E+02  0.00000000000E+00 0.  1.
         11    1    1    2    0    0 -0.56374283475E+02 -0.10970567660E+03 -0.10398456145E+03  0.16132632872E+03  0.00000000000E+00 0. -1.
</event>
<event>
 7    1  0.2714042E-009  0.1027535E+03  0.7561462E-02  0.1274610E+00
         -2   -1    0    0    0  501 -0.00000000000E+00  0.00000000000E+00  0.86423817982E+01  0.86423817982E+01  0.00000000000E+00 0.  1.
          2   -1    0    0  501    0  0.00000000000E+00 -0.00000000000E+00 -0.35550170638E+04  0.35550170638E+04  0.00000000000E+00 0. -1.
         25    2    1    2    0    0  0.45226907282E+02  0.67061825565E+02 -0.30073220526E+04  0.30110088392E+04  0.12508213343E+03 0.  0.
          5    1    3    3  502    0  0.46008568707E+02  0.54091932932E+02 -0.29759028365E+04  0.29767529105E+04  0.41800000000E+01 0. -1.
         -5    1    3    3    0  502 -0.78166142579E+00  0.12969892633E+02 -0.31419216106E+02  0.34255928687E+02  0.41800000000E+01 0. -1.
        -11    1    1    2    0    0  0.25661675204E+02 -0.33748383280E+02 -0.22644753309E+03  0.23038220459E+03  0.00000000000E+00 0. -1.
         11    1    1    2    0    0 -0.70888582485E+02 -0.33313442285E+02 -0.31260509627E+03  0.32226840177E+03  0.00000000000E+00 0.  1.
</event>
<event>
 7    1  0.2714042E-009  0.1019550E+03  0.7561462E-02  0.1276238E+00
         -1   -1    0    0    0  501 -0.00000000000E+00  0.00000000000E+00  0.30787932403E+02  0.30787932403E+02  0.00000000000E+00 0.  1.
          1   -1    0    0  501    0  0.00000000000E+00 -0.00000000000E+00 -0.51936305736E+03  0.51936305736E+03  0.00000000000E+00 0. -1.
         25    2    1    2    0    0 -0.40552460444E+02 -0.42952314109E+02 -0.32512936088E+03  0.35333728016E+03  0.12509487961E+03 0.  0.
          5    1    3    3  502    0 -0.48734018111E+01 -0.74681668720E+02 -0.11119960318E+03  0.13410416039E+03  0.41800000000E+01 0. -1.
         -5    1    3    3    0  502 -0.35679058633E+02  0.31729354611E+02 -0.21392975771E+03  0.21923311976E+03  0.41800000000E+01 0. -1.
        -11    1    1    2    0    0  0.52500004741E+02  0.22039665865E+02 -0.16307126247E+03  0.17272589271E+03  0.00000000000E+00 0. -1.
         11    1    1    2    0    0 -0.11947544297E+02  0.20912648244E+02 -0.37450160284E+00  0.24087816895E+02  0.00000000000E+00 0.  1.
</event>
<event>
 7    1  0.2714042E-009  0.8896944E+02  0.7561462E-02  0.1305367E+00
          2   -1    0    0  501    0  0.00000000000E+00  0.00000000000E+00  0.20599567125E+03  0.20599567125E+03  0.00000000000E+00 0. -1.
         -2   -1    0    0    0  501 -0.00000000000E+00 -0.00000000000E+00 -0.96722295924E+02  0.96722295924E+02  0.00000000000E+00 0.  1.
         25    2    1    2    0    0 -0.50045700573E+02 -0.30103461873E+02 -0.15063167677E+02  0.13886973492E+03  0.12508842350E+03 0.  0.
          5    1    3    3  502    0  0.36918641858E+01  0.34324256304E+02 -0.38282873281E+02  0.51718809138E+02  0.41800000000E+01 0.  1.
         -5    1    3    3    0  502 -0.53737564759E+02 -0.64427718177E+02  0.23219705604E+02  0.87150925779E+02  0.41800000000E+01 0.  1.
        -11    1    1    2    0    0  0.24090031541E+02  0.20002734095E+02 -0.48571694855E+01  0.31686449570E+02  0.00000000000E+00 0.  1.
         11    1    1    2    0    0  0.25955669032E+02  0.10100727778E+02  0.12919371249E+03  0.13216178269E+03  0.00000000000E+00 0. -1.
</event>
<event>
 7    1  0.2714042E-009  0.8551046E+02  0.7561462E-02  0.1314103E+00
          2   -1    0    0  501    0  0.00000000000E+00  0.00000000000E+00  0.35261515614E+03  0.35261515614E+03  0.00000000000E+00 0. -1.
         -2   -1    0    0    0  501 -0.00000000000E+00 -0.00000000000E+00 -0.32241682235E+02  0.32241682235E+02  0.00000000000E+00 0.  1.
         25    2    1    2    0    0 -0.13960679822E+02  0.23283017509E+02  0.19593195748E+03  0.23403345967E+03  0.12508128876E+03 0.  0.
          5    1    3    3  502    0 -0.19517255707E+00  0.68990053088E+02  0.15952378058E+03  0.17385331314E+03  0.41800000000E+01 0. -1.
         -5    1    3    3    0  502 -0.13765507265E+02 -0.45707035579E+02  0.36408176900E+02  0.60180146534E+02  0.41800000000E+01 0. -1.
        -11    1    1    2    0    0  0.29394905806E+02 -0.45997050108E+01  0.65476516650E+01  0.30464561639E+02  0.00000000000E+00 0.  1.
         11    1    1    2    0    0 -0.15434225984E+02 -0.18683312498E+02  0.11789386476E+03  0.12035881707E+03  0.00000000000E+00 0. -1.
</event>
<event>
 7    1  0.2714042E-009  0.4421294E+03  0.7561462E-02  0.1030095E+00
         -1   -1    0    0    0  501 -0.00000000000E+00  0.00000000000E+00  0.31659730821E+03  0.31659730821E+03  0.00000000000E+00 0.  1.
          1   -1    0    0  501    0  0.00000000000E+00 -0.00000000000E+00 -0.70172296561E+03  0.70172296561E+03  0.00000000000E+00 0. -1.
         25    2    1    2    0    0  0.34586248969E+03 -0.26481861231E+03 -0.40551637080E+02  0.45501816017E+03  0.12508929459E+03 0.  0.
          5    1    3    3  502    0  0.13448353418E+03 -0.14415451002E+03 -0.71233745349E+02  0.20966178146E+03  0.41800000000E+01 0. -1.
         -5    1    3    3    0  502  0.21137895550E+03 -0.12066410228E+03  0.30682108269E+02  0.24535637872E+03  0.41800000000E+01 0. -1.
        -11    1    1    2    0    0 -0.11298391936E+03  0.39745790150E+02 -0.11731974616E+03  0.16765743857E+03  0.00000000000E+00 0. -1.
         11    1    1    2    0    0 -0.23287857032E+03  0.22507282216E+03 -0.22725427417E+03  0.39564467508E+03  0.00000000000E+00 0.  1.
</event>
<event>
 7    1  0.2714042E-009  0.1371244E+03  0.7561462E-02  0.1217251E+00
          2   -1    0    0  501    0  0.00000000000E+00  0.00000000000E+00  0.10917964318E+03  0.10917964318E+03  0.00000000000E+00 0. -1.
         -2   -1    0    0    0  501 -0.00000000000E+00 -0.00000000000E+00 -0.21670617867E+03  0.21670617867E+03  0.00000000000E+00 0.  1.
         25    2    1    2    0    0  0.89794033499E+02 -0.58996567003E+02 -0.64751060805E+02  0.17715101466E+03  0.12508484620E+03 0.  0.
          5    1    3    3  502    0  0.96157977224E+02 -0.28072885556E+02 -0.91367087472E+02  0.13564608568E+03  0.41800000000E+01 0.  1.
         -5    1    3    3    0  502 -0.63639437256E+01 -0.30923681447E+02  0.26616026666E+02  0.41504928978E+02  0.41800000000E+01 0.  1.
        -11    1    1    2    0    0 -0.48128486069E+02  0.81603402864E+02 -0.33094259564E+02  0.10035286018E+03  0.00000000000E+00 0.  1.
         11    1    1    2    0    0 -0.41665547430E+02 -0.22606835861E+02 -0.96812151294E+01  0.48381947012E+02  0.00000000000E+00 0. -1.
</event>
<event>
 7    1  0.2714042E-009  0.1236202E+03  0.7561462E-02  0.1237242E+00
          1   -1    0    0  501    0  0.00000000000E+00  0.00000000000E+00  0.24267577745E+03  0.24267577745E+03  0.00000000000E+00 0. -1.
         -1   -1    0    0    0  501 -0.00000000000E+00 -0.00000000000E+00 -0.80310086017E+02  0.80310086017E+02  0.00000000000E+00 0.  1.
         25    2    1    2    0    0  0.26970993001E+02 -0.79068026027E+02  0.12197694625E+03  0.19366554581E+03  0.12509508790E+03 0.  0.
          5    1    3    3  502    0  0.29695672513E+02  0.19958911912E+02  0.76549358608E+02  0.84601819331E+02  0.41800000000E+01 0.  1.
         -5    1    3    3    0  502 -0.27246795120E+01 -0.99026937938E+02  0.45427587637E+02  0.10906372648E+03  0.41800000000E+01 0.  1.
        -11    1    1    2    0    0 -0.51145470590E+02  0.35563184791E+02 -0.42843422582E+01  0.62441611629E+02  0.00000000000E+00 0.  1.
         11    1    1    2    0    0  0.24174477589E+02  0.43504841236E+02  0.44673087450E+02  0.66878706028E+02  0.00000000000E+00 0. -1.
</event>
<event>
 7    1  0.2714042E-009  0.7545480E+02  0.7561462E-02  0.1342468E+00
         -1   -1    0    0    0  501 -0.00000000000E+00  0.00000000000E+00  0.23861037676E+02  0.23861037676E+02  0.00000000000E+00 0.  1.
          1   -1    0    0  501    0  0.00000000000E+00 -0.00000000000E+00 -0.54414360841E+03  0.54414360841E+03  0.00000000000E+00 0. -1.
         25    2    1    2    0    0 -0.59037929892E+01 -0.15130526915E+02 -0.36650593787E+03  0.38760661847E+03  0.12509396697E+03 0.  0.
          5    1    3    3  502    0 -0.85159793849E+01  0.20965490082E+02 -0.41001205395E+01  0.23374282186E+02  0.41800000000E+01 0.  1.
         -5    1    3    3    0  502  0.26121863957E+01 -0.36096016998E+02 -0.36240581733E+03  0.36423233629E+03  0.41800000000E+01 0.  1.
        -11    1    1    2    0    0  0.17927358770E+02 -0.35316767879E+02 -0.45371064521E+02  0.60226221712E+02  0.00000000000E+00 0. -1.
         11    1    1    2    0    0 -0.12023565781E+02  0.50447294795E+02 -0.10840556834E+03  0.12017180590E+03  0.00000000000E+00 0.  1.
</event>
<event>
 7    1  0.2714042E-009  0.1090974E+03  0.7561462E-02  0.1262251E+00
          1   -1    0    0  501    0  0.00000000000E+00  0.00000000000E+00  0.24802337903E+03  0.24802337903E+03  0.00000000000E+00 0. -1.
         -1   -1    0    0    0  501 -0.00000000000E+00 -0.00000000000E+00 -0.63590549221E+02  0.63590549221E+02  0.00000000000E+00 0.  1.
         25    2    1    2    0    0 -0.59992401274E+02 -0.20785404893E+02  0.87294714733E+02  0.16522403983E+03  0.12508994704E+03 0.  0.
          5    1    3    3  502    0  0.24002010220E+02 -0.26422512805E+02  0.70711536035E+02  0.79321115763E+02  0.41800000000E+01 0. -1.
         -5    1    3    3    0  502 -0.83994411494E+02  0.56371079111E+01  0.16583178698E+02  0.85902924069E+02  0.41800000000E+01 0. -1.
        -11    1    1    2    0    0  0.37405406180E+02 -0.26312675462E+02  0.78650916682E+02  0.90980701230E+02  0.00000000000E+00 0. -1.
         11    1    1    2    0    0  0.22586995094E+02  0.47098080355E+02  0.18487198394E+02  0.55409187189E+02  0.00000000000E+00 0.  1.
</event>
<event>
 7    1  0.2714042E-009  0.1055985E+03  0.7561462E-02  0.1268945E+00
         -2   -1    0    0    0  501 -0.00000000000E+00  0.00000000000E+00  0.36669630667E+03  0.36669630667E+03  0.00000000000E+00 0.  1.
          2   -1    0    0  501    0  0.00000000000E+00 -0.00000000000E+00 -0.36051630164E+02  0.36051630164E+02  0.00000000000E+00 0. -1.
         25    2    1    2    0    0  0.24880109344E+02 -0.25784235990E+02  0.17023147936E+03  0.21426472690E+03  0.12508704954E+03 0.  0.
          5    1    3    3  502    0  0.59925338441E+02 -0.49245577149E+02  0.14617787617E+03  0.16553433764E+03  0.41800000000E+01 0.  1.
         -5    1    3    3    0  502 -0.35045229097E+02  0.23461341159E+02  0.24053603189E+02  0.48730389264E+02  0.41800000000E+01 0.  1.
        -11    1    1    2    0    0  0.25443238836E+02 -0.12077839377E+02  0.88597303987E+02  0.92966202892E+02  0.00000000000E+00 0.  1.
         11    1    1    2    0    0 -0.50323348180E+02  0.37862075367E+02  0.71815893155E+02  0.95517007034E+02  0.00000000000E+00 0. -1.
</event>
<event>
 7    1  0.2714042E-009  0.1289590E+03  0.7561462E-02  0.1229009E+00
          2   -1    0    0  501    0  0.00000000000E+00  0.00000000000E+00  0.17679821896E+03  0.17679821896E+03  0.00000000000E+00 0.  1.
         -2   -1    0    0    0  501 -0.00000000000E+00 -0.00000000000E+00 -0.98354290330E+02  0.98354290330E+02  0.00000000000E+00 0. -1.
         25    2    1    2    0    0  0.34461087074E+02 -0.66925300038E+02  0.48692788462E+02  0.15390253033E+03  0.12509372041E+03 0.  0.
          5    1    3    3  502    0  0.60584292835E+02  0.78810983459E+01  0.42036364545E+02  0.74277160645E+02  0.41800000000E+01 0. -1.
         -5    1    3    3    0  502 -0.26123205761E+02 -0.74806398384E+02  0.66564239172E+01  0.79625369687E+02  0.41800000000E+01 0. -1.
        -11    1    1    2    0    0  0.30271623586E+02  0.30876013949E+02  0.74860313630E+01  0.43883255320E+02  0.00000000000E+00 0. -1.
         11    1    1    2    0    0 -0.64732710659E+02  0.36049286089E+02  0.22265108808E+02  0.77366723642E+02  0.00000000000E+00 0.  1.
</event>
<event>
 7    1  0.2714042E-009  0.1100592E+03  0.7561462E-02  0.1260460E+00
         -1   -1    0    0    0  501 -0.00000000000E+00  0.00000000000E+00  0.35476515477E+03  0.35476515477E+03  0.00000000000E+00 0.  1.
          1   -1    0    0  501    0  0.00000000000E+00 -0.00000000000E+00 -0.43072209985E+02  0.43072209985E+02  0.00000000000E+00 0. -1.
         25    2    1    2    0    0  0.33345854269E+02  0.35435619950E+02  0.11909390818E+03  0.17943711302E+03  0.12508672753E+03 0.  0.
          5    1    3    3  502    0 -0.15187182879E+02  0.71184496248E+02  0.54789063096E+02  0.91198667013E+02  0.41800000000E+01 0. -1.
         -5    1    3    3    0  502  0.48533037148E+02 -0.35748876298E+02  0.64304845089E+02  0.88238446004E+02  0.41800000000E+01 0. -1.
        -11    1    1    2    0    0 -0.48920526318E+02 -0.92774845066E+00  0.16345780307E+03  0.17062394907E+03  0.00000000000E+00 0.  1.
         11    1    1    2    0    0  0.15574672049E+02 -0.34507871499E+02  0.29141233534E+02  0.47776302669E+02  0.00000000000E+00 0. -1.
</event>
<event>
 7    1  0.2714042E-009  0.1381651E+03  0.7561462E-02  0.1215819E+00
          1   -1    0    0  501    0  0.00000000000E+00  0.00000000000E+00  0.18105235709E+03  0.18105235709E+03  0.00000000000E+00 0. -1.
         -1   -1    0    0    0  501 -0.00000000000E+00 -0.00000000000E+00 -0.12020056282E+03  0.12020056282E+03  0.00000000000E+00 0.  1.
         25    2    1    2    0    0 -0.66465678425E+02  0.23049640610E+02  0.28730910230E+02  0.14636069735E+03  0.12508803374E+03 0.  0.
          5    1    3    3  502    0 -0.97861462195E+02  0.42010271813E+02  0.20294958652E+02  0.10849463797E+03  0.41800000000E+01 0. -1.
         -5    1    3    3    0  502  0.31395783770E+02 -0.18960631203E+02  0.84359515772E+01  0.37866059383E+02  0.41800000000E+01 0. -1.
        -11    1    1    2    0    0  0.96025013398E+02 -0.11216894243E+01 -0.12731877824E+02  0.96871884972E+02  0.00000000000E+00 0.  1.
         11    1    1    2    0    0 -0.29559334973E+02 -0.21927951185E+02  0.44852761868E+02  0.58020337593E+02  0.00000000000E+00 0. -1.
</event>
<event>
 7    1  0.2714042E-009  0.2291975E+03  0.7561462E-02  0.1127206E+00
          2   -1    0    0  501    0  0.00000000000E+00  0.00000000000E+00  0.67655466874E+03  0.67655466874E+03  0.00000000000E+00 0. -1.
         -2   -1    0    0    0  501 -0.00000000000E+00 -0.00000000000E+00 -0.83775469139E+02  0.83775469139E+02  0.00000000000E+00 0.  1.
         25    2    1    2    0    0 -0.14823306581E+03 -0.15046350012E+03  0.32156144955E+03  0.40455456754E+03  0.12510126142E+03 0.  0.
          5    1    3    3  502    0 -0.15567953998E+03 -0.16435149592E+03  0.31249718603E+03  0.38590089020E+03  0.41800000000E+01 0.  1.
         -5    1    3    3    0  502  0.74464741746E+01  0.13887995801E+02  0.90642635229E+01  0.18653677337E+02  0.41800000000E+01 0.  1.
        -11    1    1    2    0    0  0.12112889005E+03  0.94989616190E+02  0.12938212844E+03  0.20108448560E+03  0.00000000000E+00 0.  1.
         11    1    1    2    0    0  0.27104175756E+02  0.55473883934E+02  0.14183562161E+03  0.15469108475E+03  0.00000000000E+00 0. -1.
</event>
<event>
 7    1  0.2714042E-009  0.9765640E+02  0.7561462E-02  0.1285303E+00
          2   -1    0    0  501    0  0.00000000000E+00  0.00000000000E+00  0.29072714731E+02  0.29072714731E+02  0.00000000000E+00 0. -1.
         -2   -1    0    0    0  501 -0.00000000000E+00 -0.00000000000E+00 -0.50720928670E+03  0.50720928670E+03  0.00000000000E+00 0.  1.
         25    2    1    2    0    0  0.49936595584E+02  0.17657218155E+02 -0.23046504256E+03  0.26751986965E+03  0.12508918370E+03 0.  0.
          5    1    3    3  502    0 -0.10609348888E+01 -0.45566107514E+02 -0.13255045981E+03  0.14023014131E+03  0.41800000000E+01 0.  1.
         -5    1    3    3    0  502  0.50997530472E+02  0.63223325669E+02 -0.97914582756E+02  0.12728972833E+03  0.41800000000E+01 0.  1.
        -11    1    1    2    0    0 -0.50846205731E+02 -0.32037984647E+00 -0.24613654689E+03  0.25133372037E+03  0.00000000000E+00 0.  1.
         11    1    1    2    0    0  0.90961014734E+00 -0.17336838309E+02 -0.15349825152E+01  0.17428411416E+02  0.00000000000E+00 0. -1.
</event>
<event>
 7    1  0.2714042E-009  0.1041537E+03  0.7561462E-02  0.1271796E+00
          2   -1    0    0  501    0  0.00000000000E+00  0.00000000000E+00  0.60909280613E+03  0.60909280613E+03  0.00000000000E+00 0. -1.
         -2   -1    0    0    0  501 -0.00000000000E+00 -0.00000000000E+00 -0.39172560034E+02  0.39172560034E+02  0.00000000000E+00 0.  1.
         25    2    1    2    0    0 -0.92203321067E+02  0.47161663269E+02  0.37317132329E+03  0.40697570449E+03  0.12508682035E+03 0.  0.
          5    1    3    3  502    0 -0.59399266212E+02  0.35406719986E+02  0.59425674057E+02  0.91273171216E+02  0.41800000000E+01 0.  1.
         -5    1    3    3    0  502 -0.32804054855E+02  0.11754943283E+02  0.31374564923E+03  0.31570253328E+03  0.41800000000E+01 0.  1.
        -11    1    1    2    0    0  0.37641931314E+02 -0.14467904385E+02  0.67004667219E+01  0.40879475347E+02  0.00000000000E+00 0.  1.
         11    1    1    2    0    0  0.54561389753E+02 -0.32693758884E+02  0.19004845609E+03  0.20041018633E+03  0.00000000000E+00 0. -1.
</event>
<event>
 7    1  0.2714042E-009  0.1167148E+03  0.7561462E-02  0.1248617E+00
         -2   -1    0    0    0  501 -0.00000000000E+00  0.00000000000E+00  0.49996427877E+02  0.49996427877E+02  0.00000000000E+00 0.  1.
          2   -1    0    0  501    0  0.00000000000E+00 -0.00000000000E+00 -0.34280394367E+03  0.34280394367E+03  0.00000000000E+00 0. -1.
         25    2    1    2    0    0  0.54825893592E+02 -0.42917935670E+02 -0.18344326185E+03  0.23269742157E+03  0.12509529118E+03 0.  0.
          5    1    3    3  502    0  0.44212379414E+02 -0.74034984263E+02 -0.17967725564E+03  0.19934217312E+03  0.41800000000E+01 0.  1.
         -5    1    3    3    0  502  0.10613514177E+02  0.31117048593E+02 -0.37660062040E+01  0.33355248448E+02  0.41800000000E+01 0.  1.
        -11    1    1    2    0    0  0.18895630467E+02 -0.11682515057E+02 -0.37421650109E+02  0.43519029237E+02  0.00000000000E+00 0.  1.
         11    1    1    2    0    0 -0.73721524059E+02  0.54600450727E+02 -0.71942603835E+02  0.11658392074E+03  0.00000000000E+00 0. -1.
</event>
<event>
 7    1  0.2714042E-009  0.1481314E+03  0.7561462E-02  0.1202788E+00
          2   -1    0    0  501    0  0.00000000000E+00  0.00000000000E+00  0.95184201813E+03  0.95184201813E+03  0.00000000000E+00 0. -1.
         -2   -1    0    0    0  501 -0.00000000000E+00 -0.00000000000E+00 -0.27435084587E+02  0.27435084587E+02  0.00000000000E+00 0.  1.
         25    2    1    2    0    0 -0.16582150160E+02 -0.10637450618E+03  0.34690606085E+03  0.38416331387E+03  0.12508850227E+03 0.  0.
          5    1    3    3  502    0 -0.56662096972E+02 -0.10383089439E+03  0.20594949672E+03  0.23753760853E+03  0.41800000000E+01 0.  1.
         -5    1    3    3    0  502  0.40079946812E+02 -0.25436117833E+01  0.14095656412E+03  0.14662570534E+03  0.41800000000E+01 0.  1.
        -11    1    1    2    0    0 -0.35004122485E+02  0.35392657533E+02  0.13245363914E+03  0.14149874671E+03  0.00000000000E+00 0. -1.
         11    1    1    2    0    0  0.51586272645E+02  0.70981848644E+02  0.44504723356E+03  0.45361504215E+03  0.00000000000E+00 0.  1.
</event>
<event>
 7    1  0.2714042E-009  0.1069334E+03  0.7561462E-02  0.1266356E+00
          2   -1    0    0  501    0  0.00000000000E+00  0.00000000000E+00  0.14220841784E+04  0.14220841784E+04  0.00000000000E+00 0.  1.
         -2   -1    0    0    0  501 -0.00000000000E+00 -0.00000000000E+00 -0.13558907866E+02  0.13558907866E+02  0.00000000000E+00 0. -1.
         25    2    1    2    0    0 -0.26943769831E+02 -0.34841953734E+02  0.11628388523E+04  0.11703769901E+04  0.12509266245E+03 0.  0.
          5    1    3    3  502    0 -0.67580708380E+02 -0.19584167147E+02  0.97492412741E+03  0.97746878127E+03  0.41800000000E+01 0. -1.
         -5    1    3    3    0  502  0.40636938550E+02 -0.15257786587E+02  0.18791472486E+03  0.19290820886E+03  0.41800000000E+01 0. -1.
        -11    1    1    2    0    0  0.35712450927E+02 -0.22207718827E+02  0.94440875560E+02  0.10338104712E+03  0.00000000000E+00 0. -1.
         11    1    1    2    0    0 -0.87686810966E+01  0.57049672561E+02  0.15124554267E+03  0.16188504899E+03  0.00000000000E+00 0.  1.
</event>
<event>
 7    1  0.2714042E-009  0.1716471E+03  0.7561462E-02  0.1176141E+00
          2   -1    0    0  501    0  0.00000000000E+00  0.00000000000E+00  0.77961698916E+02  0.77961698916E+02  0.00000000000E+00 0. -1.
         -2   -1    0    0    0  501 -0.00000000000E+00 -0.00000000000E+00 -0.39854355899E+03  0.39854355899E+03  0.00000000000E+00 0.  1.
         25    2    1    2    0    0  0.67589877076E+02 -0.11447338462E+03 -0.12040465920E+03  0.21868094877E+03  0.12510606751E+03 0.  0.
          5    1    3    3  502    0 -0.67340626424E+01 -0.10741120091E+03 -0.68079903846E+02  0.12741608764E+03  0.41800000000E+01 0. -1.
         -5    1    3    3    0  502  0.74323939718E+02 -0.70621837071E+01 -0.52324755354E+02  0.91264861129E+02  0.41800000000E+01 0. -1.
        -11    1    1    2    0    0  0.45327950722E+01  0.81305180647E+02 -0.11978642210E+03  0.14484428036E+03  0.00000000000E+00 0.  1.
         11    1    1    2    0    0 -0.72122672148E+02  0.33168203975E+02 -0.80390778770E+02  0.11298002878E+03  0.00000000000E+00 0. -1.
</event>
<event>
 7    1  0.2714042E-009  0.7344181E+02  0.7561462E-02  0.1348765E+00
          1   -1    0    0  501    0  0.00000000000E+00  0.00000000000E+00  0.11542076655E+03  0.11542076655E+03  0.00000000000E+00 0. -1.
         -1   -1    0    0    0  501 -0.00000000000E+00 -0.00000000000E+00 -0.16882337834E+03  0.16882337834E+03  0.00000000000E+00 0.  1.
         25    2    1    2    0    0  0.28710285782E+02  0.43792588663E+02 -0.13342172546E+01  0.13561533330E+03  0.12509063578E+03 0.  0.
          5    1    3    3  502    0  0.17299550016E+02  0.49930254567E+02 -0.57276162149E+02  0.78040604190E+02  0.41800000000E+01 0.  1.
         -5    1    3    3    0  502  0.11410735766E+02 -0.61376659043E+01  0.55941944894E+02  0.57574729109E+02  0.41800000000E+01 0.  1.
        -11    1    1    2    0    0  0.15136294503E+02 -0.31144185459E+02 -0.85376563682E+02  0.92131565304E+02  0.00000000000E+00 0.  1.
         11    1    1    2    0    0 -0.43846580285E+02 -0.12648403203E+02  0.33308169142E+02  0.56497246286E+02  0.00000000000E+00 0. -1.
</event>
<event>
 7    1  0.2714042E-009  0.1839605E+03  0.7561462E-02  0.1164024E+00
          2   -1    0    0  501    0  0.00000000000E+00  0.00000000000E+00  0.10441011824E+04  0.10441011824E+04  0.00000000000E+00 0. -1.
         -2   -1    0    0    0  501 -0.00000000000E+00 -0.00000000000E+00 -0.35615408108E+02  0.35615408108E+02  0.00000000000E+00 0.  1.
         25    2    1    2    0    0  0.95155741112E+01  0.15076857828E+03  0.63658438530E+03  0.66611424781E+03  0.12508717433E+03 0.  0.
          5    1    3    3  502    0  0.15832704638E+02 -0.19159262535E+02  0.63480063896E+02  0.68300386450E+02  0.41800000000E+01 0.  1.
         -5    1    3    3    0  502 -0.63171305264E+01  0.16992784082E+03  0.57310432141E+03  0.59781386136E+03  0.41800000000E+01 0.  1.
        -11    1    1    2    0    0  0.35369996010E+02 -0.41717709882E+02  0.65754723541E+02  0.85528285400E+02  0.00000000000E+00 0.  1.
         11    1    1    2    0    0 -0.44885570121E+02 -0.10905086840E+03  0.30614666542E+03  0.32807405727E+03  0.00000000000E+00 0. -1.
</event>
<event>
 7    1  0.2714042E-009  0.2125070E+03  0.7561462E-02  0.1139596E+00
          1   -1    0    0  501    0  0.00000000000E+00  0.00000000000E+00  0.81614771415E+03  0.81614771415E+03  0.00000000000E+00 0. -1.
         -1   -1    0    0    0  501 -0.00000000000E+00 -0.00000000000E+00 -0.76117987192E+02  0.76117987192E+02  0.00000000000E+00 0.  1.
         25    2    1    2    0    0 -0.91490122352E+02  0.18190803119E+03  0.21322909386E+03  0.32027388832E+03  0.12509093801E+03 0.  0.
          5    1    3    3  502    0 -0.90714348676E+02  0.11236540100E+03  0.20402296398E+03  0.24999583722E+03  0.41800000000E+01 0. -1.
         -5    1    3    3    0  502 -0.77577367615E+00  0.69542630191E+02  0.92061298809E+01  0.70278051098E+02  0.41800000000E+01 0. -1.
        -11    1    1    2    0    0  0.50271829853E+02 -0.15156762460E+03  0.46553254535E+03  0.49215907234E+03  0.00000000000E+00 0. -1.
         11    1    1    2    0    0  0.41218292499E+02 -0.30340406593E+02  0.61268087739E+02  0.79832740677E+02  0.00000000000E+00 0.  1.
</event>
<event>
 7    1  0.2714042E-009  0.1506919E+03  0.7561462E-02  0.1199625E+00
         -2   -1    0    0    0  501 -0.00000000000E+00  0.00000000000E+00  0.40547838403E+02  0.40547838403E+02  0.00000000000E+00 0.  1.
          2   -1    0    0  501    0  0.00000000000E+00 -0.00000000000E+00 -0.68174229621E+03  0.68174229621E+03  0.00000000000E+00 0. -1.
         25    2    1    2    0    0  0.65948488083E+02  0.10597462334E+03 -0.29565706619E+03  0.34444277464E+03  0.12509156783E+03 0.  0.
          5    1    3    3  502    0  0.31386129471E+02  0.13030107997E+03 -0.21835401518E+03  0.25624091966E+03  0.41800000000E+01 0.  1.
         -5    1    3    3    0  502  0.34562358611E+02 -0.24326456637E+02 -0.77303051013E+02  0.88201854976E+02  0.41800000000E+01 0.  1.
        -11    1    1    2    0    0 -0.36606028588E+02 -0.59151561782E+02 -0.77358469365E+02  0.10403480847E+03  0.00000000000E+00 0.  1.
         11    1    1    2    0    0 -0.29342459495E+02 -0.46823061556E+02 -0.26817892225E+03  0.27381255150E+03  0.00000000000E+00 0. -1.
</event>
<event>
 7    1  0.2714042E-009  0.8787090E+02  0.7561462E-02  0.1308091E+00
         -1   -1    0    0    0  501 -0.00000000000E+00  0.00000000000E+00  0.39061161425E+03  0.39061161425E+03  0.00000000000E+00 0.  1.
          1   -1    0    0  501    0  0.00000000000E+00 -0.00000000000E+00 -0.50485508210E+02  0.50485508210E+02  0.00000000000E+00 0. -1.
         25    2    1    2    0    0  0.13116432334E+02  0.57428493285E+02  0.80841634915E+02  0.16016751979E+03  0.12509273289E+03 0.  0.
          5    1    3    3  502    0  0.23864757425E+02  0.40224811608E+02  0.11274376506E+03  0.12213185938E+03  0.41800000000E+01 0. -1.
         -5    1    3    3    0  502 -0.10748325091E+02  0.17203681677E+02 -0.31902130143E+02  0.38035660415E+02  0.41800000000E+01 0. -1.
        -11    1    1    2    0    0  0.18111627653E+02 -0.71545090070E+02  0.17259403956E+03  0.18771103713E+03  0.00000000000E+00 0.  1.
         11    1    1    2    0    0 -0.31228059986E+02  0.14116596785E+02  0.86690431562E+02  0.93218565532E+02  0.00000000000E+00 0. -1.
</event>
<event>
 7    1  0.2714042E-009  0.1432040E+03  0.7561462E-02  0.1209082E+00
          2   -1    0    0  501    0  0.00000000000E+00  0.00000000000E+00  0.44031205714E+03  0.44031205714E+03  0.00000000000E+00 0. -1.
         -2   -1    0    0    0  501 -0.00000000000E+00 -0.00000000000E+00 -0.62700445228E+02  0.62700445228E+02  0.00000000000E+00 0.  1.
         25    2    1    2    0    0 -0.94218367432E+02 -0.72067575327E+02  0.21814847398E+03  0.27804367930E+03  0.12509474299E+03 0.  0.
          5    1    3    3  502    0  0.84338325679E+01 -0.62494115429E+01 -0.12660797751E+02  0.16969174291E+02  0.41800000000E+01 0. -1.
         -5    1    3    3    0  502 -0.10265220000E+03 -0.65818163784E+02  0.23080927173E+03  0.26107450501E+03  0.41800000000E+01 0. -1.
        -11    1    1    2    0    0  0.25305315834E+02 -0.23994969447E+02  0.14141344335E+02  0.37631040217E+02  0.00000000000E+00 0.  1.
         11    1    1    2    0    0  0.68913051598E+02  0.96062544775E+02  0.14532179360E+03  0.18733778285E+03  0.00000000000E+00 0. -1.
</event>
<event>
 7    1  0.2714042E-009  0.1059884E+03  0.7561462E-02  0.1268184E+00
         -2   -1    0    0    0  501 -0.00000000000E+00  0.00000000000E+00  0.12593822651E+02  0.12593822651E+02  0.00000000000E+00 0.  1.
          2   -1    0    0  501    0  0.00000000000E+00 -0.00000000000E+00 -0.90602577131E+03  0.90602577131E+03  0.00000000000E+00 0. -1.
         25    2    1    2    0    0 -0.11964521899E+02  0.28225291105E+02 -0.57411583910E+03  0.58838489002E+03  0.12509182730E+03 0.  0.
          5    1    3    3  502    0  0.55395833859E+02  0.70966884133E+00 -0.27009365249E+03  0.27574853681E+03  0.41800000000E+01 0.  1.
         -5    1    3    3    0  502 -0.67360355757E+02  0.27515622264E+02 -0.30402218661E+03  0.31263635321E+03  0.41800000000E+01 0.  1.
        -11    1    1    2    0    0  0.45078578002E+02 -0.20560145193E+02 -0.16833890827E+03  0.17547873319E+03  0.00000000000E+00 0. -1.
         11    1    1    2    0    0 -0.33114056103E+02 -0.76651459125E+01 -0.15097720129E+03  0.15475597075E+03  0.00000000000E+00 0.  1.
</event>
<event>
 7    1  0.2714042E-009  0.2160777E+03  0.7561462E-02  0.1136842E+00
         -1   -1    0    0    0  501 -0.00000000000E+00  0.00000000000E+00  0.38498895460E+03  0.38498895460E+03  0.00000000000E+00 0.  1.
          1   -1    0    0  501    0  0.00000000000E+00 -0.00000000000E+00 -0.15665809138E+03  0.15665809138E+03  0.00000000000E+00 0. -1.
         25    2    1    2    0    0  0.33605654409E+02 -0.20615048587E+03  0.19386270936E+03  0.31121919156E+03  0.12508905741E+03 0.  0.
          5    1    3    3  502    0  0.20506876814E+01 -0.15326120974E+03  0.19672712733E+03  0.24942381354E+03  0.41800000000E+01 0. -1.
         -5    1    3    3    0  502  0.31554966728E+02 -0.52889276126E+02 -0.28644179782E+01  0.61795378020E+02  0.41800000000E+01 0. -1.
        -11    1    1    2    0    0  0.15192476189E+02  0.23075878510E+02 -0.19036574088E+02  0.33551432976E+02  0.00000000000E+00 0. -1.
         11    1    1    2    0    0 -0.48798130598E+02  0.18307460736E+03  0.53504727953E+02  0.19687642145E+03  0.00000000000E+00 0.  1.
</event>
<event>
 7    1  0.2714042E-009  0.1727979E+03  0.7561462E-02  0.1174961E+00
         -3   -1    0    0    0  501 -0.00000000000E+00  0.00000000000E+00  0.16608405624E+03  0.16608405624E+03  0.00000000000E+00 0.  1.
          3   -1    0    0  501    0  0.00000000000E+00 -0.00000000000E+00 -0.23080892354E+03  0.23080892354E+03  0.00000000000E+00 0. -1.
         25    2    1    2    0    0 -0.10138466128E+03  0.10657020751E+03 -0.10071333626E+03  0.21777584919E+03  0.12508831167E+03 0.  0.
          5    1    3    3  502    0 -0.53348357355E+02  0.10945431351E+03 -0.19646377231E+02  0.12340885915E+03  0.41800000000E+01 0.  1.
         -5    1    3    3    0  502 -0.48036303928E+02 -0.28841059986E+01 -0.81066959032E+02  0.94366990040E+02  0.41800000000E+01 0.  1.
        -11    1    1    2    0    0 -0.88370374539E+01  0.11125601541E+02  0.24596595869E+01  0.14419506438E+02  0.00000000000E+00 0. -1.
         11    1    1    2    0    0  0.11022169874E+03 -0.11769580905E+03  0.33528809379E+02  0.16469762415E+03  0.00000000000E+00 0.  1.
</event>
<event>
 7    1  0.2714042E-009  0.1004234E+03  0.7561462E-02  0.1279408E+00
          1   -1    0    0  501    0  0.00000000000E+00  0.00000000000E+00  0.40069854683E+02  0.40069854683E+02  0.00000000000E+00 0. -1.
         -1   -1    0    0    0  501 -0.00000000000E+00 -0.00000000000E+00 -0.40473850723E+03  0.40473850723E+03  0.00000000000E+00 0.  1.
         25    2    1    2    0    0  0.58444612307E+02 -0.34667287842E+02 -0.18735089598E+03  0.23529738206E+03  0.12508759422E+03 0.  0.
          5    1    3    3  502    0  0.78883795353E+02 -0.55441640151E+01 -0.18276187861E+03  0.19918023897E+03  0.41800000000E+01 0. -1.
         -5    1    3    3    0  502 -0.20439183045E+02 -0.29123123827E+02 -0.45890173715E+01  0.36117143096E+02  0.41800000000E+01 0. -1.
        -11    1    1    2    0    0 -0.21017682513E+02  0.42665734704E+02 -0.16104795360E+03  0.16792424261E+03  0.00000000000E+00 0.  1.
         11    1    1    2    0    0 -0.37426929794E+02 -0.79984468624E+01 -0.16269802974E+02  0.41586737247E+02  0.00000000000E+00 0. -1.
</event>
<event>
 7    1  0.2714042E-009  0.8059624E+02  0.7561462E-02  0.1327368E+00
          1   -1    0    0  501    0  0.00000000000E+00  0.00000000000E+00  0.66723601484E+03  0.66723601484E+03  0.00000000000E+00 0. -1.
         -1   -1    0    0    0  501 -0.00000000000E+00 -0.00000000000E+00 -0.18094739877E+02  0.18094739877E+02  0.00000000000E+00 0.  1.
         25    2    1    2    0    0  0.20118656664E+00  0.13038264611E+02  0.41445952329E+03  0.43312125736E+03  0.12508912947E+03 0.  0.
          5    1    3    3  502    0 -0.12150672969E+02  0.40235939059E+02  0.42424341528E+02  0.59865405700E+02  0.41800000000E+01 0. -1.
         -5    1    3    3    0  502  0.12351859535E+02 -0.27197674448E+02  0.37203518176E+03  0.37325585166E+03  0.41800000000E+01 0. -1.
        -11    1    1    2    0    0 -0.81109888086E+01  0.37129411409E+02  0.67267387811E+02  0.77261133786E+02  0.00000000000E+00 0.  1.
         11    1    1    2    0    0  0.79098022420E+01 -0.50167676021E+02  0.16741436386E+03  0.17494836357E+03  0.00000000000E+00 0. -1.
</event>
<event>
 7    1  0.2714042E-009  0.2043484E+03  0.7561462E-02  0.1146121E+00
          1   -1    0    0  501    0  0.00000000000E+00  0.00000000000E+00  0.10531346501E+04  0.10531346501E+04  0.00000000000E+00 0. -1.
         -1   -1    0    0    0  501 -0.00000000000E+00 -0.00000000000E+00 -0.40944207411E+02  0.40944207411E+02  0.00000000000E+00 0.  1.
         25    2    1    2    0    0  0.15576434180E+03 -0.81301096854E+02  0.57161026050E+03  0.61094881722E+03  0.12509104212E+03 0.  0.
          5    1    3    3  502    0  0.63840944598E+02  0.30305497242E+02  0.17440885979E+03  0.18822861670E+03  0.41800000000E+01 0.  1.
         -5    1    3    3    0  502  0.91923397203E+02 -0.11160659410E+03  0.39720140071E+03  0.42272020052E+03  0.41800000000E+01 0.  1.
        -11    1    1    2    0    0 -0.20087594057E+01  0.31603658454E+02  0.38859233430E+02  0.50128498529E+02  0.00000000000E+00 0.  1.
         11    1    1    2    0    0 -0.15375558240E+03  0.49697438400E+02  0.40172094873E+03  0.43300154174E+03  0.00000000000E+00 0. -1.
</event>
<event>
 7    1  0.2714042E-009  0.1107051E+03  0.7561462E-02  0.1259270E+00
          1   -1    0    0  501    0  0.00000000000E+00  0.00000000000E+00  0.14271029676E+03  0.14271029676E+03  0.00000000000E+00 0. -1.
         -1   -1    0    0    0  501 -0.00000000000E+00 -0.00000000000E+00 -0.13418969773E+03  0.13418969773E+03  0.00000000000E+00 0.  1.
         25    2    1    2    0    0  0.98702077167E+01  0.84993509521E+02  0.12747868771E+02  0.15209176171E+03  0.12509227858E+03 0.  0.
          5    1    3    3  502    0 -0.17594686580E+02  0.62801248761E+02  0.62839433393E+02  0.90663314692E+02  0.41800000000E+01 0.  1.
         -5    1    3    3    0  502  0.27464894296E+02  0.22192260760E+02 -0.50091564622E+02  0.61428447015E+02  0.41800000000E+01 0.  1.
        -11    1    1    2    0    0 -0.42419856134E+01 -0.10225568145E+03  0.84071778835E+01  0.10268836093E+03  0.00000000000E+00 0. -1.
         11    1    1    2    0    0 -0.56282221033E+01  0.17262171929E+02 -0.12634447631E+02  0.22119871851E+02  0.00000000000E+00 0.  1.
</event>
<event>
 7    1  0.2714042E-009  0.9837818E+02  0.7561462E-02  0.1283744E+00
         -1   -1    0    0    0  501 -0.00000000000E+00  0.00000000000E+00  0.10651000522E+02  0.10651000522E+02  0.00000000000E+00 0.  1.
          1   -1    0    0  501    0  0.00000000000E+00 -0.00000000000E+00 -0.14950950544E+04  0.14950950544E+04  0.00000000000E+00 0. -1.
         25    2    1    2    0    0  0.15504767981E+02 -0.37065298996E+02 -0.11409688075E+04  0.11485088987E+04  0.12509450933E+03 0.  0.
          5    1    3    3  502    0  0.47931529369E+02 -0.50391985231E+02 -0.10230027345E+04  0.10253725425E+04  0.41800000000E+01 0. -1.
         -5    1    3    3    0  502 -0.32426761388E+02  0.13326686235E+02 -0.11796607304E+03  0.12313635617E+03  0.41800000000E+01 0. -1.
        -11    1    1    2    0    0  0.29308257389E+02 -0.56722490441E+01 -0.59263844497E+02  0.66357754822E+02  0.00000000000E+00 0.  1.
         11    1    1    2    0    0 -0.44813025370E+02  0.42737548041E+02 -0.28421140186E+03  0.29087940148E+03  0.00000000000E+00 0. -1.
</event>
<event>
 7    1  0.2714042E-009  0.7688672E+02  0.7561462E-02  0.1338126E+00
          1   -1    0    0  501    0  0.00000000000E+00  0.00000000000E+00  0.13740644073E+03  0.13740644073E+03  0.00000000000E+00 0. -1.
         -1   -1    0    0    0  501 -0.00000000000E+00 -0.00000000000E+00 -0.10248833745E+03  0.10248833745E+03  0.00000000000E+00 0.  1.
         25    2    1    2    0    0 -0.50233872433E+01 -0.26277890219E+01  0.67411517594E+02  0.14221375273E+03  0.12509316155E+03 0.  0.
          5    1    3    3  502    0 -0.42157341369E+01 -0.62725792429E+02  0.46986640560E+02  0.78597164334E+02  0.41800000000E+01 0. -1.
         -5    1    3    3    0  502 -0.80765310643E+00  0.60098003407E+02  0.20424877034E+02  0.63616588394E+02  0.41800000000E+01 0. -1.
        -11    1    1    2    0    0  0.17714182042E+02  0.16094488458E+01  0.29470713910E+02  0.34422457051E+02  0.00000000000E+00 0. -1.
         11    1    1    2    0    0 -0.12690794799E+02  0.10183401761E+01 -0.61964128228E+02  0.63258568402E+02  0.00000000000E+00 0.  1.
</event>
<event>
 7    1  0.2714042E-009  0.1396851E+03  0.7561462E-02  0.1213753E+00
          1   -1    0    0  501    0  0.00000000000E+00  0.00000000000E+00  0.22637891758E+03  0.22637891758E+03  0.00000000000E+00 0. -1.
         -1   -1    0    0    0  501 -0.00000000000E+00 -0.00000000000E+00 -0.93581613983E+02  0.93581613983E+02  0.00000000000E+00 0.  1.
         25    2    1    2    0    0 -0.97204775783E+02  0.29647525974E+01  0.10131510886E+03  0.18806882675E+03  0.12509026389E+03 0.  0.
          5    1    3    3  502    0  0.16985343338E+02  0.35537016475E+02  0.26592251021E+02  0.47707458983E+02  0.41800000000E+01 0.  1.
         -5    1    3    3    0  502 -0.11419011912E+03 -0.32572263878E+02  0.74722857840E+02  0.14036136777E+03  0.41800000000E+01 0.  1.
        -11    1    1    2    0    0  0.74332234709E+02 -0.34530837732E+02  0.28247199389E+00  0.81961818317E+02  0.00000000000E+00 0.  1.
         11    1    1    2    0    0  0.22872541073E+02  0.31566085135E+02  0.31199722743E+02  0.49929886492E+02  0.00000000000E+00 0. -1.
</event>
<event>
 7    1  0.2714042E-009  0.9806339E+02  0.7561462E-02  0.1284422E+00
         -1   -1    0    0    0  501 -0.00000000000E+00  0.00000000000E+00  0.85830950448E+02  0.85830950448E+02  0.00000000000E+00 0.  1.
          1   -1    0    0  501    0  0.00000000000E+00 -0.00000000000E+00 -0.19396286294E+03  0.19396286294E+03  0.00000000000E+00 0. -1.
         25    2    1    2    0    0 -0.45027868587E+02 -0.22959984599E+02 -0.11202300016E+03  0.17536029007E+03  0.12508960360E+03 0.  0.
          5    1    3    3  502    0 -0.52669751468E+02  0.14807353418E+02 -0.12333022729E+03  0.13498584295E+03  0.41800000000E+01 0.  1.
         -5    1    3    3    0  502  0.76418828810E+01 -0.37767338017E+02  0.11307227132E+02  0.40374447120E+02  0.41800000000E+01 0.  1.
        -11    1    1    2    0    0  0.35072143074E+01 -0.32793980180E+02  0.10479967664E+02  0.34606002521E+02  0.00000000000E+00 0.  1.
         11    1    1    2    0    0  0.41520654280E+02  0.55753964778E+02 -0.65888799987E+01  0.69827520792E+02  0.00000000000E+00 0. -1.
</event>
<event>
 7    1  0.2714042E-009  0.2761242E+03  0.7561462E-02  0.1097825E+00
         -1   -1    0    0    0  501 -0.00000000000E+00  0.00000000000E+00  0.52893869939E+02  0.52893869939E+02  0.00000000000E+00 0.  1.
          1   -1    0    0  501    0  0.00000000000E+00 -0.00000000000E+00 -0.15834348710E+04  0.15834348710E+04  0.00000000000E+00 0. -1.
         25    2    1    2    0    0 -0.25637538106E+03 -0.74670332412E+02 -0.83506446045E+03  0.88559829249E+03  0.12509071907E+03 0.  0.
          5    1    3    3  502    0 -0.22085505496E+03 -0.78221854917E+02 -0.80600464884E+03  0.83937868703E+03  0.41800000000E+01 0.  1.
         -5    1    3    3    0  502 -0.35520326091E+02  0.35515225052E+01 -0.29059811605E+02  0.46219605453E+02  0.41800000000E+01 0.  1.
        -11    1    1    2    0    0  0.21092847783E+03  0.21494159781E+02 -0.54504174315E+03  0.58482760146E+03  0.00000000000E+00 0. -1.
         11    1    1    2    0    0  0.45446903229E+02  0.53176172631E+02 -0.15043479743E+03  0.16590284695E+03  0.00000000000E+00 0.  1.
</event>
<event>
 7    1  0.2714042E-009  0.1386508E+03  0.7561462E-02  0.1215156E+00
          2   -1    0    0  501    0  0.00000000000E+00  0.00000000000E+00  0.80390155929E+03  0.80390155929E+03  0.00000000000E+00 0. -1.
         -2   -1    0    0    0  501 -0.00000000000E+00 -0.00000000000E+00 -0.25720267902E+02  0.25720267902E+02  0.00000000000E+00 0.  1.
         25    2    1    2    0    0 -0.38954668815E+02  0.83578608205E+02  0.34729679049E+03  0.38048007570E+03  0.12508867793E+03 0.  0.
          5    1    3    3  502    0 -0.81811356301E+02  0.73736272608E+02  0.26662526919E+03  0.28850761253E+03  0.41800000000E+01 0. -1.
         -5    1    3    3    0  502  0.42856687486E+02  0.98423355968E+01  0.80671521297E+02  0.91972463165E+02  0.41800000000E+01 0. -1.
        -11    1    1    2    0    0  0.64526940961E+02 -0.58498674130E+02  0.35012829060E+03  0.36079861538E+03  0.00000000000E+00 0. -1.
         11    1    1    2    0    0 -0.25572272146E+02 -0.25079934075E+02  0.80756210301E+02  0.88343136112E+02  0.00000000000E+00 0.  1.
</event>
<event>
 7    1  0.2714042E-009  0.9671934E+02  0.7561462E-02  0.1287350E+00
         -2   -1    0    0    0  501 -0.00000000000E+00  0.00000000000E+00  0.15488834249E+02  0.15488834249E+02  0.00000000000E+00 0. -1.
          2   -1    0    0  501    0  0.00000000000E+00 -0.00000000000E+00 -0.11071069526E+04  0.11071069526E+04  0.00000000000E+00 0.  1.
         25    2    1    2    0    0 -0.25106510932E+02  0.58654535325E+02 -0.66595993523E+03  0.68060346022E+03  0.12509094024E+03 0.  0.
          5    1    3    3  502    0 -0.34846115383E+02  0.48381232769E+02 -0.11643215554E+03  0.13087747967E+03  0.41800000000E+01 0. -1.
         -5    1    3    3    0  502  0.97396044511E+01  0.10273302556E+02 -0.54952777969E+03  0.54972598055E+03  0.41800000000E+01 0. -1.
        -11    1    1    2    0    0  0.14024233771E+02 -0.87182412940E+02 -0.32521641118E+03  0.33699134464E+03  0.00000000000E+00 0.  1.
         11    1    1    2    0    0  0.11082277161E+02  0.28527877615E+02 -0.10044177191E+03  0.10500098196E+03  0.00000000000E+00 0. -1.
</event>
<event>
 7    1  0.2714042E-009  0.1022972E+03  0.7561462E-02  0.1275538E+00
          2   -1    0    0  501    0  0.00000000000E+00  0.00000000000E+00  0.10157424074E+04  0.10157424074E+04  0.00000000000E+00 0. -1.
         -2   -1    0    0    0  501 -0.00000000000E+00 -0.00000000000E+00 -0.16446939280E+02  0.16446939280E+02  0.00000000000E+00 0.  1.
         25    2    1    2    0    0  0.64047169805E+02 -0.16016111044E+01  0.63896746050E+03  0.65424166895E+03  0.12509252854E+03 0.  0.
          5    1    3    3  502    0  0.51256673108E+02 -0.33363781535E+02  0.59598376834E+03  0.59912812735E+03  0.41800000000E+01 0. -1.
         -5    1    3    3    0  502  0.12790496698E+02  0.31762170431E+02  0.42983692163E+02  0.55113541605E+02  0.41800000000E+01 0. -1.
        -11    1    1    2    0    0  0.22186047119E+02 -0.32781623938E+01  0.13076122514E+03  0.13267051306E+03  0.00000000000E+00 0. -1.
         11    1    1    2    0    0 -0.86233216925E+02  0.48797734983E+01  0.22956678251E+03  0.24527716470E+03  0.00000000000E+00 0.  1.
</event>
<event>
 7    1  0.2714042E-009  0.2037612E+03  0.7561462E-02  0.1146604E+00
         -1   -1    0    0    0  501 -0.00000000000E+00  0.00000000000E+00  0.48978821371E+02  0.48978821371E+02  0.00000000000E+00 0.  1.
          1   -1    0    0  501    0  0.00000000000E+00 -0.00000000000E+00 -0.11194430683E+04  0.11194430683E+04  0.00000000000E+00 0. -1.
         25    2    1    2    0    0 -0.18946044270E+03  0.26060542362E+02 -0.35345573868E+03  0.42089499380E+03  0.12508886995E+03 0.  0.
          5    1    3    3  502    0 -0.80551122648E+02 -0.10716257862E+02 -0.47935270204E+02  0.94438255341E+02  0.41800000000E+01 0.  1.
         -5    1    3    3    0  502 -0.10890932005E+03  0.36776800224E+02 -0.30552046847E+03  0.32645673846E+03  0.41800000000E+01 0.  1.
        -11    1    1    2    0    0  0.85113842123E+02  0.32927762617E+02 -0.29082534053E+03  0.30480810745E+03  0.00000000000E+00 0.  1.
         11    1    1    2    0    0  0.10434660057E+03 -0.58988304980E+02 -0.42618316775E+03  0.44271878845E+03  0.00000000000E+00 0. -1.
</event>
<event>
 7    1  0.2714042E-009  0.7363272E+02  0.7561462E-02  0.1348158E+00
          2   -1    0    0  501    0  0.00000000000E+00  0.00000000000E+00  0.41616450887E+03  0.41616450887E+03  0.00000000000E+00 0. -1.
         -2   -1    0    0    0  501 -0.00000000000E+00 -0.00000000000E+00 -0.37224797249E+02  0.37224797249E+02  0.00000000000E+00 0.  1.
         25    2    1    2    0    0  0.38984795771E+02  0.34316670844E+02  0.14988186932E+03  0.20201341093E+03  0.12508954891E+03 0.  0.
          5    1    3    3  502    0  0.41412501464E+02  0.21056885535E+02  0.17064620789E+03  0.17690672224E+03  0.41800000000E+01 0.  1.
         -5    1    3    3    0  502 -0.24277056923E+01  0.13259785309E+02 -0.20764338565E+02  0.25106688699E+02  0.41800000000E+01 0.  1.
        -11    1    1    2    0    0 -0.71820064899E+00 -0.46377967293E+02  0.18926883420E+03  0.19486950316E+03  0.00000000000E+00 0. -1.
         11    1    1    2    0    0 -0.38266595122E+02  0.12061296448E+02  0.39789008104E+02  0.56506392029E+02  0.00000000000E+00 0.  1.
</event>
<event>
 7    1  0.2714042E-009  0.8651017E+02  0.7561462E-02  0.1311530E+00
         -2   -1    0    0    0  501 -0.00000000000E+00  0.00000000000E+00  0.31727417046E+02  0.31727417046E+02  0.00000000000E+00 0.  1.
          2   -1    0    0  501    0  0.00000000000E+00 -0.00000000000E+00 -0.45114049311E+03  0.45114049311E+03  0.00000000000E+00 0. -1.
         25    2    1    2    0    0  0.27106498689E+02 -0.55964366490E+01 -0.32026411487E+03  0.34493782353E+03  0.12508763509E+03 0.  0.
          5    1    3    3  502    0  0.35019815547E+02  0.39431282592E+02 -0.57262497308E+02  0.77959473611E+02  0.41800000000E+01 0.  1.
         -5    1    3    3    0  502 -0.79133168579E+01 -0.45027719241E+02 -0.26300161757E+03  0.26697834992E+03  0.41800000000E+01 0.  1.
        -11    1    1    2    0    0  0.30973233041E+01 -0.28494866724E+02  0.17253036520E+00  0.28663227452E+02  0.00000000000E+00 0.  1.
         11    1    1    2    0    0 -0.30203821993E+02  0.34091303373E+02 -0.99321491551E+02  0.10926685917E+03  0.00000000000E+00 0. -1.
</event>
<event>
 7    1  0.2714042E-009  0.1234750E+03  0.7561462E-02  0.1237472E+00
          1   -1    0    0  501    0  0.00000000000E+00  0.00000000000E+00  0.40973404436E+02  0.40973404436E+02  0.00000000000E+00 0. -1.
         -1   -1    0    0    0  501 -0.00000000000E+00 -0.00000000000E+00 -0.55209469572E+03  0.55209469572E+03  0.00000000000E+00 0.  1.
         25    2    1    2    0    0 -0.86465019878E+02 -0.56329123971E+02 -0.26495991440E+03  0.31064419411E+03  0.12508752626E+03 0.  0.
          5    1    3    3  502    0 -0.65280763683E+02 -0.57588397104E+02 -0.27375650350E+03  0.28729444338E+03  0.41800000000E+01 0.  1.
         -5    1    3    3    0  502 -0.21184256195E+02  0.12592731335E+01  0.87965891015E+01  0.23349750731E+02  0.41800000000E+01 0.  1.
        -11    1    1    2    0    0  0.26663559921E+02 -0.25448030745E+02 -0.73835722664E+02  0.82524309374E+02  0.00000000000E+00 0.  1.
         11    1    1    2    0    0  0.59801459957E+02  0.81777154715E+02 -0.17232565422E+03  0.19989959667E+03  0.00000000000E+00 0. -1.
</event>
<event>
 7    1  0.2714042E-009  0.9457965E+02  0.7561462E-02  0.1292126E+00
          1   -1    0    0  501    0  0.00000000000E+00  0.00000000000E+00  0.43653113281E+03  0.43653113281E+03  0.00000000000E+00 0. -1.
         -1   -1    0    0    0  501 -0.00000000000E+00 -0.00000000000E+00 -0.29762909215E+02  0.29762909215E+02  0.00000000000E+00 0.  1.
         25    2    1    2    0    0 -0.14581425938E+02  0.20408231072E+02  0.22916300919E+03  0.26228369477E+03  0.12509171788E+03 0.  0.
          5    1    3    3  502    0 -0.60219242795E+02  0.33180473750E+02  0.79244645587E+02  0.10499755852E+03  0.41800000000E+01 0.  1.
         -5    1    3    3    0  502  0.45637816857E+02 -0.12772242677E+02  0.14991836360E+03  0.15728613625E+03  0.41800000000E+01 0.  1.
        -11    1    1    2    0    0 -0.69503013593E+01 -0.41785862935E+02  0.26671977741E+02  0.50057561135E+02  0.00000000000E+00 0.  1.
         11    1    1    2    0    0  0.21531727297E+02  0.21377631863E+02  0.15093323667E+03  0.15395278612E+03  0.00000000000E+00 0. -1.
</event>
<event>
 7    1  0.2714042E-009  0.1301470E+03  0.7561462E-02  0.1227238E+00
          2   -1    0    0  501    0  0.00000000000E+00  0.00000000000E+00  0.45067708025E+03  0.45067708025E+03  0.00000000000E+00 0. -1.
         -2   -1    0    0    0  501 -0.00000000000E+00 -0.00000000000E+00 -0.55227850275E+02  0.55227850275E+02  0.00000000000E+00 0.  1.
         25    2    1    2    0    0 -0.76811383009E+02 -0.61305648556E+02  0.11793311815E+03  0.19802534005E+03  0.12508974315E+03 0.  0.
          5    1    3    3  502    0 -0.39552645304E+02 -0.87958626656E+02  0.34059565787E+02  0.10236531725E+03  0.41800000000E+01 0. -1.
         -5    1    3    3    0  502 -0.37258737705E+02  0.26652978100E+02  0.83873552365E+02  0.95660022806E+02  0.41800000000E+01 0. -1.
        -11    1    1    2    0    0  0.26984341187E+02  0.62332543554E+02  0.83876923637E+02  0.10792978724E+03  0.00000000000E+00 0.  1.
         11    1    1    2    0    0  0.49827041822E+02 -0.10268949981E+01  0.19363918819E+03  0.19994980323E+03  0.00000000000E+00 0. -1.
</event>
<event>
 7    1  0.2714042E-009  0.1171481E+03  0.7561462E-02  0.1247877E+00
         -2   -1    0    0    0  501 -0.00000000000E+00  0.00000000000E+00  0.59232871292E+03  0.59232871292E+03  0.00000000000E+00 0.  1.
          2   -1    0    0  501    0  0.00000000000E+00 -0.00000000000E+00 -0.41574333687E+02  0.41574333687E+02  0.00000000000E+00 0. -1.
         25    2    1    2    0    0  0.87498529197E+02  0.70521828344E+02  0.36737277537E+03  0.40402984675E+03  0.12509212643E+03 0.  0.
          5    1    3    3  502    0  0.49501255304E+02  0.11106587738E+02  0.29467715587E+02  0.58817932893E+02  0.41800000000E+01 0. -1.
         -5    1    3    3    0  502  0.37997273893E+02  0.59415240606E+02  0.33790505978E+03  0.34521191385E+03  0.41800000000E+01 0. -1.
        -11    1    1    2    0    0 -0.96294334632E+01 -0.44002213483E+01 -0.77730693037E+01  0.13134250764E+02  0.00000000000E+00 0. -1.
         11    1    1    2    0    0 -0.77869095734E+02 -0.66121606996E+02  0.19115467317E+03  0.21673894910E+03  0.00000000000E+00 0.  1.
</event>
<event>
 7    1  0.2714042E-009  0.3070785E+03  0.7561462E-02  0.1081755E+00
          1   -1    0    0  501    0  0.00000000000E+00  0.00000000000E+00  0.13497841616E+03  0.13497841616E+03  0.00000000000E+00 0. -1.
         -1   -1    0    0    0  501 -0.00000000000E+00 -0.00000000000E+00 -0.12118759775E+04  0.12118759775E+04  0.00000000000E+00 0.  1.
         25    2    1    2    0    0 -0.28972357951E+03  0.87449947788E+00 -0.11091113323E+03  0.33449873739E+03  0.12509040157E+03 0.  0.
          5    1    3    3  502    0 -0.24270102121E+03 -0.45543042109E+02 -0.10384746824E+03  0.26791738175E+03  0.41800000000E+01 0.  1.
         -5    1    3    3    0  502 -0.47022558300E+02  0.46417541587E+02 -0.70636649852E+01  0.66581355641E+02  0.41800000000E+01 0.  1.
        -11    1    1    2    0    0  0.21926806725E+03 -0.36080814877E+02 -0.66050003842E+03  0.69687919417E+03  0.00000000000E+00 0.  1.
         11    1    1    2    0    0  0.70455512264E+02  0.35206315399E+02 -0.30548638965E+03  0.31547646206E+03  0.00000000000E+00 0. -1.
</event>
<event>
 7    1  0.2714042E-009  0.1257626E+03  0.7561462E-02  0.1233882E+00
          1   -1    0    0  501    0  0.00000000000E+00  0.00000000000E+00  0.13848292426E+03  0.13848292426E+03  0.00000000000E+00 0. -1.
         -1   -1    0    0    0  501 -0.00000000000E+00 -0.00000000000E+00 -0.41562650361E+03  0.41562650361E+03  0.00000000000E+00 0.  1.
         25    2    1    2    0    0  0.90742260235E+02  0.44090796560E+02  0.74428025826E+02  0.17710510990E+03  0.12509409574E+03 0.  0.
          5    1    3    3  502    0  0.58025563207E+02 -0.26421076999E+01 -0.24221361782E+02  0.63072129226E+02  0.41800000000E+01 0.  1.
         -5    1    3    3    0  502  0.32716697029E+02  0.46732904260E+02  0.98649387608E+02  0.11403298067E+03  0.41800000000E+01 0.  1.
        -11    1    1    2    0    0 -0.97232636746E+02 -0.59653028501E+01 -0.25543785934E+03  0.27338301058E+03  0.00000000000E+00 0.  1.
         11    1    1    2    0    0  0.64903765105E+01 -0.38125493710E+02 -0.96133745838E+02  0.10362130740E+03  0.00000000000E+00 0. -1.
</event>
<event>
 7    1  0.2714042E-009  0.9884124E+02  0.7561462E-02  0.1282752E+00
         -1   -1    0    0    0  501 -0.00000000000E+00  0.00000000000E+00  0.29635325068E+03  0.29635325068E+03  0.00000000000E+00 0.  1.
          1   -1    0    0  501    0  0.00000000000E+00 -0.00000000000E+00 -0.98996047419E+02  0.98996047419E+02  0.00000000000E+00 0. -1.
         25    2    1    2    0    0  0.71260014025E+02  0.47240311988E+02  0.22243492933E+03  0.26913438718E+03  0.12508550636E+03 0.  0.
          5    1    3    3  502    0  0.25768853076E+02  0.57524285212E+02  0.21193001189E+03  0.22114447657E+03  0.41800000000E+01 0.  1.
         -5    1    3    3    0  502  0.45491160950E+02 -0.10283973224E+02  0.10504917438E+02  0.47989910609E+02  0.41800000000E+01 0.  1.
        -11    1    1    2    0    0 -0.14987007955E+02 -0.13031580284E+01 -0.47792525069E+02  0.50104232164E+02  0.00000000000E+00 0. -1.
         11    1    1    2    0    0 -0.56273006070E+02 -0.45937153960E+02  0.22714798994E+02  0.76110678748E+02  0.00000000000E+00 0.  1.
</event>
<event>
 7    1  0.2714042E-009  0.1154684E+03  0.7561462E-02  0.1250766E+00
         -1   -1    0    0    0  501 -0.00000000000E+00  0.00000000000E+00  0.23761914812E+02  0.23761914812E+02  0.00000000000E+00 0.  1.
          1   -1    0    0  501    0  0.00000000000E+00 -0.00000000000E+00 -0.10462935720E+04  0.10462935720E+04  0.00000000000E+00 0. -1.
         25    2    1    2    0    0 -0.60278334264E+02  0.28748426216E+02 -0.83475117189E+03  0.84670933664E+03  0.12508889717E+03 0.  0.
          5    1    3    3  502    0 -0.63871473045E+02 -0.16065463832E+02 -0.20541514753E+03  0.21575569386E+03  0.41800000000E+01 0. -1.
         -5    1    3    3    0  502  0.35931387807E+01  0.44813890047E+02 -0.62933602436E+03  0.63095364279E+03  0.41800000000E+01 0. -1.
        -11    1    1    2    0    0 -0.16733406844E+02 -0.38677949832E+02 -0.81136153068E+02  0.91427928131E+02  0.00000000000E+00 0. -1.
         11    1    1    2    0    0  0.77011741108E+02  0.99295236161E+01 -0.10664433222E+03  0.13191822202E+03  0.00000000000E+00 0.  1.
</event>
<event>
 7    1  0.2714042E-009  0.8919215E+02  0.7561462E-02  0.1304820E+00
          3   -1    0    0  501    0  0.00000000000E+00  0.00000000000E+00  0.23092838810E+03  0.23092838810E+03  0.00000000000E+00 0. -1.
         -3   -1    0    0    0  501 -0.00000000000E+00 -0.00000000000E+00 -0.85224364096E+02  0.85224364096E+02  0.00000000000E+00 0.  1.
         25    2    1    2    0    0 -0.54050202165E+02  0.66620114136E+02  0.52431518580E+02  0.16048664690E+03  0.12508891131E+03 0.  0.
          5    1    3    3  502    0 -0.16254763254E+02  0.21079711496E+02 -0.41444913447E+02  0.49434045109E+02  0.41800000000E+01 0. -1.
         -5    1    3    3    0  502 -0.37795438911E+02  0.45540402640E+02  0.93876432027E+02  0.11105260179E+03  0.41800000000E+01 0. -1.
        -11    1    1    2    0    0  0.18554392903E+02 -0.49175739165E+02 -0.19090711330E+01  0.52594328316E+02  0.00000000000E+00 0.  1.
         11    1    1    2    0    0  0.35495809263E+02 -0.17444374971E+02  0.95181576558E+02  0.10307177698E+03  0.00000000000E+00 0. -1.
</event>
<event>
 7    1  0.2714042E-009  0.1188055E+03  0.7561462E-02  0.1245081E+00
         -3   -1    0    0    0  501 -0.00000000000E+00  0.00000000000E+00  0.69386142381E+03  0.69386142381E+03  0.00000000000E+00 0.  1.
          3   -1    0    0  501    0  0.00000000000E+00 -0.00000000000E+00 -0.21414478933E+02  0.21414478933E+02  0.00000000000E+00 0. -1.
         25    2    1    2    0    0  0.14294874638E+02  0.58190437463E+02  0.36425374492E+03  0.38976971148E+03  0.12509663005E+03 0.  0.
          5    1    3    3  502    0  0.17443035322E+02  0.97400070986E+02  0.25309549894E+03  0.27178270234E+03  0.41800000000E+01 0. -1.
         -5    1    3    3    0  502 -0.31481606842E+01 -0.39209633522E+02  0.11115824597E+03  0.11798700914E+03  0.41800000000E+01 0. -1.
        -11    1    1    2    0    0  0.32906935502E+02 -0.23429555000E+02  0.76478176578E+02  0.86491166857E+02  0.00000000000E+00 0.  1.
         11    1    1    2    0    0 -0.47201810140E+02 -0.34760882463E+02  0.23171502339E+03  0.23901502441E+03  0.00000000000E+00 0. -1.
</event>
<event>
 7    1  0.2714042E-009  0.1088471E+03  0.7561462E-02  0.1262720E+00
          2   -1    0    0  501    0  0.00000000000E+00  0.00000000000E+00  0.13087503953E+03  0.13087503953E+03  0.00000000000E+00 0. -1.
         -2   -1    0    0    0  501 -0.00000000000E+00 -0.00000000000E+00 -0.13062954249E+03  0.13062954249E+03  0.00000000000E+00 0.  1.
         25    2    1    2    0    0 -0.61240835147E+01 -0.68260747714E+02  0.23295422477E+02  0.14452438487E+03  0.12509031551E+03 0.  0.
          5    1    3    3  502    0  0.54344242963E+02 -0.23444541223E+02 -0.13183596122E+02  0.60780118979E+02  0.41800000000E+01 0.  1.
         -5    1    3    3    0  502 -0.60468326478E+02 -0.44816206491E+02  0.36479018599E+02  0.83744265889E+02  0.41800000000E+01 0.  1.
        -11    1    1    2    0    0 -0.20288285028E+02  0.35603259314E+02 -0.51824116138E+02  0.66067734913E+02  0.00000000000E+00 0.  1.
         11    1    1    2    0    0  0.26412368543E+02  0.32657488400E+02  0.28774190701E+02  0.50912462238E+02  0.00000000000E+00 0. -1.
</event>
<event>
 7    1  0.2714042E-009  0.6296232E+02  0.7561462E-02  0.1385805E+00
          1   -1    0    0  501    0  0.00000000000E+00  0.00000000000E+00  0.12568137703E+03  0.12568137703E+03  0.00000000000E+00 0. -1.
         -1   -1    0    0    0  501 -0.00000000000E+00 -0.00000000000E+00 -0.82739185570E+02  0.82739185570E+02  0.00000000000E+00 0.  1.
         25    2    1    2    0    0 -0.31042946345E+02  0.43869288329E+01  0.28641515325E+02  0.13211085160E+03  0.12510008412E+03 0.  0.
          5    1    3    3  502    0  0.27997667700E+02 -0.99690096521E+01  0.57388902151E+02  0.64762713348E+02  0.41800000000E+01 0. -1.
         -5    1    3    3    0  502 -0.59040614045E+02  0.14355938485E+02 -0.28747386827E+02  0.67348138252E+02  0.41800000000E+01 0. -1.
        -11    1    1    2    0    0  0.22685339896E+02  0.41492854016E+01 -0.25719415710E+02  0.34544602473E+02  0.00000000000E+00 0.  1.
         11    1    1    2    0    0  0.83576064488E+01 -0.85362142345E+01  0.40020091845E+02  0.41765108527E+02  0.00000000000E+00 0. -1.
</event>
<event>
 7    1  0.2714042E-009  0.1508375E+03  0.7561462E-02  0.1199448E+00
         -1   -1    0    0    0  501 -0.00000000000E+00  0.00000000000E+00  0.21961010213E+02  0.21961010213E+02  0.00000000000E+00 0.  1.
          1   -1    0    0  501    0  0.00000000000E+00 -0.00000000000E+00 -0.17935143827E+04  0.17935143827E+04  0.00000000000E+00 0. -1.
         25    2    1    2    0    0 -0.24478922705E+02  0.13286945539E+03 -0.13549221870E+04  0.13673752879E+04  0.12509010841E+03 0.  0.
          5    1    3    3  502    0  0.14031368933E+01  0.59998667742E+02 -0.10821924249E+04  0.10838633336E+04  0.41800000000E+01 0. -1.
         -5    1    3    3    0  502 -0.25882059598E+02  0.72870787650E+02 -0.27272976209E+03  0.28351195430E+03  0.41800000000E+01 0. -1.
        -11    1    1    2    0    0 -0.33257237557E+02 -0.76334809503E+02 -0.23464395177E+03  0.24897957967E+03  0.00000000000E+00 0.  1.
         11    1    1    2    0    0  0.57736160262E+02 -0.56534645890E+02 -0.18198723372E+03  0.19912052537E+03  0.00000000000E+00 0. -1.
</event>
<event>
 7    1  0.2714042E-009  0.1814176E+03  0.7561462E-02  0.1166438E+00
         -4   -1    0    0    0  501 -0.00000000000E+00  0.00000000000E+00  0.32563604896E+03  0.32563604896E+03  0.00000000000E+00 0.  1.
          4   -1    0    0  501    0  0.00000000000E+00 -0.00000000000E+00 -0.13543286530E+03  0.13543286530E+03  0.00000000000E+00 0. -1.
         25    2    1    2    0    0  0.52826102024E+02  0.15888143694E+03  0.28371905610E+02  0.21091520384E+03  0.12508537134E+03 0.  0.
          5    1    3    3  502    0 -0.20576280531E+02  0.97081843970E+02 -0.23057683815E+02  0.10196762688E+03  0.41800000000E+01 0.  1.
         -5    1    3    3    0  502  0.73402382555E+02  0.61799592974E+02  0.51429589425E+02  0.10894757696E+03  0.41800000000E+01 0.  1.
        -11    1    1    2    0    0 -0.25786745241E+02 -0.72487595627E+02  0.13559529777E+03  0.15590218898E+03  0.00000000000E+00 0.  1.
         11    1    1    2    0    0 -0.27039356783E+02 -0.86393841316E+02  0.26235980276E+02  0.94251521440E+02  0.00000000000E+00 0. -1.
</event>
<event>
 7    1  0.2714042E-009  0.2348978E+03  0.7561462E-02  0.1123239E+00
          2   -1    0    0  501    0  0.00000000000E+00  0.00000000000E+00  0.40582709863E+03  0.40582709863E+03  0.00000000000E+00 0. -1.
         -2   -1    0    0    0  501 -0.00000000000E+00 -0.00000000000E+00 -0.17753370534E+03  0.17753370534E+03  0.00000000000E+00 0.  1.
         25    2    1    2    0    0  0.20519072851E+03  0.10400034454E+03  0.20874107573E+03  0.33487322826E+03  0.12509170868E+03 0.  0.
          5    1    3    3  502    0  0.44834017114E+02 -0.42074105584E+01 -0.62218830528E+01  0.45650581847E+02  0.41800000000E+01 0.  1.
         -5    1    3    3    0  502  0.16035671139E+03  0.10820775510E+03  0.21496295878E+03  0.28922264642E+03  0.41800000000E+01 0.  1.
        -11    1    1    2    0    0 -0.54313167264E+02 -0.17002085020E+02 -0.33978386247E+02  0.66283646288E+02  0.00000000000E+00 0.  1.
         11    1    1    2    0    0 -0.15087756124E+03 -0.86998259517E+02  0.53530703806E+02  0.18220392942E+03  0.00000000000E+00 0. -1.
</event>
<event>
 7    1  0.2714042E-009  0.8594081E+02  0.7561462E-02  0.1312990E+00
          2   -1    0    0  501    0  0.00000000000E+00  0.00000000000E+00  0.30002446862E+03  0.30002446862E+03  0.00000000000E+00 0. -1.
         -2   -1    0    0    0  501 -0.00000000000E+00 -0.00000000000E+00 -0.47519582722E+02  0.47519582722E+02  0.00000000000E+00 0.  1.
         25    2    1    2    0    0 -0.36395016524E+02  0.36802378360E+01  0.80314504129E+02  0.15308474002E+03  0.12508547747E+03 0.  0.
          5    1    3    3  502    0  0.19419220075E+02 -0.44110280678E+02  0.64356204130E+01  0.48802792747E+02  0.41800000000E+01 0.  1.
         -5    1    3    3    0  502 -0.55814236600E+02  0.47790518514E+02  0.73878883716E+02  0.10428194727E+03  0.41800000000E+01 0.  1.
        -11    1    1    2    0    0  0.22177367220E+02 -0.18857477991E+02  0.17118078546E+03  0.17363842145E+03  0.00000000000E+00 0. -1.
         11    1    1    2    0    0  0.14217649305E+02  0.15177240155E+02  0.10095963074E+01  0.20820889875E+02  0.00000000000E+00 0.  1.
</event>
<event>
 7    1  0.2714042E-009  0.1453973E+03  0.7561462E-02  0.1206246E+00
         -1   -1    0    0    0  501 -0.00000000000E+00  0.00000000000E+00  0.95409613649E+02  0.95409613649E+02  0.00000000000E+00 0.  1.
          1   -1    0    0  501    0  0.00000000000E+00 -0.00000000000E+00 -0.27101797162E+03  0.27101797162E+03  0.00000000000E+00 0. -1.
         25    2    1    2    0    0  0.58923275944E+02  0.88071569013E+02 -0.15236685609E+03  0.22381338829E+03  0.12509284643E+03 0.  0.
          5    1    3    3  502    0  0.80563793316E+01  0.10625799356E+03 -0.12066839261E+03  0.16104036705E+03  0.41800000000E+01 0. -1.
         -5    1    3    3    0  502  0.50866896612E+02 -0.18186424549E+02 -0.31698463474E+02  0.62773021239E+02  0.41800000000E+01 0. -1.
        -11    1    1    2    0    0  0.61796864403E+01 -0.57873140943E+02  0.16610082411E+02  0.60525893672E+02  0.00000000000E+00 0.  1.
         11    1    1    2    0    0 -0.65102962384E+02 -0.30198428070E+02 -0.39851584295E+02  0.82088303308E+02  0.00000000000E+00 0. -1.
</event>
<event>
 7    1  0.3132224E-009  0.1535357E+03  0.7561462E-02  0.1196194E+00
          2   -1    0    0  501    0  0.00000000000E+00  0.00000000000E+00  0.46041866933E+03  0.46041866933E+03  0.00000000000E+00 0. -1.
         -2   -1    0    0    0  501 -0.00000000000E+00 -0.00000000000E+00 -0.59424359268E+02  0.59424359268E+02  0.00000000000E+00 0.  1.
         25    2    1    2    0    0  0.12024321750E+03  0.21136188871E+02  0.25361675823E+03  0.30802277414E+03  0.12510555342E+03 0.  0.
          5    1    3    3  502    0  0.25870473059E+01  0.44889796954E+02  0.12075436324E+03  0.12892197379E+03  0.41800000000E+01 0.  1.
         -5    1    3    3    0  502  0.11765617020E+03 -0.23753608083E+02  0.13286239499E+03  0.17910080034E+03  0.41800000000E+01 0.  1.
        -11    1    1    2    0    0 -0.47317382645E+02  0.26953774324E+02  0.21379127118E+02  0.58502202753E+02  0.00000000000E+00 0.  1.
         11    1    1    2    0    0 -0.72925834857E+02 -0.48089963195E+02  0.12599842472E+03  0.15331805171E+03  0.00000000000E+00 0. -1.
</event>
<event>
 7    1  0.2714042E-009  0.1351182E+03  0.7561462E-02  0.1220053E+00
          1   -1    0    0  501    0  0.00000000000E+00  0.00000000000E+00  0.28509189397E+03  0.28509189397E+03  0.00000000000E+00 0. -1.
         -1   -1    0    0    0  501 -0.00000000000E+00 -0.00000000000E+00 -0.18564227652E+03  0.18564227652E+03  0.00000000000E+00 0.  1.
         25    2    1    2    0    0 -0.31800065248E+02 -0.12607383088E+03  0.21111628173E+03  0.27770952861E+03  0.12508654159E+03 0.  0.
          5    1    3    3  502    0 -0.83800027037E+01 -0.20450259673E+01  0.12380742626E+03  0.12417792788E+03  0.41800000000E+01 0. -1.
         -5    1    3    3    0  502 -0.23420062544E+02 -0.12402880491E+03  0.87308855471E+02  0.15353160073E+03  0.41800000000E+01 0. -1.
        -11    1    1    2    0    0  0.19935071092E+02  0.11876363942E+03 -0.12511715252E+03  0.17365630124E+03  0.00000000000E+00 0.  1.
         11    1    1    2    0    0  0.11864994156E+02  0.73101914634E+01  0.13450488237E+02  0.19368340646E+02  0.00000000000E+00 0. -1.
</event>
<event>
 7    1  0.2714042E-009  0.1499082E+03  0.7561462E-02  0.1200586E+00
          2   -1    0    0  501    0  0.00000000000E+00  0.00000000000E+00  0.43881668734E+03  0.43881668734E+03  0.00000000000E+00 0. -1.
         -2   -1    0    0    0  501 -0.00000000000E+00 -0.00000000000E+00 -0.82661321922E+02  0.82661321922E+02  0.00000000000E+00 0.  1.
         25    2    1    2    0    0 -0.47050268286E+02 -0.99463406907E+02  0.33928111989E+03  0.37797872771E+03  0.12509813438E+03 0.  0.
          5    1    3    3  502    0 -0.64152716703E+02  0.11118027667E+01  0.14018728327E+03  0.15422954956E+03  0.41800000000E+01 0.  1.
         -5    1    3    3    0  502  0.17102448417E+02 -0.10057520967E+03  0.19909383662E+03  0.22374917815E+03  0.41800000000E+01 0.  1.
        -11    1    1    2    0    0  0.67911256993E+02  0.72778334618E+02  0.34455720985E+02  0.10533670550E+03  0.00000000000E+00 0.  1.
         11    1    1    2    0    0 -0.20860988707E+02  0.26685072290E+02 -0.17581475451E+02  0.38162576065E+02  0.00000000000E+00 0. -1.
</event>
<event>
 7    1  0.2714042E-009  0.1059165E+03  0.7561462E-02  0.1268324E+00
         -3   -1    0    0    0  501 -0.00000000000E+00  0.00000000000E+00  0.19928137658E+03  0.19928137658E+03  0.00000000000E+00 0.  1.
          3   -1    0    0  501    0  0.00000000000E+00 -0.00000000000E+00 -0.84055597367E+02  0.84055597367E+02  0.00000000000E+00 0. -1.
         25    2    1    2    0    0  0.46778756451E+02 -0.73394630798E+01  0.12023383527E+03  0.17985227795E+03  0.12509415240E+03 0.  0.
          5    1    3    3  502    0  0.39207998018E+02  0.53871395465E+02  0.37491004253E+02  0.76566586432E+02  0.41800000000E+01 0.  1.
         -5    1    3    3    0  502  0.75707584334E+01 -0.61210858545E+02  0.82742831022E+02  0.10328569152E+03  0.41800000000E+01 0.  1.
        -11    1    1    2    0    0 -0.42275788804E+02  0.35212779609E+02  0.26591329482E+02  0.61108763450E+02  0.00000000000E+00 0.  1.
         11    1    1    2    0    0 -0.45029676471E+01 -0.27873316529E+02 -0.31599385547E+02  0.42375932543E+02  0.00000000000E+00 0. -1.
</event>
<event>
 7    1  0.2714042E-009  0.7646422E+02  0.7561462E-02  0.1339396E+00
          2   -1    0    0  501    0  0.00000000000E+00  0.00000000000E+00  0.15421374705E+04  0.15421374705E+04  0.00000000000E+00 0.  1.
         -2   -1    0    0    0  501 -0.00000000000E+00 -0.00000000000E+00 -0.15504321306E+02  0.15504321306E+02  0.00000000000E+00 0. -1.
         25    2    1    2    0    0 -0.27530144630E+02  0.48482197142E+02  0.13031650285E+04  0.13103412198E+04  0.12508632375E+03 0.  0.
          5    1    3    3  502    0  0.89949799711E+01 -0.14793463677E+02  0.28703982648E+02  0.33780871097E+02  0.41800000000E+01 0.  1.
         -5    1    3    3    0  502 -0.36525124601E+02  0.63275660819E+02  0.12744610459E+04  0.12765603487E+04  0.41800000000E+01 0.  1.
        -11    1    1    2    0    0  0.16801780263E+02 -0.55650935686E+01 -0.17437038343E+01  0.17785122701E+02  0.00000000000E+00 0. -1.
         11    1    1    2    0    0  0.10728364367E+02 -0.42917103574E+02  0.22521182451E+03  0.22951544933E+03  0.00000000000E+00 0.  1.
</event>
<event>
 7    1  0.2714042E-009  0.1636033E+03  0.7561462E-02  0.1184688E+00
         -2   -1    0    0    0  501 -0.00000000000E+00  0.00000000000E+00  0.88501364228E+03  0.88501364228E+03  0.00000000000E+00 0.  1.
          2   -1    0    0  501    0  0.00000000000E+00 -0.00000000000E+00 -0.36114507724E+02  0.36114507724E+02  0.00000000000E+00 0. -1.
         25    2    1    2    0    0 -0.13940432539E+03 -0.64261135035E+01  0.52107526925E+03  0.55375265442E+03  0.12509078774E+03 0.  0.
          5    1    3    3  502    0 -0.11877413633E+03  0.48653501542E+02  0.36124074101E+03  0.38338858099E+03  0.41800000000E+01 0. -1.
         -5    1    3    3    0  502 -0.20630189056E+02 -0.55079615046E+02  0.15983452825E+03  0.17036407343E+03  0.41800000000E+01 0. -1.
        -11    1    1    2    0    0  0.10043353823E+03  0.85172830425E+01  0.30703673753E+03  0.32315785292E+03  0.00000000000E+00 0.  1.
         11    1    1    2    0    0  0.38970787155E+02 -0.20911695389E+01  0.20787127772E+02  0.44217642661E+02  0.00000000000E+00 0. -1.
</event>
<event>
 7    1  0.2714042E-009  0.1834517E+03  0.7561462E-02  0.1164504E+00
         -1   -1    0    0    0  501 -0.00000000000E+00  0.00000000000E+00  0.22073183396E+03  0.22073183396E+03  0.00000000000E+00 0.  1.
          1   -1    0    0  501    0  0.00000000000E+00 -0.00000000000E+00 -0.20523399857E+03  0.20523399857E+03  0.00000000000E+00 0. -1.
         25    2    1    2    0    0 -0.14273726244E+03 -0.98270829854E+02 -0.52794546320E+02  0.22015060937E+03  0.12509174472E+03 0.  0.
          5    1    3    3  502    0 -0.43448814353E+02 -0.64447123085E+02  0.33031391650E+02  0.84556350305E+02  0.41800000000E+01 0. -1.
         -5    1    3    3    0  502 -0.99288448091E+02 -0.33823706769E+02 -0.85825937970E+02  0.13559425907E+03  0.41800000000E+01 0. -1.
        -11    1    1    2    0    0 -0.17818788550E+01  0.19340111228E+02  0.31625885789E+02  0.37113496824E+02  0.00000000000E+00 0.  1.
         11    1    1    2    0    0  0.14451914130E+03  0.78930718626E+02  0.36666495923E+02  0.16870172633E+03  0.00000000000E+00 0. -1.
</event>
<event>
 7    1  0.2714042E-009  0.8291597E+02  0.7561462E-02  0.1320974E+00
          2   -1    0    0  501    0  0.00000000000E+00  0.00000000000E+00  0.21014614548E+03  0.21014614548E+03  0.00000000000E+00 0. -1.
         -2   -1    0    0    0  501 -0.00000000000E+00 -0.00000000000E+00 -0.90406944384E+02  0.90406944384E+02  0.00000000000E+00 0.  1.
         25    2    1    2    0    0 -0.66291881891E+01  0.44079137444E+02  0.14501160276E+03  0.19662968321E+03  0.12509176987E+03 0.  0.
          5    1    3    3  502    0  0.27063982100E+02  0.20572946024E+02 -0.10423580783E+02  0.35802634981E+02  0.41800000000E+01 0.  1.
         -5    1    3    3    0  502 -0.33693170289E+02  0.23506191420E+02  0.15543518354E+03  0.16082704823E+03  0.41800000000E+01 0.  1.
        -11    1    1    2    0    0  0.49710471840E+01  0.22825478926E+02  0.13095001338E+02  0.26780456650E+02  0.00000000000E+00 0. -1.
         11    1    1    2    0    0  0.16581410051E+01 -0.66904616370E+02 -0.38367402998E+02  0.77142950008E+02  0.00000000000E+00 0.  1.
</event>
<event>
 7    1  0.2714042E-009  0.8412348E+02  0.7561462E-02  0.1317741E+00
         -1   -1    0    0    0  501 -0.00000000000E+00  0.00000000000E+00  0.35754789675E+03  0.35754789675E+03  0.00000000000E+00 0.  1.
          1   -1    0    0  501    0  0.00000000000E+00 -0.00000000000E+00 -0.45836160745E+02  0.45836160745E+02  0.00000000000E+00 0. -1.
         25    2    1    2    0    0 -0.44246121165E+02 -0.35522712884E+02  0.11062562658E+03  0.17636555201E+03  0.12508875374E+03 0.  0.
          5    1    3    3  502    0 -0.14941027435E+02  0.20717979025E+01  0.12533286487E+03  0.12630647673E+03  0.41800000000E+01 0.  1.
         -5    1    3    3    0  502 -0.29305093729E+02 -0.37594510787E+02 -0.14707238293E+02  0.50059075281E+02  0.41800000000E+01 0.  1.
        -11    1    1    2    0    0  0.14706211941E+02 -0.29701531320E+02  0.75510629748E+02  0.82463985093E+02  0.00000000000E+00 0.  1.
         11    1    1    2    0    0  0.29539909223E+02  0.65224244204E+02  0.12557547968E+03  0.14455452039E+03  0.00000000000E+00 0. -1.
</event>
<event>
 7    1  0.2714042E-009  0.9709684E+02  0.7561462E-02  0.1286522E+00
          1   -1    0    0  501    0  0.00000000000E+00  0.00000000000E+00  0.97886295698E+02  0.97886295698E+02  0.00000000000E+00 0. -1.
         -1   -1    0    0    0  501 -0.00000000000E+00 -0.00000000000E+00 -0.14171574312E+03  0.14171574312E+03  0.00000000000E+00 0.  1.
         25    2    1    2    0    0  0.59383069542E+01  0.37668729597E+01 -0.75639957102E+02  0.14635053575E+03  0.12509046080E+03 0.  0.
          5    1    3    3  502    0  0.27812696159E+02 -0.45719768581E+02 -0.74812643198E+02  0.92077398361E+02  0.41800000000E+01 0.  1.
         -5    1    3    3    0  502 -0.21874389205E+02  0.49486641541E+02 -0.82731390404E+00  0.54273137392E+02  0.41800000000E+01 0.  1.
        -11    1    1    2    0    0 -0.45091988529E+02 -0.11044017956E+02  0.87807969390E+01  0.47247858756E+02  0.00000000000E+00 0. -1.
         11    1    1    2    0    0  0.39153681575E+02  0.72771449959E+01  0.23029712746E+02  0.46003644305E+02  0.00000000000E+00 0.  1.
</event>
<event>
 7    1  0.2714042E-009  0.1458516E+03  0.7561462E-02  0.1205665E+00
         -1   -1    0    0    0  501 -0.00000000000E+00  0.00000000000E+00  0.48375896478E+02  0.48375896478E+02  0.00000000000E+00 0.  1.
          1   -1    0    0  501    0  0.00000000000E+00 -0.00000000000E+00 -0.56765786249E+03  0.56765786249E+03  0.00000000000E+00 0. -1.
         25    2    1    2    0    0  0.12243488364E+03 -0.13339258287E+02 -0.35994469529E+03  0.40046979140E+03  0.12509050170E+03 0.  0.
          5    1    3    3  502    0  0.44932860027E+02  0.50732435117E+02 -0.20274534276E+03  0.21381274118E+03  0.41800000000E+01 0. -1.
         -5    1    3    3    0  502  0.77502023608E+02 -0.64071693404E+02 -0.15719935253E+03  0.18665705022E+03  0.41800000000E+01 0. -1.
        -11    1    1    2    0    0 -0.87061447148E+02  0.92402918172E+01 -0.50548190184E+02  0.10109499544E+03  0.00000000000E+00 0.  1.
         11    1    1    2    0    0 -0.35373436488E+02  0.40989664700E+01 -0.10878908054E+03  0.11446897213E+03  0.00000000000E+00 0. -1.
</event>
<event>
 7    1  0.2714042E-009  0.2127752E+03  0.7561462E-02  0.1139387E+00
          1   -1    0    0  501    0  0.00000000000E+00  0.00000000000E+00  0.36317936098E+03  0.36317936098E+03  0.00000000000E+00 0. -1.
         -1   -1    0    0    0  501 -0.00000000000E+00 -0.00000000000E+00 -0.27310613988E+03  0.27310613988E+03  0.00000000000E+00 0.  1.
         25    2    1    2    0    0  0.18859601364E+03 -0.76387030403E+02 -0.16797151745E+03  0.29200366750E+03  0.12509307088E+03 0.  0.
          5    1    3    3  502    0  0.72493298005E+02 -0.42951019869E+02 -0.14673451450E+03  0.16925885061E+03  0.41800000000E+01 0. -1.
         -5    1    3    3    0  502  0.11610271563E+03 -0.33436010534E+02 -0.21237002945E+02  0.12274481689E+03  0.41800000000E+01 0. -1.
        -11    1    1    2    0    0 -0.14098579670E+03  0.94086964345E+02  0.15629824143E+03  0.23056125434E+03  0.00000000000E+00 0.  1.
         11    1    1    2    0    0 -0.47610216944E+02 -0.17699933942E+02  0.10174649712E+03  0.11372057903E+03  0.00000000000E+00 0. -1.
</event>
<event>
 7    1  0.2714042E-009  0.1001130E+03  0.7561462E-02  0.1280059E+00
          1   -1    0    0  501    0  0.00000000000E+00  0.00000000000E+00  0.77231097761E+02  0.77231097761E+02  0.00000000000E+00 0. -1.
         -1   -1    0    0    0  501 -0.00000000000E+00 -0.00000000000E+00 -0.20651586430E+03  0.20651586430E+03  0.00000000000E+00 0.  1.
         25    2    1    2    0    0  0.63444665558E+02 -0.16306141178E+02 -0.77098261633E+02  0.16088131836E+03  0.12509013080E+03 0.  0.
          5    1    3    3  502    0  0.47586115972E+02  0.33224106774E+02 -0.89966097343E+02  0.10714313219E+03  0.41800000000E+01 0.  1.
         -5    1    3    3    0  502  0.15858549587E+02 -0.49530247953E+02  0.12867835709E+02  0.53738186172E+02  0.41800000000E+01 0.  1.
        -11    1    1    2    0    0 -0.76897024538E+01  0.31216532749E+02 -0.56482884766E+02  0.64991689562E+02  0.00000000000E+00 0.  1.
         11    1    1    2    0    0 -0.55754963105E+02 -0.14910391571E+02  0.42963798596E+01  0.57873954137E+02  0.00000000000E+00 0. -1.
</event>
<event>
 7    1  0.2714042E-009  0.7264178E+02  0.7561462E-02  0.1351333E+00
         -1   -1    0    0    0  501 -0.00000000000E+00  0.00000000000E+00  0.14448281564E+02  0.14448281564E+02  0.00000000000E+00 0.  1.
          1   -1    0    0  501    0  0.00000000000E+00 -0.00000000000E+00 -0.96060238541E+03  0.96060238541E+03  0.00000000000E+00 0. -1.
         25    2    1    2    0    0  0.14890276459E+02  0.40918934551E+02 -0.62609037418E+03  0.63994759950E+03  0.12509074275E+03 0.  0.
          5    1    3    3  502    0  0.47153032855E+01  0.36429568152E+01  0.42377939067E+01  0.84223818856E+01  0.41800000000E+01 0. -1.
         -5    1    3    3    0  502  0.10174973173E+02  0.37275977736E+02 -0.63032816809E+03  0.63152521761E+03  0.41800000000E+01 0. -1.
        -11    1    1    2    0    0 -0.34843919730E+02  0.16353697901E+02 -0.11619721117E+03  0.12240642982E+03  0.00000000000E+00 0.  1.
         11    1    1    2    0    0  0.19953643271E+02 -0.57272632452E+02 -0.20386651849E+03  0.21269663765E+03  0.00000000000E+00 0. -1.
</event>
<event>
 7    1  0.2714042E-009  0.7978830E+02  0.7561462E-02  0.1329653E+00
          4   -1    0    0  501    0  0.00000000000E+00  0.00000000000E+00  0.92871940680E+02  0.92871940680E+02  0.00000000000E+00 0. -1.
         -4   -1    0    0    0  501 -0.00000000000E+00 -0.00000000000E+00 -0.14055503334E+03  0.14055503334E+03  0.00000000000E+00 0.  1.
         25    2    1    2    0    0 -0.33902135209E+01  0.41020412785E+01 -0.15289806736E+02  0.12613463957E+03  0.12509136189E+03 0.  0.
          5    1    3    3  502    0 -0.33746424539E+02 -0.71905020249E+01  0.45423702766E+02  0.57195363986E+02  0.41800000000E+01 0.  1.
         -5    1    3    3    0  502  0.30356211018E+02  0.11292543303E+02 -0.60713509501E+02  0.68939275581E+02  0.41800000000E+01 0.  1.
        -11    1    1    2    0    0  0.13121943663E+01 -0.48099121026E+02 -0.40027488641E+02  0.62589513054E+02  0.00000000000E+00 0.  1.
         11    1    1    2    0    0  0.20780191546E+01  0.43997079747E+02  0.76342027173E+01  0.44702821399E+02  0.00000000000E+00 0. -1.
</event>
<event>
 7    1  0.2714042E-009  0.3660974E+03  0.7561462E-02  0.1056195E+00
          2   -1    0    0  501    0  0.00000000000E+00  0.00000000000E+00  0.32327655563E+03  0.32327655563E+03  0.00000000000E+00 0. -1.
         -2   -1    0    0    0  501 -0.00000000000E+00 -0.00000000000E+00 -0.45379094600E+03  0.45379094600E+03  0.00000000000E+00 0.  1.
         25    2    1    2    0    0 -0.35369880748E+03  0.65877205608E+02 -0.13940655511E+03  0.40561517733E+03  0.12508729686E+03 0.  0.
          5    1    3    3  502    0 -0.42479554163E+02 -0.22594103128E+02 -0.50869546619E+02  0.70144060270E+02  0.41800000000E+01 0. -1.
         -5    1    3    3    0  502 -0.31121925332E+03  0.88471308736E+02 -0.88537008493E+02  0.33547111706E+03  0.41800000000E+01 0. -1.
        -11    1    1    2    0    0  0.20065103461E+03 -0.27413906156E+02 -0.39625457456E+02  0.20635536537E+03  0.00000000000E+00 0.  1.
         11    1    1    2    0    0  0.15304777288E+03 -0.38463299451E+02  0.48517622198E+02  0.16509695894E+03  0.00000000000E+00 0. -1.
</event>
<event>
 7    1  0.2714042E-009  0.1077045E+03  0.7561462E-02  0.1264881E+00
          1   -1    0    0  501    0  0.00000000000E+00  0.00000000000E+00  0.29153933929E+02  0.29153933929E+02  0.00000000000E+00 0. -1.
         -1   -1    0    0    0  501 -0.00000000000E+00 -0.00000000000E+00 -0.51696751926E+03  0.51696751926E+03  0.00000000000E+00 0.  1.
         25    2    1    2    0    0  0.32294006150E+02 -0.44297611941E+02 -0.27005443358E+03  0.30262471669E+03  0.12508853185E+03 0.  0.
          5    1    3    3  502    0  0.31814461405E+02  0.22731053160E+02 -0.20809879553E+02  0.44490271063E+02  0.41800000000E+01 0. -1.
         -5    1    3    3    0  502  0.47954474445E+00 -0.67028665102E+02 -0.24924455403E+03  0.25813444563E+03  0.41800000000E+01 0. -1.
        -11    1    1    2    0    0 -0.57978540931E+02  0.56083629057E+02 -0.16382171782E+03  0.18260459985E+03  0.00000000000E+00 0. -1.
         11    1    1    2    0    0  0.25684534781E+02 -0.11786017116E+02 -0.53937433930E+02  0.60892136646E+02  0.00000000000E+00 0.  1.
</event>
<event>
 7    1  0.2714042E-009  0.1189702E+03  0.7561462E-02  0.1244806E+00
          1   -1    0    0  501    0  0.00000000000E+00  0.00000000000E+00  0.13808136097E+03  0.13808136097E+03  0.00000000000E+00 0. -1.
         -1   -1    0    0    0  501 -0.00000000000E+00 -0.00000000000E+00 -0.20066426207E+03  0.20066426207E+03  0.00000000000E+00 0.  1.
         25    2    1    2    0    0  0.82633029172E+02  0.15933312904E+02  0.63107656442E+02  0.16343886776E+03  0.12509036423E+03 0.  0.
          5    1    3    3  502    0  0.60759052900E+02  0.69328465744E+02  0.45998669353E+02  0.10310891646E+03  0.41800000000E+01 0.  1.
         -5    1    3    3    0  502  0.21873976272E+02 -0.53395152840E+02  0.17108987089E+02  0.60329951301E+02  0.41800000000E+01 0.  1.
        -11    1    1    2    0    0 -0.54728094476E+02 -0.22446554252E+02 -0.13314886787E+03  0.14569705946E+03  0.00000000000E+00 0.  1.
         11    1    1    2    0    0 -0.27904934696E+02  0.65132413486E+01  0.74583103173E+01  0.29609695811E+02  0.00000000000E+00 0. -1.
</event>
<event>
 7    1  0.2714042E-009  0.7941111E+02  0.7561462E-02  0.1330731E+00
          3   -1    0    0  501    0  0.00000000000E+00  0.00000000000E+00  0.95663580250E+02  0.95663580250E+02  0.00000000000E+00 0. -1.
         -3   -1    0    0    0  501 -0.00000000000E+00 -0.00000000000E+00 -0.20082003281E+03  0.20082003281E+03  0.00000000000E+00 0.  1.
         25    2    1    2    0    0  0.45641267235E+02 -0.25897212513E+02  0.15013522677E+02  0.13647797872E+03  0.12508813661E+03 0.  0.
          5    1    3    3  502    0  0.22656374977E+02 -0.11569211655E+02  0.70242045146E+02  0.74823627898E+02  0.41800000000E+01 0.  1.
         -5    1    3    3    0  502  0.22984892259E+02 -0.14328000857E+02 -0.55228522470E+02  0.61654350819E+02  0.41800000000E+01 0.  1.
        -11    1    1    2    0    0 -0.70488932046E+02  0.10502642280E+01 -0.81197304260E+02  0.10753043669E+03  0.00000000000E+00 0. -1.
         11    1    1    2    0    0  0.24847664811E+02  0.24846948285E+02 -0.38972670981E+02  0.52475197656E+02  0.00000000000E+00 0.  1.
</event>
<event>
 7    1  0.2714042E-009  0.1248445E+03  0.7561462E-02  0.1235313E+00
         -2   -1    0    0    0  501 -0.00000000000E+00  0.00000000000E+00  0.20339044442E+02  0.20339044442E+02  0.00000000000E+00 0. -1.
          2   -1    0    0  501    0  0.00000000000E+00 -0.00000000000E+00 -0.92078216657E+03  0.92078216657E+03  0.00000000000E+00 0.  1.
         25    2    1    2    0    0  0.15581968796E+01  0.82243529892E+02 -0.50789482730E+03  0.52950179353E+03  0.12509423473E+03 0.  0.
          5    1    3    3  502    0 -0.40831577655E+02  0.74936090022E+02 -0.18559633269E+03  0.20431863946E+03  0.41800000000E+01 0.  1.
         -5    1    3    3    0  502  0.42389774535E+02  0.73074398696E+01 -0.32229849461E+03  0.32518315407E+03  0.41800000000E+01 0.  1.
        -11    1    1    2    0    0  0.43364801113E+02 -0.33951191644E+02 -0.22284026684E+03  0.22954514570E+03  0.00000000000E+00 0.  1.
         11    1    1    2    0    0 -0.44922997993E+02 -0.48292338247E+02 -0.16970802799E+03  0.18207427179E+03  0.00000000000E+00 0. -1.
</event>
<event>
 7    1  0.2714042E-009  0.1962861E+03  0.7561462E-02  0.1152911E+00
          2   -1    0    0  501    0  0.00000000000E+00  0.00000000000E+00  0.24984289245E+04  0.24984289245E+04  0.00000000000E+00 0. -1.
         -2   -1    0    0    0  501 -0.00000000000E+00 -0.00000000000E+00 -0.23678361532E+02  0.23678361532E+02  0.00000000000E+00 0.  1.
         25    2    1    2    0    0 -0.10815917478E+03  0.13218941182E+03  0.19674076851E+04  0.19787655567E+04  0.12509069188E+03 0.  0.
          5    1    3    3  502    0  0.23237880255E+02 -0.11007560186E+01  0.28319429117E+03  0.28417897475E+03  0.41800000000E+01 0. -1.
         -5    1    3    3    0  502 -0.13139705504E+03  0.13329016784E+03  0.16842133940E+04  0.16945865819E+04  0.41800000000E+01 0. -1.
        -11    1    1    2    0    0  0.42783121095E+02 -0.10017439370E+03  0.39280928571E+03  0.40763272629E+03  0.00000000000E+00 0.  1.
         11    1    1    2    0    0  0.65376053689E+02 -0.32015018126E+02  0.11453359216E+03  0.13570900307E+03  0.00000000000E+00 0. -1.
</event>
<event>
 7    1  0.2714042E-009  0.1642494E+03  0.7561462E-02  0.1183981E+00
          1   -1    0    0  501    0  0.00000000000E+00  0.00000000000E+00  0.30282393805E+03  0.30282393805E+03  0.00000000000E+00 0. -1.
         -1   -1    0    0    0  501 -0.00000000000E+00 -0.00000000000E+00 -0.10766713407E+03  0.10766713407E+03  0.00000000000E+00 0.  1.
         25    2    1    2    0    0  0.12544493841E+03 -0.68826007546E+02  0.12175703692E+03  0.22571321766E+03  0.12509288029E+03 0.  0.
          5    1    3    3  502    0  0.35465223255E+02 -0.83045153687E+02  0.27325480650E+02  0.94437460280E+02  0.41800000000E+01 0. -1.
         -5    1    3    3    0  502  0.89979715153E+02  0.14219146141E+02  0.94431556269E+02  0.13127575738E+03  0.41800000000E+01 0. -1.
        -11    1    1    2    0    0 -0.25341262306E+02 -0.15119216727E+00  0.56652907304E+02  0.62062503497E+02  0.00000000000E+00 0. -1.
         11    1    1    2    0    0 -0.10010367610E+03  0.68977199713E+02  0.16746859763E+02  0.12271535096E+03  0.00000000000E+00 0.  1.
</event>
<event>
 7    1  0.2714042E-009  0.1128322E+03  0.7561462E-02  0.1255413E+00
         -2   -1    0    0    0  501 -0.00000000000E+00  0.00000000000E+00  0.34383918445E+02  0.34383918445E+02  0.00000000000E+00 0. -1.
          2   -1    0    0  501    0  0.00000000000E+00 -0.00000000000E+00 -0.52898593504E+03  0.52898593504E+03  0.00000000000E+00 0.  1.
         25    2    1    2    0    0 -0.74415820953E+02 -0.33245471658E+01 -0.34527491854E+03  0.37471427680E+03  0.12508897971E+03 0.  0.
          5    1    3    3  502    0 -0.24975955322E+02  0.42512576502E+02 -0.26600137905E+03  0.27056482321E+03  0.41800000000E+01 0. -1.
         -5    1    3    3    0  502 -0.49439865631E+02 -0.45837123667E+02 -0.79273539496E+02  0.10414945359E+03  0.41800000000E+01 0. -1.
        -11    1    1    2    0    0  0.71319140337E+02 -0.28393761211E+02 -0.13115929481E+03  0.15197166206E+03  0.00000000000E+00 0.  1.
         11    1    1    2    0    0  0.30966806157E+01  0.31718308377E+02 -0.18167803243E+02  0.36683914620E+02  0.00000000000E+00 0. -1.
</event>
<event>
 7    1  0.2714042E-009  0.1047425E+03  0.7561462E-02  0.1270628E+00
         -1   -1    0    0    0  501 -0.00000000000E+00  0.00000000000E+00  0.13191934800E+03  0.13191934800E+03  0.00000000000E+00 0.  1.
          1   -1    0    0  501    0  0.00000000000E+00 -0.00000000000E+00 -0.16988738746E+03  0.16988738746E+03  0.00000000000E+00 0. -1.
         25    2    1    2    0    0  0.30493754774E+01  0.84451736571E+02  0.38875675667E+02  0.15587989563E+03  0.12508328906E+03 0.  0.
          5    1    3    3  502    0 -0.18376880892E+01  0.12474635001E+02  0.74245420775E+02  0.75424455729E+02  0.41800000000E+01 0. -1.
         -5    1    3    3    0  502  0.48870635667E+01  0.71977101570E+02 -0.35369745108E+02  0.80455439901E+02  0.41800000000E+01 0. -1.
        -11    1    1    2    0    0 -0.45197910663E+02 -0.60301779953E+02 -0.43601815990E+02  0.87064769864E+02  0.00000000000E+00 0.  1.
         11    1    1    2    0    0  0.42148535186E+02 -0.24149956618E+02 -0.33241899140E+02  0.58862069972E+02  0.00000000000E+00 0. -1.
</event>
<event>
 7    1  0.2714042E-009  0.1154124E+03  0.7561462E-02  0.1250863E+00
          2   -1    0    0  501    0  0.00000000000E+00  0.00000000000E+00  0.59007088577E+03  0.59007088577E+03  0.00000000000E+00 0. -1.
         -2   -1    0    0    0  501 -0.00000000000E+00 -0.00000000000E+00 -0.77357001571E+02  0.77357001571E+02  0.00000000000E+00 0.  1.
         25    2    1    2    0    0 -0.63851615969E+02 -0.50909460643E+02  0.52365248365E+03  0.54454425596E+03  0.12509085106E+03 0.  0.
          5    1    3    3  502    0 -0.54909643907E+02  0.27707088770E+02  0.32269682261E+03  0.32853228683E+03  0.41800000000E+01 0.  1.
         -5    1    3    3    0  502 -0.89419720613E+01 -0.78616549413E+02  0.20095566103E+03  0.21601196913E+03  0.41800000000E+01 0.  1.
        -11    1    1    2    0    0  0.18160386878E+02 -0.39144040274E+01 -0.41330897031E+02  0.45314073529E+02  0.00000000000E+00 0.  1.
         11    1    1    2    0    0  0.45691229091E+02  0.54823864671E+02  0.30392297579E+02  0.77569557852E+02  0.00000000000E+00 0. -1.
</event>
<event>
 7    1  0.2714042E-009  0.8475179E+02  0.7561462E-02  0.1316083E+00
          1   -1    0    0  501    0  0.00000000000E+00  0.00000000000E+00  0.27342222545E+03  0.27342222545E+03  0.00000000000E+00 0. -1.
         -1   -1    0    0    0  501 -0.00000000000E+00 -0.00000000000E+00 -0.67802795732E+02  0.67802795732E+02  0.00000000000E+00 0.  1.
         25    2    1    2    0    0 -0.57203167339E+02  0.58189453647E+02  0.10756546286E+03  0.18404671918E+03  0.12507857998E+03 0.  0.
          5    1    3    3  502    0 -0.52954056461E+02  0.47875770743E+02 -0.42141586654E+01  0.71634161216E+02  0.41800000000E+01 0. -1.
         -5    1    3    3    0  502 -0.42491108783E+01  0.10313682904E+02  0.11177962153E+03  0.11241255796E+03  0.41800000000E+01 0. -1.
        -11    1    1    2    0    0  0.53256394914E+02 -0.37785607099E+02  0.92214026830E+01  0.65947175607E+02  0.00000000000E+00 0.  1.
         11    1    1    2    0    0  0.39467724253E+01 -0.20403846547E+02  0.88832564172E+02  0.91231126398E+02  0.00000000000E+00 0. -1.
</event>
<event>
 7    1  0.2714042E-009  0.1421197E+03  0.7561462E-02  0.1210505E+00
         -1   -1    0    0    0  501 -0.00000000000E+00  0.00000000000E+00  0.13008160776E+03  0.13008160776E+03  0.00000000000E+00 0.  1.
          1   -1    0    0  501    0  0.00000000000E+00 -0.00000000000E+00 -0.18864767880E+03  0.18864767880E+03  0.00000000000E+00 0. -1.
         25    2    1    2    0    0 -0.10188833811E+03 -0.16089437220E+02 -0.79559670721E+02  0.18060234881E+03  0.12508942304E+03 0.  0.
          5    1    3    3  502    0 -0.11625409284E+03  0.16130046472E+02 -0.84575409605E+02  0.14472617183E+03  0.41800000000E+01 0.  1.
         -5    1    3    3    0  502  0.14365754730E+02 -0.32219483692E+02  0.50157388837E+01  0.35876176983E+02  0.41800000000E+01 0.  1.
        -11    1    1    2    0    0  0.98363049731E+02 -0.15422604238E+02  0.31970952605E+02  0.10457192780E+03  0.00000000000E+00 0.  1.
         11    1    1    2    0    0  0.35252883834E+01  0.31512041458E+02 -0.10977352931E+02  0.33555009945E+02  0.00000000000E+00 0. -1.
</event>
<event>
 7    1  0.2714042E-009  0.1461403E+03  0.7561462E-02  0.1205298E+00
          1   -1    0    0  501    0  0.00000000000E+00  0.00000000000E+00  0.18746124107E+03  0.18746124107E+03  0.00000000000E+00 0. -1.
         -1   -1    0    0    0  501 -0.00000000000E+00 -0.00000000000E+00 -0.12609068057E+03  0.12609068057E+03  0.00000000000E+00 0.  1.
         25    2    1    2    0    0 -0.52341686453E+02 -0.94381687085E+02  0.17548123199E+02  0.16614877515E+03  0.12509965571E+03 0.  0.
          5    1    3    3  502    0 -0.68516587418E+02 -0.38751141664E+01 -0.11348288748E+02  0.69683536928E+02  0.41800000000E+01 0.  1.
         -5    1    3    3    0  502  0.16174900965E+02 -0.90506572918E+02  0.28896411948E+02  0.96465238227E+02  0.41800000000E+01 0.  1.
        -11    1    1    2    0    0  0.23307147406E+02 -0.83332321772E+01  0.31340543449E+02  0.39936143309E+02  0.00000000000E+00 0. -1.
         11    1    1    2    0    0  0.29034539047E+02  0.10271491926E+03  0.12481893854E+02  0.10746700317E+03  0.00000000000E+00 0.  1.
</event>
<event>
 7    1  0.2714042E-009  0.1387673E+03  0.7561462E-02  0.1214997E+00
         -1   -1    0    0    0  501 -0.00000000000E+00  0.00000000000E+00  0.67019162499E+03  0.67019162499E+03  0.00000000000E+00 0.  1.
          1   -1    0    0  501    0  0.00000000000E+00 -0.00000000000E+00 -0.34576035697E+02  0.34576035697E+02  0.00000000000E+00 0. -1.
         25    2    1    2    0    0 -0.70431440816E+01  0.10298314838E+03  0.28646556153E+03  0.32918964083E+03  0.12509263350E+03 0.  0.
          5    1    3    3  502    0  0.30910484383E+02  0.16234445271E+01  0.15845525951E+03  0.16150428875E+03  0.41800000000E+01 0.  1.
         -5    1    3    3    0  502 -0.37953628465E+02  0.10135970386E+03  0.12801030201E+03  0.16768535208E+03  0.41800000000E+01 0.  1.
        -11    1    1    2    0    0  0.22748991383E+02  0.93252593195E+01  0.73912469467E+02  0.77894352895E+02  0.00000000000E+00 0. -1.
         11    1    1    2    0    0 -0.15705847301E+02 -0.11230840770E+03  0.27523755830E+03  0.29768366697E+03  0.00000000000E+00 0.  1.
</event>
<event>
 7    1  0.4155528E-009  0.1035486E+03  0.7561462E-02  0.1273006E+00
          2   -1    0    0  501    0  0.00000000000E+00  0.00000000000E+00  0.67118218926E+03  0.67118218926E+03  0.00000000000E+00 0. -1.
         -2   -1    0    0    0  501 -0.00000000000E+00 -0.00000000000E+00 -0.27455967535E+02  0.27455967535E+02  0.00000000000E+00 0.  1.
         25    2    1    2    0    0 -0.11779772975E+02 -0.62140423355E+02  0.22238369032E+03  0.26287780103E+03  0.12510010907E+03 0.  0.
          5    1    3    3  502    0  0.90785226488E+01 -0.77520454592E+02  0.60397469907E+02  0.98778374277E+02  0.41800000000E+01 0. -1.
         -5    1    3    3    0  502 -0.20858295624E+02  0.15380031237E+02  0.16198622041E+03  0.16409942675E+03  0.41800000000E+01 0. -1.
        -11    1    1    2    0    0 -0.28761491873E+02  0.54221230598E+02  0.32789716334E+03  0.33359213868E+03  0.00000000000E+00 0. -1.
         11    1    1    2    0    0  0.40541264848E+02  0.79191927574E+01  0.93445368059E+02  0.10216821708E+03  0.00000000000E+00 0.  1.
</event>
<event>
 7    1  0.2714042E-009  0.1889326E+03  0.7561462E-02  0.1159428E+00
         -1   -1    0    0    0  501 -0.00000000000E+00  0.00000000000E+00  0.50822387226E+02  0.50822387226E+02  0.00000000000E+00 0.  1.
          1   -1    0    0  501    0  0.00000000000E+00 -0.00000000000E+00 -0.83213796287E+03  0.83213796287E+03  0.00000000000E+00 0. -1.
         25    2    1    2    0    0  0.12730650491E+03 -0.11844559813E+03 -0.37475143387E+03  0.43165127810E+03  0.12509149769E+03 0.  0.
          5    1    3    3  502    0 -0.28714015970E+01  0.11257655391E+02  0.19465771031E+01  0.12499652573E+02  0.41800000000E+01 0.  1.
         -5    1    3    3    0  502  0.13017790650E+03 -0.12970325352E+03 -0.37669801097E+03  0.41915162553E+03  0.41800000000E+01 0.  1.
        -11    1    1    2    0    0 -0.86164124340E+02  0.10996082824E+03 -0.22413926928E+03  0.26410992428E+03  0.00000000000E+00 0.  1.
         11    1    1    2    0    0 -0.41142380566E+02  0.84847698826E+01 -0.18242487250E+03  0.18719914772E+03  0.00000000000E+00 0. -1.
</event>
<event>
 7    1  0.2714042E-009  0.8291844E+02  0.7561462E-02  0.1320968E+00
          2   -1    0    0  501    0  0.00000000000E+00  0.00000000000E+00  0.27828096865E+02  0.27828096865E+02  0.00000000000E+00 0. -1.
         -2   -1    0    0    0  501 -0.00000000000E+00 -0.00000000000E+00 -0.47818168183E+03  0.47818168183E+03  0.00000000000E+00 0.  1.
         25    2    1    2    0    0 -0.40724578223E+02 -0.15530860183E+02 -0.24314856599E+03  0.27688778592E+03  0.12508365985E+03 0.  0.
          5    1    3    3  502    0  0.11947916180E+02  0.61014496219E+01 -0.21079590949E+03  0.21126374097E+03  0.41800000000E+01 0.  1.
         -5    1    3    3    0  502 -0.52672494403E+02 -0.21632309805E+02 -0.32352656496E+02  0.65624044957E+02  0.41800000000E+01 0.  1.
        -11    1    1    2    0    0 -0.21778194907E+02  0.23080406213E+02 -0.98690824037E+02  0.10366712918E+03  0.00000000000E+00 0.  1.
         11    1    1    2    0    0  0.62502773130E+02 -0.75495460294E+01 -0.10851419494E+03  0.12545486358E+03  0.00000000000E+00 0. -1.
</event>
<event>
 7    1  0.2714042E-009  0.1829797E+03  0.7561462E-02  0.1164950E+00
         -2   -1    0    0    0  501 -0.00000000000E+00  0.00000000000E+00  0.16511355385E+03  0.16511355385E+03  0.00000000000E+00 0.  1.
          2   -1    0    0  501    0  0.00000000000E+00 -0.00000000000E+00 -0.23156062901E+03  0.23156062901E+03  0.00000000000E+00 0. -1.
         25    2    1    2    0    0 -0.30357464514E+02 -0.15190535741E+03 -0.75842478660E+02  0.21305574607E+03  0.12507540167E+03 0.  0.
          5    1    3    3  502    0 -0.79261040964E+02 -0.99486204574E+02 -0.47025046899E+02  0.13567846163E+03  0.41800000000E+01 0. -1.
         -5    1    3    3    0  502  0.48903576450E+02 -0.52419152835E+02 -0.28817431760E+02  0.77377284437E+02  0.41800000000E+01 0. -1.
        -11    1    1    2    0    0  0.49453224970E+02  0.99683441931E+02  0.42257419321E+02  0.11902982627E+03  0.00000000000E+00 0.  1.
         11    1    1    2    0    0 -0.19095760455E+02  0.52221915479E+02 -0.32862015827E+02  0.64588610512E+02  0.00000000000E+00 0. -1.
</event>
<event>
 7    1  0.2714042E-009  0.1095028E+03  0.7561462E-02  0.1261493E+00
         -2   -1    0    0    0  501 -0.00000000000E+00  0.00000000000E+00  0.87210799949E+03  0.87210799949E+03  0.00000000000E+00 0.  1.
          2   -1    0    0  501    0  0.00000000000E+00 -0.00000000000E+00 -0.17343742364E+02  0.17343742364E+02  0.00000000000E+00 0. -1.
         25    2    1    2    0    0  0.30855709044E+02  0.37837958129E+02  0.66788003520E+03  0.68124195234E+03  0.12507226055E+03 0.  0.
          5    1    3    3  502    0  0.76814417744E+02  0.94095293051E+01  0.32558107792E+03  0.33467821070E+03  0.41800000000E+01 0. -1.
         -5    1    3    3    0  502 -0.45958708699E+02  0.28428428824E+02  0.34229895728E+03  0.34656374165E+03  0.41800000000E+01 0. -1.
        -11    1    1    2    0    0 -0.40077594169E+02  0.77251748543E+01  0.12004610768E+03  0.12679495199E+03  0.00000000000E+00 0. -1.
         11    1    1    2    0    0  0.92218851245E+01 -0.45563132984E+02  0.66838114246E+02  0.81414837520E+02  0.00000000000E+00 0.  1.
</event>
<event>
 7    1  0.2714042E-009  0.9337780E+02  0.7561462E-02  0.1294872E+00
          1   -1    0    0  501    0  0.00000000000E+00  0.00000000000E+00  0.15426518109E+03  0.15426518109E+03  0.00000000000E+00 0. -1.
         -1   -1    0    0    0  501 -0.00000000000E+00 -0.00000000000E+00 -0.88361563013E+02  0.88361563013E+02  0.00000000000E+00 0.  1.
         25    2    1    2    0    0 -0.24382637916E+02  0.13034956869E+02  0.28470033330E+01  0.12814053918E+03  0.12508984460E+03 0.  0.
          5    1    3    3  502    0  0.50298941217E+02 -0.12630984378E+01 -0.83339262148E+01  0.51171336033E+02  0.41800000000E+01 0.  1.
         -5    1    3    3    0  502 -0.74681579134E+02  0.14298055307E+02  0.11180929548E+02  0.76969203146E+02  0.41800000000E+01 0.  1.
        -11    1    1    2    0    0  0.27629175661E+02  0.15307941269E+02  0.76636579531E+02  0.82890709587E+02  0.00000000000E+00 0. -1.
         11    1    1    2    0    0 -0.32465377450E+01 -0.28342898138E+02 -0.13579964785E+02  0.31595495340E+02  0.00000000000E+00 0.  1.
</event>
<event>
 7    1  0.2714042E-009  0.8018320E+02  0.7561462E-02  0.1328532E+00
          2   -1    0    0  501    0  0.00000000000E+00  0.00000000000E+00  0.26637039333E+03  0.26637039333E+03  0.00000000000E+00 0. -1.
         -2   -1    0    0    0  501 -0.00000000000E+00 -0.00000000000E+00 -0.71575857253E+02  0.71575857253E+02  0.00000000000E+00 0.  1.
         25    2    1    2    0    0 -0.34412152798E+02  0.32284784002E+02  0.18793224656E+03  0.23063628558E+03  0.12509221955E+03 0.  0.
          5    1    3    3  502    0 -0.31163541877E+02  0.51538087770E+01  0.19850116505E+03  0.20104206777E+03  0.41800000000E+01 0.  1.
         -5    1    3    3    0  502 -0.32486109207E+01  0.27130975225E+02 -0.10568918494E+02  0.29594217809E+02  0.41800000000E+01 0.  1.
        -11    1    1    2    0    0  0.39643634904E+02 -0.60408644025E+02 -0.11717838491E+02  0.73199247265E+02  0.00000000000E+00 0.  1.
         11    1    1    2    0    0 -0.52314821063E+01  0.28123860022E+02  0.18580128007E+02  0.34110717734E+02  0.00000000000E+00 0. -1.
</event>
<event>
 7    1  0.2714042E-009  0.2221263E+03  0.7561462E-02  0.1132308E+00
          1   -1    0    0  501    0  0.00000000000E+00  0.00000000000E+00  0.65063171570E+03  0.65063171570E+03  0.00000000000E+00 0. -1.
         -1   -1    0    0    0  501 -0.00000000000E+00 -0.00000000000E+00 -0.92010900358E+02  0.92010900358E+02  0.00000000000E+00 0.  1.
         25    2    1    2    0    0  0.20107050644E+03 -0.54822873043E+02  0.18564101938E+03  0.30585021769E+03  0.12508745588E+03 0.  0.
          5    1    3    3  502    0  0.11674568224E+03 -0.70529496106E+02  0.50045322063E+02  0.14534775817E+03  0.41800000000E+01 0. -1.
         -5    1    3    3    0  502  0.84324824196E+02  0.15706623063E+02  0.13559569731E+03  0.16050245953E+03  0.41800000000E+01 0. -1.
        -11    1    1    2    0    0 -0.13419276020E+03 -0.19237420792E+01  0.17739647935E+03  0.22244304566E+03  0.00000000000E+00 0. -1.
         11    1    1    2    0    0 -0.66877746238E+02  0.56746615122E+02  0.19558331662E+03  0.21434935271E+03  0.00000000000E+00 0.  1.
</event>
<event>
 7    1  0.2714042E-009  0.4513942E+02  0.7561462E-02  0.1473473E+00
         -1   -1    0    0    0  501 -0.00000000000E+00  0.00000000000E+00  0.45946583789E+02  0.45946583789E+02  0.00000000000E+00 0.  1.
          1   -1    0    0  501    0  0.00000000000E+00 -0.00000000000E+00 -0.28879420209E+03  0.28879420209E+03  0.00000000000E+00 0. -1.
         25    2    1    2    0    0  0.20703923237E+01  0.27803591777E+02 -0.95106554805E+02  0.15959301554E+03  0.12508935847E+03 0.  0.
          5    1    3    3  502    0 -0.73923345117E+01  0.23761674957E+02 -0.12509465146E+03  0.12761429399E+03  0.41800000000E+01 0. -1.
         -5    1    3    3    0  502  0.94627268354E+01  0.40419168194E+01  0.29988096658E+02  0.31978721549E+02  0.41800000000E+01 0. -1.
        -11    1    1    2    0    0  0.33940668366E+01 -0.40225315355E+02 -0.15471177229E+03  0.15989161382E+03  0.00000000000E+00 0. -1.
         11    1    1    2    0    0 -0.54644591603E+01  0.12421723578E+02  0.69707087956E+01  0.15256156517E+02  0.00000000000E+00 0.  1.
</event>
<event>
 7    1  0.2714042E-009  0.2008032E+03  0.7561462E-02  0.1149063E+00
          2   -1    0    0  501    0  0.00000000000E+00  0.00000000000E+00  0.76604465749E+03  0.76604465749E+03  0.00000000000E+00 0. -1.
         -2   -1    0    0    0  501 -0.00000000000E+00 -0.00000000000E+00 -0.60346590946E+02  0.60346590946E+02  0.00000000000E+00 0.  1.
         25    2    1    2    0    0 -0.25772337315E+02 -0.17294147467E+03  0.48342497391E+03  0.52907501669E+03  0.12509077050E+03 0.  0.
          5    1    3    3  502    0 -0.52046963223E+02 -0.17030854926E+03  0.46086635318E+03  0.49409427869E+03  0.41800000000E+01 0.  1.
         -5    1    3    3    0  502  0.26274625908E+02 -0.26329254009E+01  0.22558620723E+02  0.34980738010E+02  0.41800000000E+01 0.  1.
        -11    1    1    2    0    0  0.20022251281E+02 -0.33950649590E+01  0.15799369347E+02  0.25730081310E+02  0.00000000000E+00 0. -1.
         11    1    1    2    0    0  0.57500860341E+01  0.17633653962E+03  0.20647372329E+03  0.27158615043E+03  0.00000000000E+00 0.  1.
</event>
<event>
 7    1  0.2714042E-009  0.2625401E+03  0.7561462E-02  0.1105627E+00
          2   -1    0    0  501    0  0.00000000000E+00  0.00000000000E+00  0.12192692885E+03  0.12192692885E+03  0.00000000000E+00 0. -1.
         -2   -1    0    0    0  501 -0.00000000000E+00 -0.00000000000E+00 -0.61322363236E+03  0.61322363236E+03  0.00000000000E+00 0.  1.
         25    2    1    2    0    0  0.24330459973E+03 -0.57471068857E+02 -0.26239977811E+03  0.38340715903E+03  0.12508938418E+03 0.  0.
          5    1    3    3  502    0  0.14213335774E+03  0.24955582195E+02 -0.17222004945E+03  0.22472625636E+03  0.41800000000E+01 0. -1.
         -5    1    3    3    0  502  0.10117124199E+03 -0.82426651052E+02 -0.90179728661E+02  0.15868090267E+03  0.41800000000E+01 0. -1.
        -11    1    1    2    0    0 -0.10916865573E+03  0.30169427235E+02 -0.16634393765E+03  0.20124188263E+03  0.00000000000E+00 0.  1.
         11    1    1    2    0    0 -0.13413594400E+03  0.27301641622E+02 -0.62552987764E+02  0.15050151955E+03  0.00000000000E+00 0. -1.
</event>
<event>
 7    1  0.2714042E-009  0.6722766E+02  0.7561462E-02  0.1369783E+00
         -2   -1    0    0    0  501 -0.00000000000E+00  0.00000000000E+00  0.24907698175E+02  0.24907698175E+02  0.00000000000E+00 0.  1.
          2   -1    0    0  501    0  0.00000000000E+00 -0.00000000000E+00 -0.48965232880E+03  0.48965232880E+03  0.00000000000E+00 0. -1.
         25    2    1    2    0    0 -0.25081062249E+01 -0.40982751811E+01 -0.32389026707E+03  0.34724029539E+03  0.12509129138E+03 0.  0.
          5    1    3    3  502    0  0.17079590842E+02  0.14708715484E+02 -0.75269359740E+00  0.22936819356E+02  0.41800000000E+01 0. -1.
         -5    1    3    3    0  502 -0.19587697067E+02 -0.18806990665E+02 -0.32313757348E+03  0.32430347603E+03  0.41800000000E+01 0. -1.
        -11    1    1    2    0    0 -0.13675754406E+02 -0.37235294865E+02 -0.36451114002E+02  0.53871858649E+02  0.00000000000E+00 0.  1.
         11    1    1    2    0    0  0.16183860631E+02  0.41333570046E+02 -0.10440324955E+03  0.11344787294E+03  0.00000000000E+00 0. -1.
</event>
<event>
 7    1  0.2714042E-009  0.6513844E+02  0.7561462E-02  0.1377451E+00
          2   -1    0    0  501    0  0.00000000000E+00  0.00000000000E+00  0.33524733733E+03  0.33524733733E+03  0.00000000000E+00 0.  1.
         -2   -1    0    0    0  501 -0.00000000000E+00 -0.00000000000E+00 -0.38826459063E+02  0.38826459063E+02  0.00000000000E+00 0. -1.
         25    2    1    2    0    0 -0.21961702658E+02 -0.20404891442E+01  0.21819773000E+03  0.25247616362E+03  0.12508990303E+03 0.  0.
          5    1    3    3  502    0 -0.40505254353E+02  0.85700023089E+01  0.22565876628E+03  0.22946344321E+03  0.41800000000E+01 0. -1.
         -5    1    3    3    0  502  0.18543551695E+02 -0.10610491453E+02 -0.74610362811E+01  0.23012720411E+02  0.41800000000E+01 0. -1.
        -11    1    1    2    0    0  0.10943786825E+02  0.32611583490E+02  0.81961470164E+02  0.88887369402E+02  0.00000000000E+00 0.  1.
         11    1    1    2    0    0  0.11017915833E+02 -0.30571094346E+02 -0.37383219013E+01  0.32710263365E+02  0.00000000000E+00 0. -1.
</event>
<event>
 7    1  0.2714042E-009  0.2544235E+03  0.7561462E-02  0.1110541E+00
         -2   -1    0    0    0  501 -0.00000000000E+00  0.00000000000E+00  0.12105127750E+03  0.12105127750E+03  0.00000000000E+00 0.  1.
          2   -1    0    0  501    0  0.00000000000E+00 -0.00000000000E+00 -0.57882821103E+03  0.57882821103E+03  0.00000000000E+00 0. -1.
         25    2    1    2    0    0 -0.83544067516E+02 -0.22294437771E+03 -0.28626377910E+03  0.39278119558E+03  0.12508520935E+03 0.  0.
          5    1    3    3  502    0 -0.10516387527E+03 -0.10395566863E+03 -0.15823391820E+03  0.21661409688E+03  0.41800000000E+01 0.  1.
         -5    1    3    3    0  502  0.21619807750E+02 -0.11898870909E+03 -0.12802986091E+03  0.17616709869E+03  0.41800000000E+01 0.  1.
        -11    1    1    2    0    0  0.38766095455E+02  0.64472264366E+02 -0.10574314592E+03  0.12977324816E+03  0.00000000000E+00 0. -1.
         11    1    1    2    0    0  0.44777972061E+02  0.15847211335E+03 -0.65770008501E+02  0.17732504479E+03  0.00000000000E+00 0.  1.
</event>
<event>
 7    1  0.2714042E-009  0.1834910E+03  0.7561462E-02  0.1164467E+00
          1   -1    0    0  501    0  0.00000000000E+00  0.00000000000E+00  0.22521476963E+02  0.22521476963E+02  0.00000000000E+00 0. -1.
         -1   -1    0    0    0  501 -0.00000000000E+00 -0.00000000000E+00 -0.16664104161E+04  0.16664104161E+04  0.00000000000E+00 0.  1.
         25    2    1    2    0    0 -0.60256593395E+02  0.13944453185E+03 -0.64491097246E+03  0.67426410177E+03  0.12508509914E+03 0.  0.
          5    1    3    3  502    0  0.31058508939E+02  0.62975790808E+02 -0.33326450274E+03  0.34060722598E+03  0.41800000000E+01 0.  1.
         -5    1    3    3    0  502 -0.91315102334E+02  0.76468741042E+02 -0.31164646972E+03  0.33365687579E+03  0.41800000000E+01 0.  1.
        -11    1    1    2    0    0 -0.11628227395E+02 -0.88727905171E+02 -0.53242990527E+03  0.53989763924E+03  0.00000000000E+00 0.  1.
         11    1    1    2    0    0  0.71884820789E+02 -0.50716626679E+02 -0.46654806143E+03  0.47477015208E+03  0.00000000000E+00 0. -1.
</event>
<event>
 7    1  0.2714042E-009  0.1140651E+03  0.7561462E-02  0.1253222E+00
          1   -1    0    0  501    0  0.00000000000E+00  0.00000000000E+00  0.23984341809E+03  0.23984341809E+03  0.00000000000E+00 0. -1.
         -1   -1    0    0    0  501 -0.00000000000E+00 -0.00000000000E+00 -0.12214282696E+03  0.12214282696E+03  0.00000000000E+00 0.  1.
         25    2    1    2    0    0  0.91341853687E+02 -0.38565915820E+02 -0.29338852122E+02  0.16228741710E+03  0.12508306603E+03 0.  0.
          5    1    3    3  502    0  0.42943979896E+02  0.26197810917E+01 -0.73163110318E+02  0.84978595974E+02  0.41800000000E+01 0.  1.
         -5    1    3    3    0  502  0.48397873791E+02 -0.41185696912E+02  0.43824258197E+02  0.77308821127E+02  0.41800000000E+01 0.  1.
        -11    1    1    2    0    0 -0.45119924288E+02 -0.17640004295E+02  0.18244056073E+02  0.51767005914E+02  0.00000000000E+00 0.  1.
         11    1    1    2    0    0 -0.46221929399E+02  0.56205920115E+02  0.12879538717E+03  0.14793182203E+03  0.00000000000E+00 0. -1.
</event>
<event>
 7    1  0.2714042E-009  0.1189274E+03  0.7561462E-02  0.1244877E+00
         -2   -1    0    0    0  501 -0.00000000000E+00  0.00000000000E+00  0.32115392732E+02  0.32115392732E+02  0.00000000000E+00 0.  1.
          2   -1    0    0  501    0  0.00000000000E+00 -0.00000000000E+00 -0.59198257738E+03  0.59198257738E+03  0.00000000000E+00 0. -1.
         25    2    1    2    0    0 -0.26001146682E+02  0.60123493943E+02 -0.42828019516E+03  0.45095542195E+03  0.12508386337E+03 0.  0.
          5    1    3    3  502    0 -0.67460486647E+02  0.41106442292E+01 -0.26211413725E+03  0.27071961141E+03  0.41800000000E+01 0.  1.
         -5    1    3    3    0  502  0.41459339966E+02  0.56012849714E+02 -0.16616605790E+03  0.18023581055E+03  0.41800000000E+01 0.  1.
        -11    1    1    2    0    0  0.44758047515E+02 -0.87075799036E+01 -0.21952975803E+02  0.50606698289E+02  0.00000000000E+00 0.  1.
         11    1    1    2    0    0 -0.18756900833E+02 -0.51415914039E+02 -0.10963401369E+03  0.12253584987E+03  0.00000000000E+00 0. -1.
</event>
<event>
 7    1  0.2714042E-009  0.8499942E+02  0.7561462E-02  0.1315434E+00
          2   -1    0    0  501    0  0.00000000000E+00  0.00000000000E+00  0.17510867319E+03  0.17510867319E+03  0.00000000000E+00 0. -1.
         -2   -1    0    0    0  501 -0.00000000000E+00 -0.00000000000E+00 -0.80657694022E+02  0.80657694022E+02  0.00000000000E+00 0.  1.
         25    2    1    2    0    0 -0.11568451163E+02  0.44149146200E+02  0.67099994959E+02  0.14910653138E+03  0.12508945680E+03 0.  0.
          5    1    3    3  502    0 -0.11382191675E+02  0.54488510446E+02  0.99913189819E+02  0.11444942096E+03  0.41800000000E+01 0.  1.
         -5    1    3    3    0  502 -0.18625948843E+00 -0.10339364246E+02 -0.32813194860E+02  0.34657110418E+02  0.41800000000E+01 0.  1.
        -11    1    1    2    0    0 -0.40229154299E+02 -0.27045529592E+02  0.14829021481E+02  0.50692656318E+02  0.00000000000E+00 0.  1.
         11    1    1    2    0    0  0.51797605462E+02 -0.17103616608E+02  0.12521962730E+02  0.55967179519E+02  0.00000000000E+00 0. -1.
</event>
<event>
 7    1  0.2714042E-009  0.1659970E+03  0.7561462E-02  0.1182088E+00
         -2   -1    0    0    0  501 -0.00000000000E+00  0.00000000000E+00  0.23027550155E+03  0.23027550155E+03  0.00000000000E+00 0.  1.
          2   -1    0    0  501    0  0.00000000000E+00 -0.00000000000E+00 -0.13825053288E+03  0.13825053288E+03  0.00000000000E+00 0. -1.
         25    2    1    2    0    0  0.76159284395E+02  0.10335841366E+03  0.10968594134E+03  0.21014983745E+03  0.12509496463E+03 0.  0.
          5    1    3    3  502    0 -0.17776063174E+01  0.10094890148E+03  0.65624826392E+02  0.12049037652E+03  0.41800000000E+01 0.  1.
         -5    1    3    3    0  502  0.77936890713E+02  0.24095121763E+01  0.44061114952E+02  0.89659460927E+02  0.41800000000E+01 0.  1.
        -11    1    1    2    0    0 -0.89369867629E+02 -0.60281888322E+02 -0.29550749430E+02  0.11177712687E+03  0.00000000000E+00 0. -1.
         11    1    1    2    0    0  0.13210583233E+02 -0.43076525336E+02  0.11889776755E+02  0.46599070116E+02  0.00000000000E+00 0.  1.
</event>
<event>
 7    1  0.2714042E-009  0.1291463E+03  0.7561462E-02  0.1228728E+00
         -1   -1    0    0    0  501 -0.00000000000E+00  0.00000000000E+00  0.10110825152E+03  0.10110825152E+03  0.00000000000E+00 0.  1.
          1   -1    0    0  501    0  0.00000000000E+00 -0.00000000000E+00 -0.17120830176E+03  0.17120830176E+03  0.00000000000E+00 0. -1.
         25    2    1    2    0    0 -0.20009463131E+02 -0.69467300449E+02 -0.19947363367E+02  0.14584770890E+03  0.12509025717E+03 0.  0.
          5    1    3    3  502    0  0.44805442086E+02 -0.63425812486E+02 -0.46039626317E+00  0.77769182166E+02  0.41800000000E+01 0. -1.
         -5    1    3    3    0  502 -0.64814905216E+02 -0.60414879633E+01 -0.19486967104E+02  0.68078526731E+02  0.41800000000E+01 0. -1.
        -11    1    1    2    0    0 -0.35331904462E+02  0.17708559918E+02 -0.24360220147E+02  0.46425821403E+02  0.00000000000E+00 0. -1.
         11    1    1    2    0    0  0.55341367593E+02  0.51758740531E+02 -0.25792466717E+02  0.80043022980E+02  0.00000000000E+00 0.  1.
</event>
<event>
 7    1  0.2714042E-009  0.2313767E+03  0.7561462E-02  0.1125675E+00
          1   -1    0    0  501    0  0.00000000000E+00  0.00000000000E+00  0.88268580844E+02  0.88268580844E+02  0.00000000000E+00 0. -1.
         -1   -1    0    0    0  501 -0.00000000000E+00 -0.00000000000E+00 -0.94584497321E+03  0.94584497321E+03  0.00000000000E+00 0.  1.
         25    2    1    2    0    0 -0.16412982647E+03 -0.15886634613E+03 -0.68375602221E+03  0.73167427018E+03  0.12509126215E+03 0.  0.
          5    1    3    3  502    0 -0.18884542835E+02 -0.29397568253E+02 -0.29330566054E+03  0.29540908226E+03  0.41800000000E+01 0.  1.
         -5    1    3    3    0  502 -0.14524528363E+03 -0.12946877788E+03 -0.39045036167E+03  0.43626518792E+03  0.41800000000E+01 0.  1.
        -11    1    1    2    0    0  0.13572718239E+03  0.15189545957E+03 -0.18080814315E+03  0.27237048905E+03  0.00000000000E+00 0.  1.
         11    1    1    2    0    0  0.28402644081E+02  0.69708865635E+01  0.69877730010E+01  0.30068794817E+02  0.00000000000E+00 0. -1.
</event>
<event>
 7    1  0.2714042E-009  0.1770269E+03  0.7561462E-02  0.1170712E+00
          3   -1    0    0  501    0  0.00000000000E+00  0.00000000000E+00  0.11797325798E+04  0.11797325798E+04  0.00000000000E+00 0. -1.
         -3   -1    0    0    0  501 -0.00000000000E+00 -0.00000000000E+00 -0.35612348858E+02  0.35612348858E+02  0.00000000000E+00 0.  1.
         25    2    1    2    0    0 -0.16632800508E+03 -0.46664589772E+02  0.63467170042E+03  0.66954917101E+03  0.12508131705E+03 0.  0.
          5    1    3    3  502    0 -0.10400475327E+03 -0.40501134311E+02  0.56432360624E+03  0.57527031519E+03  0.41800000000E+01 0. -1.
         -5    1    3    3    0  502 -0.62323251813E+02 -0.61634554608E+01  0.70348094181E+02  0.94278855820E+02  0.41800000000E+01 0. -1.
        -11    1    1    2    0    0  0.13626719479E+03  0.16931272132E+02  0.27291245725E+03  0.30551043464E+03  0.00000000000E+00 0.  1.
         11    1    1    2    0    0  0.30060810296E+02  0.29733317640E+02  0.23653607327E+03  0.24028532300E+03  0.00000000000E+00 0. -1.
</event>
<event>
 7    1  0.2714042E-009  0.1326794E+03  0.7561462E-02  0.1223533E+00
         -1   -1    0    0    0  501 -0.00000000000E+00  0.00000000000E+00  0.23802880246E+02  0.23802880246E+02  0.00000000000E+00 0.  1.
          1   -1    0    0  501    0  0.00000000000E+00 -0.00000000000E+00 -0.10238421555E+04  0.10238421555E+04  0.00000000000E+00 0. -1.
         25    2    1    2    0    0  0.55350335534E+02 -0.78586896457E+02 -0.77213085130E+03  0.78808138467E+03  0.12508659957E+03 0.  0.
          5    1    3    3  502    0  0.25472398462E+02  0.33041180850E+02 -0.18873978941E+03  0.19334100243E+03  0.41800000000E+01 0. -1.
         -5    1    3    3    0  502  0.29877937073E+02 -0.11162807731E+03 -0.58339106189E+03  0.59474038223E+03  0.41800000000E+01 0. -1.
        -11    1    1    2    0    0 -0.41178977577E+02  0.16914919632E+02 -0.16277453549E+03  0.16875239881E+03  0.00000000000E+00 0. -1.
         11    1    1    2    0    0 -0.14171357957E+02  0.61671976825E+02 -0.65133888464E+02  0.90811252267E+02  0.00000000000E+00 0.  1.
</event>
<event>
 7    1  0.3057234E-009  0.2038229E+03  0.7561462E-02  0.1146553E+00
          1   -1    0    0  501    0  0.00000000000E+00  0.00000000000E+00  0.76570987172E+03  0.76570987172E+03  0.00000000000E+00 0. -1.
         -1   -1    0    0    0  501 -0.00000000000E+00 -0.00000000000E+00 -0.63338663873E+02  0.63338663873E+02  0.00000000000E+00 0.  1.
         25    2    1    2    0    0 -0.37743767738E+02  0.18258669985E+03  0.28431452353E+03  0.36227490769E+03  0.12508343412E+03 0.  0.
          5    1    3    3  502    0 -0.38248605700E+02  0.80965125931E-01  0.76739036601E+02  0.85844711729E+02  0.41800000000E+01 0.  1.
         -5    1    3    3    0  502  0.50483796199E+00  0.18250573473E+03  0.20757548693E+03  0.27643019597E+03  0.41800000000E+01 0.  1.
        -11    1    1    2    0    0  0.84418796949E+01 -0.59079047046E+02  0.51388394096E+02  0.78755102567E+02  0.00000000000E+00 0.  1.
         11    1    1    2    0    0  0.29301888043E+02 -0.12350765281E+03  0.36666829023E+03  0.38801852533E+03  0.00000000000E+00 0. -1.
</event>
<event>
 7    1  0.2714042E-009  0.9964801E+02  0.7561462E-02  0.1281038E+00
         -2   -1    0    0    0  501 -0.00000000000E+00  0.00000000000E+00  0.32196472149E+02  0.32196472149E+02  0.00000000000E+00 0.  1.
          2   -1    0    0  501    0  0.00000000000E+00 -0.00000000000E+00 -0.65604204604E+03  0.65604204604E+03  0.00000000000E+00 0. -1.
         25    2    1    2    0    0  0.40558586941E+02  0.55647239113E+02 -0.18018741392E+03  0.22990678124E+03  0.12509200505E+03 0.  0.
          5    1    3    3  502    0  0.10400667370E+02  0.53009228996E+02 -0.19018536028E+03  0.19775261290E+03  0.41800000000E+01 0.  1.
         -5    1    3    3    0  502  0.30157919571E+02  0.26380101169E+01  0.99979463626E+01  0.32154168341E+02  0.41800000000E+01 0.  1.
        -11    1    1    2    0    0 -0.50475727522E+02  0.71493008129E+01 -0.17662462458E+03  0.18383462562E+03  0.00000000000E+00 0. -1.
         11    1    1    2    0    0  0.99171405809E+01 -0.62796539926E+02 -0.26703353539E+03  0.27449711133E+03  0.00000000000E+00 0.  1.
</event>
<event>
 7    1  0.2714042E-009  0.1238153E+03  0.7561462E-02  0.1236932E+00
          1   -1    0    0  501    0  0.00000000000E+00  0.00000000000E+00  0.34076375646E+02  0.34076375646E+02  0.00000000000E+00 0. -1.
         -1   -1    0    0    0  501 -0.00000000000E+00 -0.00000000000E+00 -0.76281071822E+03  0.76281071822E+03  0.00000000000E+00 0.  1.
         25    2    1    2    0    0 -0.92828283853E+02  0.56052442515E+02 -0.51205526435E+03  0.53815059202E+03  0.12508596780E+03 0.  0.
          5    1    3    3  502    0 -0.43132259322E+02  0.48251586147E+02 -0.79216498850E+02  0.10237838370E+03  0.41800000000E+01 0.  1.
         -5    1    3    3    0  502 -0.49696024530E+02  0.78008563681E+01 -0.43283876550E+03  0.43577220831E+03  0.41800000000E+01 0.  1.
        -11    1    1    2    0    0  0.57398925009E+02 -0.73131836268E+02 -0.18904546622E+03  0.21066819970E+03  0.00000000000E+00 0.  1.
         11    1    1    2    0    0  0.35429358844E+02  0.17079393754E+02 -0.27633612001E+02  0.48068302147E+02  0.00000000000E+00 0. -1.
</event>
<event>
 7    1  0.2714042E-009  0.1676482E+03  0.7561462E-02  0.1180323E+00
          2   -1    0    0  501    0  0.00000000000E+00  0.00000000000E+00  0.20534828961E+03  0.20534828961E+03  0.00000000000E+00 0. -1.
         -2   -1    0    0    0  501 -0.00000000000E+00 -0.00000000000E+00 -0.21467048523E+03  0.21467048523E+03  0.00000000000E+00 0.  1.
         25    2    1    2    0    0  0.50021234915E+02 -0.14831477372E+03 -0.92315869194E+02  0.22061062221E+03  0.12508969134E+03 0.  0.
          5    1    3    3  502    0  0.65778602215E+02 -0.97549716137E+02 -0.11322341633E+03  0.16333948094E+03  0.41800000000E+01 0. -1.
         -5    1    3    3    0  502 -0.15757367300E+02 -0.50765057586E+02  0.20907547132E+02  0.57271141275E+02  0.41800000000E+01 0. -1.
        -11    1    1    2    0    0  0.72402748163E+01  0.49617882912E+02 -0.11279937301E+02  0.51396428569E+02  0.00000000000E+00 0.  1.
         11    1    1    2    0    0 -0.57261509731E+02  0.98696890811E+02  0.94273610868E+02  0.14801172406E+03  0.00000000000E+00 0. -1.
</event>
<event>
 7    1  0.2714042E-009  0.8104044E+02  0.7561462E-02  0.1326124E+00
          4   -1    0    0  501    0  0.00000000000E+00  0.00000000000E+00  0.16382290332E+03  0.16382290332E+03  0.00000000000E+00 0. -1.
         -4   -1    0    0    0  501 -0.00000000000E+00 -0.00000000000E+00 -0.91803475944E+02  0.91803475944E+02  0.00000000000E+00 0.  1.
         25    2    1    2    0    0  0.14518567675E+02  0.49188159588E+02  0.17117065365E+02  0.13627424615E+03  0.12508961742E+03 0.  0.
          5    1    3    3  502    0  0.10232293552E+02 -0.97654974691E+01  0.60859460781E+02  0.62621171649E+02  0.41800000000E+01 0.  1.
         -5    1    3    3    0  502  0.42862741223E+01  0.58953657057E+02 -0.43742395416E+02  0.73653074498E+02  0.41800000000E+01 0.  1.
        -11    1    1    2    0    0 -0.27556508126E+02  0.85739758970E+01 -0.10881113148E+02  0.30842711069E+02  0.00000000000E+00 0.  1.
         11    1    1    2    0    0  0.13037940451E+02 -0.57762135485E+02  0.65783475154E+02  0.88509422043E+02  0.00000000000E+00 0. -1.
</event>
<event>
 7    1  0.2714042E-009  0.1239111E+03  0.7561462E-02  0.1236781E+00
          1   -1    0    0  501    0  0.00000000000E+00  0.00000000000E+00  0.48575678322E+03  0.48575678322E+03  0.00000000000E+00 0. -1.
         -1   -1    0    0    0  501 -0.00000000000E+00 -0.00000000000E+00 -0.63289796176E+02  0.63289796176E+02  0.00000000000E+00 0.  1.
         25    2    1    2    0    0 -0.51960913930E+02 -0.93353093412E+02  0.85533861098E+02  0.18541236520E+03  0.12508783774E+03 0.  0.
          5    1    3    3  502    0 -0.76911596984E+02 -0.77222230980E+02  0.10356662618E+03  0.15040673245E+03  0.41800000000E+01 0.  1.
         -5    1    3    3    0  502  0.24950683054E+02 -0.16130862432E+02 -0.18032765084E+02  0.35005632751E+02  0.41800000000E+01 0.  1.
        -11    1    1    2    0    0  0.99025837708E+01  0.37773603116E+02  0.30991384038E+02  0.49853506820E+02  0.00000000000E+00 0.  1.
         11    1    1    2    0    0  0.42058330159E+02  0.55579490297E+02  0.30594174190E+03  0.31378070737E+03  0.00000000000E+00 0. -1.
</event>
<event>
 7    1  0.2714042E-009  0.1437111E+03  0.7561462E-02  0.1208421E+00
         -2   -1    0    0    0  501 -0.00000000000E+00  0.00000000000E+00  0.61257058189E+02  0.61257058189E+02  0.00000000000E+00 0.  1.
          2   -1    0    0  501    0  0.00000000000E+00 -0.00000000000E+00 -0.49511956441E+03  0.49511956441E+03  0.00000000000E+00 0. -1.
         25    2    1    2    0    0 -0.10347673039E+03 -0.93471114697E+01 -0.37178410286E+03  0.40578992916E+03  0.12508894932E+03 0.  0.
          5    1    3    3  502    0 -0.60996848041E+02 -0.66819455474E+02 -0.19254208058E+03  0.21278012194E+03  0.41800000000E+01 0.  1.
         -5    1    3    3    0  502 -0.42479882350E+02  0.57472344004E+02 -0.17924202228E+03  0.19300980721E+03  0.41800000000E+01 0.  1.
        -11    1    1    2    0    0  0.18332316890E+02  0.32245808693E+02  0.80166174955E+01  0.37949073466E+02  0.00000000000E+00 0.  1.
         11    1    1    2    0    0  0.85144413500E+02 -0.22898697224E+02 -0.70095020859E+02  0.11263761998E+03  0.00000000000E+00 0. -1.
</event>
<event>
 7    1  0.2714042E-009  0.1748030E+03  0.7561462E-02  0.1172930E+00
          2   -1    0    0  501    0  0.00000000000E+00  0.00000000000E+00  0.25186479562E+03  0.25186479562E+03  0.00000000000E+00 0. -1.
         -2   -1    0    0    0  501 -0.00000000000E+00 -0.00000000000E+00 -0.14704697229E+03  0.14704697229E+03  0.00000000000E+00 0.  1.
         25    2    1    2    0    0 -0.70537625521E+01 -0.14616180391E+03  0.12239099849E+03  0.22812658176E+03  0.12509657191E+03 0.  0.
          5    1    3    3  502    0  0.18403221992E+02 -0.15994368651E+03  0.11518269172E+03  0.19800299570E+03  0.41800000000E+01 0.  1.
         -5    1    3    3    0  502 -0.25456984544E+02  0.13781882602E+02  0.72083067722E+01  0.30123586052E+02  0.41800000000E+01 0.  1.
        -11    1    1    2    0    0  0.23229897492E+02  0.16154892528E+02 -0.27426379956E+02  0.39405773784E+02  0.00000000000E+00 0.  1.
         11    1    1    2    0    0 -0.16176134940E+02  0.13000691138E+03  0.98532048006E+01  0.13137941237E+03  0.00000000000E+00 0. -1.
</event>
<event>
 7    1  0.2714042E-009  0.1052880E+03  0.7561462E-02  0.1269553E+00
          1   -1    0    0  501    0  0.00000000000E+00  0.00000000000E+00  0.27417245496E+03  0.27417245496E+03  0.00000000000E+00 0. -1.
         -1   -1    0    0    0  501 -0.00000000000E+00 -0.00000000000E+00 -0.45066297856E+02  0.45066297856E+02  0.00000000000E+00 0.  1.
         25    2    1    2    0    0  0.19887855727E+02  0.84413790149E+01  0.11140211212E+03  0.16889083254E+03  0.12508756551E+03 0.  0.
          5    1    3    3  502    0  0.61030865825E+02 -0.31534019415E+02  0.52476764512E+02  0.86547352226E+02  0.41800000000E+01 0.  1.
         -5    1    3    3    0  502 -0.41143010097E+02  0.39975398430E+02  0.58925347608E+02  0.82343480314E+02  0.41800000000E+01 0.  1.
        -11    1    1    2    0    0 -0.17284681700E+02 -0.44678178875E+02  0.32971140540E+02  0.58154930982E+02  0.00000000000E+00 0.  1.
         11    1    1    2    0    0 -0.26031740275E+01  0.36236799860E+02  0.84732904443E+02  0.92192989291E+02  0.00000000000E+00 0. -1.
</event>
<event>
 7    1  0.2714042E-009  0.1016809E+03  0.7561462E-02  0.1276800E+00
         -2   -1    0    0    0  501 -0.00000000000E+00  0.00000000000E+00  0.26633105079E+02  0.26633105079E+02  0.00000000000E+00 0.  1.
          2   -1    0    0  501    0  0.00000000000E+00 -0.00000000000E+00 -0.52576333070E+03  0.52576333070E+03  0.00000000000E+00 0. -1.
         25    2    1    2    0    0 -0.29891011495E+02  0.19232621939E+02 -0.21287979504E+03  0.24945725990E+03  0.12509097116E+03 0.  0.
          5    1    3    3  502    0 -0.40008661357E+01  0.66019280201E+02 -0.16402306995E+03  0.17690560241E+03  0.41800000000E+01 0. -1.
         -5    1    3    3    0  502 -0.25890145360E+02 -0.46786658262E+02 -0.48856725084E+02  0.72551657486E+02  0.41800000000E+01 0. -1.
        -11    1    1    2    0    0  0.49293610310E+02 -0.33300780616E+02 -0.26265397643E+03  0.26930635593E+03  0.00000000000E+00 0. -1.
         11    1    1    2    0    0 -0.19402598814E+02  0.14068158678E+02 -0.23596454147E+02  0.33632819948E+02  0.00000000000E+00 0.  1.
</event>
<event>
 7    1  0.2714042E-009  0.9544776E+02  0.7561462E-02  0.1290171E+00
          3   -1    0    0  501    0  0.00000000000E+00  0.00000000000E+00  0.57659851485E+02  0.57659851485E+02  0.00000000000E+00 0. -1.
         -3   -1    0    0    0  501 -0.00000000000E+00 -0.00000000000E+00 -0.33874805929E+03  0.33874805929E+03  0.00000000000E+00 0.  1.
         25    2    1    2    0    0  0.77860118939E+02  0.28613456375E+02 -0.19456007103E+03  0.24572386825E+03  0.12508265339E+03 0.  0.
          5    1    3    3  502    0  0.57037820614E+02  0.38686766589E+02 -0.23320637330E+02  0.72878689718E+02  0.41800000000E+01 0. -1.
         -5    1    3    3    0  502  0.20822298325E+02 -0.10073310214E+02 -0.17123943370E+03  0.17284517853E+03  0.41800000000E+01 0. -1.
        -11    1    1    2    0    0 -0.14261346528E+02 -0.31605480853E+02 -0.79370447448E+02  0.86613857741E+02  0.00000000000E+00 0.  1.
         11    1    1    2    0    0 -0.63598772410E+02  0.29920244774E+01 -0.71576893289E+01  0.64070184791E+02  0.00000000000E+00 0. -1.
</event>
<event>
 7    1  0.2714042E-009  0.1768215E+03  0.7561462E-02  0.1170915E+00
          2   -1    0    0  501    0  0.00000000000E+00  0.00000000000E+00  0.12894908755E+04  0.12894908755E+04  0.00000000000E+00 0.  1.
         -2   -1    0    0    0  501 -0.00000000000E+00 -0.00000000000E+00 -0.27662606566E+02  0.27662606566E+02  0.00000000000E+00 0. -1.
         25    2    1    2    0    0 -0.12211392489E+03  0.89720383722E+02  0.80219483631E+03  0.82590924199E+03  0.12509181702E+03 0.  0.
          5    1    3    3  502    0 -0.14301059381E+03  0.90868232962E+02  0.75944938429E+03  0.77813231870E+03  0.41800000000E+01 0. -1.
         -5    1    3    3    0  502  0.20896668929E+02 -0.11478492405E+01  0.42745452026E+02  0.47776923291E+02  0.41800000000E+01 0. -1.
        -11    1    1    2    0    0  0.97425306756E+02 -0.36309485306E+02  0.36749944638E+03  0.38192396129E+03  0.00000000000E+00 0.  1.
         11    1    1    2    0    0  0.24688618129E+02 -0.53410898416E+02  0.92133986279E+02  0.10932027883E+03  0.00000000000E+00 0. -1.
</event>
<event>
 7    1  0.2714042E-009  0.7897323E+02  0.7561462E-02  0.1331991E+00
         -2   -1    0    0    0  501 -0.00000000000E+00  0.00000000000E+00  0.69395827194E+02  0.69395827194E+02  0.00000000000E+00 0.  1.
          2   -1    0    0  501    0  0.00000000000E+00 -0.00000000000E+00 -0.16488424615E+03  0.16488424615E+03  0.00000000000E+00 0. -1.
         25    2    1    2    0    0 -0.10175955370E+02 -0.26466153928E+02 -0.81464341432E+02  0.15194393570E+03  0.12508602360E+03 0.  0.
          5    1    3    3  502    0 -0.67483745907E+02 -0.18146624748E+02 -0.40356537193E+02  0.80805188234E+02  0.41800000000E+01 0. -1.
         -5    1    3    3    0  502  0.57307790537E+02 -0.83195291802E+01 -0.41107804239E+02  0.71138747469E+02  0.41800000000E+01 0. -1.
        -11    1    1    2    0    0  0.13537285533E+01  0.16563972760E+02  0.31122553030E+02  0.35281880359E+02  0.00000000000E+00 0.  1.
         11    1    1    2    0    0  0.88222268165E+01  0.99021811682E+01 -0.45146630550E+02  0.47054257277E+02  0.00000000000E+00 0. -1.
</event>
<event>
 7    1  0.2714042E-009  0.1595738E+03  0.7561462E-02  0.1189179E+00
         -2   -1    0    0    0  501 -0.00000000000E+00  0.00000000000E+00  0.55578617053E+03  0.55578617053E+03  0.00000000000E+00 0.  1.
          2   -1    0    0  501    0  0.00000000000E+00 -0.00000000000E+00 -0.60462989746E+02  0.60462989746E+02  0.00000000000E+00 0. -1.
         25    2    1    2    0    0  0.82458317820E+02  0.10186329188E+03  0.14570946859E+03  0.23249474358E+03  0.12508817747E+03 0.  0.
          5    1    3    3  502    0  0.93146930122E+02  0.16116237913E+02  0.73832673466E+02  0.12002008076E+03  0.41800000000E+01 0.  1.
         -5    1    3    3    0  502 -0.10688612303E+02  0.85747053972E+02  0.71876795123E+02  0.11247466281E+03  0.41800000000E+01 0.  1.
        -11    1    1    2    0    0 -0.35322510102E+01 -0.33235311646E+02  0.19005585807E+03  0.19297225687E+03  0.00000000000E+00 0.  1.
         11    1    1    2    0    0 -0.78926066809E+02 -0.68627980239E+02  0.15955785413E+03  0.19078215983E+03  0.00000000000E+00 0. -1.
</event>
<event>
 7    1  0.2714042E-009  0.1085171E+03  0.7561462E-02  0.1263341E+00
          1   -1    0    0  501    0  0.00000000000E+00  0.00000000000E+00  0.23326294345E+03  0.23326294345E+03  0.00000000000E+00 0. -1.
         -1   -1    0    0    0  501 -0.00000000000E+00 -0.00000000000E+00 -0.57306571943E+02  0.57306571943E+02  0.00000000000E+00 0.  1.
         25    2    1    2    0    0 -0.38931763573E+02 -0.22260700615E+01  0.10804727333E+03  0.16983111180E+03  0.12509098951E+03 0.  0.
          5    1    3    3  502    0  0.40496060635E+02  0.24014427965E+02  0.38107866390E+02  0.60714953333E+02  0.41800000000E+01 0. -1.
         -5    1    3    3    0  502 -0.79427824208E+02 -0.26240498027E+02  0.69939406939E+02  0.10911615846E+03  0.41800000000E+01 0. -1.
        -11    1    1    2    0    0  0.13231359263E+02 -0.36900544302E+02  0.62278011307E+02  0.73588516292E+02  0.00000000000E+00 0. -1.
         11    1    1    2    0    0  0.25700404311E+02  0.39126614363E+02  0.56310868706E+01  0.47149887302E+02  0.00000000000E+00 0.  1.
</event>
<event>
 7    1  0.2714042E-009  0.1122650E+03  0.7561462E-02  0.1256432E+00
         -1   -1    0    0    0  501 -0.00000000000E+00  0.00000000000E+00  0.52865758756E+02  0.52865758756E+02  0.00000000000E+00 0.  1.
          1   -1    0    0  501    0  0.00000000000E+00 -0.00000000000E+00 -0.51399394249E+03  0.51399394249E+03  0.00000000000E+00 0. -1.
         25    2    1    2    0    0  0.11742320117E+02  0.35734491533E+02 -0.44813734819E+03  0.46678654243E+03  0.12509099644E+03 0.  0.
          5    1    3    3  502    0 -0.10908399231E+02  0.79848629069E+02 -0.28828349067E+03  0.29936539568E+03  0.41800000000E+01 0. -1.
         -5    1    3    3    0  502  0.22650719348E+02 -0.44114137536E+02 -0.15985385752E+03  0.16742114676E+03  0.41800000000E+01 0. -1.
        -11    1    1    2    0    0  0.32667141869E+02 -0.37358978412E+02  0.90867532499E+01  0.50452002047E+02  0.00000000000E+00 0.  1.
         11    1    1    2    0    0 -0.44409461986E+02  0.16244868797E+01 -0.22077588796E+02  0.49621156763E+02  0.00000000000E+00 0. -1.
</event>
<event>
 7    1  0.2746404E-009  0.8632630E+02  0.7561462E-02  0.1312000E+00
          1   -1    0    0  501    0  0.00000000000E+00  0.00000000000E+00  0.19547354410E+03  0.19547354410E+03  0.00000000000E+00 0. -1.
         -1   -1    0    0    0  501 -0.00000000000E+00 -0.00000000000E+00 -0.77010095104E+02  0.77010095104E+02  0.00000000000E+00 0.  1.
         25    2    1    2    0    0 -0.14270709122E+02 -0.31548769709E+02  0.16068860649E+02  0.13079365637E+03  0.12509913771E+03 0.  0.
          5    1    3    3  502    0  0.46880308709E+02 -0.24242209809E+02 -0.23019577176E+02  0.57730593401E+02  0.41800000000E+01 0.  1.
         -5    1    3    3    0  502 -0.61151017831E+02 -0.73065599006E+01  0.39088437825E+02  0.73063062973E+02  0.41800000000E+01 0.  1.
        -11    1    1    2    0    0  0.21002007723E+02 -0.43585571912E+01 -0.98841261439E+01  0.23617309305E+02  0.00000000000E+00 0.  1.
         11    1    1    2    0    0 -0.67312986004E+01  0.35907326900E+02  0.11227871449E+03  0.11807267353E+03  0.00000000000E+00 0. -1.
</event>
<event>
 7    1  0.2714042E-009  0.1353674E+03  0.7561462E-02  0.1219702E+00
          1   -1    0    0  501    0  0.00000000000E+00  0.00000000000E+00  0.11984793198E+03  0.11984793198E+03  0.00000000000E+00 0. -1.
         -1   -1    0    0    0  501 -0.00000000000E+00 -0.00000000000E+00 -0.23855733931E+03  0.23855733931E+03  0.00000000000E+00 0.  1.
         25    2    1    2    0    0  0.44533574567E+02 -0.11769859835E+03 -0.29816511308E+02  0.17992443679E+03  0.12509028455E+03 0.  0.
          5    1    3    3  502    0  0.79548052062E+01  0.79629308366E+01 -0.46405803814E+02  0.47933894282E+02  0.41800000000E+01 0. -1.
         -5    1    3    3    0  502  0.36578769361E+02 -0.12566152918E+03  0.16589292506E+02  0.13199054251E+03  0.41800000000E+01 0. -1.
        -11    1    1    2    0    0 -0.36095413758E+01  0.38205138502E+02 -0.79878469389E+02  0.88618458962E+02  0.00000000000E+00 0.  1.
         11    1    1    2    0    0 -0.40924033192E+02  0.79493459846E+02 -0.90144266353E+01  0.89862375545E+02  0.00000000000E+00 0. -1.
</event>
<event>
 7    1  0.2714042E-009  0.1114287E+03  0.7561462E-02  0.1257947E+00
         -1   -1    0    0    0  501 -0.00000000000E+00  0.00000000000E+00  0.80962339061E+02  0.80962339061E+02  0.00000000000E+00 0.  1.
          1   -1    0    0  501    0  0.00000000000E+00 -0.00000000000E+00 -0.27200091084E+03  0.27200091084E+03  0.00000000000E+00 0. -1.
         25    2    1    2    0    0  0.52877467978E+02  0.56244146838E+02 -0.24667562114E+02  0.14905033974E+03  0.12509230385E+03 0.  0.
          5    1    3    3  502    0  0.42851324103E+02  0.90973910450E+02  0.68905030819E+01  0.10088329789E+03  0.41800000000E+01 0.  1.
         -5    1    3    3    0  502  0.10026143875E+02 -0.34729763612E+02 -0.31558065196E+02  0.48167041848E+02  0.41800000000E+01 0.  1.
        -11    1    1    2    0    0 -0.11263934092E+02  0.45501972271E+01  0.80484512147E+01  0.14572510868E+02  0.00000000000E+00 0.  1.
         11    1    1    2    0    0 -0.41613533886E+02 -0.60794344065E+02 -0.17441946088E+03  0.18934039930E+03  0.00000000000E+00 0. -1.
</event>
<event>
 7    1  0.2714042E-009  0.1976876E+03  0.7561462E-02  0.1151705E+00
          3   -1    0    0  501    0  0.00000000000E+00  0.00000000000E+00  0.99294988725E+02  0.99294988725E+02  0.00000000000E+00 0. -1.
         -3   -1    0    0    0  501 -0.00000000000E+00 -0.00000000000E+00 -0.44969581519E+03  0.44969581519E+03  0.00000000000E+00 0.  1.
         25    2    1    2    0    0 -0.10134154017E+03  0.13693953112E+03 -0.25740963614E+03  0.33305392573E+03  0.12507059494E+03 0.  0.
          5    1    3    3  502    0  0.37095865026E+01  0.99139621111E+02 -0.13031259413E+03  0.16383305557E+03  0.41800000000E+01 0. -1.
         -5    1    3    3    0  502 -0.10505112668E+03  0.37799910009E+02 -0.12709704201E+03  0.16922087017E+03  0.41800000000E+01 0. -1.
        -11    1    1    2    0    0  0.80266660533E+02 -0.49256606459E+02 -0.82404106814E+02  0.12513747198E+03  0.00000000000E+00 0.  1.
         11    1    1    2    0    0  0.21074879640E+02 -0.87682924661E+02 -0.10587083503E+02  0.90799406199E+02  0.00000000000E+00 0. -1.
</event>
<event>
 7    1  0.2855807E-009  0.1268795E+03  0.7561462E-02  0.1232161E+00
         -1   -1    0    0    0  501 -0.00000000000E+00  0.00000000000E+00  0.40241017676E+03  0.40241017676E+03  0.00000000000E+00 0.  1.
          1   -1    0    0  501    0  0.00000000000E+00 -0.00000000000E+00 -0.57981721553E+02  0.57981721553E+02  0.00000000000E+00 0. -1.
         25    2    1    2    0    0 -0.61819641959E+02  0.79240481720E+02  0.24102842353E+03  0.28955861810E+03  0.12509504504E+03 0.  0.
          5    1    3    3  502    0 -0.39802058790E+02  0.10034734861E+03  0.23435629538E+03  0.25805840393E+03  0.41800000000E+01 0. -1.
         -5    1    3    3    0  502 -0.22017583169E+02 -0.21106866895E+02  0.66721281575E+01  0.31500214172E+02  0.41800000000E+01 0. -1.
        -11    1    1    2    0    0  0.24417791417E+02 -0.73057870575E+02  0.10798882709E+03  0.13264715514E+03  0.00000000000E+00 0.  1.
         11    1    1    2    0    0  0.37401850542E+02 -0.61826111448E+01 -0.45887954149E+01  0.38186125070E+02  0.00000000000E+00 0. -1.
</event>
<event>
 7    1  0.2714042E-009  0.9537615E+02  0.7561462E-02  0.1290331E+00
         -2   -1    0    0    0  501 -0.00000000000E+00  0.00000000000E+00  0.10938796558E+03  0.10938796558E+03  0.00000000000E+00 0.  1.
          2   -1    0    0  501    0  0.00000000000E+00 -0.00000000000E+00 -0.36595824971E+03  0.36595824971E+03  0.00000000000E+00 0. -1.
         25    2    1    2    0    0  0.38714637781E+02  0.44149903505E+02 -0.32033307535E+03  0.34886768281E+03  0.12508934322E+03 0.  0.
          5    1    3    3  502    0  0.50811773720E+02  0.79495544333E+02 -0.17620136056E+03  0.19991440614E+03  0.41800000000E+01 0. -1.
         -5    1    3    3    0  502 -0.12097135938E+02 -0.35345640828E+02 -0.14413171479E+03  0.14895327667E+03  0.41800000000E+01 0. -1.
        -11    1    1    2    0    0 -0.17768710943E+02 -0.20528752929E+02 -0.22092100262E+02  0.35003109568E+02  0.00000000000E+00 0. -1.
         11    1    1    2    0    0 -0.20945926838E+02 -0.23621150576E+02  0.85854891483E+02  0.91475422914E+02  0.00000000000E+00 0.  1.
</event>
<event>
 7    1  0.2714042E-009  0.8226571E+02  0.7561462E-02  0.1322742E+00
          1   -1    0    0  501    0  0.00000000000E+00  0.00000000000E+00  0.18819787577E+03  0.18819787577E+03  0.00000000000E+00 0.  1.
         -1   -1    0    0    0  501 -0.00000000000E+00 -0.00000000000E+00 -0.70894542859E+02  0.70894542859E+02  0.00000000000E+00 0. -1.
         25    2    1    2    0    0 -0.43125942444E+02  0.26981383742E+01  0.73048535873E+02  0.15114908534E+03  0.12507130184E+03 0.  0.
          5    1    3    3  502    0 -0.14621909745E+02  0.32378935219E+02 -0.25726765917E+02  0.44062848013E+02  0.41800000000E+01 0. -1.
         -5    1    3    3    0  502 -0.28504032699E+02 -0.29680796844E+02  0.98775301789E+02  0.10708623733E+03  0.41800000000E+01 0. -1.
        -11    1    1    2    0    0 -0.22091893123E+02 -0.18966804750E+01  0.35889157400E+02  0.42186262663E+02  0.00000000000E+00 0.  1.
         11    1    1    2    0    0  0.65217835567E+02 -0.80145789923E+00  0.83656396402E+01  0.65757070627E+02  0.00000000000E+00 0. -1.
</event>
<event>
 7    1  0.2935185E-009  0.1401097E+03  0.7561462E-02  0.1213181E+00
         -2   -1    0    0    0  501 -0.00000000000E+00  0.00000000000E+00  0.35403351349E+03  0.35403351349E+03  0.00000000000E+00 0. -1.
          2   -1    0    0  501    0  0.00000000000E+00 -0.00000000000E+00 -0.63202124301E+02  0.63202124301E+02  0.00000000000E+00 0.  1.
         25    2    1    2    0    0 -0.66379972481E+02  0.76342308186E+02  0.13284820726E+03  0.20864737843E+03  0.12510249233E+03 0.  0.
          5    1    3    3  502    0  0.20894139722E+02 -0.16299754440E+02  0.49945570533E+02  0.56694616017E+02  0.41800000000E+01 0.  1.
         -5    1    3    3    0  502 -0.87274112203E+02  0.92642062626E+02  0.82902636725E+02  0.15195276241E+03  0.41800000000E+01 0.  1.
        -11    1    1    2    0    0  0.76970664226E+02 -0.37184714331E+02  0.65798071859E+02  0.10787294560E+03  0.00000000000E+00 0.  1.
         11    1    1    2    0    0 -0.10590691745E+02 -0.39157593854E+02  0.92185110077E+02  0.10071531377E+03  0.00000000000E+00 0. -1.
</event>
<event>
 7    1  0.2714042E-009  0.9638633E+02  0.7561462E-02  0.1288084E+00
          1   -1    0    0  501    0  0.00000000000E+00  0.00000000000E+00  0.16289665272E+02  0.16289665272E+02  0.00000000000E+00 0.  1.
         -1   -1    0    0    0  501 -0.00000000000E+00 -0.00000000000E+00 -0.87288722123E+03  0.87288722123E+03  0.00000000000E+00 0. -1.
         25    2    1    2    0    0  0.18752541880E+02  0.40342505754E+02 -0.42204990234E+03  0.44243951166E+03  0.12508967109E+03 0.  0.
          5    1    3    3  502    0  0.97710101065E+01  0.67728312620E+02 -0.40020477771E+03  0.40603439937E+03  0.41800000000E+01 0. -1.
         -5    1    3    3    0  502  0.89815317733E+01 -0.27385806866E+02 -0.21845124633E+02  0.36405112291E+02  0.41800000000E+01 0. -1.
        -11    1    1    2    0    0 -0.31383053051E+02  0.17469312843E+02 -0.85952849418E+02  0.93155596896E+02  0.00000000000E+00 0.  1.
         11    1    1    2    0    0  0.12630511171E+02 -0.57811818597E+02 -0.34859480420E+03  0.35358177795E+03  0.00000000000E+00 0. -1.
</event>
<event>
 7    1  0.2714042E-009  0.1674643E+03  0.7561462E-02  0.1180518E+00
          1   -1    0    0  501    0  0.00000000000E+00  0.00000000000E+00  0.11671737761E+03  0.11671737761E+03  0.00000000000E+00 0. -1.
         -1   -1    0    0    0  501 -0.00000000000E+00 -0.00000000000E+00 -0.31831872652E+03  0.31831872652E+03  0.00000000000E+00 0.  1.
         25    2    1    2    0    0  0.89673680739E+02  0.12955346198E+03 -0.89032154493E+02  0.21999955395E+03  0.12509041002E+03 0.  0.
          5    1    3    3  502    0  0.50933085084E+02  0.10228440230E+03 -0.11800211168E+03  0.16431143865E+03  0.41800000000E+01 0.  1.
         -5    1    3    3    0  502  0.38740595656E+02  0.27269059678E+02  0.28969957183E+02  0.55688115309E+02  0.41800000000E+01 0.  1.
        -11    1    1    2    0    0  0.41772700605E+01 -0.49491869164E+02 -0.67275622266E+02  0.83623585488E+02  0.00000000000E+00 0.  1.
         11    1    1    2    0    0 -0.93850950800E+02 -0.80061592813E+02 -0.45293572155E+02  0.13141296469E+03  0.00000000000E+00 0. -1.
</event>
<event>
 7    1  0.2714042E-009  0.1231269E+03  0.7561462E-02  0.1238026E+00
         -1   -1    0    0    0  501 -0.00000000000E+00  0.00000000000E+00  0.64013763937E+02  0.64013763937E+02  0.00000000000E+00 0.  1.
          1   -1    0    0  501    0  0.00000000000E+00 -0.00000000000E+00 -0.30885447500E+03  0.30885447500E+03  0.00000000000E+00 0. -1.
         25    2    1    2    0    0  0.66520381525E+02 -0.77587675409E+01 -0.55672685998E+02  0.15240670909E+03  0.12507276833E+03 0.  0.
          5    1    3    3  502    0 -0.33247196456E+02  0.13490652674E+01 -0.37842644167E+02  0.50564158916E+02  0.41800000000E+01 0.  1.
         -5    1    3    3    0  502  0.99767577981E+02 -0.91078328083E+01 -0.17830041831E+02  0.10184255018E+03  0.41800000000E+01 0.  1.
        -11    1    1    2    0    0  0.42944582484E+01 -0.31288211146E+02 -0.65259073525E+02  0.72499249690E+02  0.00000000000E+00 0.  1.
         11    1    1    2    0    0 -0.70814839773E+02  0.39046978687E+02 -0.12390895154E+03  0.14796228015E+03  0.00000000000E+00 0. -1.
</event>
<event>
 7    1  0.2714042E-009  0.8743484E+02  0.7561462E-02  0.1309185E+00
         -2   -1    0    0    0  501 -0.00000000000E+00  0.00000000000E+00  0.25172861208E+02  0.25172861208E+02  0.00000000000E+00 0.  1.
          2   -1    0    0  501    0  0.00000000000E+00 -0.00000000000E+00 -0.60799661808E+03  0.60799661808E+03  0.00000000000E+00 0. -1.
         25    2    1    2    0    0 -0.60535694002E+01  0.43168015007E+01 -0.17512320303E+03  0.21533813800E+03  0.12508835662E+03 0.  0.
          5    1    3    3  502    0  0.51868306081E+01  0.43302351554E+02 -0.16839197692E+03  0.17399806652E+03  0.41800000000E+01 0.  1.
         -5    1    3    3    0  502 -0.11240400008E+02 -0.38985550053E+02 -0.67312261125E+01  0.41340071484E+02  0.41800000000E+01 0.  1.
        -11    1    1    2    0    0  0.20456938350E+02  0.39316665338E+02 -0.23373368751E+03  0.23789855649E+03  0.00000000000E+00 0. -1.
         11    1    1    2    0    0 -0.14403368950E+02 -0.43633466839E+02 -0.17396686633E+03  0.17993278480E+03  0.00000000000E+00 0.  1.
</event>
<event>
 7    1  0.2714042E-009  0.1018604E+03  0.7561462E-02  0.1276432E+00
         -1   -1    0    0    0  501 -0.00000000000E+00  0.00000000000E+00  0.31410336965E+02  0.31410336965E+02  0.00000000000E+00 0.  1.
          1   -1    0    0  501    0  0.00000000000E+00 -0.00000000000E+00 -0.45964173864E+03  0.45964173864E+03  0.00000000000E+00 0. -1.
         25    2    1    2    0    0  0.19071245256E+02  0.16454654533E+02 -0.14886862967E+03  0.19607100618E+03  0.12508997767E+03 0.  0.
          5    1    3    3  502    0 -0.41760700764E+02 -0.91212902885E+01 -0.11291242007E+03  0.12080497122E+03  0.41800000000E+01 0. -1.
         -5    1    3    3    0  502  0.60831946019E+02  0.25575944822E+02 -0.35956209598E+02  0.75266034960E+02  0.41800000000E+01 0. -1.
        -11    1    1    2    0    0  0.30113109230E+02  0.17550739633E+02 -0.10806713109E+03  0.11354881167E+03  0.00000000000E+00 0.  1.
         11    1    1    2    0    0 -0.49184354485E+02 -0.34005394166E+02 -0.17129564092E+03  0.18143225776E+03  0.00000000000E+00 0. -1.
</event>
<event>
 7    1  0.2714042E-009  0.1290104E+03  0.7561462E-02  0.1228931E+00
         -1   -1    0    0    0  501 -0.00000000000E+00  0.00000000000E+00  0.20955337980E+02  0.20955337980E+02  0.00000000000E+00 0.  1.
          1   -1    0    0  501    0  0.00000000000E+00 -0.00000000000E+00 -0.11279669811E+04  0.11279669811E+04  0.00000000000E+00 0. -1.
         25    2    1    2    0    0  0.78222555591E+02  0.22148832434E+02 -0.86344477636E+03  0.87623906055E+03  0.12509464589E+03 0.  0.
          5    1    3    3  502    0  0.73189813838E+02  0.63446866542E+02 -0.72964385324E+03  0.73605698061E+03  0.41800000000E+01 0.  1.
         -5    1    3    3    0  502  0.50327417535E+01 -0.41298034108E+02 -0.13380092312E+03  0.14018207995E+03  0.41800000000E+01 0.  1.
        -11    1    1    2    0    0 -0.97194411862E+02 -0.24232675760E+02 -0.17639583851E+03  0.20285331675E+03  0.00000000000E+00 0.  1.
         11    1    1    2    0    0  0.18971856271E+02  0.20838433266E+01 -0.67171028280E+02  0.69829941812E+02  0.00000000000E+00 0. -1.
</event>
<event>
 7    1  0.2714042E-009  0.1777080E+03  0.7561462E-02  0.1170040E+00
         -1   -1    0    0    0  501 -0.00000000000E+00  0.00000000000E+00  0.65110208998E+02  0.65110208998E+02  0.00000000000E+00 0.  1.
          1   -1    0    0  501    0  0.00000000000E+00 -0.00000000000E+00 -0.71594106690E+03  0.71594106690E+03  0.00000000000E+00 0. -1.
         25    2    1    2    0    0 -0.11049374932E+03  0.91429516972E+02 -0.12260632917E+03  0.22638036367E+03  0.12509009508E+03 0.  0.
          5    1    3    3  502    0 -0.76636603830E+02  0.12143776648E+03 -0.81820703125E+02  0.16532513431E+03  0.41800000000E+01 0.  1.
         -5    1    3    3    0  502 -0.33857145492E+02 -0.30008249511E+02 -0.40785626050E+02  0.61055229357E+02  0.41800000000E+01 0.  1.
        -11    1    1    2    0    0 -0.11937923531E+02 -0.23378732227E+02 -0.12739578851E+03  0.13007215716E+03  0.00000000000E+00 0. -1.
         11    1    1    2    0    0  0.12243167285E+03 -0.68050784745E+02 -0.40082874022E+03  0.42459875507E+03  0.00000000000E+00 0.  1.
</event>
<event>
 7    1  0.2714042E-009  0.1192343E+03  0.7561462E-02  0.1244366E+00
         -2   -1    0    0    0  501 -0.00000000000E+00  0.00000000000E+00  0.39068670071E+02  0.39068670071E+02  0.00000000000E+00 0.  1.
          2   -1    0    0  501    0  0.00000000000E+00 -0.00000000000E+00 -0.53264713454E+03  0.53264713454E+03  0.00000000000E+00 0. -1.
         25    2    1    2    0    0  0.37065021471E+02  0.81835445205E+02 -0.21339399655E+03  0.26316463895E+03  0.12509106092E+03 0.  0.
          5    1    3    3  502    0 -0.50267136484E+00 -0.30007739554E+02 -0.19112402296E+02  0.35825597457E+02  0.41800000000E+01 0.  1.
         -5    1    3    3    0  502  0.37567692836E+02  0.11184318476E+03 -0.19428159426E+03  0.22733904150E+03  0.41800000000E+01 0.  1.
        -11    1    1    2    0    0 -0.22455154380E+02 -0.57440272946E+02 -0.27208145857E+03  0.27898376120E+03  0.00000000000E+00 0. -1.
         11    1    1    2    0    0 -0.14609867091E+02 -0.24395172259E+02 -0.81030093467E+01  0.29567404459E+02  0.00000000000E+00 0.  1.
</event>
<event>
 7    1  0.2714042E-009  0.8567375E+02  0.7561462E-02  0.1313680E+00
          3   -1    0    0  501    0  0.00000000000E+00  0.00000000000E+00  0.14479831953E+03  0.14479831953E+03  0.00000000000E+00 0. -1.
         -3   -1    0    0    0  501 -0.00000000000E+00 -0.00000000000E+00 -0.10359135063E+03  0.10359135063E+03  0.00000000000E+00 0.  1.
         25    2    1    2    0    0  0.27842813343E+02  0.46804317668E+02  0.42734958254E+02  0.14296642581E+03  0.12508899170E+03 0.  0.
          5    1    3    3  502    0 -0.15715495410E+02  0.32057664713E+02  0.77324561007E+02  0.85271512228E+02  0.41800000000E+01 0. -1.
         -5    1    3    3    0  502  0.43558308752E+02  0.14746652955E+02 -0.34589602752E+02  0.57694913582E+02  0.41800000000E+01 0. -1.
        -11    1    1    2    0    0 -0.51864547456E+02 -0.30104225142E+02 -0.27803105625E+02  0.66099987417E+02  0.00000000000E+00 0.  1.
         11    1    1    2    0    0  0.24021734113E+02 -0.16700092526E+02  0.26275116277E+02  0.39323256929E+02  0.00000000000E+00 0. -1.
</event>
<event>
 7    1  0.2714042E-009  0.1259273E+03  0.7561462E-02  0.1233627E+00
          1   -1    0    0  501    0  0.00000000000E+00  0.00000000000E+00  0.40547122548E+02  0.40547122548E+02  0.00000000000E+00 0. -1.
         -1   -1    0    0    0  501 -0.00000000000E+00 -0.00000000000E+00 -0.44773587769E+03  0.44773587769E+03  0.00000000000E+00 0.  1.
         25    2    1    2    0    0 -0.36201710701E+02 -0.24844881168E+02 -0.28829479210E+03  0.31731657724E+03  0.12509233014E+03 0.  0.
          5    1    3    3  502    0 -0.26450665346E+02 -0.74169792618E+02 -0.20845246671E+03  0.22286924218E+03  0.41800000000E+01 0.  1.
         -5    1    3    3    0  502 -0.97510453549E+01  0.49324911450E+02 -0.79842325394E+02  0.94447335057E+02  0.41800000000E+01 0.  1.
        -11    1    1    2    0    0  0.35265474131E+02 -0.42482063379E+02 -0.59645684683E+02  0.81277223599E+02  0.00000000000E+00 0.  1.
         11    1    1    2    0    0  0.93623656961E+00  0.67326944547E+02 -0.59248278362E+02  0.89689199404E+02  0.00000000000E+00 0. -1.
</event>
<event>
 7    1  0.2714042E-009  0.1436814E+03  0.7561462E-02  0.1208460E+00
          2   -1    0    0  501    0  0.00000000000E+00  0.00000000000E+00  0.57377481338E+02  0.57377481338E+02  0.00000000000E+00 0. -1.
         -2   -1    0    0    0  501 -0.00000000000E+00 -0.00000000000E+00 -0.62816394231E+03  0.62816394231E+03  0.00000000000E+00 0.  1.
         25    2    1    2    0    0  0.72351670395E+02 -0.95275831170E+02 -0.12532649575E+03  0.21369561390E+03  0.12508731609E+03 0.  0.
          5    1    3    3  502    0  0.86455426643E+02 -0.11216415743E+03 -0.78941926669E+02  0.16218705002E+03  0.41800000000E+01 0. -1.
         -5    1    3    3    0  502 -0.14103756248E+02  0.16888326257E+02 -0.46384569079E+02  0.51508563878E+02  0.41800000000E+01 0. -1.
        -11    1    1    2    0    0 -0.38052012024E+02  0.73194810747E+02 -0.40867157008E+03  0.41691472525E+03  0.00000000000E+00 0.  1.
         11    1    1    2    0    0 -0.34299658371E+02  0.22081020423E+02 -0.36788395142E+02  0.54931084500E+02  0.00000000000E+00 0. -1.
</event>
<event>
 7    1  0.2714042E-009  0.1027186E+03  0.7561462E-02  0.1274681E+00
          2   -1    0    0  501    0  0.00000000000E+00  0.00000000000E+00  0.46657392784E+03  0.46657392784E+03  0.00000000000E+00 0. -1.
         -2   -1    0    0    0  501 -0.00000000000E+00 -0.00000000000E+00 -0.47425067278E+02  0.47425067278E+02  0.00000000000E+00 0.  1.
         25    2    1    2    0    0  0.12556843380E+02 -0.48328612215E+01  0.38717816565E+03  0.40710556326E+03  0.12508787640E+03 0.  0.
          5    1    3    3  502    0 -0.21977878958E+02  0.47353388545E+02  0.26096581223E+03  0.26616911565E+03  0.41800000000E+01 0.  1.
         -5    1    3    3    0  502  0.34534722338E+02 -0.52186249766E+02  0.12621235342E+03  0.14093644762E+03  0.41800000000E+01 0.  1.
        -11    1    1    2    0    0  0.90788772067E+01 -0.39759699743E+02 -0.99491101760E+01  0.41979096325E+02  0.00000000000E+00 0.  1.
         11    1    1    2    0    0 -0.21635720587E+02  0.44592560964E+02  0.41919805089E+02  0.64914335530E+02  0.00000000000E+00 0. -1.
</event>
<event>
 7    1  0.2714042E-009  0.1043093E+03  0.7561462E-02  0.1271486E+00
         -2   -1    0    0    0  501 -0.00000000000E+00  0.00000000000E+00  0.99346587607E+02  0.99346587607E+02  0.00000000000E+00 0.  1.
          2   -1    0    0  501    0  0.00000000000E+00 -0.00000000000E+00 -0.15428491476E+03  0.15428491476E+03  0.00000000000E+00 0. -1.
         25    2    1    2    0    0  0.41716486899E+01 -0.81226859183E+00 -0.91832254643E+02  0.15523910140E+03  0.12509177902E+03 0.  0.
          5    1    3    3  502    0 -0.39453544618E+02 -0.46430776209E+02 -0.54055395265E+02  0.81558919314E+02  0.41800000000E+01 0. -1.
         -5    1    3    3    0  502  0.43625193308E+02  0.45618507617E+02 -0.37776859377E+02  0.73680182090E+02  0.41800000000E+01 0. -1.
        -11    1    1    2    0    0  0.11768293523E+02  0.40151833688E+02  0.37138014463E+02  0.55945460935E+02  0.00000000000E+00 0. -1.
         11    1    1    2    0    0 -0.15939942213E+02 -0.39339565096E+02 -0.24408697709E+00  0.42446940033E+02  0.00000000000E+00 0.  1.
</event>
<event>
 7    1  0.2714042E-009  0.9286409E+02  0.7561462E-02  0.1296060E+00
          1   -1    0    0  501    0  0.00000000000E+00  0.00000000000E+00  0.81537515503E+03  0.81537515503E+03  0.00000000000E+00 0. -1.
         -1   -1    0    0    0  501 -0.00000000000E+00 -0.00000000000E+00 -0.36633467499E+02  0.36633467499E+02  0.00000000000E+00 0.  1.
         25    2    1    2    0    0  0.28948026865E+02 -0.67616143745E+02  0.68044254755E+03  0.69574581725E+03  0.12510096142E+03 0.  0.
          5    1    3    3  502    0  0.23170493507E+02 -0.39061029932E+02  0.63930499193E+02  0.78531630289E+02  0.41800000000E+01 0. -1.
         -5    1    3    3    0  502  0.57775333586E+01 -0.28555113813E+02  0.61651204836E+03  0.61721418696E+03  0.41800000000E+01 0. -1.
        -11    1    1    2    0    0  0.29334304598E+02  0.23707868667E+02  0.53535936577E+01  0.38094952789E+02  0.00000000000E+00 0.  1.
         11    1    1    2    0    0 -0.58282331463E+02  0.43908275078E+02  0.92945546327E+02  0.11816785249E+03  0.00000000000E+00 0. -1.
</event>
<event>
 7    1  0.2714042E-009  0.1309500E+03  0.7561462E-02  0.1226053E+00
          1   -1    0    0  501    0  0.00000000000E+00  0.00000000000E+00  0.66518830660E+03  0.66518830660E+03  0.00000000000E+00 0. -1.
         -1   -1    0    0    0  501 -0.00000000000E+00 -0.00000000000E+00 -0.31900886252E+02  0.31900886252E+02  0.00000000000E+00 0.  1.
         25    2    1    2    0    0 -0.46277293720E+02 -0.85531548253E+02  0.31901281273E+03  0.35619152012E+03  0.12508393446E+03 0.  0.
          5    1    3    3  502    0 -0.31668874878E+02 -0.11799994176E+03  0.25614187623E+03  0.28381866931E+03  0.41800000000E+01 0. -1.
         -5    1    3    3    0  502 -0.14608418842E+02  0.32468393508E+02  0.62870936499E+02  0.72372850810E+02  0.41800000000E+01 0. -1.
        -11    1    1    2    0    0  0.23191507939E+02  0.74863416389E+02  0.30318938492E+03  0.31315520159E+03  0.00000000000E+00 0. -1.
         11    1    1    2    0    0  0.23085785781E+02  0.10668131864E+02  0.11085222694E+02  0.27742471137E+02  0.00000000000E+00 0.  1.
</event>
<event>
 7    1  0.2714042E-009  0.2663890E+03  0.7561462E-02  0.1103364E+00
          1   -1    0    0  501    0  0.00000000000E+00  0.00000000000E+00  0.86380774406E+03  0.86380774406E+03  0.00000000000E+00 0. -1.
         -1   -1    0    0    0  501 -0.00000000000E+00 -0.00000000000E+00 -0.87141851636E+02  0.87141851636E+02  0.00000000000E+00 0.  1.
         25    2    1    2    0    0 -0.24418166698E+03  0.45501765383E+02  0.32619755385E+03  0.42865872748E+03  0.12509341857E+03 0.  0.
          5    1    3    3  502    0 -0.11737893287E+03  0.84846070206E+02  0.18137041868E+03  0.23214084234E+03  0.41800000000E+01 0. -1.
         -5    1    3    3    0  502 -0.12680273411E+03 -0.39344304823E+02  0.14482713517E+03  0.19651788514E+03  0.41800000000E+01 0. -1.
        -11    1    1    2    0    0  0.98354799923E+02 -0.47472166974E+02  0.26300771209E+03  0.28478119658E+03  0.00000000000E+00 0.  1.
         11    1    1    2    0    0  0.14582686706E+03  0.19704015905E+01  0.18746062648E+03  0.23750967163E+03  0.00000000000E+00 0. -1.
</event>
<event>
 7    1  0.2714042E-009  0.9374802E+02  0.7561462E-02  0.1294021E+00
         -1   -1    0    0    0  501 -0.00000000000E+00  0.00000000000E+00  0.31176784181E+02  0.31176784181E+02  0.00000000000E+00 0.  1.
          1   -1    0    0  501    0  0.00000000000E+00 -0.00000000000E+00 -0.51286604457E+03  0.51286604457E+03  0.00000000000E+00 0. -1.
         25    2    1    2    0    0 -0.28022020349E+02  0.52910935836E+02 -0.32822322797E+03  0.35631859488E+03  0.12509057887E+03 0.  0.
          5    1    3    3  502    0 -0.25348245188E+02 -0.25025822365E+02 -0.21975188970E+03  0.22265936034E+03  0.41800000000E+01 0. -1.
         -5    1    3    3    0  502 -0.26737751615E+01  0.77936758201E+02 -0.10847133827E+03  0.13365923455E+03  0.41800000000E+01 0. -1.
        -11    1    1    2    0    0  0.19437713556E+02  0.49602341612E+00  0.51697959944E+01  0.20119580963E+02  0.00000000000E+00 0.  1.
         11    1    1    2    0    0  0.85843067933E+01 -0.53406959252E+02 -0.15863582841E+03  0.16760465290E+03  0.00000000000E+00 0. -1.
</event>
<event>
 7    1  0.2714042E-009  0.6701906E+02  0.7561462E-02  0.1370534E+00
         -2   -1    0    0    0  501 -0.00000000000E+00  0.00000000000E+00  0.21116664463E+02  0.21116664463E+02  0.00000000000E+00 0. -1.
          2   -1    0    0  501    0  0.00000000000E+00 -0.00000000000E+00 -0.58939064038E+03  0.58939064038E+03  0.00000000000E+00 0.  1.
         25    2    1    2    0    0  0.21851495096E+02  0.59613471154E+01 -0.36165201296E+03  0.38334395341E+03  0.12508949853E+03 0.  0.
          5    1    3    3  502    0 -0.39383900046E+01 -0.12251636238E+02 -0.34870073208E+03  0.34896315917E+03  0.41800000000E+01 0. -1.
         -5    1    3    3    0  502  0.25789885100E+02  0.18212983353E+02 -0.12951280881E+02  0.34380794240E+02  0.41800000000E+01 0. -1.
        -11    1    1    2    0    0  0.16917499614E+02  0.30858706308E+02 -0.46270706231E+02  0.58132949377E+02  0.00000000000E+00 0. -1.
         11    1    1    2    0    0 -0.38768994710E+02 -0.36820053423E+02 -0.16035125673E+03  0.16903040206E+03  0.00000000000E+00 0.  1.
</event>
<event>
 7    1  0.2714042E-009  0.9155039E+02  0.7561462E-02  0.1299140E+00
          1   -1    0    0  501    0  0.00000000000E+00  0.00000000000E+00  0.34330859555E+02  0.34330859555E+02  0.00000000000E+00 0. -1.
         -1   -1    0    0    0  501 -0.00000000000E+00 -0.00000000000E+00 -0.36798155018E+03  0.36798155018E+03  0.00000000000E+00 0.  1.
         25    2    1    2    0    0 -0.32570232158E+01 -0.17935078039E+02 -0.14449901541E+03  0.19198888105E+03  0.12508992672E+03 0.  0.
          5    1    3    3  502    0  0.30517662640E+02  0.27667808955E+02 -0.54673463263E+01  0.41763616477E+02  0.41800000000E+01 0. -1.
         -5    1    3    3    0  502 -0.33774685856E+02 -0.45602886995E+02 -0.13903166909E+03  0.15022526457E+03  0.41800000000E+01 0. -1.
        -11    1    1    2    0    0  0.40409357765E+02 -0.56292019272E+01 -0.50859922141E+02  0.65202268285E+02  0.00000000000E+00 0.  1.
         11    1    1    2    0    0 -0.37152334549E+02  0.23564279967E+02 -0.13829175307E+03  0.14512126040E+03  0.00000000000E+00 0. -1.
</event>
<event>
 7    1  0.2714042E-009  0.1296179E+03  0.7561462E-02  0.1228024E+00
         -2   -1    0    0    0  501 -0.00000000000E+00  0.00000000000E+00  0.39187924246E+02  0.39187924246E+02  0.00000000000E+00 0.  1.
          2   -1    0    0  501    0  0.00000000000E+00 -0.00000000000E+00 -0.43036398518E+03  0.43036398518E+03  0.00000000000E+00 0. -1.
         25    2    1    2    0    0  0.13071817256E+02  0.69941459093E+02 -0.21292990751E+03  0.25700506852E+03  0.12509907923E+03 0.  0.
          5    1    3    3  502    0 -0.25341136464E+02 -0.28131944018E+02 -0.48191789896E+02  0.61428824544E+02  0.41800000000E+01 0.  1.
         -5    1    3    3    0  502  0.38412953720E+02  0.98073403111E+02 -0.16473811761E+03  0.19557624397E+03  0.41800000000E+01 0.  1.
        -11    1    1    2    0    0 -0.19474862204E+02 -0.91341762875E+02 -0.14614397554E+03  0.17343773952E+03  0.00000000000E+00 0.  1.
         11    1    1    2    0    0  0.64030449476E+01  0.21400303783E+02 -0.32102177887E+02  0.39109101391E+02  0.00000000000E+00 0. -1.
</event>
<event>
 7    1  0.2714042E-009  0.1032864E+03  0.7561462E-02  0.1273533E+00
          3   -1    0    0  501    0  0.00000000000E+00  0.00000000000E+00  0.46049931121E+03  0.46049931121E+03  0.00000000000E+00 0. -1.
         -3   -1    0    0    0  501 -0.00000000000E+00 -0.00000000000E+00 -0.38917506268E+02  0.38917506268E+02  0.00000000000E+00 0.  1.
         25    2    1    2    0    0 -0.77671737867E+02 -0.20222566226E+02  0.26219065853E+03  0.30138562175E+03  0.12508996974E+03 0.  0.
          5    1    3    3  502    0 -0.17777650413E+02 -0.46931776631E+02  0.21413261948E+03  0.21997474318E+03  0.41800000000E+01 0.  1.
         -5    1    3    3    0  502 -0.59894087453E+02  0.26709210404E+02  0.48058039050E+02  0.81410878571E+02  0.41800000000E+01 0.  1.
        -11    1    1    2    0    0  0.60008554466E+02  0.33201692202E+02  0.46090919416E+02  0.82630211344E+02  0.00000000000E+00 0.  1.
         11    1    1    2    0    0  0.17663183401E+02 -0.12979125975E+02  0.11330022699E+03  0.11540098438E+03  0.00000000000E+00 0. -1.
</event>
<event>
 7    1  0.2714042E-009  0.1686896E+03  0.7561462E-02  0.1179221E+00
         -2   -1    0    0    0  501 -0.00000000000E+00  0.00000000000E+00  0.27232274640E+03  0.27232274640E+03  0.00000000000E+00 0.  1.
          2   -1    0    0  501    0  0.00000000000E+00 -0.00000000000E+00 -0.13488790838E+03  0.13488790838E+03  0.00000000000E+00 0. -1.
         25    2    1    2    0    0  0.25092069829E+02 -0.15224376318E+03  0.10472210255E+03  0.22454594185E+03  0.12508551412E+03 0.  0.
          5    1    3    3  502    0 -0.11518065219E+02 -0.10587647136E+03  0.12281843059E+03  0.16261713411E+03  0.41800000000E+01 0.  1.
         -5    1    3    3    0  502  0.36610135048E+02 -0.46367291821E+02 -0.18096328045E+02  0.61928807737E+02  0.41800000000E+01 0.  1.
        -11    1    1    2    0    0 -0.47862935232E+02  0.13431518807E+03  0.47286851029E+02  0.15022475360E+03  0.00000000000E+00 0.  1.
         11    1    1    2    0    0  0.22770865403E+02  0.17928575112E+02 -0.14574115562E+02  0.32439959327E+02  0.00000000000E+00 0. -1.
</event>
<event>
 7    1  0.2714042E-009  0.1182386E+03  0.7561462E-02  0.1246031E+00
         -2   -1    0    0    0  501 -0.00000000000E+00  0.00000000000E+00  0.43418370009E+03  0.43418370009E+03  0.00000000000E+00 0.  1.
          2   -1    0    0  501    0  0.00000000000E+00 -0.00000000000E+00 -0.40351097466E+02  0.40351097466E+02  0.00000000000E+00 0. -1.
         25    2    1    2    0    0  0.67803173834E+02  0.19948688133E+01  0.27977763760E+03  0.31388633424E+03  0.12509138434E+03 0.  0.
          5    1    3    3  502    0  0.34534022887E+02 -0.59211229149E+02  0.10262335332E+03  0.12348114609E+03  0.41800000000E+01 0. -1.
         -5    1    3    3    0  502  0.33269150947E+02  0.61206097963E+02  0.17715428428E+03  0.19040518815E+03  0.41800000000E+01 0. -1.
        -11    1    1    2    0    0  0.13996612344E+02 -0.77748080704E+01  0.60792376892E+02  0.62865458606E+02  0.00000000000E+00 0.  1.
         11    1    1    2    0    0 -0.81799786178E+02  0.57799392571E+01  0.53262588138E+02  0.97783004718E+02  0.00000000000E+00 0. -1.
</event>
<event>
 7    1  0.2714042E-009  0.1050161E+03  0.7561462E-02  0.1270088E+00
         -1   -1    0    0    0  501 -0.00000000000E+00  0.00000000000E+00  0.10297204073E+03  0.10297204073E+03  0.00000000000E+00 0.  1.
          1   -1    0    0  501    0  0.00000000000E+00 -0.00000000000E+00 -0.14830166246E+03  0.14830166246E+03  0.00000000000E+00 0. -1.
         25    2    1    2    0    0  0.24953932638E+02  0.43978415955E+02  0.28613849771E+01  0.13495101834E+03  0.12508712965E+03 0.  0.
          5    1    3    3  502    0  0.62362803285E+02  0.66289667454E+02  0.14197212636E+00  0.91109449569E+02  0.41800000000E+01 0.  1.
         -5    1    3    3    0  502 -0.37408870646E+02 -0.22311251498E+02  0.27194128508E+01  0.43841568776E+02  0.41800000000E+01 0.  1.
        -11    1    1    2    0    0 -0.33136405889E+02 -0.28807143910E+01  0.18123026052E+02  0.37878278524E+02  0.00000000000E+00 0.  1.
         11    1    1    2    0    0  0.81824732512E+01 -0.41097701564E+02 -0.66314032762E+02  0.78444406324E+02  0.00000000000E+00 0. -1.
</event>
<event>
 7    1  0.2714042E-009  0.2404269E+03  0.7561462E-02  0.1119509E+00
         -2   -1    0    0    0  501 -0.00000000000E+00  0.00000000000E+00  0.55799683702E+03  0.55799683702E+03  0.00000000000E+00 0. -1.
          2   -1    0    0  501    0  0.00000000000E+00 -0.00000000000E+00 -0.10838176754E+03  0.10838176754E+03  0.00000000000E+00 0.  1.
         25    2    1    2    0    0 -0.19732267484E+02  0.21470621161E+03  0.17184130174E+03  0.30276380923E+03  0.12509345113E+03 0.  0.
          5    1    3    3  502    0 -0.69202014666E+02  0.15770643432E+03  0.13388088674E+03  0.21817837311E+03  0.41800000000E+01 0. -1.
         -5    1    3    3    0  502  0.49469747183E+02  0.56999777291E+02  0.37960414994E+02  0.84585436123E+02  0.41800000000E+01 0. -1.
        -11    1    1    2    0    0  0.51051492373E+02 -0.81619666335E+02  0.93907356000E+02  0.13448649121E+03  0.00000000000E+00 0.  1.
         11    1    1    2    0    0 -0.31319224889E+02 -0.13308654527E+03  0.18386641175E+03  0.22912830412E+03  0.00000000000E+00 0. -1.
</event>
<event>
 7    1  0.2714042E-009  0.1136165E+03  0.7561462E-02  0.1254016E+00
          2   -1    0    0  501    0  0.00000000000E+00  0.00000000000E+00  0.88327493081E+02  0.88327493081E+02  0.00000000000E+00 0. -1.
         -2   -1    0    0    0  501 -0.00000000000E+00 -0.00000000000E+00 -0.16256748492E+03  0.16256748492E+03  0.00000000000E+00 0.  1.
         25    2    1    2    0    0 -0.94346225921E+01  0.46525075075E+02 -0.28049256514E+02  0.13670512245E+03  0.12509170635E+03 0.  0.
          5    1    3    3  502    0 -0.59498173358E+02 -0.13264080390E+01  0.49744209661E+01  0.59866595486E+02  0.41800000000E+01 0. -1.
         -5    1    3    3    0  502  0.50063550766E+02  0.47851483114E+02 -0.33023677480E+02  0.76838526963E+02  0.41800000000E+01 0. -1.
        -11    1    1    2    0    0  0.47343086236E+02 -0.33934189849E+02 -0.46036904809E+02  0.74244822442E+02  0.00000000000E+00 0.  1.
         11    1    1    2    0    0 -0.37908463644E+02 -0.12590885225E+02 -0.15383051909E+00  0.39945033114E+02  0.00000000000E+00 0. -1.
</event>
<event>
 7    1  0.2714042E-009  0.1050056E+03  0.7561462E-02  0.1270108E+00
          2   -1    0    0  501    0  0.00000000000E+00  0.00000000000E+00  0.30624318221E+03  0.30624318221E+03  0.00000000000E+00 0. -1.
         -2   -1    0    0    0  501 -0.00000000000E+00 -0.00000000000E+00 -0.49139624428E+02  0.49139624428E+02  0.00000000000E+00 0.  1.
         25    2    1    2    0    0  0.29543617862E+02 -0.18183153233E+02  0.80858000001E+02  0.15293723310E+03  0.12509327994E+03 0.  0.
          5    1    3    3  502    0  0.66666182890E+02  0.40698800272E+01  0.70742977297E+01  0.67293847809E+02  0.41800000000E+01 0. -1.
         -5    1    3    3    0  502 -0.37122565027E+02 -0.22253033260E+02  0.73783702271E+02  0.85643385292E+02  0.41800000000E+01 0. -1.
        -11    1    1    2    0    0  0.34194960242E+02  0.64603097221E+01  0.61346048907E+02  0.70529204051E+02  0.00000000000E+00 0.  1.
         11    1    1    2    0    0 -0.63738578104E+02  0.11722843510E+02  0.11489950888E+03  0.13191636949E+03  0.00000000000E+00 0. -1.
</event>
<event>
 7    1  0.2714042E-009  0.7008276E+02  0.7561462E-02  0.1359812E+00
         -2   -1    0    0    0  501 -0.00000000000E+00  0.00000000000E+00  0.14715776188E+03  0.14715776188E+03  0.00000000000E+00 0.  1.
          2   -1    0    0  501    0  0.00000000000E+00 -0.00000000000E+00 -0.81709553967E+02  0.81709553967E+02  0.00000000000E+00 0. -1.
         25    2    1    2    0    0 -0.25414056266E+02 -0.12687881072E+02  0.35544031695E+02  0.13311019640E+03  0.12509232436E+03 0.  0.
          5    1    3    3  502    0 -0.43056271560E+02 -0.20125605987E+02 -0.35463811363E+02  0.59447765756E+02  0.41800000000E+01 0. -1.
         -5    1    3    3    0  502  0.17642215295E+02  0.74377249155E+01  0.71007843058E+02  0.73662430643E+02  0.41800000000E+01 0. -1.
        -11    1    1    2    0    0  0.48198178446E+02  0.13518655079E+02  0.45891906267E+02  0.67910864384E+02  0.00000000000E+00 0.  1.
         11    1    1    2    0    0 -0.22784122180E+02 -0.83077400692E+00 -0.15987730049E+02  0.27846255064E+02  0.00000000000E+00 0. -1.
</event>
<event>
 7    1  0.2714042E-009  0.1072851E+03  0.7561462E-02  0.1265682E+00
         -2   -1    0    0    0  501 -0.00000000000E+00  0.00000000000E+00  0.14543740369E+02  0.14543740369E+02  0.00000000000E+00 0.  1.
          2   -1    0    0  501    0  0.00000000000E+00 -0.00000000000E+00 -0.13334856622E+04  0.13334856622E+04  0.00000000000E+00 0. -1.
         25    2    1    2    0    0 -0.41719380415E+02  0.39133446403E+02 -0.10001535238E+04  0.10095687165E+04  0.12509991555E+03 0.  0.
          5    1    3    3  502    0 -0.24576516777E+02  0.69643076381E+02 -0.31737549033E+03  0.32588163116E+03  0.41800000000E+01 0. -1.
         -5    1    3    3    0  502 -0.17142863639E+02 -0.30509629978E+02 -0.68277803348E+03  0.68368708537E+03  0.41800000000E+01 0. -1.
        -11    1    1    2    0    0  0.63792624250E+02 -0.49714625728E+02 -0.17736255485E+03  0.19493208762E+03  0.00000000000E+00 0.  1.
         11    1    1    2    0    0 -0.22073243835E+02  0.10581179325E+02 -0.14142584320E+03  0.14352859845E+03  0.00000000000E+00 0. -1.
</event>
<event>
 7    1  0.2714042E-009  0.1021958E+03  0.7561462E-02  0.1275745E+00
         -3   -1    0    0    0  501 -0.00000000000E+00  0.00000000000E+00  0.53892893072E+02  0.53892893072E+02  0.00000000000E+00 0.  1.
          3   -1    0    0  501    0  0.00000000000E+00 -0.00000000000E+00 -0.25021090656E+03  0.25021090656E+03  0.00000000000E+00 0. -1.
         25    2    1    2    0    0 -0.98215702332E+01 -0.17890843635E+02 -0.51329865470E+02  0.13674315039E+03  0.12508952219E+03 0.  0.
          5    1    3    3  502    0  0.36622475263E+02  0.36029840947E+02 -0.51418347946E+01  0.51800250946E+02  0.41800000000E+01 0. -1.
         -5    1    3    3    0  502 -0.46444045496E+02 -0.53920684582E+02 -0.46188030675E+02  0.84942899441E+02  0.41800000000E+01 0. -1.
        -11    1    1    2    0    0 -0.52278537168E+01 -0.30467764706E+02 -0.37964269202E+02  0.48958154344E+02  0.00000000000E+00 0.  1.
         11    1    1    2    0    0  0.15049423950E+02  0.48358608342E+02 -0.10702387882E+03  0.11840249490E+03  0.00000000000E+00 0. -1.
</event>
<event>
 7    1  0.2714042E-009  0.9105929E+02  0.7561462E-02  0.1300307E+00
          2   -1    0    0  501    0  0.00000000000E+00  0.00000000000E+00  0.12977573533E+04  0.12977573533E+04  0.00000000000E+00 0. -1.
         -2   -1    0    0    0  501 -0.00000000000E+00 -0.00000000000E+00 -0.13100975166E+02  0.13100975166E+02  0.00000000000E+00 0.  1.
         25    2    1    2    0    0  0.25785167128E+02  0.12757734166E+02  0.10463690853E+04  0.10542124422E+04  0.12509187018E+03 0.  0.
          5    1    3    3  502    0  0.38894163275E+02  0.52492889343E+02  0.32003189312E+03  0.32665906444E+03  0.41800000000E+01 0.  1.
         -5    1    3    3    0  502 -0.13108996147E+02 -0.39735155177E+02  0.72633719219E+03  0.72755337777E+03  0.41800000000E+01 0.  1.
        -11    1    1    2    0    0 -0.22352831290E+02  0.26799128330E+02  0.19421598760E+03  0.19732635958E+03  0.00000000000E+00 0. -1.
         11    1    1    2    0    0 -0.34323358381E+01 -0.39556862497E+02  0.44071305181E+02  0.59319526635E+02  0.00000000000E+00 0.  1.
</event>
<event>
 7    1  0.2714042E-009  0.7248898E+02  0.7561462E-02  0.1351828E+00
          2   -1    0    0  501    0  0.00000000000E+00  0.00000000000E+00  0.96584501978E+02  0.96584501978E+02  0.00000000000E+00 0.  1.
         -2   -1    0    0    0  501 -0.00000000000E+00 -0.00000000000E+00 -0.12576362668E+03  0.12576362668E+03  0.00000000000E+00 0. -1.
         25    2    1    2    0    0  0.15232011777E+02  0.10525351892E+02 -0.24118259370E+02  0.12873820444E+03  0.12509611358E+03 0.  0.
          5    1    3    3  502    0  0.29645304635E+02 -0.13859958384E+02 -0.68437322341E+02  0.75974219460E+02  0.41800000000E+01 0.  1.
         -5    1    3    3    0  502 -0.14413292858E+02  0.24385310276E+02  0.44319062971E+02  0.52763984979E+02  0.41800000000E+01 0.  1.
        -11    1    1    2    0    0  0.19667534114E+02  0.26154222889E+02  0.18691029443E+02  0.37685671742E+02  0.00000000000E+00 0. -1.
         11    1    1    2    0    0 -0.34899545891E+02 -0.36679574781E+02 -0.23751894771E+02  0.55924252474E+02  0.00000000000E+00 0.  1.
</event>
<event>
 7    1  0.2714042E-009  0.1560676E+03  0.7561462E-02  0.1193209E+00
          2   -1    0    0  501    0  0.00000000000E+00  0.00000000000E+00  0.12429829378E+04  0.12429829378E+04  0.00000000000E+00 0. -1.
         -2   -1    0    0    0  501 -0.00000000000E+00 -0.00000000000E+00 -0.27358994474E+02  0.27358994474E+02  0.00000000000E+00 0.  1.
         25    2    1    2    0    0  0.50866049747E+02  0.13458650839E+03  0.76430202980E+03  0.78772195980E+03  0.12508960767E+03 0.  0.
          5    1    3    3  502    0  0.46231525250E+02  0.47505733856E+02  0.11683222706E+03  0.13439267226E+03  0.41800000000E+01 0.  1.
         -5    1    3    3    0  502  0.46345244969E+01  0.87080774529E+02  0.64746980273E+03  0.65332928754E+03  0.41800000000E+01 0.  1.
        -11    1    1    2    0    0 -0.19009251597E+02 -0.12308082632E+03  0.25958379003E+03  0.28791315618E+03  0.00000000000E+00 0.  1.
         11    1    1    2    0    0 -0.31856798150E+02 -0.11505682063E+02  0.19173812352E+03  0.19470681631E+03  0.00000000000E+00 0. -1.
</event>
<event>
 7    1  0.2852015E-009  0.1279816E+03  0.7561462E-02  0.1230482E+00
          1   -1    0    0  501    0  0.00000000000E+00  0.00000000000E+00  0.24146358372E+03  0.24146358372E+03  0.00000000000E+00 0. -1.
         -1   -1    0    0    0  501 -0.00000000000E+00 -0.00000000000E+00 -0.76598232262E+02  0.76598232262E+02  0.00000000000E+00 0.  1.
         25    2    1    2    0    0 -0.67535443601E+02  0.35175869187E+02  0.56809715459E+02  0.15707834032E+03  0.12509149975E+03 0.  0.
          5    1    3    3  502    0 -0.80515863941E+02  0.67439188482E+02  0.21392092316E+02  0.10726575643E+03  0.41800000000E+01 0. -1.
         -5    1    3    3    0  502  0.12980420340E+02 -0.32263319295E+02  0.35417623143E+02  0.49812583884E+02  0.41800000000E+01 0. -1.
        -11    1    1    2    0    0  0.44953060380E+02  0.25080507947E+02  0.67622253275E+02  0.84985755597E+02  0.00000000000E+00 0. -1.
         11    1    1    2    0    0  0.22582383222E+02 -0.60256377134E+02  0.40433382727E+02  0.75997720071E+02  0.00000000000E+00 0.  1.
</event>
<event>
 7    1  0.2714042E-009  0.1678598E+03  0.7561462E-02  0.1180098E+00
         -4   -1    0    0    0  501 -0.00000000000E+00  0.00000000000E+00  0.36118659083E+03  0.36118659083E+03  0.00000000000E+00 0.  1.
          4   -1    0    0  501    0  0.00000000000E+00 -0.00000000000E+00 -0.13034462047E+03  0.13034462047E+03  0.00000000000E+00 0. -1.
         25    2    1    2    0    0  0.24305147510E+02  0.13765291909E+03 -0.21641923824E+02  0.18882284571E+03  0.12508648156E+03 0.  0.
          5    1    3    3  502    0  0.66124461733E+02  0.11999496808E+03 -0.34713591977E+02  0.14139923151E+03  0.41800000000E+01 0. -1.
         -5    1    3    3    0  502 -0.41819314223E+02  0.17657951007E+02  0.13071668153E+02  0.47423614204E+02  0.41800000000E+01 0. -1.
        -11    1    1    2    0    0 -0.36691719265E+02 -0.38673295634E+02  0.15217997110E+03  0.16124716947E+03  0.00000000000E+00 0.  1.
         11    1    1    2    0    0  0.12386571755E+02 -0.98979623452E+02  0.10030392309E+03  0.14146119611E+03  0.00000000000E+00 0. -1.
</event>
<event>
 7    1  0.2714042E-009  0.8107132E+02  0.7561462E-02  0.1326038E+00
         -1   -1    0    0    0  501 -0.00000000000E+00  0.00000000000E+00  0.52160611622E+02  0.52160611622E+02  0.00000000000E+00 0.  1.
          1   -1    0    0  501    0  0.00000000000E+00 -0.00000000000E+00 -0.18473784474E+03  0.18473784474E+03  0.00000000000E+00 0. -1.
         25    2    1    2    0    0  0.91549277638E+00  0.57024688871E+01 -0.72518337135E+02  0.14470697861E+03  0.12509134326E+03 0.  0.
          5    1    3    3  502    0  0.36240269523E+02  0.37813341389E+02 -0.80496096078E+02  0.96126478173E+02  0.41800000000E+01 0. -1.
         -5    1    3    3    0  502 -0.35324776747E+02 -0.32110872502E+02  0.79777589426E+01  0.48580500438E+02  0.41800000000E+01 0. -1.
        -11    1    1    2    0    0 -0.31137357050E+02 -0.42115047892E+01 -0.87359331286E+01  0.32612701579E+02  0.00000000000E+00 0. -1.
         11    1    1    2    0    0  0.30221864273E+02 -0.14909640978E+01 -0.51322962853E+02  0.59578776172E+02  0.00000000000E+00 0.  1.
</event>
<event>
 7    1  0.2714042E-009  0.1654417E+03  0.7561462E-02  0.1182687E+00
          2   -1    0    0  501    0  0.00000000000E+00  0.00000000000E+00  0.58764385071E+03  0.58764385071E+03  0.00000000000E+00 0. -1.
         -2   -1    0    0    0  501 -0.00000000000E+00 -0.00000000000E+00 -0.53354435763E+02  0.53354435763E+02  0.00000000000E+00 0.  1.
         25    2    1    2    0    0  0.56460528453E+02  0.12721873567E+03  0.30683945551E+03  0.35939734031E+03  0.12507437302E+03 0.  0.
          5    1    3    3  502    0 -0.42265945047E+01  0.98911731638E+02  0.25810136936E+03  0.27646913756E+03  0.41800000000E+01 0.  1.
         -5    1    3    3    0  502  0.60687122958E+02  0.28307004034E+02  0.48738086143E+02  0.82928202749E+02  0.41800000000E+01 0.  1.
        -11    1    1    2    0    0 -0.30365125738E+02 -0.13427537271E+03  0.20216185862E+03  0.24458400123E+03  0.00000000000E+00 0. -1.
         11    1    1    2    0    0 -0.26095402715E+02  0.70566370356E+01  0.25288100821E+02  0.37016944934E+02  0.00000000000E+00 0.  1.
</event>
<event>
 7    1  0.2714042E-009  0.1138353E+03  0.7561462E-02  0.1253628E+00
         -4   -1    0    0    0  501 -0.00000000000E+00  0.00000000000E+00  0.16677426773E+03  0.16677426773E+03  0.00000000000E+00 0.  1.
          4   -1    0    0  501    0  0.00000000000E+00 -0.00000000000E+00 -0.91963374476E+02  0.91963374476E+02  0.00000000000E+00 0. -1.
         25    2    1    2    0    0  0.65867254743E+01 -0.56879575964E+02  0.23376387103E+02  0.13954441441E+03  0.12509003559E+03 0.  0.
          5    1    3    3  502    0  0.74169107590E+00 -0.88806208618E+02  0.45665571591E+02  0.99949535384E+02  0.41800000000E+01 0. -1.
         -5    1    3    3    0  502  0.58450343984E+01  0.31926632654E+02 -0.22289184488E+02  0.39594879023E+02  0.41800000000E+01 0. -1.
        -11    1    1    2    0    0 -0.71035835576E+00 -0.24467946634E+02  0.38838505160E+01  0.24784457151E+02  0.00000000000E+00 0. -1.
         11    1    1    2    0    0 -0.58763671185E+01  0.81347522598E+02  0.47550655630E+02  0.94408770642E+02  0.00000000000E+00 0.  1.
</event>
<event>
 7    1  0.2714042E-009  0.8010637E+02  0.7561462E-02  0.1328750E+00
          2   -1    0    0  501    0  0.00000000000E+00  0.00000000000E+00  0.17965355663E+03  0.17965355663E+03  0.00000000000E+00 0.  1.
         -2   -1    0    0    0  501 -0.00000000000E+00 -0.00000000000E+00 -0.10225668649E+03  0.10225668649E+03  0.00000000000E+00 0. -1.
         25    2    1    2    0    0  0.16743088300E+02  0.38298359872E+02  0.86200789579E+02  0.15755428398E+03  0.12508269625E+03 0.  0.
          5    1    3    3  502    0  0.13298182303E+02 -0.33450175338E+01 -0.30406156477E+02  0.33616031095E+02  0.41800000000E+01 0.  1.
         -5    1    3    3    0  502  0.34449059973E+01  0.41643377405E+02  0.11660694606E+03  0.12393825288E+03  0.41800000000E+01 0.  1.
        -11    1    1    2    0    0  0.16591456231E+01 -0.68498223629E+02 -0.38130277574E+02  0.78413503125E+02  0.00000000000E+00 0.  1.
         11    1    1    2    0    0 -0.18402233923E+02  0.30199863758E+02  0.29326358135E+02  0.45942456028E+02  0.00000000000E+00 0. -1.
</event>
<event>
 7    1  0.2714042E-009  0.2562622E+03  0.7561462E-02  0.1109410E+00
          2   -1    0    0  501    0  0.00000000000E+00  0.00000000000E+00  0.14387290874E+04  0.14387290874E+04  0.00000000000E+00 0. -1.
         -2   -1    0    0    0  501 -0.00000000000E+00 -0.00000000000E+00 -0.53618056287E+02  0.53618056287E+02  0.00000000000E+00 0.  1.
         25    2    1    2    0    0  0.86269010611E+02 -0.22868020929E+03  0.51058464070E+03  0.57972487078E+03  0.12508904892E+03 0.  0.
          5    1    3    3  502    0 -0.17694052062E+02 -0.95587784571E+02  0.12232334700E+03  0.15630283957E+03  0.41800000000E+01 0.  1.
         -5    1    3    3    0  502  0.10396306267E+03 -0.13309242472E+03  0.38826129371E+03  0.42342203120E+03  0.41800000000E+01 0.  1.
        -11    1    1    2    0    0 -0.62993764025E+02  0.12439372581E+03  0.63832145090E+03  0.65337300832E+03  0.00000000000E+00 0. -1.
         11    1    1    2    0    0 -0.23275246586E+02  0.10428648347E+03  0.23620493947E+03  0.25924926455E+03  0.00000000000E+00 0.  1.
</event>
<event>
 7    1  0.2714042E-009  0.8693191E+02  0.7561462E-02  0.1310456E+00
         -3   -1    0    0    0  501 -0.00000000000E+00  0.00000000000E+00  0.23558269610E+03  0.23558269610E+03  0.00000000000E+00 0.  1.
          3   -1    0    0  501    0  0.00000000000E+00 -0.00000000000E+00 -0.57970933839E+02  0.57970933839E+02  0.00000000000E+00 0. -1.
         25    2    1    2    0    0 -0.10314378293E+02 -0.10505793686E+01  0.15603107669E+03  0.20024757074E+03  0.12508358236E+03 0.  0.
          5    1    3    3  502    0  0.51884373229E+02 -0.76198908670E+00  0.31135995623E+02  0.60658811695E+02  0.41800000000E+01 0.  1.
         -5    1    3    3    0  502 -0.62198751523E+02 -0.28859028186E+00  0.12489508107E+03  0.13958875904E+03  0.41800000000E+01 0.  1.
        -11    1    1    2    0    0 -0.22509167779E+02 -0.10275107466E+02 -0.25022009461E+02  0.35190075661E+02  0.00000000000E+00 0. -1.
         11    1    1    2    0    0  0.32823546073E+02  0.11325686835E+02  0.46602695031E+02  0.58115983544E+02  0.00000000000E+00 0.  1.
</event>
<event>
 7    1  0.2714042E-009  0.1269868E+03  0.7561462E-02  0.1231996E+00
         -2   -1    0    0    0  501 -0.00000000000E+00  0.00000000000E+00  0.32881244590E+02  0.32881244590E+02  0.00000000000E+00 0.  1.
          2   -1    0    0  501    0  0.00000000000E+00 -0.00000000000E+00 -0.80838824689E+03  0.80838824689E+03  0.00000000000E+00 0. -1.
         25    2    1    2    0    0  0.68064246938E+02 -0.66975183869E+02 -0.61038942811E+03  0.63035007886E+03  0.12509017153E+03 0.  0.
          5    1    3    3  502    0  0.99528438514E+02 -0.38356003089E+02 -0.33308483844E+03  0.34977146117E+03  0.41800000000E+01 0. -1.
         -5    1    3    3    0  502 -0.31464191576E+02 -0.28619180780E+02 -0.27730458966E+03  0.28057861769E+03  0.41800000000E+01 0. -1.
        -11    1    1    2    0    0 -0.47303140748E+02  0.68970996331E+02 -0.57968237316E+02  0.10175903890E+03  0.00000000000E+00 0.  1.
         11    1    1    2    0    0 -0.20761106190E+02 -0.19958124613E+01 -0.10714933688E+03  0.10916037372E+03  0.00000000000E+00 0. -1.
</event>
<event>
 7    1  0.2714042E-009  0.1150002E+03  0.7561462E-02  0.1251581E+00
         -4   -1    0    0    0  501 -0.00000000000E+00  0.00000000000E+00  0.61673306994E+03  0.61673306994E+03  0.00000000000E+00 0.  1.
          4   -1    0    0  501    0  0.00000000000E+00 -0.00000000000E+00 -0.39530845965E+02  0.39530845965E+02  0.00000000000E+00 0. -1.
         25    2    1    2    0    0  0.89469932819E+02 -0.54752596816E+02  0.39449568713E+03  0.42693982542E+03  0.12509217252E+03 0.  0.
          5    1    3    3  502    0  0.45916147246E+02 -0.23409316599E+02  0.32739186470E+02  0.61201433090E+02  0.41800000000E+01 0.  1.
         -5    1    3    3    0  502  0.43553785573E+02 -0.31343280217E+02  0.36175650066E+03  0.36573839233E+03  0.41800000000E+01 0.  1.
        -11    1    1    2    0    0 -0.41731379538E+02  0.63452075218E+02  0.15701612618E+03  0.17441828393E+03  0.00000000000E+00 0.  1.
         11    1    1    2    0    0 -0.47738553281E+02 -0.86994784022E+01  0.25690410665E+02  0.54905806560E+02  0.00000000000E+00 0. -1.
</event>
<event>
 7    1  0.2714042E-009  0.9331890E+02  0.7561462E-02  0.1295008E+00
         -1   -1    0    0    0  501 -0.00000000000E+00  0.00000000000E+00  0.16316580261E+03  0.16316580261E+03  0.00000000000E+00 0.  1.
          1   -1    0    0  501    0  0.00000000000E+00 -0.00000000000E+00 -0.77165984306E+02  0.77165984306E+02  0.00000000000E+00 0. -1.
         25    2    1    2    0    0 -0.26139156629E+02 -0.14961346947E+02  0.56981013785E+02  0.14071796853E+03  0.12509042059E+03 0.  0.
          5    1    3    3  502    0  0.27856226429E+02 -0.25214939132E+02 -0.22500606036E+02  0.43994456222E+02  0.41800000000E+01 0.  1.
         -5    1    3    3    0  502 -0.53995383059E+02  0.10253592185E+02  0.79481619821E+02  0.96723512311E+02  0.41800000000E+01 0.  1.
        -11    1    1    2    0    0 -0.15048403840E+02 -0.29493744371E+02  0.17452006308E+01  0.33156916931E+02  0.00000000000E+00 0.  1.
         11    1    1    2    0    0  0.41187560470E+02  0.44455091317E+02  0.27273603888E+02  0.66456901451E+02  0.00000000000E+00 0. -1.
</event>
<event>
 7    1  0.2714042E-009  0.8763853E+02  0.7561462E-02  0.1308673E+00
          2   -1    0    0  501    0  0.00000000000E+00  0.00000000000E+00  0.10452778265E+04  0.10452778265E+04  0.00000000000E+00 0.  1.
         -2   -1    0    0    0  501 -0.00000000000E+00 -0.00000000000E+00 -0.11887145435E+02  0.11887145435E+02  0.00000000000E+00 0. -1.
         25    2    1    2    0    0  0.57458062160E-01 -0.11596208556E+02  0.58892649666E+03  0.60217654877E+03  0.12509077529E+03 0.  0.
          5    1    3    3  502    0  0.16815336021E+02  0.29649457704E+02  0.45964748552E+02  0.57376618732E+02  0.41800000000E+01 0.  1.
         -5    1    3    3    0  502 -0.16757877959E+02 -0.41245666261E+02  0.54296174811E+03  0.54479993003E+03  0.41800000000E+01 0.  1.
        -11    1    1    2    0    0  0.43740615933E+02  0.25045429582E+02  0.19892853556E+03  0.20521471021E+03  0.00000000000E+00 0.  1.
         11    1    1    2    0    0 -0.43798073995E+02 -0.13449221026E+02  0.24553564886E+03  0.24977371297E+03  0.00000000000E+00 0. -1.
</event>
<event>
 7    1  0.2714042E-009  0.1038970E+03  0.7561462E-02  0.1272308E+00
         -2   -1    0    0    0  501 -0.00000000000E+00  0.00000000000E+00  0.61199772650E+02  0.61199772650E+02  0.00000000000E+00 0.  1.
          2   -1    0    0  501    0  0.00000000000E+00 -0.00000000000E+00 -0.37576302437E+03  0.37576302437E+03  0.00000000000E+00 0. -1.
         25    2    1    2    0    0  0.50374488622E+02 -0.57720065282E+02 -0.64350799929E+02  0.16017749072E+03  0.12508640230E+03 0.  0.
          5    1    3    3  502    0  0.52253543264E+02 -0.27142553525E+02 -0.98046777542E+02  0.11444559398E+03  0.41800000000E+01 0. -1.
         -5    1    3    3    0  502 -0.18790546428E+01 -0.30577511757E+02  0.33695977614E+02  0.45731896735E+02  0.41800000000E+01 0. -1.
        -11    1    1    2    0    0  0.19510370002E+02  0.41858199400E+02 -0.11061152440E+03  0.11986522734E+03  0.00000000000E+00 0. -1.
         11    1    1    2    0    0 -0.69884858623E+02  0.15861865882E+02 -0.13960092739E+03  0.15692007896E+03  0.00000000000E+00 0.  1.
</event>
<event>
 7    1  0.2714042E-009  0.1221050E+03  0.7561462E-02  0.1239664E+00
         -1   -1    0    0    0  501 -0.00000000000E+00  0.00000000000E+00  0.38415686472E+03  0.38415686472E+03  0.00000000000E+00 0.  1.
          1   -1    0    0  501    0  0.00000000000E+00 -0.00000000000E+00 -0.54350564465E+02  0.54350564465E+02  0.00000000000E+00 0. -1.
         25    2    1    2    0    0 -0.65512367737E+02 -0.21478189204E+02  0.27804958026E+03  0.31259442123E+03  0.12510203902E+03 0.  0.
          5    1    3    3  502    0 -0.78132237157E+02 -0.60525838610E+02  0.16658315287E+03  0.19374065873E+03  0.41800000000E+01 0.  1.
         -5    1    3    3    0  502  0.12619869420E+02  0.39047649406E+02  0.11146642738E+03  0.11885376250E+03  0.41800000000E+01 0.  1.
        -11    1    1    2    0    0  0.20083337764E+02 -0.29544032320E+02 -0.62817533478E+01  0.36271899959E+02  0.00000000000E+00 0. -1.
         11    1    1    2    0    0  0.45429029973E+02  0.51022221524E+02  0.58038473342E+02  0.89641107988E+02  0.00000000000E+00 0.  1.
</event>
<event>
 7    1  0.2714042E-009  0.2091015E+03  0.7561462E-02  0.1142280E+00
          1   -1    0    0  501    0  0.00000000000E+00  0.00000000000E+00  0.15913656995E+03  0.15913656995E+03  0.00000000000E+00 0. -1.
         -1   -1    0    0    0  501 -0.00000000000E+00 -0.00000000000E+00 -0.37643613579E+03  0.37643613579E+03  0.00000000000E+00 0.  1.
         25    2    1    2    0    0 -0.39390268453E+02 -0.18653888234E+03 -0.22981329578E+03  0.32374338240E+03  0.12508908368E+03 0.  0.
          5    1    3    3  502    0  0.41494623063E+02 -0.34780810886E+02 -0.72940549525E+02  0.90935717482E+02  0.41800000000E+01 0. -1.
         -5    1    3    3    0  502 -0.80884891516E+02 -0.15175807145E+03 -0.15687274626E+03  0.23280766492E+03  0.41800000000E+01 0. -1.
        -11    1    1    2    0    0  0.17619633181E+02  0.13176982435E+03  0.49939666806E+02  0.14201305716E+03  0.00000000000E+00 0. -1.
         11    1    1    2    0    0  0.21770635273E+02  0.54769057991E+02 -0.37425936871E+02  0.69816266185E+02  0.00000000000E+00 0.  1.
</event>
<event>
 7    1  0.3538884E-009  0.1503706E+03  0.7561462E-02  0.1200018E+00
          1   -1    0    0  501    0  0.00000000000E+00  0.00000000000E+00  0.12565450514E+04  0.12565450514E+04  0.00000000000E+00 0. -1.
         -1   -1    0    0    0  501 -0.00000000000E+00 -0.00000000000E+00 -0.20490943678E+02  0.20490943678E+02  0.00000000000E+00 0.  1.
         25    2    1    2    0    0 -0.28164879290E+02 -0.11469144487E+03  0.68788398704E+03  0.70907007098E+03  0.12509435630E+03 0.  0.
          5    1    3    3  502    0 -0.75055035099E+02 -0.72589139147E+02  0.50165087243E+03  0.51241927327E+03  0.41800000000E+01 0.  1.
         -5    1    3    3    0  502  0.46890155809E+02 -0.42102305723E+02  0.18623311461E+03  0.19665079771E+03  0.41800000000E+01 0.  1.
        -11    1    1    2    0    0  0.40209624070E+02  0.37571426970E+02  0.11111907014E+03  0.12399949089E+03  0.00000000000E+00 0.  1.
         11    1    1    2    0    0 -0.12044744780E+02  0.77120017899E+02  0.43705105059E+03  0.44396643326E+03  0.00000000000E+00 0. -1.
</event>
<event>
 7    1  0.2714042E-009  0.9634085E+02  0.7561462E-02  0.1288184E+00
          3   -1    0    0  501    0  0.00000000000E+00  0.00000000000E+00  0.16821332158E+03  0.16821332158E+03  0.00000000000E+00 0. -1.
         -3   -1    0    0    0  501 -0.00000000000E+00 -0.00000000000E+00 -0.10270198677E+03  0.10270198677E+03  0.00000000000E+00 0.  1.
         25    2    1    2    0    0 -0.21690707982E+02 -0.59855743506E+02  0.78495407658E+02  0.16081726054E+03  0.12508982940E+03 0.  0.
          5    1    3    3  502    0 -0.43900474719E+02 -0.60614701977E+02  0.10305505174E+03  0.12743315842E+03  0.41800000000E+01 0.  1.
         -5    1    3    3    0  502  0.22209766736E+02  0.75895847095E+00 -0.24559644083E+02  0.33384102114E+02  0.41800000000E+01 0.  1.
        -11    1    1    2    0    0  0.16722938051E+02  0.76207335870E+02  0.12901442312E+02  0.79080098073E+02  0.00000000000E+00 0. -1.
         11    1    1    2    0    0  0.49677699310E+01 -0.16351592364E+02 -0.25885515157E+02  0.31017949737E+02  0.00000000000E+00 0.  1.
</event>
<event>
 7    1  0.2714042E-009  0.7806944E+02  0.7561462E-02  0.1334621E+00
         -1   -1    0    0    0  501 -0.00000000000E+00  0.00000000000E+00  0.63736593490E+03  0.63736593490E+03  0.00000000000E+00 0.  1.
          1   -1    0    0  501    0  0.00000000000E+00 -0.00000000000E+00 -0.25725422569E+02  0.25725422569E+02  0.00000000000E+00 0. -1.
         25    2    1    2    0    0  0.36142933204E+02  0.50779362177E+02  0.26931791799E+03  0.30341959904E+03  0.12508579809E+03 0.  0.
          5    1    3    3  502    0  0.14431279260E+02 -0.13673023971E+02 -0.48712323189E+01  0.20890541158E+02  0.41800000000E+01 0.  1.
         -5    1    3    3    0  502  0.21711653944E+02  0.64452386148E+02  0.27418915031E+03  0.28252905788E+03  0.41800000000E+01 0.  1.
        -11    1    1    2    0    0 -0.10735466504E+02  0.18635634710E+00 -0.17843870394E+01  0.10884346873E+02  0.00000000000E+00 0. -1.
         11    1    1    2    0    0 -0.25407466699E+02 -0.50965718524E+02  0.34410698137E+03  0.34878741155E+03  0.00000000000E+00 0.  1.
</event>
<event>
 7    1  0.2714042E-009  0.1300232E+03  0.7561462E-02  0.1227421E+00
         -2   -1    0    0    0  501 -0.00000000000E+00  0.00000000000E+00  0.14491588549E+02  0.14491588549E+02  0.00000000000E+00 0.  1.
          2   -1    0    0  501    0  0.00000000000E+00 -0.00000000000E+00 -0.16778158119E+04  0.16778158119E+04  0.00000000000E+00 0. -1.
         25    2    1    2    0    0  0.58207549148E+01  0.99321513034E+02 -0.11804532484E+04  0.11912245932E+04  0.12509003064E+03 0.  0.
          5    1    3    3  502    0  0.16707977490E+02 -0.20785476836E+02 -0.45529852142E+03  0.45609802517E+03  0.41800000000E+01 0. -1.
         -5    1    3    3    0  502 -0.10887222575E+02  0.12010698987E+03 -0.72515472698E+03  0.73512656807E+03  0.41800000000E+01 0. -1.
        -11    1    1    2    0    0  0.19681582043E+02 -0.73496229676E+02 -0.43166039862E+03  0.43831468169E+03  0.00000000000E+00 0. -1.
         11    1    1    2    0    0 -0.25502336958E+02 -0.25825283358E+02 -0.51210576292E+02  0.62768125469E+02  0.00000000000E+00 0.  1.
</event>
<event>
 7    1  0.2714042E-009  0.5747597E+02  0.7561462E-02  0.1408740E+00
         -2   -1    0    0    0  501 -0.00000000000E+00  0.00000000000E+00  0.23865471316E+02  0.23865471316E+02  0.00000000000E+00 0.  1.
          2   -1    0    0  501    0  0.00000000000E+00 -0.00000000000E+00 -0.96242688029E+03  0.96242688029E+03  0.00000000000E+00 0. -1.
         25    2    1    2    0    0  0.80273842194E+01 -0.68042899997E+01 -0.84782626536E+03  0.85706889334E+03  0.12508786687E+03 0.  0.
          5    1    3    3  502    0  0.84008043526E+01 -0.13888986420E+02 -0.84862989143E+03  0.84879540673E+03  0.41800000000E+01 0.  1.
         -5    1    3    3    0  502 -0.37342013319E+00  0.70846964202E+01  0.80362606239E+00  0.82734866175E+01  0.41800000000E+01 0.  1.
        -11    1    1    2    0    0  0.22696010722E+02 -0.32766009632E+02 -0.26940384326E+02  0.48109298452E+02  0.00000000000E+00 0.  1.
         11    1    1    2    0    0 -0.30723394941E+02  0.39570299632E+02 -0.63794759289E+02  0.81114159815E+02  0.00000000000E+00 0. -1.
</event>
<event>
 7    1  0.2714042E-009  0.1291224E+03  0.7561462E-02  0.1228764E+00
          1   -1    0    0  501    0  0.00000000000E+00  0.00000000000E+00  0.47083037754E+03  0.47083037754E+03  0.00000000000E+00 0. -1.
         -1   -1    0    0    0  501 -0.00000000000E+00 -0.00000000000E+00 -0.46257593052E+02  0.46257593052E+02  0.00000000000E+00 0.  1.
         25    2    1    2    0    0 -0.94558595989E+02  0.96217009654E+01  0.27905725665E+03  0.32024071648E+03  0.12508900350E+03 0.  0.
          5    1    3    3  502    0 -0.69137529715E+01 -0.45118967448E+02  0.13743306460E+03  0.14487525962E+03  0.41800000000E+01 0.  1.
         -5    1    3    3    0  502 -0.87644843017E+02  0.54740668413E+02  0.14162419205E+03  0.17536545686E+03  0.41800000000E+01 0.  1.
        -11    1    1    2    0    0  0.14760707399E+02 -0.23736681335E+02  0.10014790209E+03  0.10397552989E+03  0.00000000000E+00 0. -1.
         11    1    1    2    0    0  0.79797888590E+02  0.14114980370E+02  0.45367625752E+02  0.92871724225E+02  0.00000000000E+00 0.  1.
</event>
<event>
 7    1  0.2714042E-009  0.1092313E+03  0.7561462E-02  0.1262000E+00
          1   -1    0    0  501    0  0.00000000000E+00  0.00000000000E+00  0.10678352824E+04  0.10678352824E+04  0.00000000000E+00 0. -1.
         -1   -1    0    0    0  501 -0.00000000000E+00 -0.00000000000E+00 -0.19641545486E+02  0.19641545486E+02  0.00000000000E+00 0.  1.
         25    2    1    2    0    0 -0.90018878445E+02  0.22640158169E+02  0.65643726176E+03  0.67466554437E+03  0.12509093847E+03 0.  0.
          5    1    3    3  502    0 -0.81458355749E+02 -0.11868273335E+02  0.61235765327E+03  0.61787999445E+03  0.41800000000E+01 0. -1.
         -5    1    3    3    0  502 -0.85605226964E+01  0.34508431504E+02  0.44079608499E+02  0.56785549915E+02  0.41800000000E+01 0. -1.
        -11    1    1    2    0    0  0.21685595156E+02 -0.23397410174E+02  0.27254004654E+02  0.41958129246E+02  0.00000000000E+00 0.  1.
         11    1    1    2    0    0  0.68333283290E+02  0.75725200558E+00  0.36450247050E+03  0.37085315427E+03  0.00000000000E+00 0. -1.
</event>
<event>
 7    1  0.2714042E-009  0.1167383E+03  0.7561462E-02  0.1248577E+00
          2   -1    0    0  501    0  0.00000000000E+00  0.00000000000E+00  0.23705400737E+03  0.23705400737E+03  0.00000000000E+00 0.  1.
         -2   -1    0    0    0  501 -0.00000000000E+00 -0.00000000000E+00 -0.82203725304E+02  0.82203725304E+02  0.00000000000E+00 0. -1.
         25    2    1    2    0    0 -0.69483794921E+02 -0.56977574636E+02  0.12294639617E+03  0.19707449924E+03  0.12509236648E+03 0.  0.
          5    1    3    3  502    0  0.14523323088E+02 -0.54354140369E+02  0.11752992178E+02  0.57627291398E+02  0.41800000000E+01 0.  1.
         -5    1    3    3    0  502 -0.84007118009E+02 -0.26234342670E+01  0.11119340400E+03  0.13944720784E+03  0.41800000000E+01 0.  1.
        -11    1    1    2    0    0  0.55198460048E+02  0.55935561961E+02  0.54355407623E+02  0.95551909565E+02  0.00000000000E+00 0.  1.
         11    1    1    2    0    0  0.14285334872E+02  0.10420126742E+01 -0.22451521731E+02  0.26631323866E+02  0.00000000000E+00 0. -1.
</event>
<event>
 7    1  0.2714042E-009  0.1080964E+03  0.7561462E-02  0.1264136E+00
          3   -1    0    0  501    0  0.00000000000E+00  0.00000000000E+00  0.76091813629E+02  0.76091813629E+02  0.00000000000E+00 0. -1.
         -3   -1    0    0    0  501 -0.00000000000E+00 -0.00000000000E+00 -0.15989327812E+03  0.15989327812E+03  0.00000000000E+00 0.  1.
         25    2    1    2    0    0  0.96043224621E+01  0.21310788230E+02 -0.51921733985E+02  0.13744226456E+03  0.12509243351E+03 0.  0.
          5    1    3    3  502    0  0.36486156774E+02  0.64203991952E+02 -0.43921525897E+02  0.86023049562E+02  0.41800000000E+01 0.  1.
         -5    1    3    3    0  502 -0.26881834312E+02 -0.42893203723E+02 -0.80002080881E+01  0.51419214998E+02  0.41800000000E+01 0.  1.
        -11    1    1    2    0    0 -0.25463746525E+02 -0.51433593707E+02 -0.29204910434E+02  0.64395215212E+02  0.00000000000E+00 0. -1.
         11    1    1    2    0    0  0.15859424063E+02  0.30122805477E+02 -0.26748200737E+01  0.34147611979E+02  0.00000000000E+00 0.  1.
</event>
<event>
 7    1  0.2714042E-009  0.7224624E+02  0.7561462E-02  0.1352617E+00
         -1   -1    0    0    0  501 -0.00000000000E+00  0.00000000000E+00  0.35645271781E+02  0.35645271781E+02  0.00000000000E+00 0.  1.
          1   -1    0    0  501    0  0.00000000000E+00 -0.00000000000E+00 -0.42727720743E+03  0.42727720743E+03  0.00000000000E+00 0. -1.
         25    2    1    2    0    0 -0.24720318075E+02 -0.41860174755E+02 -0.29467478912E+03  0.32379665036E+03  0.12509065146E+03 0.  0.
          5    1    3    3  502    0  0.22534155889E+02  0.66937841250E+01 -0.26925193024E+01  0.24027421579E+02  0.41800000000E+01 0. -1.
         -5    1    3    3    0  502 -0.47254473964E+02 -0.48553958880E+02 -0.29198226982E+03  0.29976922878E+03  0.41800000000E+01 0. -1.
        -11    1    1    2    0    0  0.16562791148E+02  0.89456210701E+01  0.13769657558E+02  0.23322814071E+02  0.00000000000E+00 0.  1.
         11    1    1    2    0    0  0.81575269269E+01  0.32914553685E+02 -0.11072680408E+03  0.11580301478E+03  0.00000000000E+00 0. -1.
</event>
<event>
 7    1  0.2714042E-009  0.1089645E+03  0.7561462E-02  0.1262500E+00
         -2   -1    0    0    0  501 -0.00000000000E+00  0.00000000000E+00  0.42615165428E+02  0.42615165428E+02  0.00000000000E+00 0.  1.
          2   -1    0    0  501    0  0.00000000000E+00 -0.00000000000E+00 -0.14090507216E+04  0.14090507216E+04  0.00000000000E+00 0. -1.
         25    2    1    2    0    0  0.28984571696E+02 -0.96812265376E+01 -0.13459974336E+04  0.13521431323E+04  0.12509247529E+03 0.  0.
          5    1    3    3  502    0  0.53948881391E+02 -0.52798332088E+02 -0.94966190191E+03  0.95266644006E+03  0.41800000000E+01 0. -1.
         -5    1    3    3    0  502 -0.24964309695E+02  0.43117105550E+02 -0.39633553174E+03  0.39947669227E+03  0.41800000000E+01 0. -1.
        -11    1    1    2    0    0 -0.32195347989E+02  0.45846613357E+02  0.33407005407E+01  0.56121410073E+02  0.00000000000E+00 0.  1.
         11    1    1    2    0    0  0.32107762927E+01 -0.36165386820E+02 -0.23778823047E+02  0.43401344607E+02  0.00000000000E+00 0. -1.
</event>
<event>
 7    1  0.2714042E-009  0.1176952E+03  0.7561462E-02  0.1246948E+00
          1   -1    0    0  501    0  0.00000000000E+00  0.00000000000E+00  0.13395349444E+03  0.13395349444E+03  0.00000000000E+00 0. -1.
         -1   -1    0    0    0  501 -0.00000000000E+00 -0.00000000000E+00 -0.15078376509E+03  0.15078376509E+03  0.00000000000E+00 0.  1.
         25    2    1    2    0    0 -0.66962403474E+02 -0.34980465084E+02  0.20840836971E+02  0.14761742268E+03  0.12509582958E+03 0.  0.
          5    1    3    3  502    0 -0.87296074192E+02 -0.58968689346E+02  0.37356956729E+02  0.11185224856E+03  0.41800000000E+01 0.  1.
         -5    1    3    3    0  502  0.20333670718E+02  0.23988224261E+02 -0.16516119758E+02  0.35765174121E+02  0.41800000000E+01 0.  1.
        -11    1    1    2    0    0  0.59723954334E+02 -0.27809091775E+01 -0.66229925396E+02  0.89224924741E+02  0.00000000000E+00 0.  1.
         11    1    1    2    0    0  0.72384491407E+01  0.37761374262E+02  0.28558817774E+02  0.47894912097E+02  0.00000000000E+00 0. -1.
</event>
<event>
 7    1  0.2714042E-009  0.1454634E+03  0.7561462E-02  0.1206161E+00
         -2   -1    0    0    0  501 -0.00000000000E+00  0.00000000000E+00  0.52302895502E+02  0.52302895502E+02  0.00000000000E+00 0.  1.
          2   -1    0    0  501    0  0.00000000000E+00 -0.00000000000E+00 -0.68679220557E+03  0.68679220557E+03  0.00000000000E+00 0. -1.
         25    2    1    2    0    0  0.11848645214E+03  0.56927638182E+02 -0.49148328304E+03  0.52391248798E+03  0.12509469305E+03 0.  0.
          5    1    3    3  502    0  0.60454979502E+02 -0.76546894656E+01 -0.36721065946E+03  0.37225601357E+03  0.41800000000E+01 0. -1.
         -5    1    3    3    0  502  0.58031472634E+02  0.64582327648E+02 -0.12427262358E+03  0.15165647441E+03  0.41800000000E+01 0. -1.
        -11    1    1    2    0    0 -0.10472229497E+03 -0.24294408801E+02 -0.55936288264E+02  0.12118517115E+03  0.00000000000E+00 0.  1.
         11    1    1    2    0    0 -0.13764157169E+02 -0.32633229381E+02 -0.87069738765E+02  0.93997441938E+02  0.00000000000E+00 0. -1.
</event>
<event>
 7    1  0.2714042E-009  0.1502721E+03  0.7561462E-02  0.1200139E+00
          1   -1    0    0  501    0  0.00000000000E+00  0.00000000000E+00  0.95618627863E+03  0.95618627863E+03  0.00000000000E+00 0. -1.
         -1   -1    0    0    0  501 -0.00000000000E+00 -0.00000000000E+00 -0.27764780225E+02  0.27764780225E+02  0.00000000000E+00 0.  1.
         25    2    1    2    0    0  0.56169261665E+01  0.11690719395E+03  0.59084044300E+03  0.61517350165E+03  0.12508863335E+03 0.  0.
          5    1    3    3  502    0  0.55315540914E+02  0.66063295905E+02  0.43983703245E+03  0.44821675074E+03  0.41800000000E+01 0.  1.
         -5    1    3    3    0  502 -0.49698614748E+02  0.50843898049E+02  0.15100341055E+03  0.16695675091E+03  0.41800000000E+01 0.  1.
        -11    1    1    2    0    0  0.35380403913E+02 -0.27883285861E+02  0.15673859601E+03  0.16308353103E+03  0.00000000000E+00 0. -1.
         11    1    1    2    0    0 -0.40997330080E+02 -0.89023908092E+02  0.18084245939E+03  0.20569402617E+03  0.00000000000E+00 0.  1.
</event>
<event>
 7    1  0.2714042E-009  0.1120130E+03  0.7561462E-02  0.1256887E+00
         -2   -1    0    0    0  501 -0.00000000000E+00  0.00000000000E+00  0.13511991649E+03  0.13511991649E+03  0.00000000000E+00 0.  1.
          2   -1    0    0  501    0  0.00000000000E+00 -0.00000000000E+00 -0.15245266853E+03  0.15245266853E+03  0.00000000000E+00 0. -1.
         25    2    1    2    0    0 -0.12632867244E+02  0.80411038525E+02 -0.58553285657E+02  0.16031628946E+03  0.12508917201E+03 0.  0.
          5    1    3    3  502    0  0.44740161936E+02  0.64280823462E+02 -0.26158829507E+01  0.78473062885E+02  0.41800000000E+01 0.  1.
         -5    1    3    3    0  502 -0.57373029180E+02  0.16130215063E+02 -0.55937402706E+02  0.81843226579E+02  0.41800000000E+01 0.  1.
        -11    1    1    2    0    0  0.18723151294E+02 -0.32115587756E+02  0.63609882949E+02  0.73676214480E+02  0.00000000000E+00 0.  1.
         11    1    1    2    0    0 -0.60902840498E+01 -0.48295450769E+02 -0.22389349329E+02  0.53580081077E+02  0.00000000000E+00 0. -1.
</event>
<event>
 7    1  0.2714042E-009  0.6659369E+02  0.7561462E-02  0.1372075E+00
         -3   -1    0    0    0  501 -0.00000000000E+00  0.00000000000E+00  0.11720310306E+03  0.11720310306E+03  0.00000000000E+00 0.  1.
          3   -1    0    0  501    0  0.00000000000E+00 -0.00000000000E+00 -0.15704033934E+03  0.15704033934E+03  0.00000000000E+00 0. -1.
         25    2    1    2    0    0 -0.39797934207E+02 -0.40369474711E+02 -0.84189199525E+02  0.16108656043E+03  0.12508992197E+03 0.  0.
          5    1    3    3  502    0 -0.19356292478E+01 -0.91713987730E+01  0.32688025194E+02  0.34261357345E+02  0.41800000000E+01 0.  1.
         -5    1    3    3    0  502 -0.37862304959E+02 -0.31198075938E+02 -0.11687722472E+03  0.12682520308E+03  0.41800000000E+01 0.  1.
        -11    1    1    2    0    0 -0.84469762578E+01  0.19249507030E+02 -0.20670533743E+02  0.29481619596E+02  0.00000000000E+00 0. -1.
         11    1    1    2    0    0  0.48244910465E+02  0.21119967681E+02  0.65022496988E+02  0.83675262385E+02  0.00000000000E+00 0.  1.
</event>
<event>
 7    1  0.2714042E-009  0.1658344E+03  0.7561462E-02  0.1182263E+00
          2   -1    0    0  501    0  0.00000000000E+00  0.00000000000E+00  0.12956575800E+03  0.12956575800E+03  0.00000000000E+00 0. -1.
         -2   -1    0    0    0  501 -0.00000000000E+00 -0.00000000000E+00 -0.23732275788E+03  0.23732275788E+03  0.00000000000E+00 0.  1.
         25    2    1    2    0    0 -0.39789261104E+01  0.13042004753E+03 -0.98133737295E+02  0.20567951920E+03  0.12509441863E+03 0.  0.
          5    1    3    3  502    0  0.17780722989E+02 -0.20709609498E+02 -0.20110191840E+02  0.34160419368E+02  0.41800000000E+01 0. -1.
         -5    1    3    3    0  502 -0.21759649099E+02  0.15112965703E+03 -0.78023545455E+02  0.17151909983E+03  0.41800000000E+01 0. -1.
        -11    1    1    2    0    0 -0.35635824113E+02 -0.47197916585E+02 -0.30738748174E+02  0.66651526085E+02  0.00000000000E+00 0.  1.
         11    1    1    2    0    0  0.39614750223E+02 -0.83222130945E+02  0.21115485589E+02  0.94557470598E+02  0.00000000000E+00 0. -1.
</event>
<event>
 7    1  0.2714042E-009  0.1774904E+03  0.7561462E-02  0.1170254E+00
         -1   -1    0    0    0  501 -0.00000000000E+00  0.00000000000E+00  0.29948682396E+03  0.29948682396E+03  0.00000000000E+00 0.  1.
          1   -1    0    0  501    0  0.00000000000E+00 -0.00000000000E+00 -0.15343449561E+03  0.15343449561E+03  0.00000000000E+00 0. -1.
         25    2    1    2    0    0  0.13641750032E+03 -0.40557311403E+02  0.20060122373E+03  0.27594567905E+03  0.12510210599E+03 0.  0.
          5    1    3    3  502    0  0.64730140396E+02  0.44099088894E+02  0.80251525104E+02  0.11221631075E+03  0.41800000000E+01 0. -1.
         -5    1    3    3    0  502  0.71687359926E+02 -0.84656400297E+02  0.12034969863E+03  0.16372936830E+03  0.41800000000E+01 0. -1.
        -11    1    1    2    0    0 -0.43390556086E+02 -0.26513868174E+02 -0.32042142239E+02  0.60103447840E+02  0.00000000000E+00 0. -1.
         11    1    1    2    0    0 -0.93026944236E+02  0.67071179578E+02 -0.22506753149E+02  0.11687219268E+03  0.00000000000E+00 0.  1.
</event>
<event>
 7    1  0.2714042E-009  0.8567575E+02  0.7561462E-02  0.1313675E+00
          2   -1    0    0  501    0  0.00000000000E+00  0.00000000000E+00  0.15643739530E+03  0.15643739530E+03  0.00000000000E+00 0. -1.
         -2   -1    0    0    0  501 -0.00000000000E+00 -0.00000000000E+00 -0.85683928135E+02  0.85683928135E+02  0.00000000000E+00 0.  1.
         25    2    1    2    0    0  0.51967084593E+01  0.19013440463E+02  0.58217277107E+01  0.12677072265E+03  0.12509359261E+03 0.  0.
          5    1    3    3  502    0  0.34468253264E+02 -0.44403060097E+02  0.69310222065E+01  0.56790876890E+02  0.41800000000E+01 0. -1.
         -5    1    3    3    0  502 -0.29271544805E+02  0.63416500560E+02 -0.11092944957E+01  0.69979845762E+02  0.41800000000E+01 0. -1.
        -11    1    1    2    0    0 -0.22576714601E+02 -0.15211525980E+02 -0.16610195405E+02  0.31890392852E+02  0.00000000000E+00 0.  1.
         11    1    1    2    0    0  0.17380006142E+02 -0.38019144829E+01  0.81541934855E+02  0.83460207927E+02  0.00000000000E+00 0. -1.
</event>
<event>
 7    1  0.2714042E-009  0.1054905E+03  0.7561462E-02  0.1269156E+00
          1   -1    0    0  501    0  0.00000000000E+00  0.00000000000E+00  0.24821963027E+03  0.24821963027E+03  0.00000000000E+00 0. -1.
         -1   -1    0    0    0  501 -0.00000000000E+00 -0.00000000000E+00 -0.60401590243E+02  0.60401590243E+02  0.00000000000E+00 0.  1.
         25    2    1    2    0    0 -0.14674948665E+02  0.27746764458E+01  0.18251157327E+03  0.22177015471E+03  0.12509386153E+03 0.  0.
          5    1    3    3  502    0  0.16439550882E+02  0.58424005901E+02  0.10465067194E+03  0.12104899353E+03  0.41800000000E+01 0.  1.
         -5    1    3    3    0  502 -0.31114499547E+02 -0.55649329455E+02  0.77860901336E+02  0.10072116117E+03  0.41800000000E+01 0.  1.
        -11    1    1    2    0    0 -0.35347504913E+02  0.47500500890E+01  0.64952038338E+01  0.36251851709E+02  0.00000000000E+00 0.  1.
         11    1    1    2    0    0  0.50022453579E+02 -0.75247265348E+01 -0.11887370810E+01  0.50599214098E+02  0.00000000000E+00 0. -1.
</event>
<event>
 7    1  0.2714042E-009  0.9525520E+02  0.7561462E-02  0.1290602E+00
          1   -1    0    0  501    0  0.00000000000E+00  0.00000000000E+00  0.38759527289E+03  0.38759527289E+03  0.00000000000E+00 0. -1.
         -1   -1    0    0    0  501 -0.00000000000E+00 -0.00000000000E+00 -0.45139591869E+02  0.45139591869E+02  0.00000000000E+00 0.  1.
         25    2    1    2    0    0 -0.27362089830E+02 -0.30384822981E+02  0.15613369876E+03  0.20420004178E+03  0.12509198115E+03 0.  0.
          5    1    3    3  502    0 -0.72742219372E+02  0.62498787829E+01  0.85991007714E+02  0.11288231603E+03  0.41800000000E+01 0.  1.
         -5    1    3    3    0  502  0.45380129541E+02 -0.36634701763E+02  0.70142691041E+02  0.91317725755E+02  0.41800000000E+01 0.  1.
        -11    1    1    2    0    0  0.26561295947E+02  0.40679532687E+02  0.20310221018E+03  0.20883207273E+03  0.00000000000E+00 0. -1.
         11    1    1    2    0    0  0.80079388360E+00 -0.10294709706E+02 -0.16780227908E+02  0.19702750251E+02  0.00000000000E+00 0.  1.
</event>
<event>
 7    1  0.2714042E-009  0.1125839E+03  0.7561462E-02  0.1255858E+00
          2   -1    0    0  501    0  0.00000000000E+00  0.00000000000E+00  0.37076017703E+02  0.37076017703E+02  0.00000000000E+00 0.  1.
         -2   -1    0    0    0  501 -0.00000000000E+00 -0.00000000000E+00 -0.46291044688E+03  0.46291044688E+03  0.00000000000E+00 0. -1.
         25    2    1    2    0    0  0.50386425643E+02  0.50493864801E+02 -0.21973995405E+03  0.26272051988E+03  0.12509197370E+03 0.  0.
          5    1    3    3  502    0 -0.27624675057E+02  0.23990959810E+02 -0.11255547772E+02  0.38507772985E+02  0.41800000000E+01 0.  1.
         -5    1    3    3    0  502  0.78011100700E+02  0.26502904992E+02 -0.20848440628E+03  0.22421274689E+03  0.41800000000E+01 0.  1.
        -11    1    1    2    0    0 -0.48909353837E+02 -0.70489390054E+02 -0.11213933831E+03  0.14119529100E+03  0.00000000000E+00 0.  1.
         11    1    1    2    0    0 -0.14770718055E+01  0.19995525253E+02 -0.93955136810E+02  0.96070653710E+02  0.00000000000E+00 0. -1.
</event>
<event>
 7    1  0.2714042E-009  0.1879618E+03  0.7561462E-02  0.1160313E+00
         -1   -1    0    0    0  501 -0.00000000000E+00  0.00000000000E+00  0.14626693842E+04  0.14626693842E+04  0.00000000000E+00 0.  1.
          1   -1    0    0  501    0  0.00000000000E+00 -0.00000000000E+00 -0.51115531697E+02  0.51115531697E+02  0.00000000000E+00 0. -1.
         25    2    1    2    0    0  0.71098865231E+02  0.14186046382E+03  0.12593260301E+04  0.12754343368E+04  0.12510498619E+03 0.  0.
          5    1    3    3  502    0 -0.20407002436E+02 -0.35630152740E+01  0.30679992370E+03  0.30752691982E+03  0.41800000000E+01 0. -1.
         -5    1    3    3    0  502  0.91505867668E+02  0.14542347909E+03  0.95252610640E+03  0.96790741699E+03  0.41800000000E+01 0. -1.
        -11    1    1    2    0    0  0.18573880239E+02 -0.55105622372E+02  0.40479389595E+02  0.70853367077E+02  0.00000000000E+00 0.  1.
         11    1    1    2    0    0 -0.89672745471E+02 -0.86754841443E+02  0.11174843276E+03  0.16749721197E+03  0.00000000000E+00 0. -1.
</event>
<event>
 7    1  0.2714042E-009  0.6936001E+02  0.7561462E-02  0.1362283E+00
          1   -1    0    0  501    0  0.00000000000E+00  0.00000000000E+00  0.27739306863E+02  0.27739306863E+02  0.00000000000E+00 0. -1.
         -1   -1    0    0    0  501 -0.00000000000E+00 -0.00000000000E+00 -0.52449626828E+03  0.52449626828E+03  0.00000000000E+00 0.  1.
         25    2    1    2    0    0 -0.40074132244E+02  0.17796415222E+02 -0.21198148231E+03  0.25001244268E+03  0.12508966458E+03 0.  0.
          5    1    3    3  502    0 -0.39421547185E+02  0.11230649928E+02 -0.34632166815E+01  0.41347940095E+02  0.41800000000E+01 0. -1.
         -5    1    3    3    0  502 -0.65258505855E+00  0.65657652940E+01 -0.20851826562E+03  0.20866450259E+03  0.41800000000E+01 0. -1.
        -11    1    1    2    0    0  0.45520764681E+02 -0.43780698945E+02 -0.25325571816E+03  0.26101216140E+03  0.00000000000E+00 0.  1.
         11    1    1    2    0    0 -0.54466324374E+01  0.25984283723E+02 -0.31519760951E+02  0.41210971062E+02  0.00000000000E+00 0. -1.
</event>
<event>
 7    1  0.2714042E-009  0.9900283E+02  0.7561462E-02  0.1282407E+00
          1   -1    0    0  501    0  0.00000000000E+00  0.00000000000E+00  0.82708411625E+03  0.82708411625E+03  0.00000000000E+00 0. -1.
         -1   -1    0    0    0  501 -0.00000000000E+00 -0.00000000000E+00 -0.18182368386E+02  0.18182368386E+02  0.00000000000E+00 0.  1.
         25    2    1    2    0    0 -0.32701130096E+02 -0.17358911473E+02  0.61173827152E+03  0.62549360661E+03  0.12509134006E+03 0.  0.
          5    1    3    3  502    0  0.34683936070E+02  0.30626245374E+02  0.18128006001E+03  0.18713865150E+03  0.41800000000E+01 0.  1.
         -5    1    3    3    0  502 -0.67385066166E+02 -0.47985156847E+02  0.43045821151E+03  0.43835495511E+03  0.41800000000E+01 0.  1.
        -11    1    1    2    0    0 -0.90650318084E+01  0.24699693237E+02  0.10459314958E+02  0.28313369935E+02  0.00000000000E+00 0.  1.
         11    1    1    2    0    0  0.41766161905E+02 -0.73407817639E+01  0.18670416139E+03  0.19145950809E+03  0.00000000000E+00 0. -1.
</event>
<event>
 7    1  0.2714042E-009  0.1288982E+03  0.7561462E-02  0.1229100E+00
          1   -1    0    0  501    0  0.00000000000E+00  0.00000000000E+00  0.89483131672E+02  0.89483131672E+02  0.00000000000E+00 0. -1.
         -1   -1    0    0    0  501 -0.00000000000E+00 -0.00000000000E+00 -0.36771300723E+03  0.36771300723E+03  0.00000000000E+00 0.  1.
         25    2    1    2    0    0  0.60046282144E+00  0.11760005235E+03 -0.40521835749E+02  0.17641112084E+03  0.12509489004E+03 0.  0.
          5    1    3    3  502    0 -0.31144316857E+01 -0.52270038570E+01  0.32553829073E+02  0.33380315178E+02  0.41800000000E+01 0. -1.
         -5    1    3    3    0  502  0.37148945072E+01  0.12282705621E+03 -0.73075664823E+02  0.14303080566E+03  0.41800000000E+01 0. -1.
        -11    1    1    2    0    0  0.21557115573E+02 -0.87303996802E+02 -0.22304102242E+03  0.24048699502E+03  0.00000000000E+00 0.  1.
         11    1    1    2    0    0 -0.22157578394E+02 -0.30296055552E+02 -0.14667017383E+02  0.40298023044E+02  0.00000000000E+00 0. -1.
</event>
<event>
 7    1  0.2714042E-009  0.1352804E+03  0.7561462E-02  0.1219824E+00
         -1   -1    0    0    0  501 -0.00000000000E+00  0.00000000000E+00  0.75093714632E+03  0.75093714632E+03  0.00000000000E+00 0.  1.
          1   -1    0    0  501    0  0.00000000000E+00 -0.00000000000E+00 -0.37064840933E+02  0.37064840933E+02  0.00000000000E+00 0. -1.
         25    2    1    2    0    0 -0.47143555921E+02 -0.11217127633E+03  0.44628991413E+03  0.47919311900E+03  0.12508576155E+03 0.  0.
          5    1    3    3  502    0 -0.90253534147E+01 -0.13937778666E+02 -0.32687662424E+01  0.17432036919E+02  0.41800000000E+01 0.  1.
         -5    1    3    3    0  502 -0.38118202506E+02 -0.98233497666E+02  0.44955868038E+03  0.46176108208E+03  0.41800000000E+01 0.  1.
        -11    1    1    2    0    0  0.70701275193E+02  0.96745146960E+02  0.24492725350E+03  0.27266766086E+03  0.00000000000E+00 0.  1.
         11    1    1    2    0    0 -0.23557719272E+02  0.15426129371E+02  0.22655137754E+02  0.36141207386E+02  0.00000000000E+00 0. -1.
</event>
<event>
 7    1  0.2714042E-009  0.1245394E+03  0.7561462E-02  0.1235791E+00
          1   -1    0    0  501    0  0.00000000000E+00  0.00000000000E+00  0.14807308175E+03  0.14807308175E+03  0.00000000000E+00 0. -1.
         -1   -1    0    0    0  501 -0.00000000000E+00 -0.00000000000E+00 -0.13728635641E+03  0.13728635641E+03  0.00000000000E+00 0.  1.
         25    2    1    2    0    0 -0.34434916643E+02  0.80304599451E+02 -0.19204592253E+02  0.15378983914E+03  0.12509159077E+03 0.  0.
          5    1    3    3  502    0  0.29406164973E+02  0.39540748382E+02 -0.51447083866E+02  0.71361531369E+02  0.41800000000E+01 0.  1.
         -5    1    3    3    0  502 -0.63841081616E+02  0.40763851069E+02  0.32242491613E+02  0.82428307767E+02  0.41800000000E+01 0.  1.
        -11    1    1    2    0    0  0.17518222131E+02 -0.97841923087E+02  0.37244259964E+02  0.10614643150E+03  0.00000000000E+00 0. -1.
         11    1    1    2    0    0  0.16916694512E+02  0.17537323636E+02 -0.72529423719E+01  0.25423167517E+02  0.00000000000E+00 0.  1.
</event>
<event>
 7    1  0.2714042E-009  0.5428028E+02  0.7561462E-02  0.1423533E+00
          4   -1    0    0  501    0  0.00000000000E+00  0.00000000000E+00  0.37868410351E+03  0.37868410351E+03  0.00000000000E+00 0. -1.
         -4   -1    0    0    0  501 -0.00000000000E+00 -0.00000000000E+00 -0.33940638150E+02  0.33940638150E+02  0.00000000000E+00 0.  1.
         25    2    1    2    0    0  0.19160358724E+02 -0.20225215456E+01  0.23788670176E+03  0.26946171354E+03  0.12509325421E+03 0.  0.
          5    1    3    3  502    0  0.29580037276E+02 -0.19267824328E+02  0.52705371383E+01  0.35937148208E+02  0.41800000000E+01 0.  1.
         -5    1    3    3    0  502 -0.10419678552E+02  0.17245302783E+02  0.23261616463E+03  0.23352456533E+03  0.41800000000E+01 0.  1.
        -11    1    1    2    0    0  0.12139435269E+02  0.14348584752E+02 -0.10189054930E+02  0.21379069517E+02  0.00000000000E+00 0.  1.
         11    1    1    2    0    0 -0.31299793993E+02 -0.12326063206E+02  0.11704581853E+03  0.12178395860E+03  0.00000000000E+00 0. -1.
</event>
<event>
 7    1  0.2714042E-009  0.1021156E+03  0.7561462E-02  0.1275909E+00
         -1   -1    0    0    0  501 -0.00000000000E+00  0.00000000000E+00  0.21945248055E+02  0.21945248055E+02  0.00000000000E+00 0.  1.
          1   -1    0    0  501    0  0.00000000000E+00 -0.00000000000E+00 -0.58427753944E+03  0.58427753944E+03  0.00000000000E+00 0. -1.
         25    2    1    2    0    0 -0.41361309376E+01  0.19965271718E+02 -0.43272492502E+03  0.45090389270E+03  0.12509092718E+03 0.  0.
          5    1    3    3  502    0 -0.58692218199E+02  0.34183783243E+02 -0.19442649232E+03  0.20599136105E+03  0.41800000000E+01 0. -1.
         -5    1    3    3    0  502  0.54556087261E+02 -0.14218511525E+02 -0.23829843270E+03  0.24491253164E+03  0.41800000000E+01 0. -1.
        -11    1    1    2    0    0 -0.51706669199E+01 -0.48941541030E+02 -0.10577593438E+03  0.11666429843E+03  0.00000000000E+00 0. -1.
         11    1    1    2    0    0  0.93067978575E+01  0.28976269312E+02 -0.23831431978E+02  0.38654596360E+02  0.00000000000E+00 0.  1.
</event>
<event>
 7    1  0.2714042E-009  0.7171801E+02  0.7561462E-02  0.1354346E+00
          4   -1    0    0  501    0  0.00000000000E+00  0.00000000000E+00  0.74676679844E+02  0.74676679844E+02  0.00000000000E+00 0.  1.
         -4   -1    0    0    0  501 -0.00000000000E+00 -0.00000000000E+00 -0.18478628528E+03  0.18478628528E+03  0.00000000000E+00 0. -1.
         25    2    1    2    0    0  0.11958983081E+02 -0.92718535166E+01 -0.11480139618E+03  0.17045736431E+03  0.12508943975E+03 0.  0.
          5    1    3    3  502    0  0.53512584948E+02 -0.68020186069E+01 -0.66695438784E+01  0.54514396452E+02  0.41800000000E+01 0. -1.
         -5    1    3    3    0  502 -0.41553601867E+02 -0.24698349098E+01 -0.10813185230E+03  0.11594296786E+03  0.41800000000E+01 0. -1.
        -11    1    1    2    0    0 -0.17222320362E+02 -0.14889837061E+02 -0.35288924693E+02  0.41995520861E+02  0.00000000000E+00 0. -1.
         11    1    1    2    0    0  0.52633372807E+01  0.24161690578E+02  0.39980715437E+02  0.47010079959E+02  0.00000000000E+00 0.  1.
</event>
<event>
 7    1  0.2714042E-009  0.1006660E+03  0.7561462E-02  0.1278902E+00
          1   -1    0    0  501    0  0.00000000000E+00  0.00000000000E+00  0.57909084112E+03  0.57909084112E+03  0.00000000000E+00 0. -1.
         -1   -1    0    0    0  501 -0.00000000000E+00 -0.00000000000E+00 -0.18601379998E+02  0.18601379998E+02  0.00000000000E+00 0.  1.
         25    2    1    2    0    0  0.16140229382E+02 -0.26153154905E+02  0.32955244555E+03  0.35383176359E+03  0.12509039947E+03 0.  0.
          5    1    3    3  502    0 -0.52140196786E+02 -0.29740672618E+02  0.14599538733E+03  0.15790893974E+03  0.41800000000E+01 0.  1.
         -5    1    3    3    0  502  0.68280426168E+02  0.35875177133E+01  0.18355705822E+03  0.19592282385E+03  0.41800000000E+01 0.  1.
        -11    1    1    2    0    0  0.24501411233E+02  0.19845322133E+02  0.57126926758E+02  0.65250607076E+02  0.00000000000E+00 0.  1.
         11    1    1    2    0    0 -0.40641640615E+02  0.63078327722E+01  0.17381008881E+03  0.17860985045E+03  0.00000000000E+00 0. -1.
</event>
<event>
 7    1  0.2714042E-009  0.1142807E+03  0.7561462E-02  0.1252842E+00
         -2   -1    0    0    0  501 -0.00000000000E+00  0.00000000000E+00  0.44632097840E+02  0.44632097840E+02  0.00000000000E+00 0.  1.
          2   -1    0    0  501    0  0.00000000000E+00 -0.00000000000E+00 -0.42091664202E+03  0.42091664202E+03  0.00000000000E+00 0. -1.
         25    2    1    2    0    0  0.72555908262E+02 -0.88395345469E+01 -0.26276396252E+03  0.30005749974E+03  0.12508839258E+03 0.  0.
          5    1    3    3  502    0  0.97366144251E+02 -0.97693111746E+01 -0.11908457291E+03  0.15418888868E+03  0.41800000000E+01 0. -1.
         -5    1    3    3    0  502 -0.24810235989E+02  0.92977662773E+00 -0.14367938961E+03  0.14586861106E+03  0.41800000000E+01 0. -1.
        -11    1    1    2    0    0 -0.29326789813E+02 -0.33780066107E+02 -0.10555030209E+02  0.45962616653E+02  0.00000000000E+00 0.  1.
         11    1    1    2    0    0 -0.43229118449E+02  0.42619600653E+02 -0.10296555145E+03  0.11952862346E+03  0.00000000000E+00 0. -1.
</event>
<event>
 7    1  0.2714042E-009  0.1099771E+03  0.7561462E-02  0.1260612E+00
          1   -1    0    0  501    0  0.00000000000E+00  0.00000000000E+00  0.77024335130E+02  0.77024335130E+02  0.00000000000E+00 0. -1.
         -1   -1    0    0    0  501 -0.00000000000E+00 -0.00000000000E+00 -0.19298302479E+03  0.19298302479E+03  0.00000000000E+00 0.  1.
         25    2    1    2    0    0 -0.25909786589E+02 -0.15948001669E+01 -0.11965044174E+03  0.17503707551E+03  0.12509152316E+03 0.  0.
          5    1    3    3  502    0  0.45004811652E+02 -0.23570646982E+02 -0.65757206742E+02  0.83201509058E+02  0.41800000000E+01 0. -1.
         -5    1    3    3    0  502 -0.70914598241E+02  0.21975846815E+02 -0.53893234999E+02  0.91835566452E+02  0.41800000000E+01 0. -1.
        -11    1    1    2    0    0  0.55375620233E+02 -0.19139526776E+02  0.58160345954E+01  0.58877899587E+02  0.00000000000E+00 0.  1.
         11    1    1    2    0    0 -0.29465833644E+02  0.20734326943E+02 -0.21242825165E+01  0.36092384825E+02  0.00000000000E+00 0. -1.
</event>
<event>
 7    1  0.2714042E-009  0.9158797E+02  0.7561462E-02  0.1299051E+00
         -2   -1    0    0    0  501 -0.00000000000E+00  0.00000000000E+00  0.68750705908E+02  0.68750705908E+02  0.00000000000E+00 0.  1.
          2   -1    0    0  501    0  0.00000000000E+00 -0.00000000000E+00 -0.24005295190E+03  0.24005295190E+03  0.00000000000E+00 0. -1.
         25    2    1    2    0    0 -0.37519933746E+02 -0.17019273295E+02 -0.16226049452E+03  0.20898168635E+03  0.12508987191E+03 0.  0.
          5    1    3    3  502    0 -0.45405755402E+02 -0.59486998492E+02 -0.14310734150E+03  0.16154742091E+03  0.41800000000E+01 0.  1.
         -5    1    3    3    0  502  0.78858216558E+01  0.42467725198E+02 -0.19153153025E+02  0.47434265436E+02  0.41800000000E+01 0.  1.
        -11    1    1    2    0    0  0.24485124794E+02  0.34941835692E+02  0.31895719897E+02  0.53270912940E+02  0.00000000000E+00 0.  1.
         11    1    1    2    0    0  0.13034808952E+02 -0.17922562398E+02 -0.40937471364E+02  0.46551058516E+02  0.00000000000E+00 0. -1.
</event>
<event>
 7    1  0.2714042E-009  0.1232869E+03  0.7561462E-02  0.1237771E+00
          2   -1    0    0  501    0  0.00000000000E+00  0.00000000000E+00  0.28698921440E+03  0.28698921440E+03  0.00000000000E+00 0.  1.
         -2   -1    0    0    0  501 -0.00000000000E+00 -0.00000000000E+00 -0.76310281385E+02  0.76310281385E+02  0.00000000000E+00 0. -1.
         25    2    1    2    0    0 -0.27618822715E+02 -0.53942521386E+02  0.21053065693E+03  0.25228599545E+03  0.12510983579E+03 0.  0.
          5    1    3    3  502    0  0.48055388743E+02 -0.43304955327E+01  0.73457788920E+02  0.87986321277E+02  0.41800000000E+01 0. -1.
         -5    1    3    3    0  502 -0.75674211458E+02 -0.49612025853E+02  0.13707286801E+03  0.16429967417E+03  0.41800000000E+01 0. -1.
        -11    1    1    2    0    0  0.14358065443E+02 -0.24287017642E+02  0.12235580164E+02  0.30752604624E+02  0.00000000000E+00 0.  1.
         11    1    1    2    0    0  0.13260757272E+02  0.78229539028E+02 -0.12087304082E+02  0.80260895708E+02  0.00000000000E+00 0. -1.
</event>
<event>
 7    1  0.2714042E-009  0.1146986E+03  0.7561462E-02  0.1252108E+00
         -3   -1    0    0    0  501 -0.00000000000E+00  0.00000000000E+00  0.15493373762E+03  0.15493373762E+03  0.00000000000E+00 0.  1.
          3   -1    0    0  501    0  0.00000000000E+00 -0.00000000000E+00 -0.11241455685E+03  0.11241455685E+03  0.00000000000E+00 0. -1.
         25    2    1    2    0    0 -0.13585950434E+02  0.61929643724E+02 -0.16430657390E+02  0.14119838464E+03  0.12508860260E+03 0.  0.
          5    1    3    3  502    0 -0.57188731196E+02  0.43648770471E+02  0.26908843988E+02  0.76924147211E+02  0.41800000000E+01 0. -1.
         -5    1    3    3    0  502  0.43602780762E+02  0.18280873253E+02 -0.43339501378E+02  0.64274237427E+02  0.41800000000E+01 0. -1.
        -11    1    1    2    0    0 -0.39718782271E+01 -0.82629815736E+02  0.34545180109E+02  0.89648378312E+02  0.00000000000E+00 0.  1.
         11    1    1    2    0    0  0.17557828661E+02  0.20700172013E+02  0.24404658046E+02  0.36501531515E+02  0.00000000000E+00 0. -1.
</event>
<event>
 7    1  0.2714042E-009  0.1265105E+03  0.7561462E-02  0.1232727E+00
         -2   -1    0    0    0  501 -0.00000000000E+00  0.00000000000E+00  0.53650242502E+02  0.53650242502E+02  0.00000000000E+00 0.  1.
          2   -1    0    0  501    0  0.00000000000E+00 -0.00000000000E+00 -0.34107634706E+03  0.34107634706E+03  0.00000000000E+00 0. -1.
         25    2    1    2    0    0 -0.46362614096E+02 -0.66005113988E+02 -0.16649988218E+03  0.22332772568E+03  0.12508755028E+03 0.  0.
          5    1    3    3  502    0 -0.25169540896E+02 -0.94589699321E+02 -0.15894230767E+03  0.18671059577E+03  0.41800000000E+01 0. -1.
         -5    1    3    3    0  502 -0.21193073201E+02  0.28584585333E+02 -0.75575745092E+01  0.36617129909E+02  0.41800000000E+01 0. -1.
        -11    1    1    2    0    0 -0.13657105353E+02  0.56899254825E+02 -0.42991474321E+02  0.72610664441E+02  0.00000000000E+00 0. -1.
         11    1    1    2    0    0  0.60019719449E+02  0.91058591624E+01 -0.77934748064E+02  0.98788199445E+02  0.00000000000E+00 0.  1.
</event>
<event>
 7    1  0.2714042E-009  0.1053238E+03  0.7561462E-02  0.1269483E+00
          2   -1    0    0  501    0  0.00000000000E+00  0.00000000000E+00  0.15054005764E+03  0.15054005764E+03  0.00000000000E+00 0.  1.
         -2   -1    0    0    0  501 -0.00000000000E+00 -0.00000000000E+00 -0.13266248651E+03  0.13266248651E+03  0.00000000000E+00 0. -1.
         25    2    1    2    0    0  0.27653362519E+02 -0.85473990493E+02 -0.25524315844E+01  0.15402744990E+03  0.12508968345E+03 0.  0.
          5    1    3    3  502    0  0.54304739309E+02 -0.45667874442E+02  0.46816177844E+02  0.85110436349E+02  0.41800000000E+01 0.  1.
         -5    1    3    3    0  502 -0.26651376791E+02 -0.39806116050E+02 -0.49368609428E+02  0.68917013551E+02  0.41800000000E+01 0.  1.
        -11    1    1    2    0    0 -0.25176760079E+02  0.50557544060E+02 -0.32915095844E+02  0.65370773621E+02  0.00000000000E+00 0. -1.
         11    1    1    2    0    0 -0.24766024398E+01  0.34916446433E+02  0.53345098554E+02  0.63804320629E+02  0.00000000000E+00 0.  1.
</event>
<event>
 7    1  0.2714042E-009  0.2528153E+03  0.7561462E-02  0.1111538E+00
          1   -1    0    0  501    0  0.00000000000E+00  0.00000000000E+00  0.27251819405E+03  0.27251819405E+03  0.00000000000E+00 0. -1.
         -1   -1    0    0    0  501 -0.00000000000E+00 -0.00000000000E+00 -0.40370001980E+03  0.40370001980E+03  0.00000000000E+00 0.  1.
         25    2    1    2    0    0  0.12990998458E+03 -0.19978057210E+03 -0.27417177856E+03  0.38419630884E+03  0.12509100081E+03 0.  0.
          5    1    3    3  502    0 -0.18594285890E+01  0.12786881982E+02 -0.37340686557E+02  0.39733626792E+02  0.41800000000E+01 0. -1.
         -5    1    3    3    0  502  0.13176941317E+03 -0.21256745409E+03 -0.23683109200E+03  0.34446268205E+03  0.41800000000E+01 0. -1.
        -11    1    1    2    0    0 -0.11542364650E+03  0.14541302676E+03  0.66795033548E+02  0.19730469591E+03  0.00000000000E+00 0.  1.
         11    1    1    2    0    0 -0.14486338079E+02  0.54367545345E+02  0.76194919263E+02  0.94717209098E+02  0.00000000000E+00 0. -1.
</event>
<event>
 7    1  0.2714042E-009  0.1159314E+03  0.7561462E-02  0.1249964E+00
         -1   -1    0    0    0  501 -0.00000000000E+00  0.00000000000E+00  0.88308422197E+02  0.88308422197E+02  0.00000000000E+00 0.  1.
          1   -1    0    0  501    0  0.00000000000E+00 -0.00000000000E+00 -0.22068706347E+03  0.22068706347E+03  0.00000000000E+00 0. -1.
         25    2    1    2    0    0  0.54155344921E+02 -0.65147544726E+02 -0.46680856269E+02  0.15812210792E+03  0.12508594926E+03 0.  0.
          5    1    3    3  502    0 -0.43070662464E+01 -0.50201094481E+02 -0.75702174919E+02  0.91032919289E+02  0.41800000000E+01 0.  1.
         -5    1    3    3    0  502  0.58462411167E+02 -0.14946450245E+02  0.29021318650E+02  0.67089188627E+02  0.41800000000E+01 0.  1.
        -11    1    1    2    0    0 -0.61792637136E+02  0.81788485402E+02 -0.58316565644E+02  0.11793433841E+03  0.00000000000E+00 0.  1.
         11    1    1    2    0    0  0.76372922146E+01 -0.16640940676E+02 -0.27381219362E+02  0.32939039341E+02  0.00000000000E+00 0. -1.
</event>
<event>
 7    1  0.2714042E-009  0.9099127E+02  0.7561462E-02  0.1300469E+00
         -1   -1    0    0    0  501 -0.00000000000E+00  0.00000000000E+00  0.50292685444E+03  0.50292685444E+03  0.00000000000E+00 0.  1.
          1   -1    0    0  501    0  0.00000000000E+00 -0.00000000000E+00 -0.24296482130E+02  0.24296482130E+02  0.00000000000E+00 0. -1.
         25    2    1    2    0    0  0.12004220983E+02 -0.17392642891E+02  0.29204771741E+03  0.31841051578E+03  0.12508709753E+03 0.  0.
          5    1    3    3  502    0  0.88785779487E+01  0.52681259973E+02  0.16142130486E+03  0.17008366871E+03  0.41800000000E+01 0. -1.
         -5    1    3    3    0  502  0.31256430339E+01 -0.70073902864E+02  0.13062641255E+03  0.14832684707E+03  0.41800000000E+01 0. -1.
        -11    1    1    2    0    0 -0.21572710567E+02  0.33233087411E+02  0.18613095071E+03  0.19030121059E+03  0.00000000000E+00 0.  1.
         11    1    1    2    0    0  0.95684895845E+01 -0.15840444520E+02  0.45170419234E+00  0.18511610200E+02  0.00000000000E+00 0. -1.
</event>
<event>
 7    1  0.2714042E-009  0.1088726E+03  0.7561462E-02  0.1262672E+00
          1   -1    0    0  501    0  0.00000000000E+00  0.00000000000E+00  0.64760243660E+03  0.64760243660E+03  0.00000000000E+00 0. -1.
         -1   -1    0    0    0  501 -0.00000000000E+00 -0.00000000000E+00 -0.21941222836E+02  0.21941222836E+02  0.00000000000E+00 0.  1.
         25    2    1    2    0    0 -0.18105075338E+02  0.45422035962E+02  0.38847459057E+03  0.41103710346E+03  0.12509211726E+03 0.  0.
          5    1    3    3  502    0 -0.22241579983E+02  0.80907776045E+02  0.34255421479E+03  0.35270613629E+03  0.41800000000E+01 0. -1.
         -5    1    3    3    0  502  0.41365046441E+01 -0.35485740084E+02  0.45920375781E+02  0.58330967177E+02  0.41800000000E+01 0. -1.
        -11    1    1    2    0    0  0.26290978648E+02 -0.68448438636E+02  0.13706100386E+03  0.15544170319E+03  0.00000000000E+00 0.  1.
         11    1    1    2    0    0 -0.81859033092E+01  0.23026402674E+02  0.10012561933E+03  0.10306485279E+03  0.00000000000E+00 0. -1.
</event>
<event>
 7    1  0.2714042E-009  0.2001743E+03  0.7561462E-02  0.1149592E+00
          1   -1    0    0  501    0  0.00000000000E+00  0.00000000000E+00  0.21715609452E+04  0.21715609452E+04  0.00000000000E+00 0. -1.
         -1   -1    0    0    0  501 -0.00000000000E+00 -0.00000000000E+00 -0.37022577112E+02  0.37022577112E+02  0.00000000000E+00 0.  1.
         25    2    1    2    0    0 -0.13109681697E+03  0.12669699230E+03  0.18211208324E+04  0.18344935989E+04  0.12508866797E+03 0.  0.
          5    1    3    3  502    0 -0.27031855312E+02 -0.22263115835E+02  0.18709803246E+03  0.19039305050E+03  0.41800000000E+01 0. -1.
         -5    1    3    3    0  502 -0.10406496166E+03  0.14896010814E+03  0.16340227999E+04  0.16441005484E+04  0.41800000000E+01 0. -1.
        -11    1    1    2    0    0  0.38154353507E+02 -0.49520653536E+02  0.37537838054E+02  0.72918715732E+02  0.00000000000E+00 0.  1.
         11    1    1    2    0    0  0.92942463461E+02 -0.77176338767E+02  0.27587969762E+03  0.30117120769E+03  0.00000000000E+00 0. -1.
</event>
<event>
 7    1  0.2714042E-009  0.1379573E+03  0.7561462E-02  0.1216104E+00
         -4   -1    0    0    0  501 -0.00000000000E+00  0.00000000000E+00  0.80741493521E+03  0.80741493521E+03  0.00000000000E+00 0. -1.
          4   -1    0    0  501    0  0.00000000000E+00 -0.00000000000E+00 -0.35890677102E+02  0.35890677102E+02  0.00000000000E+00 0.  1.
         25    2    1    2    0    0  0.12417285292E+03  0.36075158153E+02  0.45582372993E+03  0.49004398205E+03  0.12509003613E+03 0.  0.
          5    1    3    3  502    0  0.10142031850E+03  0.14354275262E+02  0.14486095375E+03  0.17746631946E+03  0.41800000000E+01 0.  1.
         -5    1    3    3    0  502  0.22752534414E+02  0.21720882892E+02  0.31096277619E+03  0.31257766259E+03  0.41800000000E+01 0.  1.
        -11    1    1    2    0    0 -0.56913331231E+02  0.13032969370E+02  0.57434359776E+02  0.81900496001E+02  0.00000000000E+00 0.  1.
         11    1    1    2    0    0 -0.67259521687E+02 -0.49108127523E+02  0.25826616840E+03  0.27136113426E+03  0.00000000000E+00 0. -1.
</event>
<event>
 7    1  0.2714042E-009  0.1203110E+03  0.7561462E-02  0.1242585E+00
         -2   -1    0    0    0  501 -0.00000000000E+00  0.00000000000E+00  0.10958859654E+03  0.10958859654E+03  0.00000000000E+00 0. -1.
          2   -1    0    0  501    0  0.00000000000E+00 -0.00000000000E+00 -0.19874426592E+03  0.19874426592E+03  0.00000000000E+00 0.  1.
         25    2    1    2    0    0  0.92679154239E+02  0.90894467881E+01 -0.89144249704E+02  0.17962768607E+03  0.12508942670E+03 0.  0.
          5    1    3    3  502    0 -0.61824643979E+01  0.26096704235E+02 -0.73069686056E+02  0.77948138260E+02  0.41800000000E+01 0.  1.
         -5    1    3    3    0  502  0.98861618637E+02 -0.17007257447E+02 -0.16074563648E+02  0.10167954780E+03  0.41800000000E+01 0.  1.
        -11    1    1    2    0    0 -0.11912622029E+02 -0.27737004587E+02 -0.28042720998E+02  0.41202502205E+02  0.00000000000E+00 0.  1.
         11    1    1    2    0    0 -0.80766532210E+02  0.18647557799E+02  0.28031301315E+02  0.87502674191E+02  0.00000000000E+00 0. -1.
</event>
<event>
 7    1  0.2714042E-009  0.1073288E+03  0.7561462E-02  0.1265598E+00
         -1   -1    0    0    0  501 -0.00000000000E+00  0.00000000000E+00  0.22250779244E+02  0.22250779244E+02  0.00000000000E+00 0.  1.
          1   -1    0    0  501    0  0.00000000000E+00 -0.00000000000E+00 -0.82327516444E+03  0.82327516444E+03  0.00000000000E+00 0. -1.
         25    2    1    2    0    0  0.60377506193E+02  0.50902810542E+02 -0.48891930497E+03  0.51080644212E+03  0.12507835609E+03 0.  0.
          5    1    3    3  502    0  0.55613540227E+02  0.81159735967E+02 -0.23200289567E+03  0.25203687151E+03  0.41800000000E+01 0. -1.
         -5    1    3    3    0  502  0.47639659662E+01 -0.30256925425E+02 -0.25691640930E+03  0.25876957061E+03  0.41800000000E+01 0. -1.
        -11    1    1    2    0    0 -0.10482324277E+02 -0.28892527384E+02 -0.18035709431E+02  0.35636274715E+02  0.00000000000E+00 0.  1.
         11    1    1    2    0    0 -0.49895181916E+02 -0.22010283158E+02 -0.29406937079E+03  0.29908322685E+03  0.00000000000E+00 0. -1.
</event>
<event>
 7    1  0.2714042E-009  0.1483140E+03  0.7561462E-02  0.1202560E+00
         -1   -1    0    0    0  501 -0.00000000000E+00  0.00000000000E+00  0.98720449427E+02  0.98720449427E+02  0.00000000000E+00 0.  1.
          1   -1    0    0  501    0  0.00000000000E+00 -0.00000000000E+00 -0.28329127672E+03  0.28329127672E+03  0.00000000000E+00 0. -1.
         25    2    1    2    0    0  0.11970527902E+03 -0.30673922606E+02 -0.66190737259E+02  0.18787713328E+03  0.12508541145E+03 0.  0.
          5    1    3    3  502    0  0.83710861187E+02  0.14954099263E+02  0.16497255770E+02  0.86722345525E+02  0.41800000000E+01 0. -1.
         -5    1    3    3    0  502  0.35994417830E+02 -0.45628021868E+02 -0.82687993028E+02  0.10115478775E+03  0.41800000000E+01 0. -1.
        -11    1    1    2    0    0 -0.11335070638E+03  0.56482201794E+02 -0.10425244157E+03  0.16403412246E+03  0.00000000000E+00 0. -1.
         11    1    1    2    0    0 -0.63545726339E+01 -0.25808279189E+02 -0.14127648471E+02  0.30100470418E+02  0.00000000000E+00 0.  1.
</event>
<event>
 7    1  0.2714042E-009  0.8183211E+02  0.7561462E-02  0.1323931E+00
          2   -1    0    0  501    0  0.00000000000E+00  0.00000000000E+00  0.40812748952E+03  0.40812748952E+03  0.00000000000E+00 0. -1.
         -2   -1    0    0    0  501 -0.00000000000E+00 -0.00000000000E+00 -0.34067770693E+02  0.34067770693E+02  0.00000000000E+00 0.  1.
         25    2    1    2    0    0 -0.32648103648E+02 -0.24454591512E+02  0.19051319150E+03  0.23152987768E+03  0.12508749899E+03 0.  0.
          5    1    3    3  502    0 -0.41632341143E+02 -0.28500799212E+02  0.20631983654E+03  0.21244033217E+03  0.41800000000E+01 0.  1.
         -5    1    3    3    0  502  0.89842374951E+01  0.40462077000E+01 -0.15806645039E+02  0.19089545503E+02  0.41800000000E+01 0.  1.
        -11    1    1    2    0    0  0.51416469349E+02  0.49275894272E+02  0.14086964472E+03  0.15784810382E+03  0.00000000000E+00 0.  1.
         11    1    1    2    0    0 -0.18768365701E+02 -0.24821302760E+02  0.42676882611E+02  0.52817278718E+02  0.00000000000E+00 0. -1.
</event>
<event>
 7    1  0.2714042E-009  0.1124752E+03  0.7561462E-02  0.1256054E+00
          1   -1    0    0  501    0  0.00000000000E+00  0.00000000000E+00  0.42712131636E+03  0.42712131636E+03  0.00000000000E+00 0. -1.
         -1   -1    0    0    0  501 -0.00000000000E+00 -0.00000000000E+00 -0.32713912895E+02  0.32713912895E+02  0.00000000000E+00 0.  1.
         25    2    1    2    0    0 -0.11193439220E+02 -0.32078728651E+02  0.16271369481E+03  0.20803250232E+03  0.12508971831E+03 0.  0.
          5    1    3    3  502    0 -0.65780595790E+02 -0.27978758920E+02  0.11406985855E+03  0.13468222883E+03  0.41800000000E+01 0.  1.
         -5    1    3    3    0  502  0.54587156570E+02 -0.40999697311E+01  0.48643836263E+02  0.73350273487E+02  0.41800000000E+01 0.  1.
        -11    1    1    2    0    0 -0.85986297597E+01  0.61986978976E+02  0.14030787378E+03  0.15363144678E+03  0.00000000000E+00 0.  1.
         11    1    1    2    0    0  0.19792068980E+02 -0.29908250325E+02  0.91385834876E+02  0.98171280159E+02  0.00000000000E+00 0. -1.
</event>
<event>
 7    1  0.2714042E-009  0.1374314E+03  0.7561462E-02  0.1216828E+00
          1   -1    0    0  501    0  0.00000000000E+00  0.00000000000E+00  0.15289822479E+04  0.15289822479E+04  0.00000000000E+00 0. -1.
         -1   -1    0    0    0  501 -0.00000000000E+00 -0.00000000000E+00 -0.16057797659E+02  0.16057797659E+02  0.00000000000E+00 0.  1.
         25    2    1    2    0    0  0.10914441007E+03  0.25066505336E+02  0.86743624064E+03  0.88353447613E+03  0.12508679779E+03 0.  0.
          5    1    3    3  502    0  0.55010365973E+02 -0.24450151142E+02  0.14072533161E+03  0.15311773774E+03  0.41800000000E+01 0. -1.
         -5    1    3    3    0  502  0.54134044098E+02  0.49516656478E+02  0.72671090903E+03  0.73041673838E+03  0.41800000000E+01 0. -1.
        -11    1    1    2    0    0 -0.49812476887E+02 -0.55314135125E+02  0.41353721316E+03  0.42018324939E+03  0.00000000000E+00 0.  1.
         11    1    1    2    0    0 -0.59331933184E+02  0.30247629788E+02  0.23195099640E+03  0.24132232001E+03  0.00000000000E+00 0. -1.
</event>
<event>
 7    1  0.2714042E-009  0.1029491E+03  0.7561462E-02  0.1274214E+00
         -1   -1    0    0    0  501 -0.00000000000E+00  0.00000000000E+00  0.41772508945E+02  0.41772508945E+02  0.00000000000E+00 0.  1.
          1   -1    0    0  501    0  0.00000000000E+00 -0.00000000000E+00 -0.32459662963E+03  0.32459662963E+03  0.00000000000E+00 0. -1.
         25    2    1    2    0    0  0.70216309588E+01  0.18311500815E+02 -0.10366158763E+03  0.16364499360E+03  0.12509734137E+03 0.  0.
          5    1    3    3  502    0 -0.58643498101E+02  0.19593392924E+01 -0.48453030295E+02  0.76210677892E+02  0.41800000000E+01 0.  1.
         -5    1    3    3    0  502  0.65665129060E+02  0.16352161523E+02 -0.55208557330E+02  0.87434315709E+02  0.41800000000E+01 0.  1.
        -11    1    1    2    0    0 -0.41048897908E+02 -0.91905366316E+00 -0.14746524491E+03  0.15307467177E+03  0.00000000000E+00 0. -1.
         11    1    1    2    0    0  0.34027266950E+02 -0.17392447152E+02 -0.31697288150E+02  0.49649473211E+02  0.00000000000E+00 0.  1.
</event>
<event>
 7    1  0.2714042E-009  0.1128013E+03  0.7561462E-02  0.1255469E+00
         -1   -1    0    0    0  501 -0.00000000000E+00  0.00000000000E+00  0.46210183683E+02  0.46210183683E+02  0.00000000000E+00 0.  1.
          1   -1    0    0  501    0  0.00000000000E+00 -0.00000000000E+00 -0.40012993857E+03  0.40012993857E+03  0.00000000000E+00 0. -1.
         25    2    1    2    0    0  0.38709869052E+02 -0.97866494157E+01 -0.78856279593E+02  0.15316966140E+03  0.12509356447E+03 0.  0.
          5    1    3    3  502    0  0.79318362424E+02 -0.30732360255E+02 -0.46589302491E+02  0.97076856619E+02  0.41800000000E+01 0.  1.
         -5    1    3    3    0  502 -0.40608493373E+02  0.20945710840E+02 -0.32266977102E+02  0.56092804778E+02  0.41800000000E+01 0.  1.
        -11    1    1    2    0    0 -0.23233621046E+02 -0.37879610586E+02 -0.77365672717E+02  0.89219467382E+02  0.00000000000E+00 0.  1.
         11    1    1    2    0    0 -0.15476248006E+02  0.47666260002E+02 -0.19769780257E+03  0.20395099347E+03  0.00000000000E+00 0. -1.
</event>
<event>
 7    1  0.2714042E-009  0.2999224E+03  0.7561462E-02  0.1085279E+00
          2   -1    0    0  501    0  0.00000000000E+00  0.00000000000E+00  0.11895414645E+04  0.11895414645E+04  0.00000000000E+00 0. -1.
         -2   -1    0    0    0  501 -0.00000000000E+00 -0.00000000000E+00 -0.82529064082E+02  0.82529064082E+02  0.00000000000E+00 0.  1.
         25    2    1    2    0    0  0.28730063267E+03  0.18580886724E+02  0.68085327982E+03  0.74972712542E+03  0.12507066427E+03 0.  0.
          5    1    3    3  502    0  0.17901585161E+03 -0.36431019639E+02  0.49514795603E+03  0.52779055039E+03  0.41800000000E+01 0.  1.
         -5    1    3    3    0  502  0.10828478106E+03  0.55011906364E+02  0.18570532378E+03  0.22193657502E+03  0.41800000000E+01 0.  1.
        -11    1    1    2    0    0 -0.58218094369E+02 -0.31391354465E+02  0.55138885092E+02  0.86110744372E+02  0.00000000000E+00 0.  1.
         11    1    1    2    0    0 -0.22908253830E+03  0.12810467741E+02  0.37102023550E+03  0.43623265879E+03  0.00000000000E+00 0. -1.
</event>
<event>
 7    1  0.2714042E-009  0.9262329E+02  0.7561462E-02  0.1296621E+00
         -2   -1    0    0    0  501 -0.00000000000E+00  0.00000000000E+00  0.13277207972E+03  0.13277207972E+03  0.00000000000E+00 0.  1.
          2   -1    0    0  501    0  0.00000000000E+00 -0.00000000000E+00 -0.11696062795E+03  0.11696062795E+03  0.00000000000E+00 0. -1.
         25    2    1    2    0    0 -0.31936060513E+02  0.49175937341E+02  0.45366892228E+02  0.14541048277E+03  0.12509144181E+03 0.  0.
          5    1    3    3  502    0 -0.47614316606E+02 -0.33355427795E+01  0.70286196658E+02  0.85063922036E+02  0.41800000000E+01 0. -1.
         -5    1    3    3    0  502  0.15678256093E+02  0.52511480120E+02 -0.24919304430E+02  0.60346560729E+02  0.41800000000E+01 0. -1.
        -11    1    1    2    0    0  0.21539920875E+02 -0.62132250300E+02  0.50321920842E+01  0.65952313650E+02  0.00000000000E+00 0.  1.
         11    1    1    2    0    0  0.10396139639E+02  0.12956312959E+02 -0.34587632539E+02  0.38369911253E+02  0.00000000000E+00 0. -1.
</event>
<event>
 7    1  0.2714042E-009  0.1618322E+03  0.7561462E-02  0.1186644E+00
         -2   -1    0    0    0  501 -0.00000000000E+00  0.00000000000E+00  0.40489300393E+02  0.40489300393E+02  0.00000000000E+00 0.  1.
          2   -1    0    0  501    0  0.00000000000E+00 -0.00000000000E+00 -0.76298863428E+03  0.76298863428E+03  0.00000000000E+00 0. -1.
         25    2    1    2    0    0  0.62920668801E+02  0.10116904365E+03 -0.53629922268E+03  0.56343447103E+03  0.12508941178E+03 0.  0.
          5    1    3    3  502    0  0.82485683662E+02  0.11973195541E+03 -0.45202429901E+03  0.47485057487E+03  0.41800000000E+01 0.  1.
         -5    1    3    3    0  502 -0.19565014860E+02 -0.18562911763E+02 -0.84274923671E+02  0.88583896163E+02  0.41800000000E+01 0.  1.
        -11    1    1    2    0    0  0.21060837416E+02 -0.45564858515E+02 -0.72026886346E+02  0.87792867368E+02  0.00000000000E+00 0. -1.
         11    1    1    2    0    0 -0.83981506217E+02 -0.55604185134E+02 -0.11417322486E+03  0.15225059627E+03  0.00000000000E+00 0.  1.
</event>
<event>
 7    1  0.2714042E-009  0.1492723E+03  0.7561462E-02  0.1201370E+00
         -3   -1    0    0    0  501 -0.00000000000E+00  0.00000000000E+00  0.21039491595E+03  0.21039491595E+03  0.00000000000E+00 0.  1.
          3   -1    0    0  501    0  0.00000000000E+00 -0.00000000000E+00 -0.17252273185E+03  0.17252273185E+03  0.00000000000E+00 0. -1.
         25    2    1    2    0    0  0.34427548630E+02 -0.10887276039E+03  0.13684125546E+03  0.21774229358E+03  0.12509053984E+03 0.  0.
          5    1    3    3  502    0  0.77832036357E+02 -0.39741844441E+02  0.66252633211E+02  0.10974572379E+03  0.41800000000E+01 0. -1.
         -5    1    3    3    0  502 -0.43404487727E+02 -0.69130915950E+02  0.70588622247E+02  0.10799656979E+03  0.41800000000E+01 0. -1.
        -11    1    1    2    0    0  0.10939246276E+02  0.65996643032E+02 -0.68380812224E+02  0.95661692860E+02  0.00000000000E+00 0. -1.
         11    1    1    2    0    0 -0.45366794906E+02  0.42876117359E+02 -0.30588259131E+02  0.69513661366E+02  0.00000000000E+00 0.  1.
</event>
<event>
 7    1  0.2714042E-009  0.1777255E+03  0.7561462E-02  0.1170023E+00
          1   -1    0    0  501    0  0.00000000000E+00  0.00000000000E+00  0.73030713512E+03  0.73030713512E+03  0.00000000000E+00 0. -1.
         -1   -1    0    0    0  501 -0.00000000000E+00 -0.00000000000E+00 -0.59927364821E+02  0.59927364821E+02  0.00000000000E+00 0.  1.
         25    2    1    2    0    0  0.28174375781E-01 -0.14743325813E+03  0.16268678676E+03  0.25269726306E+03  0.12510935127E+03 0.  0.
          5    1    3    3  502    0  0.15849024603E+02 -0.16700843933E+03  0.14287513828E+03  0.22039461864E+03  0.41800000000E+01 0. -1.
         -5    1    3    3    0  502 -0.15820850227E+02  0.19575181199E+02  0.19811648481E+02  0.32302644418E+02  0.41800000000E+01 0. -1.
        -11    1    1    2    0    0  0.33241887467E+02  0.87098326104E+02  0.18033483871E+03  0.20300688546E+03  0.00000000000E+00 0.  1.
         11    1    1    2    0    0 -0.33270061843E+02  0.60334932023E+02  0.32735814483E+03  0.33453035142E+03  0.00000000000E+00 0. -1.
</event>
<event>
 7    1  0.2714042E-009  0.1015844E+03  0.7561462E-02  0.1276999E+00
         -1   -1    0    0    0  501 -0.00000000000E+00  0.00000000000E+00  0.37964624410E+02  0.37964624410E+02  0.00000000000E+00 0.  1.
          1   -1    0    0  501    0  0.00000000000E+00 -0.00000000000E+00 -0.35890143925E+03  0.35890143925E+03  0.00000000000E+00 0. -1.
         25    2    1    2    0    0  0.29318049244E+02  0.16112155584E+02 -0.22619811754E+03  0.26063900426E+03  0.12509177668E+03 0.  0.
          5    1    3    3  502    0 -0.11224551817E+02 -0.44620993900E+02 -0.14087258712E+03  0.14825512424E+03  0.41800000000E+01 0.  1.
         -5    1    3    3    0  502  0.40542601061E+02  0.60733149484E+02 -0.85325530415E+02  0.11238388002E+03  0.41800000000E+01 0.  1.
        -11    1    1    2    0    0  0.57102049353E+01  0.27387672112E+02 -0.69537984913E+02  0.74954802180E+02  0.00000000000E+00 0. -1.
         11    1    1    2    0    0 -0.35028254179E+02 -0.43499827696E+02 -0.25200712389E+02  0.61272257224E+02  0.00000000000E+00 0.  1.
</event>
<event>
 7    1  0.2714042E-009  0.5330893E+02  0.7561462E-02  0.1428270E+00
         -3   -1    0    0    0  501 -0.00000000000E+00  0.00000000000E+00  0.94749919467E+02  0.94749919467E+02  0.00000000000E+00 0.  1.
          3   -1    0    0  501    0  0.00000000000E+00 -0.00000000000E+00 -0.14987052300E+03  0.14987052300E+03  0.00000000000E+00 0. -1.
         25    2    1    2    0    0  0.13059389538E+02 -0.17522948523E+02 -0.74597469263E+02  0.14727604075E+03  0.12509136013E+03 0.  0.
          5    1    3    3  502    0  0.13669493571E+02 -0.56123395620E+01  0.34335119477E+02  0.37612846732E+02  0.41800000000E+01 0. -1.
         -5    1    3    3    0  502 -0.61010403266E+00 -0.11910608961E+02 -0.10893258874E+03  0.10966319402E+03  0.41800000000E+01 0. -1.
        -11    1    1    2    0    0 -0.22199865715E+02 -0.25978775340E+02  0.36264704460E+02  0.49828301150E+02  0.00000000000E+00 0.  1.
         11    1    1    2    0    0  0.91404761774E+01  0.43501723863E+02 -0.16787838728E+02  0.47516100565E+02  0.00000000000E+00 0. -1.
</event>
<event>
 7    1  0.2714042E-009  0.1670639E+03  0.7561462E-02  0.1180945E+00
         -2   -1    0    0    0  501 -0.00000000000E+00  0.00000000000E+00  0.69146914000E+02  0.69146914000E+02  0.00000000000E+00 0.  1.
          2   -1    0    0  501    0  0.00000000000E+00 -0.00000000000E+00 -0.47604759131E+03  0.47604759131E+03  0.00000000000E+00 0. -1.
         25    2    1    2    0    0 -0.13040252999E+03  0.10841640896E+02 -0.12101989148E+03  0.21774901671E+03  0.12508580710E+03 0.  0.
          5    1    3    3  502    0  0.10605475264E+02  0.32060787749E+02 -0.61172051385E+01  0.34572573167E+02  0.41800000000E+01 0.  1.
         -5    1    3    3    0  502 -0.14100800526E+03 -0.21219146853E+02 -0.11490268634E+03  0.18317644354E+03  0.41800000000E+01 0.  1.
        -11    1    1    2    0    0 -0.68317310263E+01  0.16190223513E+02 -0.52467578046E+02  0.55332112126E+02  0.00000000000E+00 0. -1.
         11    1    1    2    0    0  0.13723426102E+03 -0.27031864409E+02 -0.23341320778E+03  0.27211337648E+03  0.00000000000E+00 0.  1.
</event>
<event>
 7    1  0.2714042E-009  0.2888217E+03  0.7561462E-02  0.1090966E+00
          2   -1    0    0  501    0  0.00000000000E+00  0.00000000000E+00  0.60076029544E+03  0.60076029544E+03  0.00000000000E+00 0. -1.
         -2   -1    0    0    0  501 -0.00000000000E+00 -0.00000000000E+00 -0.27694895249E+03  0.27694895249E+03  0.00000000000E+00 0.  1.
         25    2    1    2    0    0  0.13027437701E+03 -0.24608307821E+03 -0.13431104917E+03  0.33349291607E+03  0.12509905059E+03 0.  0.
          5    1    3    3  502    0  0.67697742799E+02 -0.22034413175E+03 -0.72302615074E+02  0.24161883478E+03  0.41800000000E+01 0.  1.
         -5    1    3    3    0  502  0.62576634211E+02 -0.25738946459E+02 -0.62008434096E+02  0.91874081290E+02  0.41800000000E+01 0.  1.
        -11    1    1    2    0    0 -0.64497959859E+02  0.98652437787E+02  0.11337872637E+03  0.16354518000E+03  0.00000000000E+00 0.  1.
         11    1    1    2    0    0 -0.65776417150E+02  0.14743064042E+03  0.34474366575E+03  0.38067115187E+03  0.00000000000E+00 0. -1.
</event>
<event>
 7    1  0.2714042E-009  0.1276834E+03  0.7561462E-02  0.1230934E+00
          2   -1    0    0  501    0  0.00000000000E+00  0.00000000000E+00  0.87663657874E+03  0.87663657874E+03  0.00000000000E+00 0.  1.
         -2   -1    0    0    0  501 -0.00000000000E+00 -0.00000000000E+00 -0.34994991864E+02  0.34994991864E+02  0.00000000000E+00 0. -1.
         25    2    1    2    0    0  0.94941359006E+02 -0.41061689418E+02  0.21181539999E+03  0.26685463528E+03  0.12508280742E+03 0.  0.
          5    1    3    3  502    0  0.68366781277E+02  0.68984492733E+00  0.20570828857E+03  0.21681297253E+03  0.41800000000E+01 0. -1.
         -5    1    3    3    0  502  0.26574577728E+02 -0.41751534345E+02  0.61071114160E+01  0.50041662757E+02  0.41800000000E+01 0. -1.
        -11    1    1    2    0    0 -0.85581668801E+02  0.67600873140E+02  0.46955817272E+03  0.48205702739E+03  0.00000000000E+00 0. -1.
         11    1    1    2    0    0 -0.93596902051E+01 -0.26539183722E+02  0.16026801417E+03  0.16271990793E+03  0.00000000000E+00 0.  1.
</event>
<event>
 7    1  0.2890540E-009  0.1129082E+03  0.7561462E-02  0.1255277E+00
          1   -1    0    0  501    0  0.00000000000E+00  0.00000000000E+00  0.23531924007E+03  0.23531924007E+03  0.00000000000E+00 0. -1.
         -1   -1    0    0    0  501 -0.00000000000E+00 -0.00000000000E+00 -0.92622051716E+02  0.92622051716E+02  0.00000000000E+00 0.  1.
         25    2    1    2    0    0  0.66750497606E+02 -0.24520757074E+02  0.28626372196E+00  0.14388991961E+03  0.12508929035E+03 0.  0.
          5    1    3    3  502    0  0.76007831909E+02  0.71360992965E+01 -0.44230512965E+02  0.88328506734E+02  0.41800000000E+01 0.  1.
         -5    1    3    3    0  502 -0.92573343028E+01 -0.31656856371E+02  0.44516776687E+02  0.55561412872E+02  0.41800000000E+01 0.  1.
        -11    1    1    2    0    0 -0.64496222686E+02 -0.23048440135E+02  0.75689962243E+02  0.10207822352E+03  0.00000000000E+00 0. -1.
         11    1    1    2    0    0 -0.22542749201E+01  0.47569197210E+02  0.66720962394E+02  0.81973148660E+02  0.00000000000E+00 0.  1.
</event>
<event>
 7    1  0.2714042E-009  0.1711322E+03  0.7561462E-02  0.1176672E+00
         -2   -1    0    0    0  501 -0.00000000000E+00  0.00000000000E+00  0.13357049191E+03  0.13357049191E+03  0.00000000000E+00 0.  1.
          2   -1    0    0  501    0  0.00000000000E+00 -0.00000000000E+00 -0.30141322413E+03  0.30141322413E+03  0.00000000000E+00 0. -1.
         25    2    1    2    0    0  0.16317875034E+03  0.13653110441E+02 -0.44607673012E+02  0.21083378615E+03  0.12508928374E+03 0.  0.
          5    1    3    3  502    0  0.61758118306E+02 -0.15342769489E+01  0.43414525362E+02  0.75622169996E+02  0.41800000000E+01 0.  1.
         -5    1    3    3    0  502  0.10142063203E+03  0.15187387390E+02 -0.88022198373E+02  0.13521161616E+03  0.41800000000E+01 0.  1.
        -11    1    1    2    0    0 -0.42657528648E+02 -0.35165048452E+02 -0.77026900444E+01  0.55817352293E+02  0.00000000000E+00 0.  1.
         11    1    1    2    0    0 -0.12052122169E+03  0.21511938011E+02 -0.11553236916E+03  0.16833257759E+03  0.00000000000E+00 0. -1.
</event>
<event>
 7    1  0.2714042E-009  0.1713651E+03  0.7561462E-02  0.1176432E+00
          1   -1    0    0  501    0  0.00000000000E+00  0.00000000000E+00  0.19331495174E+03  0.19331495174E+03  0.00000000000E+00 0. -1.
         -1   -1    0    0    0  501 -0.00000000000E+00 -0.00000000000E+00 -0.16263705718E+03  0.16263705718E+03  0.00000000000E+00 0.  1.
         25    2    1    2    0    0 -0.57166240411E+02  0.12655218140E+03  0.30759659492E+02  0.18941279933E+03  0.12509044024E+03 0.  0.
          5    1    3    3  502    0  0.38125802469E+02  0.55951144749E+02  0.17117218350E+02  0.69961267689E+02  0.41800000000E+01 0.  1.
         -5    1    3    3    0  502 -0.95292042879E+02  0.70601036649E+02  0.13642441142E+02  0.11945153165E+03  0.41800000000E+01 0.  1.
        -11    1    1    2    0    0  0.49826776667E+02 -0.27519973146E+02 -0.27929866522E+02  0.63404526959E+02  0.00000000000E+00 0.  1.
         11    1    1    2    0    0  0.73394637439E+01 -0.99032208252E+02  0.27848101587E+02  0.10313468263E+03  0.00000000000E+00 0. -1.
</event>
<event>
 7    1  0.2714042E-009  0.9822911E+02  0.7561462E-02  0.1284065E+00
         -1   -1    0    0    0  501 -0.00000000000E+00  0.00000000000E+00  0.83308066963E+02  0.83308066963E+02  0.00000000000E+00 0.  1.
          1   -1    0    0  501    0  0.00000000000E+00 -0.00000000000E+00 -0.17626767381E+03  0.17626767381E+03  0.00000000000E+00 0. -1.
         25    2    1    2    0    0  0.46838001473E+02 -0.15686879523E+02 -0.40825294929E+02  0.14054986489E+03  0.12509070006E+03 0.  0.
          5    1    3    3  502    0 -0.37159943441E+02 -0.27332651017E+02  0.49947384652E-01  0.46318571901E+02  0.41800000000E+01 0. -1.
         -5    1    3    3    0  502  0.83997944915E+02  0.11645771493E+02 -0.40875242314E+02  0.94231292986E+02  0.41800000000E+01 0. -1.
        -11    1    1    2    0    0 -0.29019674768E+02 -0.12734077238E+02 -0.72957900589E+02  0.79543406421E+02  0.00000000000E+00 0. -1.
         11    1    1    2    0    0 -0.17818326706E+02  0.28420956761E+02  0.20823588672E+02  0.39482469465E+02  0.00000000000E+00 0.  1.
</event>
<event>
 7    1  0.2714042E-009  0.8546267E+02  0.7561462E-02  0.1314227E+00
         -2   -1    0    0    0  501 -0.00000000000E+00  0.00000000000E+00  0.41687345949E+02  0.41687345949E+02  0.00000000000E+00 0.  1.
          2   -1    0    0  501    0  0.00000000000E+00 -0.00000000000E+00 -0.27889662829E+03  0.27889662829E+03  0.00000000000E+00 0. -1.
         25    2    1    2    0    0  0.72296740001E+01 -0.33350543544E+01 -0.12348183170E+03  0.17595326606E+03  0.12509355820E+03 0.  0.
          5    1    3    3  502    0  0.14210286338E+02  0.37321799817E+02 -0.12808880096E+03  0.13423510089E+03  0.41800000000E+01 0. -1.
         -5    1    3    3    0  502 -0.69806123383E+01 -0.40656854172E+02  0.46069692562E+01  0.41718165174E+02  0.41800000000E+01 0. -1.
        -11    1    1    2    0    0  0.18222934518E+02  0.40415095240E+02 -0.54155039037E+02  0.69987309698E+02  0.00000000000E+00 0.  1.
         11    1    1    2    0    0 -0.25452608518E+02 -0.37080040885E+02 -0.59572411601E+02  0.74643398478E+02  0.00000000000E+00 0. -1.
</event>
<event>
 7    1  0.2714042E-009  0.1196321E+03  0.7561462E-02  0.1243705E+00
          1   -1    0    0  501    0  0.00000000000E+00  0.00000000000E+00  0.83182490380E+03  0.83182490380E+03  0.00000000000E+00 0. -1.
         -1   -1    0    0    0  501 -0.00000000000E+00 -0.00000000000E+00 -0.30686562939E+02  0.30686562939E+02  0.00000000000E+00 0.  1.
         25    2    1    2    0    0  0.98269732935E+02  0.57744025973E+02  0.45241759388E+03  0.48303243231E+03  0.12508932195E+03 0.  0.
          5    1    3    3  502    0  0.35043751029E+02 -0.45869904109E+01  0.18509840956E+02  0.40114730205E+02  0.41800000000E+01 0.  1.
         -5    1    3    3    0  502  0.63225981906E+02  0.62331016384E+02  0.43390775292E+03  0.44291770211E+03  0.41800000000E+01 0.  1.
        -11    1    1    2    0    0 -0.18084303912E+02 -0.48182368816E+01  0.10140920515E+01  0.18742620877E+02  0.00000000000E+00 0.  1.
         11    1    1    2    0    0 -0.80185429023E+02 -0.52925789091E+02  0.34770665493E+03  0.36073641355E+03  0.00000000000E+00 0. -1.
</event>
<event>
 7    1  0.2714042E-009  0.1805737E+03  0.7561462E-02  0.1167249E+00
          1   -1    0    0  501    0  0.00000000000E+00  0.00000000000E+00  0.54584593412E+03  0.54584593412E+03  0.00000000000E+00 0. -1.
         -1   -1    0    0    0  501 -0.00000000000E+00 -0.00000000000E+00 -0.80573668754E+02  0.80573668754E+02  0.00000000000E+00 0.  1.
         25    2    1    2    0    0  0.71005633784E+02  0.15591953398E+03  0.18219582568E+03  0.27963902588E+03  0.12509981933E+03 0.  0.
          5    1    3    3  502    0  0.80726642700E+02  0.84676212139E+02  0.17027441961E+03  0.20663422300E+03  0.41800000000E+01 0.  1.
         -5    1    3    3    0  502 -0.97210089153E+01  0.71243321838E+02  0.11921406074E+02  0.73004802880E+02  0.41800000000E+01 0.  1.
        -11    1    1    2    0    0 -0.76843016251E+01 -0.31839376459E+02  0.16865841684E+01  0.32796935084E+02  0.00000000000E+00 0.  1.
         11    1    1    2    0    0 -0.63321332159E+02 -0.12408015752E+03  0.28138985552E+03  0.31398364191E+03  0.00000000000E+00 0. -1.
</event>
<event>
 7    1  0.2714042E-009  0.1249913E+03  0.7561462E-02  0.1235083E+00
          4   -1    0    0  501    0  0.00000000000E+00  0.00000000000E+00  0.23813454092E+03  0.23813454092E+03  0.00000000000E+00 0.  1.
         -4   -1    0    0    0  501 -0.00000000000E+00 -0.00000000000E+00 -0.82537037292E+02  0.82537037292E+02  0.00000000000E+00 0. -1.
         25    2    1    2    0    0 -0.76831607075E+02 -0.44446843628E+02  0.80334628023E+02  0.17314646851E+03  0.12508968520E+03 0.  0.
          5    1    3    3  502    0 -0.96150278774E+02 -0.12217722309E+02  0.15713305585E+02  0.98277816516E+02  0.41800000000E+01 0. -1.
         -5    1    3    3    0  502  0.19318671699E+02 -0.32229121319E+02  0.64621322438E+02  0.74868651990E+02  0.41800000000E+01 0. -1.
        -11    1    1    2    0    0  0.19765058623E+02  0.53816319590E+02  0.68460925281E+02  0.89295868252E+02  0.00000000000E+00 0.  1.
         11    1    1    2    0    0  0.57066548453E+02 -0.93694759630E+01  0.68019503252E+01  0.58229241454E+02  0.00000000000E+00 0. -1.
</event>
<event>
 7    1  0.2714042E-009  0.1442332E+03  0.7561462E-02  0.1207744E+00
         -1   -1    0    0    0  501 -0.00000000000E+00  0.00000000000E+00  0.57361162485E+02  0.57361162485E+02  0.00000000000E+00 0.  1.
          1   -1    0    0  501    0  0.00000000000E+00 -0.00000000000E+00 -0.42600565180E+03  0.42600565180E+03  0.00000000000E+00 0. -1.
         25    2    1    2    0    0  0.10299444526E+03 -0.36890172861E+02 -0.23234674771E+03  0.28565891592E+03  0.12508902617E+03 0.  0.
          5    1    3    3  502    0 -0.15583991681E+02  0.13311558777E+02 -0.95274768473E+02  0.97543899355E+02  0.41800000000E+01 0. -1.
         -5    1    3    3    0  502  0.11857843694E+03 -0.50201731637E+02 -0.13707197924E+03  0.18811501657E+03  0.41800000000E+01 0. -1.
        -11    1    1    2    0    0 -0.38882629261E+02  0.59203396191E+02 -0.94097644027E+02  0.11777634563E+03  0.00000000000E+00 0. -1.
         11    1    1    2    0    0 -0.64111816000E+02 -0.22313223331E+02 -0.42200097578E+02  0.79931552730E+02  0.00000000000E+00 0.  1.
</event>
<event>
 7    1  0.2715480E-009  0.1093115E+03  0.7561462E-02  0.1261850E+00
         -2   -1    0    0    0  501 -0.00000000000E+00  0.00000000000E+00  0.23431665680E+02  0.23431665680E+02  0.00000000000E+00 0.  1.
          2   -1    0    0  501    0  0.00000000000E+00 -0.00000000000E+00 -0.59796133421E+03  0.59796133421E+03  0.00000000000E+00 0. -1.
         25    2    1    2    0    0 -0.46617009242E+02  0.12267664637E+02 -0.33163674543E+03  0.35770655530E+03  0.12508959843E+03 0.  0.
          5    1    3    3  502    0 -0.83564135574E+02  0.11152578306E+02 -0.14834676593E+03  0.17067975896E+03  0.41800000000E+01 0.  1.
         -5    1    3    3    0  502  0.36947126333E+02  0.11150863314E+01 -0.18328997950E+03  0.18702679634E+03  0.41800000000E+01 0.  1.
        -11    1    1    2    0    0  0.26169221252E+02 -0.48671932504E+02 -0.93905574679E+02  0.10895890101E+03  0.00000000000E+00 0.  1.
         11    1    1    2    0    0  0.20447787990E+02  0.36404267867E+02 -0.14898734842E+03  0.15472754357E+03  0.00000000000E+00 0. -1.
</event>
<event>
 7    1  0.2714042E-009  0.1014420E+03  0.7561462E-02  0.1277293E+00
         -3   -1    0    0    0  501 -0.00000000000E+00  0.00000000000E+00  0.26786674209E+03  0.26786674209E+03  0.00000000000E+00 0.  1.
          3   -1    0    0  501    0  0.00000000000E+00 -0.00000000000E+00 -0.54314335222E+02  0.54314335222E+02  0.00000000000E+00 0. -1.
         25    2    1    2    0    0 -0.11013316800E+02  0.42946631701E+02  0.80279079255E+02  0.15512077541E+03  0.12510802562E+03 0.  0.
          5    1    3    3  502    0  0.27376621596E+02  0.69160391587E+02  0.78774551012E+02  0.10842297479E+03  0.41800000000E+01 0. -1.
         -5    1    3    3    0  502 -0.38389938396E+02 -0.26213759886E+02  0.15045282427E+01  0.46697800619E+02  0.41800000000E+01 0. -1.
        -11    1    1    2    0    0 -0.23101423866E+01 -0.60014487942E+02  0.13240594095E+03  0.14539053862E+03  0.00000000000E+00 0.  1.
         11    1    1    2    0    0  0.13323459187E+02  0.17067856240E+02  0.86738666270E+00  0.21669763288E+02  0.00000000000E+00 0. -1.
</event>
<event>
 7    1  0.2714042E-009  0.8630466E+02  0.7561462E-02  0.1312056E+00
         -1   -1    0    0    0  501 -0.00000000000E+00  0.00000000000E+00  0.55367582149E+02  0.55367582149E+02  0.00000000000E+00 0.  1.
          1   -1    0    0  501    0  0.00000000000E+00 -0.00000000000E+00 -0.22928282273E+03  0.22928282273E+03  0.00000000000E+00 0. -1.
         25    2    1    2    0    0 -0.16040991324E+02 -0.25699689772E+02 -0.10451303122E+03  0.16579600431E+03  0.12509018304E+03 0.  0.
          5    1    3    3  502    0  0.21428728267E+02 -0.32807801939E+02 -0.11856082105E+03  0.12493871678E+03  0.41800000000E+01 0.  1.
         -5    1    3    3    0  502 -0.37469719591E+02  0.71081121676E+01  0.14047789828E+02  0.40857287524E+02  0.41800000000E+01 0.  1.
        -11    1    1    2    0    0 -0.33713393065E+02 -0.81159975739E+01 -0.36255113955E+02  0.50168671264E+02  0.00000000000E+00 0.  1.
         11    1    1    2    0    0  0.49754384389E+02  0.33815687346E+02 -0.33147095402E+02  0.68685729305E+02  0.00000000000E+00 0. -1.
</event>
<event>
 7    1  0.2714042E-009  0.1004670E+03  0.7561462E-02  0.1279317E+00
         -2   -1    0    0    0  501 -0.00000000000E+00  0.00000000000E+00  0.61174308218E+02  0.61174308218E+02  0.00000000000E+00 0.  1.
          2   -1    0    0  501    0  0.00000000000E+00 -0.00000000000E+00 -0.28581682988E+03  0.28581682988E+03  0.00000000000E+00 0. -1.
         25    2    1    2    0    0  0.58669624536E+02 -0.14714488176E+02 -0.64246319754E+02  0.15306869738E+03  0.12507515944E+03 0.  0.
          5    1    3    3  502    0  0.73927846413E+02 -0.48038139143E+01 -0.92883965699E+02  0.11888358418E+03  0.41800000000E+01 0. -1.
         -5    1    3    3    0  502 -0.15258221877E+02 -0.99106742620E+01  0.28637645944E+02  0.34185113199E+02  0.41800000000E+01 0. -1.
        -11    1    1    2    0    0 -0.20706595669E+02  0.51312229028E+02 -0.94709818670E+02  0.10968891332E+03  0.00000000000E+00 0.  1.
         11    1    1    2    0    0 -0.37963028867E+02 -0.36597740852E+02 -0.65686383239E+02  0.84233527406E+02  0.00000000000E+00 0. -1.
</event>
<event>
 7    1  0.2714042E-009  0.1041646E+03  0.7561462E-02  0.1271774E+00
          3   -1    0    0  501    0  0.00000000000E+00  0.00000000000E+00  0.68476556934E+02  0.68476556934E+02  0.00000000000E+00 0. -1.
         -3   -1    0    0    0  501 -0.00000000000E+00 -0.00000000000E+00 -0.19127162921E+03  0.19127162921E+03  0.00000000000E+00 0.  1.
         25    2    1    2    0    0 -0.30019904574E+02 -0.23249288683E+02 -0.61721120778E+02  0.14456904476E+03  0.12509591463E+03 0.  0.
          5    1    3    3  502    0  0.67317444724E+01  0.39104269745E+02  0.11504790147E+02  0.41524605865E+02  0.41800000000E+01 0. -1.
         -5    1    3    3    0  502 -0.36751649047E+02 -0.62353558427E+02 -0.73225910925E+02  0.10304443889E+03  0.41800000000E+01 0. -1.
        -11    1    1    2    0    0  0.53011808896E+02 -0.11518319720E+02 -0.45076579161E+02  0.70532414962E+02  0.00000000000E+00 0.  1.
         11    1    1    2    0    0 -0.22991904321E+02  0.34767608402E+02 -0.15997372333E+02  0.44646726419E+02  0.00000000000E+00 0. -1.
</event>
<event>
 7    1  0.2714042E-009  0.2035942E+03  0.7561462E-02  0.1146742E+00
          2   -1    0    0  501    0  0.00000000000E+00  0.00000000000E+00  0.29825931100E+04  0.29825931100E+04  0.00000000000E+00 0. -1.
         -2   -1    0    0    0  501 -0.00000000000E+00 -0.00000000000E+00 -0.17710370370E+02  0.17710370370E+02  0.00000000000E+00 0.  1.
         25    2    1    2    0    0  0.17189058973E+03 -0.78217267874E+02  0.20148010910E+04  0.20274946575E+04  0.12508730512E+03 0.  0.
          5    1    3    3  502    0  0.90470273491E+02 -0.86739850323E+01  0.14345143966E+04  0.14373966519E+04  0.41800000000E+01 0. -1.
         -5    1    3    3    0  502  0.81420316237E+02 -0.69543282841E+02  0.58028669445E+03  0.59009800562E+03  0.41800000000E+01 0. -1.
        -11    1    1    2    0    0 -0.10529151866E+03 -0.13333887766E+01  0.47672864325E+03  0.48821950097E+03  0.00000000000E+00 0.  1.
         11    1    1    2    0    0 -0.66599071065E+02  0.79550656650E+02  0.47335300534E+03  0.48458932190E+03  0.00000000000E+00 0. -1.
</event>
<event>
 7    1  0.2714042E-009  0.1361566E+03  0.7561462E-02  0.1218596E+00
          1   -1    0    0  501    0  0.00000000000E+00  0.00000000000E+00  0.62221995899E+03  0.62221995899E+03  0.00000000000E+00 0. -1.
         -1   -1    0    0    0  501 -0.00000000000E+00 -0.00000000000E+00 -0.33495999865E+02  0.33495999865E+02  0.00000000000E+00 0.  1.
         25    2    1    2    0    0  0.69316645942E+01 -0.93754706900E+02  0.27397244976E+03  0.31551061480E+03  0.12509217315E+03 0.  0.
          5    1    3    3  502    0 -0.38448250795E+02  0.30794382066E+00  0.26535621822E+02  0.46903885171E+02  0.41800000000E+01 0. -1.
         -5    1    3    3    0  502  0.45379915390E+02 -0.94062650721E+02  0.24743682794E+03  0.26860672963E+03  0.41800000000E+01 0. -1.
        -11    1    1    2    0    0 -0.44810989013E+02  0.26868029127E+02  0.12696056750E+03  0.13729130134E+03  0.00000000000E+00 0.  1.
         11    1    1    2    0    0  0.37879324419E+02  0.66886677774E+02  0.18779094187E+03  0.20291404271E+03  0.00000000000E+00 0. -1.
</event>
<event>
 7    1  0.2714042E-009  0.1582241E+03  0.7561462E-02  0.1190716E+00
          2   -1    0    0  501    0  0.00000000000E+00  0.00000000000E+00  0.12619660269E+04  0.12619660269E+04  0.00000000000E+00 0. -1.
         -2   -1    0    0    0  501 -0.00000000000E+00 -0.00000000000E+00 -0.33250427457E+02  0.33250427457E+02  0.00000000000E+00 0.  1.
         25    2    1    2    0    0 -0.67339918961E+02 -0.11259463481E+03  0.96966840373E+03  0.98646720787E+03  0.12509405481E+03 0.  0.
          5    1    3    3  502    0 -0.66793482774E+02 -0.13799402297E+03  0.76814790199E+03  0.78330861827E+03  0.41800000000E+01 0. -1.
         -5    1    3    3    0  502 -0.54643618670E+00  0.25399388159E+02  0.20152050173E+03  0.20315858960E+03  0.41800000000E+01 0. -1.
        -11    1    1    2    0    0  0.39690849338E+02  0.28640285394E+02  0.19107932185E+03  0.19724841370E+03  0.00000000000E+00 0. -1.
         11    1    1    2    0    0  0.27649069623E+02  0.83954349418E+02  0.67967873911E+02  0.11150083283E+03  0.00000000000E+00 0.  1.
</event>
<event>
 7    1  0.2714042E-009  0.1344765E+03  0.7561462E-02  0.1220961E+00
         -2   -1    0    0    0  501 -0.00000000000E+00  0.00000000000E+00  0.26183049471E+02  0.26183049471E+02  0.00000000000E+00 0.  1.
          2   -1    0    0  501    0  0.00000000000E+00 -0.00000000000E+00 -0.80390558073E+03  0.80390558073E+03  0.00000000000E+00 0. -1.
         25    2    1    2    0    0 -0.60655168449E+02  0.73164139495E+02 -0.39263301267E+03  0.42289525535E+03  0.12509066148E+03 0.  0.
          5    1    3    3  502    0  0.37113081936E+02  0.35770927884E+02 -0.14802302777E+03  0.15679677702E+03  0.41800000000E+01 0.  1.
         -5    1    3    3    0  502 -0.97768250384E+02  0.37393211611E+02 -0.24460998490E+03  0.26609847833E+03  0.41800000000E+01 0.  1.
        -11    1    1    2    0    0 -0.83146110675E+01 -0.29966584679E+02 -0.31142742269E+02  0.44011354791E+02  0.00000000000E+00 0.  1.
         11    1    1    2    0    0  0.68969779516E+02 -0.43197554816E+02 -0.35394677633E+03  0.36318202007E+03  0.00000000000E+00 0. -1.
</event>
<event>
 7    1  0.2714042E-009  0.1037667E+03  0.7561462E-02  0.1272569E+00
          1   -1    0    0  501    0  0.00000000000E+00  0.00000000000E+00  0.42783718978E+03  0.42783718978E+03  0.00000000000E+00 0. -1.
         -1   -1    0    0    0  501 -0.00000000000E+00 -0.00000000000E+00 -0.68857416169E+02  0.68857416169E+02  0.00000000000E+00 0.  1.
         25    2    1    2    0    0 -0.29672999668E+01  0.81168975976E+02  0.34394587740E+03  0.37489077763E+03  0.12508845289E+03 0.  0.
          5    1    3    3  502    0  0.11785384299E+02  0.65091024197E+02  0.34626590858E+03  0.35255253305E+03  0.41800000000E+01 0.  1.
         -5    1    3    3    0  502 -0.14752684266E+02  0.16077951779E+02 -0.23200311830E+01  0.22338244585E+02  0.41800000000E+01 0.  1.
        -11    1    1    2    0    0 -0.19826762034E+02 -0.91776201498E+02  0.20429181447E+02  0.96090182166E+02  0.00000000000E+00 0. -1.
         11    1    1    2    0    0  0.22794062000E+02  0.10607225522E+02 -0.53952852284E+01  0.25713646152E+02  0.00000000000E+00 0.  1.
</event>
<event>
 7    1  0.2714042E-009  0.1183094E+03  0.7561462E-02  0.1245912E+00
          2   -1    0    0  501    0  0.00000000000E+00  0.00000000000E+00  0.16233743895E+03  0.16233743895E+03  0.00000000000E+00 0. -1.
         -2   -1    0    0    0  501 -0.00000000000E+00 -0.00000000000E+00 -0.93854374390E+02  0.93854374390E+02  0.00000000000E+00 0.  1.
         25    2    1    2    0    0 -0.34775983202E+02  0.32571788760E+02  0.51117178248E+01  0.13395719404E+03  0.12509240483E+03 0.  0.
          5    1    3    3  502    0 -0.66196287760E+02 -0.21266471434E+02 -0.80253052556E+01  0.70114828994E+02  0.41800000000E+01 0. -1.
         -5    1    3    3    0  502  0.31420304558E+02  0.53838260195E+02  0.13137023080E+02  0.63842365046E+02  0.41800000000E+01 0. -1.
        -11    1    1    2    0    0  0.66884846167E+02 -0.25702196699E+02  0.44933561926E+02  0.84576654872E+02  0.00000000000E+00 0. -1.
         11    1    1    2    0    0 -0.32108862965E+02 -0.68695920616E+01  0.18437784804E+02  0.37657964423E+02  0.00000000000E+00 0.  1.
</event>
<event>
 7    1  0.2714042E-009  0.1063685E+03  0.7561462E-02  0.1267447E+00
          4   -1    0    0  501    0  0.00000000000E+00  0.00000000000E+00  0.76291150788E+02  0.76291150788E+02  0.00000000000E+00 0. -1.
         -4   -1    0    0    0  501 -0.00000000000E+00 -0.00000000000E+00 -0.25622284499E+03  0.25622284499E+03  0.00000000000E+00 0.  1.
         25    2    1    2    0    0  0.63832913110E+02 -0.63082407993E+02 -0.10900264680E+03  0.18863397370E+03  0.12508864069E+03 0.  0.
          5    1    3    3  502    0  0.35563247662E+02 -0.14965120900E+02 -0.12462728496E+03  0.13053019568E+03  0.41800000000E+01 0.  1.
         -5    1    3    3    0  502  0.28269665448E+02 -0.48117287093E+02  0.15624638167E+02  0.58103778015E+02  0.41800000000E+01 0.  1.
        -11    1    1    2    0    0 -0.17730541907E+02  0.69220146512E+02 -0.18531938867E+02  0.73818924116E+02  0.00000000000E+00 0.  1.
         11    1    1    2    0    0 -0.46102371203E+02 -0.61377385190E+01 -0.52397108540E+02  0.70061097965E+02  0.00000000000E+00 0. -1.
</event>
<event>
 7    1  0.2714042E-009  0.1326236E+03  0.7561462E-02  0.1223614E+00
         -1   -1    0    0    0  501 -0.00000000000E+00  0.00000000000E+00  0.23029615017E+03  0.23029615017E+03  0.00000000000E+00 0.  1.
          1   -1    0    0  501    0  0.00000000000E+00 -0.00000000000E+00 -0.97264529462E+02  0.97264529462E+02  0.00000000000E+00 0. -1.
         25    2    1    2    0    0 -0.87103241057E+02 -0.34092131392E+02  0.25932184467E+02  0.15833055589E+03  0.12508732435E+03 0.  0.
          5    1    3    3  502    0 -0.78610088241E+02 -0.75840958120E+02  0.20910989844E+01  0.10933088309E+03  0.41800000000E+01 0.  1.
         -5    1    3    3    0  502 -0.84931528158E+01  0.41748826728E+02  0.23841085483E+02  0.48999672804E+02  0.41800000000E+01 0.  1.
        -11    1    1    2    0    0  0.27068139619E+02  0.44608461063E+02  0.78579382658E+01  0.52766904160E+02  0.00000000000E+00 0. -1.
         11    1    1    2    0    0  0.60035101438E+02 -0.10516329671E+02  0.99241497978E+02  0.11646321958E+03  0.00000000000E+00 0.  1.
</event>
<event>
 7    1  0.2714042E-009  0.1556276E+03  0.7561462E-02  0.1193723E+00
         -2   -1    0    0    0  501 -0.00000000000E+00  0.00000000000E+00  0.95615707979E+03  0.95615707979E+03  0.00000000000E+00 0.  1.
          2   -1    0    0  501    0  0.00000000000E+00 -0.00000000000E+00 -0.74732880494E+02  0.74732880494E+02  0.00000000000E+00 0. -1.
         25    2    1    2    0    0  0.12865695647E+03  0.61266514052E+02  0.83361091057E+03  0.85490374543E+03  0.12508823099E+03 0.  0.
          5    1    3    3  502    0  0.76266796851E+02  0.42708288794E+02  0.19347200429E+03  0.21234290917E+03  0.41800000000E+01 0. -1.
         -5    1    3    3    0  502  0.52390159622E+02  0.18558225258E+02  0.64013890628E+03  0.64256083626E+03  0.41800000000E+01 0. -1.
        -11    1    1    2    0    0 -0.21011489861E+02  0.23110436953E+02  0.17828937901E+02  0.35964510688E+02  0.00000000000E+00 0. -1.
         11    1    1    2    0    0 -0.10764546661E+03 -0.84376951005E+02  0.29984350822E+02  0.14002170416E+03  0.00000000000E+00 0.  1.
</event>
<event>
 7    1  0.2714042E-009  0.2118341E+03  0.7561462E-02  0.1140122E+00
         -2   -1    0    0    0  501 -0.00000000000E+00  0.00000000000E+00  0.15514574704E+03  0.15514574704E+03  0.00000000000E+00 0.  1.
          2   -1    0    0  501    0  0.00000000000E+00 -0.00000000000E+00 -0.35273040662E+03  0.35273040662E+03  0.00000000000E+00 0. -1.
         25    2    1    2    0    0 -0.13558911759E+03 -0.14173845066E+03 -0.17441774293E+03  0.29076221406E+03  0.12508764476E+03 0.  0.
          5    1    3    3  502    0 -0.16838648557E+02  0.18195322103E+02  0.11993226343E+01  0.25169835248E+02  0.41800000000E+01 0. -1.
         -5    1    3    3    0  502 -0.11875046903E+03 -0.15993377276E+03 -0.17561706556E+03  0.26559237881E+03  0.41800000000E+01 0. -1.
        -11    1    1    2    0    0  0.29737531069E+02  0.12574230170E+02 -0.37522462302E+02  0.49501183781E+02  0.00000000000E+00 0.  1.
         11    1    1    2    0    0  0.10585158652E+03  0.12916422049E+03  0.14355545655E+02  0.16761275582E+03  0.00000000000E+00 0. -1.
</event>
<event>
 7    1  0.2714042E-009  0.1848099E+03  0.7561462E-02  0.1163228E+00
          1   -1    0    0  501    0  0.00000000000E+00  0.00000000000E+00  0.78262864987E+03  0.78262864987E+03  0.00000000000E+00 0. -1.
         -1   -1    0    0    0  501 -0.00000000000E+00 -0.00000000000E+00 -0.58126702410E+02  0.58126702410E+02  0.00000000000E+00 0.  1.
         25    2    1    2    0    0  0.10438192695E+03 -0.11554304334E+03  0.18550621138E+03  0.27258969985E+03  0.12508720345E+03 0.  0.
          5    1    3    3  502    0  0.56758196368E+02 -0.12929805291E+03  0.98004238670E+02  0.17193540222E+03  0.41800000000E+01 0. -1.
         -5    1    3    3    0  502  0.47623730585E+02  0.13755009566E+02  0.87501972710E+02  0.10065429763E+03  0.41800000000E+01 0. -1.
        -11    1    1    2    0    0 -0.48981767844E+02 -0.16148460911E+01  0.17751595444E+03  0.18415682281E+03  0.00000000000E+00 0. -1.
         11    1    1    2    0    0 -0.55400159108E+02  0.11715788943E+03  0.36147978165E+03  0.38400882962E+03  0.00000000000E+00 0.  1.
</event>
<event>
 7    1  0.2714042E-009  0.9738671E+02  0.7561462E-02  0.1285889E+00
         -2   -1    0    0    0  501 -0.00000000000E+00  0.00000000000E+00  0.19693612800E+02  0.19693612800E+02  0.00000000000E+00 0.  1.
          2   -1    0    0  501    0  0.00000000000E+00 -0.00000000000E+00 -0.67064066375E+03  0.67064066375E+03  0.00000000000E+00 0. -1.
         25    2    1    2    0    0 -0.15283981507E+02  0.33814417573E+02 -0.37507816920E+03  0.39712764972E+03  0.12509884987E+03 0.  0.
          5    1    3    3  502    0  0.39042957846E+02  0.10345714457E+02 -0.40573433276E+02  0.57402632804E+02  0.41800000000E+01 0.  1.
         -5    1    3    3    0  502 -0.54326939353E+02  0.23468703116E+02 -0.33450473592E+03  0.33972501692E+03  0.41800000000E+01 0.  1.
        -11    1    1    2    0    0  0.51942849142E+02 -0.20359988254E+02 -0.20308484713E+03  0.21060874586E+03  0.00000000000E+00 0.  1.
         11    1    1    2    0    0 -0.36658867636E+02 -0.13454429319E+02 -0.72784034626E+02  0.82597880972E+02  0.00000000000E+00 0. -1.
</event>
<event>
 7    1  0.2714042E-009  0.2005854E+03  0.7561462E-02  0.1149246E+00
         -2   -1    0    0    0  501 -0.00000000000E+00  0.00000000000E+00  0.85877686270E+02  0.85877686270E+02  0.00000000000E+00 0.  1.
          2   -1    0    0  501    0  0.00000000000E+00 -0.00000000000E+00 -0.51285716230E+03  0.51285716230E+03  0.00000000000E+00 0. -1.
         25    2    1    2    0    0 -0.77096849753E+02 -0.16234322071E+03 -0.22979366562E+03  0.31741533748E+03  0.12509245443E+03 0.  0.
          5    1    3    3  502    0 -0.65951405085E+02 -0.23060902808E+02 -0.36693300880E+02  0.79026981471E+02  0.41800000000E+01 0.  1.
         -5    1    3    3    0  502 -0.11145444668E+02 -0.13928231790E+03 -0.19310036474E+03  0.23838835600E+03  0.41800000000E+01 0.  1.
        -11    1    1    2    0    0 -0.11751710717E+02  0.27501593580E+02 -0.50401823958E+01  0.30328926668E+02  0.00000000000E+00 0.  1.
         11    1    1    2    0    0  0.88848560470E+02  0.13484162713E+03 -0.19214562802E+03  0.25099058442E+03  0.00000000000E+00 0. -1.
</event>
<event>
 7    1  0.2714042E-009  0.1495593E+03  0.7561462E-02  0.1201016E+00
         -2   -1    0    0    0  501 -0.00000000000E+00  0.00000000000E+00  0.35615432815E+02  0.35615432815E+02  0.00000000000E+00 0.  1.
          2   -1    0    0  501    0  0.00000000000E+00 -0.00000000000E+00 -0.84267197256E+03  0.84267197256E+03  0.00000000000E+00 0. -1.
         25    2    1    2    0    0 -0.85813169874E+02 -0.87765683325E+02 -0.55050271120E+03  0.57772618893E+03  0.12509036348E+03 0.  0.
          5    1    3    3  502    0 -0.17027047682E+02 -0.10245220360E+03 -0.29964137380E+03  0.31715737366E+03  0.41800000000E+01 0. -1.
         -5    1    3    3    0  502 -0.68786122192E+02  0.14686520277E+02 -0.25086133741E+03  0.26056881527E+03  0.41800000000E+01 0. -1.
        -11    1    1    2    0    0  0.50491119630E+02  0.35849298320E+02 -0.21857254353E+03  0.22717500333E+03  0.00000000000E+00 0. -1.
         11    1    1    2    0    0  0.35322050243E+02  0.51916385005E+02 -0.37981285014E+02  0.73386213124E+02  0.00000000000E+00 0.  1.
</event>
<event>
 7    1  0.2714042E-009  0.1998253E+03  0.7561462E-02  0.1149887E+00
         -2   -1    0    0    0  501 -0.00000000000E+00  0.00000000000E+00  0.45980946430E+02  0.45980946430E+02  0.00000000000E+00 0.  1.
          2   -1    0    0  501    0  0.00000000000E+00 -0.00000000000E+00 -0.18433824008E+04  0.18433824008E+04  0.00000000000E+00 0. -1.
         25    2    1    2    0    0 -0.17372103650E+03 -0.80363968171E+02 -0.15296582577E+04  0.15466526233E+04  0.12507032396E+03 0.  0.
          5    1    3    3  502    0 -0.11149928623E+03 -0.65266177363E+02 -0.55374532520E+03  0.56863267785E+03  0.41800000000E+01 0. -1.
         -5    1    3    3    0  502 -0.62221750269E+02 -0.15097790808E+02 -0.97591293253E+03  0.97801994549E+03  0.41800000000E+01 0. -1.
        -11    1    1    2    0    0  0.72710560965E+02  0.75908779435E+02 -0.18184846329E+03  0.21004245302E+03  0.00000000000E+00 0.  1.
         11    1    1    2    0    0  0.10101047554E+03  0.44551887359E+01 -0.85894733319E+02  0.13266827084E+03  0.00000000000E+00 0. -1.
</event>
<event>
 7    1  0.2714042E-009  0.1328219E+03  0.7561462E-02  0.1223328E+00
         -1   -1    0    0    0  501 -0.00000000000E+00  0.00000000000E+00  0.44311293368E+02  0.44311293368E+02  0.00000000000E+00 0.  1.
          1   -1    0    0  501    0  0.00000000000E+00 -0.00000000000E+00 -0.54494262024E+03  0.54494262024E+03  0.00000000000E+00 0. -1.
         25    2    1    2    0    0 -0.84273144643E+02  0.59975675473E+02 -0.19583526032E+03  0.25436168691E+03  0.12509745811E+03 0.  0.
          5    1    3    3  502    0  0.13962727078E+02  0.34221085287E+02 -0.12514248121E+03  0.13055325898E+03  0.41800000000E+01 0.  1.
         -5    1    3    3    0  502 -0.98235871722E+02  0.25754590186E+02 -0.70692779106E+02  0.12380842793E+03  0.41800000000E+01 0.  1.
        -11    1    1    2    0    0  0.33222801139E+02  0.14715420958E+02 -0.16064290100E+03  0.16470106184E+03  0.00000000000E+00 0. -1.
         11    1    1    2    0    0  0.51050343504E+02 -0.74691096432E+02 -0.14415316556E+03  0.17019116486E+03  0.00000000000E+00 0.  1.
</event>
<event>
 7    1  0.2714042E-009  0.2287306E+03  0.7561462E-02  0.1127536E+00
         -1   -1    0    0    0  501 -0.00000000000E+00  0.00000000000E+00  0.22487191240E+03  0.22487191240E+03  0.00000000000E+00 0.  1.
          1   -1    0    0  501    0  0.00000000000E+00 -0.00000000000E+00 -0.27672840897E+03  0.27672840897E+03  0.00000000000E+00 0. -1.
         25    2    1    2    0    0  0.22050094075E+03 -0.33609392660E+02 -0.78924534491E+01  0.25585036937E+03  0.12508742757E+03 0.  0.
          5    1    3    3  502    0  0.20141538399E+01 -0.42582457624E+01 -0.33310871263E+02  0.33900973687E+02  0.41800000000E+01 0.  1.
         -5    1    3    3    0  502  0.21848678691E+03 -0.29351146898E+02  0.25418417814E+02  0.22194939568E+03  0.41800000000E+01 0.  1.
        -11    1    1    2    0    0 -0.65940561457E+02 -0.16897198696E+02 -0.47672491849E+02  0.83104388862E+02  0.00000000000E+00 0. -1.
         11    1    1    2    0    0 -0.15456037929E+03  0.50506591356E+02  0.37084487230E+01  0.16264556314E+03  0.00000000000E+00 0.  1.
</event>
<event>
 7    1  0.2714042E-009  0.1030025E+03  0.7561462E-02  0.1274106E+00
          1   -1    0    0  501    0  0.00000000000E+00  0.00000000000E+00  0.72375147956E+03  0.72375147956E+03  0.00000000000E+00 0. -1.
         -1   -1    0    0    0  501 -0.00000000000E+00 -0.00000000000E+00 -0.18976050413E+02  0.18976050413E+02  0.00000000000E+00 0.  1.
         25    2    1    2    0    0  0.32392261354E+02 -0.28574769283E+02  0.41401761516E+03  0.43465333323E+03  0.12508860215E+03 0.  0.
          5    1    3    3  502    0  0.79829434408E+02 -0.80923456213E+01  0.26165561415E+03  0.27371400671E+03  0.41800000000E+01 0.  1.
         -5    1    3    3    0  502 -0.47437173054E+02 -0.20482423662E+02  0.15236200101E+03  0.16093932652E+03  0.41800000000E+01 0.  1.
        -11    1    1    2    0    0 -0.44358660796E+02  0.16899029886E+01  0.26582007253E+03  0.26950112712E+03  0.00000000000E+00 0. -1.
         11    1    1    2    0    0  0.11966399443E+02  0.26884866295E+02  0.24937741455E+02  0.38573069624E+02  0.00000000000E+00 0.  1.
</event>
<event>
 7    1  0.2761614E-009  0.1184794E+03  0.7561462E-02  0.1245627E+00
         -1   -1    0    0    0  501 -0.00000000000E+00  0.00000000000E+00  0.27200483228E+02  0.27200483228E+02  0.00000000000E+00 0.  1.
          1   -1    0    0  501    0  0.00000000000E+00 -0.00000000000E+00 -0.60922415106E+03  0.60922415106E+03  0.00000000000E+00 0. -1.
         25    2    1    2    0    0 -0.53481087879E+02 -0.85113505218E+01 -0.21513976402E+03  0.25468246994E+03  0.12508146378E+03 0.  0.
          5    1    3    3  502    0  0.36086620853E+02 -0.26350599710E+02 -0.71099270033E+02  0.84078397398E+02  0.41800000000E+01 0.  1.
         -5    1    3    3    0  502 -0.89567708732E+02  0.17839249188E+02 -0.14404049399E+03  0.17060407254E+03  0.41800000000E+01 0.  1.
        -11    1    1    2    0    0  0.43452178073E+02 -0.35131352196E+02 -0.14519974006E+03  0.15558042358E+03  0.00000000000E+00 0.  1.
         11    1    1    2    0    0  0.10028909806E+02  0.43642702718E+02 -0.22168416375E+03  0.22616174078E+03  0.00000000000E+00 0. -1.
</event>
<event>
 7    1  0.2714042E-009  0.1345527E+03  0.7561462E-02  0.1220852E+00
         -2   -1    0    0    0  501 -0.00000000000E+00  0.00000000000E+00  0.21874972060E+02  0.21874972060E+02  0.00000000000E+00 0.  1.
          2   -1    0    0  501    0  0.00000000000E+00 -0.00000000000E+00 -0.18052028916E+04  0.18052028916E+04  0.00000000000E+00 0. -1.
         25    2    1    2    0    0  0.35495260211E+02  0.83259309206E+02 -0.15765100601E+04  0.15840528270E+04  0.12508942041E+03 0.  0.
          5    1    3    3  502    0  0.64834152865E+02  0.11674263900E+02 -0.10255286368E+04  0.10276508225E+04  0.41800000000E+01 0. -1.
         -5    1    3    3    0  502 -0.29338892653E+02  0.71585045306E+02 -0.55098142330E+03  0.55640200445E+03  0.41800000000E+01 0. -1.
        -11    1    1    2    0    0  0.26804963421E+01  0.17586469335E+02 -0.16398996552E+02  0.24194959232E+02  0.00000000000E+00 0.  1.
         11    1    1    2    0    0 -0.38175756554E+02 -0.10084577854E+03 -0.19041886289E+03  0.21883007741E+03  0.00000000000E+00 0. -1.
</event>
<event>
 7    1  0.2714042E-009  0.1255244E+03  0.7561462E-02  0.1234252E+00
          1   -1    0    0  501    0  0.00000000000E+00  0.00000000000E+00  0.22716191924E+02  0.22716191924E+02  0.00000000000E+00 0. -1.
         -1   -1    0    0    0  501 -0.00000000000E+00 -0.00000000000E+00 -0.78724942504E+03  0.78724942504E+03  0.00000000000E+00 0.  1.
         25    2    1    2    0    0 -0.12531560945E+02  0.69050050090E+02 -0.41549347817E+03  0.43955410622E+03  0.12509209590E+03 0.  0.
          5    1    3    3  502    0 -0.25946648482E+02 -0.31647876920E+02 -0.10191374247E+03  0.10990313910E+03  0.41800000000E+01 0.  1.
         -5    1    3    3    0  502  0.13415087537E+02  0.10069792701E+03 -0.31357973571E+03  0.32965096712E+03  0.41800000000E+01 0.  1.
        -11    1    1    2    0    0  0.44536276202E+01  0.19153789286E+02 -0.14736686099E+02  0.24573814522E+02  0.00000000000E+00 0.  1.
         11    1    1    2    0    0  0.80779333245E+01 -0.88203839376E+02 -0.33430306885E+03  0.34583769622E+03  0.00000000000E+00 0. -1.
</event>
<event>
 7    1  0.2714042E-009  0.2700094E+03  0.7561462E-02  0.1101274E+00
          2   -1    0    0  501    0  0.00000000000E+00  0.00000000000E+00  0.50461721831E+03  0.50461721831E+03  0.00000000000E+00 0. -1.
         -2   -1    0    0    0  501 -0.00000000000E+00 -0.00000000000E+00 -0.17754099963E+03  0.17754099963E+03  0.00000000000E+00 0.  1.
         25    2    1    2    0    0 -0.54241163712E+01  0.26734108224E+03  0.78751868947E+02  0.30553163590E+03  0.12508816244E+03 0.  0.
          5    1    3    3  502    0  0.96028510052E+01  0.24138504024E+02  0.54632446161E+02  0.60638755739E+02  0.41800000000E+01 0. -1.
         -5    1    3    3    0  502 -0.15026967376E+02  0.24320257821E+03  0.24119422786E+02  0.24489288016E+03  0.41800000000E+01 0. -1.
        -11    1    1    2    0    0  0.21492565175E+02 -0.16850397350E+03  0.20831465979E+03  0.26879456268E+03  0.00000000000E+00 0. -1.
         11    1    1    2    0    0 -0.16068448804E+02 -0.98837108736E+02  0.40009689942E+02  0.10783201936E+03  0.00000000000E+00 0.  1.
</event>
<event>
 7    1  0.2714042E-009  0.1158303E+03  0.7561462E-02  0.1250139E+00
         -2   -1    0    0    0  501 -0.00000000000E+00  0.00000000000E+00  0.19623742129E+03  0.19623742129E+03  0.00000000000E+00 0.  1.
          2   -1    0    0  501    0  0.00000000000E+00 -0.00000000000E+00 -0.86576255550E+02  0.86576255550E+02  0.00000000000E+00 0. -1.
         25    2    1    2    0    0 -0.10792978259E+01  0.35970809082E+02  0.12182721523E+03  0.17829567705E+03  0.12510960832E+03 0.  0.
          5    1    3    3  502    0  0.56019408178E+02  0.45283745224E+02  0.69235873274E+02  0.99999351108E+02  0.41800000000E+01 0. -1.
         -5    1    3    3    0  502 -0.57098706003E+02 -0.93129361422E+01  0.52591341955E+02  0.78296325938E+02  0.41800000000E+01 0. -1.
        -11    1    1    2    0    0  0.47421261837E+02 -0.10306918601E+02 -0.16770649152E+02  0.51344554903E+02  0.00000000000E+00 0. -1.
         11    1    1    2    0    0 -0.46341964011E+02 -0.25663890481E+02  0.46045996593E+01  0.53173444886E+02  0.00000000000E+00 0.  1.
</event>
<event>
 7    1  0.2714042E-009  0.1145700E+03  0.7561462E-02  0.1252333E+00
         -2   -1    0    0    0  501 -0.00000000000E+00  0.00000000000E+00  0.60115236864E+02  0.60115236864E+02  0.00000000000E+00 0.  1.
          2   -1    0    0  501    0  0.00000000000E+00 -0.00000000000E+00 -0.64804311383E+03  0.64804311383E+03  0.00000000000E+00 0. -1.
         25    2    1    2    0    0  0.16022734992E+02  0.63534275354E+02 -0.57404303144E+03  0.59115724258E+03  0.12509257104E+03 0.  0.
          5    1    3    3  502    0 -0.38254712723E+02  0.58871794915E+01 -0.63423151124E+02  0.74418078626E+02  0.41800000000E+01 0.  1.
         -5    1    3    3    0  502  0.54277447714E+02  0.57647095863E+02 -0.51061988031E+03  0.51673916395E+03  0.41800000000E+01 0.  1.
        -11    1    1    2    0    0  0.13443866946E+02  0.19005293315E+02 -0.17749497820E+02  0.29274278903E+02  0.00000000000E+00 0. -1.
         11    1    1    2    0    0 -0.29466601938E+02 -0.82539568669E+02  0.38646522938E+01  0.87726829209E+02  0.00000000000E+00 0.  1.
</event>
<event>
 7    1  0.2714042E-009  0.2199464E+03  0.7561462E-02  0.1133923E+00
          1   -1    0    0  501    0  0.00000000000E+00  0.00000000000E+00  0.48101539556E+03  0.48101539556E+03  0.00000000000E+00 0. -1.
         -1   -1    0    0    0  501 -0.00000000000E+00 -0.00000000000E+00 -0.10997121511E+03  0.10997121511E+03  0.00000000000E+00 0.  1.
         25    2    1    2    0    0  0.16637888422E+03 -0.11518545871E+03  0.19881788443E+03  0.31003660458E+03  0.12507806361E+03 0.  0.
          5    1    3    3  502    0  0.66344896565E+02 -0.11857840381E+03  0.95552242312E+02  0.16616313237E+03  0.41800000000E+01 0.  1.
         -5    1    3    3    0  502  0.10003398765E+03  0.33929450942E+01  0.10326564211E+03  0.14387347220E+03  0.41800000000E+01 0.  1.
        -11    1    1    2    0    0 -0.10753967158E+03  0.88004735036E+02  0.60014916149E+02  0.15136513638E+03  0.00000000000E+00 0. -1.
         11    1    1    2    0    0 -0.58839212641E+02  0.27180723676E+02  0.11221137987E+03  0.12958486970E+03  0.00000000000E+00 0.  1.
</event>
<event>
 7    1  0.2714042E-009  0.1750401E+03  0.7561462E-02  0.1172691E+00
         -2   -1    0    0    0  501 -0.00000000000E+00  0.00000000000E+00  0.14844049835E+02  0.14844049835E+02  0.00000000000E+00 0.  1.
          2   -1    0    0  501    0  0.00000000000E+00 -0.00000000000E+00 -0.24219575284E+04  0.24219575284E+04  0.00000000000E+00 0. -1.
         25    2    1    2    0    0 -0.12171689260E+03  0.88795739794E+02 -0.15647624256E+04  0.15769685676E+04  0.12509488086E+03 0.  0.
          5    1    3    3  502    0  0.15761548303E+02  0.11528537164E+02 -0.47509117411E+02  0.51535640204E+02  0.41800000000E+01 0.  1.
         -5    1    3    3    0  502 -0.13747844090E+03  0.77267202630E+02 -0.15172533082E+04  0.15254329274E+04  0.41800000000E+01 0.  1.
        -11    1    1    2    0    0  0.73297129660E+02 -0.98688659886E+02 -0.61687402031E+03  0.62900355940E+03  0.00000000000E+00 0.  1.
         11    1    1    2    0    0  0.48419762940E+02  0.98929200921E+01 -0.22547703266E+03  0.23082945126E+03  0.00000000000E+00 0. -1.
</event>
<event>
 7    1  0.2714042E-009  0.1230101E+03  0.7561462E-02  0.1238212E+00
         -2   -1    0    0    0  501 -0.00000000000E+00  0.00000000000E+00  0.41719344287E+02  0.41719344287E+02  0.00000000000E+00 0.  1.
          2   -1    0    0  501    0  0.00000000000E+00 -0.00000000000E+00 -0.55915001146E+03  0.55915001146E+03  0.00000000000E+00 0. -1.
         25    2    1    2    0    0  0.97193363851E+02 -0.16739709310E+02 -0.33810144213E+03  0.37374658686E+03  0.12508860131E+03 0.  0.
          5    1    3    3  502    0  0.54018380408E+02 -0.36983289305E+02 -0.52111902760E+02  0.83778708029E+02  0.41800000000E+01 0.  1.
         -5    1    3    3    0  502  0.43174983444E+02  0.20243579995E+02 -0.28598953937E+03  0.28996787883E+03  0.41800000000E+01 0.  1.
        -11    1    1    2    0    0 -0.44487541209E+02  0.52535293506E+02 -0.57729948418E+02  0.89843449014E+02  0.00000000000E+00 0.  1.
         11    1    1    2    0    0 -0.52705822643E+02 -0.35795584196E+02 -0.12159927663E+03  0.13727931987E+03  0.00000000000E+00 0. -1.
</event>
<event>
 7    1  0.2714042E-009  0.1335492E+03  0.7561462E-02  0.1222282E+00
          3   -1    0    0  501    0  0.00000000000E+00  0.00000000000E+00  0.15870702107E+03  0.15870702107E+03  0.00000000000E+00 0. -1.
         -3   -1    0    0    0  501 -0.00000000000E+00 -0.00000000000E+00 -0.13040982832E+03  0.13040982832E+03  0.00000000000E+00 0.  1.
         25    2    1    2    0    0  0.49126768154E+02 -0.78169995646E+02  0.37634113629E+02  0.15996425920E+03  0.12509296601E+03 0.  0.
          5    1    3    3  502    0  0.76916078042E+02 -0.23302461738E+02  0.53089503219E+02  0.96410868352E+02  0.41800000000E+01 0. -1.
         -5    1    3    3    0  502 -0.27789309887E+02 -0.54867533908E+02 -0.15455389590E+02  0.63553390850E+02  0.41800000000E+01 0. -1.
        -11    1    1    2    0    0  0.20337631729E+02  0.41985779981E+02 -0.18721926161E+02  0.50268633402E+02  0.00000000000E+00 0.  1.
         11    1    1    2    0    0 -0.69464399883E+02  0.36184215665E+02  0.93850052881E+01  0.78883956789E+02  0.00000000000E+00 0. -1.
</event>
<event>
 7    1  0.2714042E-009  0.1248384E+03  0.7561462E-02  0.1235322E+00
          1   -1    0    0  501    0  0.00000000000E+00  0.00000000000E+00  0.59152070793E+03  0.59152070793E+03  0.00000000000E+00 0. -1.
         -1   -1    0    0    0  501 -0.00000000000E+00 -0.00000000000E+00 -0.33124661415E+02  0.33124661415E+02  0.00000000000E+00 0.  1.
         25    2    1    2    0    0 -0.67831958894E+02 -0.46435707629E+02  0.24096913949E+03  0.28367564896E+03  0.12509315744E+03 0.  0.
          5    1    3    3  502    0 -0.48987979273E+02  0.31908630013E+02  0.15529373740E+03  0.16598674663E+03  0.41800000000E+01 0. -1.
         -5    1    3    3    0  502 -0.18843979622E+02 -0.78344337642E+02  0.85675402090E+02  0.11768890233E+03  0.41800000000E+01 0. -1.
        -11    1    1    2    0    0 -0.16071510345E+02  0.52285446861E+01  0.99816733605E+01  0.19628166684E+02  0.00000000000E+00 0.  1.
         11    1    1    2    0    0  0.83903469239E+02  0.41207162943E+02  0.30744523367E+03  0.32134155370E+03  0.00000000000E+00 0. -1.
</event>
<event>
 7    1  0.2714042E-009  0.8706544E+02  0.7561462E-02  0.1310118E+00
          2   -1    0    0  501    0  0.00000000000E+00  0.00000000000E+00  0.33812829103E+03  0.33812829103E+03  0.00000000000E+00 0. -1.
         -2   -1    0    0    0  501 -0.00000000000E+00 -0.00000000000E+00 -0.45701387340E+02  0.45701387340E+02  0.00000000000E+00 0.  1.
         25    2    1    2    0    0  0.20521467487E+02 -0.13833902266E+02  0.93169031048E+02  0.15792400122E+03  0.12508802635E+03 0.  0.
          5    1    3    3  502    0  0.14401259428E+01 -0.63229494302E+02  0.18016524895E+02  0.65894692364E+02  0.41800000000E+01 0.  1.
         -5    1    3    3    0  502  0.19081341545E+02  0.49395592037E+02  0.75152506153E+02  0.92029308858E+02  0.41800000000E+01 0.  1.
        -11    1    1    2    0    0 -0.38025015174E+02  0.61738394736E+01  0.20284067199E+03  0.20646635630E+03  0.00000000000E+00 0. -1.
         11    1    1    2    0    0  0.17503547687E+02  0.76600627923E+01 -0.35827993497E+01  0.19439320842E+02  0.00000000000E+00 0.  1.
</event>
<event>
 7    1  0.2714042E-009  0.8955224E+02  0.7561462E-02  0.1303940E+00
         -4   -1    0    0    0  501 -0.00000000000E+00  0.00000000000E+00  0.85830056196E+02  0.85830056196E+02  0.00000000000E+00 0.  1.
          4   -1    0    0  501    0  0.00000000000E+00 -0.00000000000E+00 -0.21931241371E+03  0.21931241371E+03  0.00000000000E+00 0. -1.
         25    2    1    2    0    0 -0.45570315020E+02  0.51299146026E+02 -0.20213726862E+02  0.14409616127E+03  0.12508738124E+03 0.  0.
          5    1    3    3  502    0 -0.52241660277E+02  0.22109331306E+02  0.44794385175E+02  0.72401815879E+02  0.41800000000E+01 0. -1.
         -5    1    3    3    0  502  0.66713452574E+01  0.29189814720E+02 -0.65008112037E+02  0.71694345394E+02  0.41800000000E+01 0. -1.
        -11    1    1    2    0    0 -0.10792874875E+02 -0.29751560746E+02 -0.91630763168E+02  0.96942448255E+02  0.00000000000E+00 0. -1.
         11    1    1    2    0    0  0.56363189894E+02 -0.21547585280E+02 -0.21637867489E+02  0.64103860382E+02  0.00000000000E+00 0.  1.
</event>
<event>
 7    1  0.2714042E-009  0.1086735E+03  0.7561462E-02  0.1263046E+00
          1   -1    0    0  501    0  0.00000000000E+00  0.00000000000E+00  0.22018131115E+03  0.22018131115E+03  0.00000000000E+00 0. -1.
         -1   -1    0    0    0  501 -0.00000000000E+00 -0.00000000000E+00 -0.67544784057E+02  0.67544784057E+02  0.00000000000E+00 0.  1.
         25    2    1    2    0    0 -0.27531379328E+02  0.45965522216E+02  0.59379947549E+02  0.14847111795E+03  0.12508752381E+03 0.  0.
          5    1    3    3  502    0 -0.44935090143E+01  0.77089725983E+02  0.73841176729E+02  0.10692525079E+03  0.41800000000E+01 0. -1.
         -5    1    3    3    0  502 -0.23037870314E+02 -0.31124203767E+02 -0.14461229179E+02  0.41545867160E+02  0.41800000000E+01 0. -1.
        -11    1    1    2    0    0 -0.23562155255E+02 -0.44026864200E+02  0.31338528545E+02  0.58954586784E+02  0.00000000000E+00 0.  1.
         11    1    1    2    0    0  0.51093534584E+02 -0.19386580166E+01  0.61918051004E+02  0.80300390480E+02  0.00000000000E+00 0. -1.
</event>
<event>
 7    1  0.2714042E-009  0.2560310E+03  0.7561462E-02  0.1109552E+00
         -2   -1    0    0    0  501 -0.00000000000E+00  0.00000000000E+00  0.16213421953E+03  0.16213421953E+03  0.00000000000E+00 0.  1.
          2   -1    0    0  501    0  0.00000000000E+00 -0.00000000000E+00 -0.46355756666E+03  0.46355756666E+03  0.00000000000E+00 0. -1.
         25    2    1    2    0    0  0.63238951670E+01  0.25039833252E+03 -0.13759772061E+03  0.31196206315E+03  0.12509148470E+03 0.  0.
          5    1    3    3  502    0 -0.26288189191E+02  0.19429681837E+03 -0.14854723850E+03  0.24602048083E+03  0.41800000000E+01 0.  1.
         -5    1    3    3    0  502  0.32612084358E+02  0.56101514157E+02  0.10949517892E+02  0.65941582321E+02  0.41800000000E+01 0.  1.
        -11    1    1    2    0    0  0.49457046754E+01 -0.82495093523E+02 -0.57420008843E+01  0.82842446996E+02  0.00000000000E+00 0.  1.
         11    1    1    2    0    0 -0.11269599842E+02 -0.16790323900E+03 -0.15808362563E+03  0.23088727605E+03  0.00000000000E+00 0. -1.
</event>
<event>
 7    1  0.2714042E-009  0.8836855E+02  0.7561462E-02  0.1306851E+00
          3   -1    0    0  501    0  0.00000000000E+00  0.00000000000E+00  0.96043107436E+02  0.96043107436E+02  0.00000000000E+00 0.  1.
         -3   -1    0    0    0  501 -0.00000000000E+00 -0.00000000000E+00 -0.14330050554E+03  0.14330050554E+03  0.00000000000E+00 0. -1.
         25    2    1    2    0    0 -0.20574667156E+02  0.30850076607E+02 -0.36203725731E+02  0.13541178557E+03  0.12510234913E+03 0.  0.
          5    1    3    3  502    0  0.43952554801E+02  0.41576626363E+02 -0.23725868124E+00  0.60646282862E+02  0.41800000000E+01 0.  1.
         -5    1    3    3    0  502 -0.64527221957E+02 -0.10726549756E+02 -0.35966467050E+02  0.74765502708E+02  0.41800000000E+01 0.  1.
        -11    1    1    2    0    0  0.11222204691E+02 -0.37452064506E+02  0.37423495232E+02  0.54121280558E+02  0.00000000000E+00 0.  1.
         11    1    1    2    0    0  0.93524624644E+01  0.66019878988E+01 -0.48477167606E+02  0.49810546850E+02  0.00000000000E+00 0. -1.
</event>
<event>
 7    1  0.2714042E-009  0.1072792E+03  0.7561462E-02  0.1265693E+00
          4   -1    0    0  501    0  0.00000000000E+00  0.00000000000E+00  0.40303343501E+02  0.40303343501E+02  0.00000000000E+00 0. -1.
         -4   -1    0    0    0  501 -0.00000000000E+00 -0.00000000000E+00 -0.67977654030E+03  0.67977654030E+03  0.00000000000E+00 0.  1.
         25    2    1    2    0    0  0.45794110067E+02 -0.44610809280E+02 -0.54682810298E+03  0.56458456912E+03  0.12509011418E+03 0.  0.
          5    1    3    3  502    0  0.53501980825E+02  0.20049749606E+02 -0.39770592963E+03  0.40181081777E+03  0.41800000000E+01 0. -1.
         -5    1    3    3    0  502 -0.77078707571E+01 -0.64660558886E+02 -0.14912217334E+03  0.16277375135E+03  0.41800000000E+01 0. -1.
        -11    1    1    2    0    0 -0.32822102844E+02  0.62101636254E+02 -0.10801209013E+03  0.12884298691E+03  0.00000000000E+00 0.  1.
         11    1    1    2    0    0 -0.12972007223E+02 -0.17490826974E+02  0.15366996313E+02  0.26652327766E+02  0.00000000000E+00 0. -1.
</event>
<event>
 7    1  0.3058672E-009  0.1112864E+03  0.7561462E-02  0.1258206E+00
          2   -1    0    0  501    0  0.00000000000E+00  0.00000000000E+00  0.12093435291E+03  0.12093435291E+03  0.00000000000E+00 0. -1.
         -2   -1    0    0    0  501 -0.00000000000E+00 -0.00000000000E+00 -0.12639117203E+03  0.12639117203E+03  0.00000000000E+00 0.  1.
         25    2    1    2    0    0 -0.50191675587E+02  0.12636732051E+02 -0.31262335459E+02  0.13894714331E+03  0.12510029465E+03 0.  0.
          5    1    3    3  502    0 -0.68469667395E+02  0.44482065692E+02 -0.51685154687E+02  0.96724232416E+02  0.41800000000E+01 0. -1.
         -5    1    3    3    0  502  0.18277991808E+02 -0.31845333641E+02  0.20422819227E+02  0.42222910895E+02  0.41800000000E+01 0. -1.
        -11    1    1    2    0    0 -0.26270389287E+02 -0.70213604364E+01  0.14696121472E+02  0.30909688481E+02  0.00000000000E+00 0. -1.
         11    1    1    2    0    0  0.76462064875E+02 -0.56153716142E+01  0.11109394872E+02  0.77468693145E+02  0.00000000000E+00 0.  1.
</event>
<event>
 7    1  0.2714042E-009  0.1070314E+03  0.7561462E-02  0.1266168E+00
          2   -1    0    0  501    0  0.00000000000E+00  0.00000000000E+00  0.29053235796E+04  0.29053235796E+04  0.00000000000E+00 0. -1.
         -2   -1    0    0    0  501 -0.00000000000E+00 -0.00000000000E+00 -0.15681302543E+02  0.15681302543E+02  0.00000000000E+00 0.  1.
         25    2    1    2    0    0  0.97158348854E+02 -0.30753027671E+02  0.25442643496E+04  0.25493751079E+04  0.12508743547E+03 0.  0.
          5    1    3    3  502    0  0.18359837364E+02 -0.25402033765E+02  0.19015285420E+04  0.19017914227E+04  0.41800000000E+01 0. -1.
         -5    1    3    3    0  502  0.78798511490E+02 -0.53509939060E+01  0.64273580762E+03  0.64758368521E+03  0.41800000000E+01 0. -1.
        -11    1    1    2    0    0 -0.43543766489E+02  0.22797929832E+02  0.29001928339E+03  0.29415470410E+03  0.00000000000E+00 0. -1.
         11    1    1    2    0    0 -0.53614582365E+02  0.79550978391E+01  0.55358644019E+02  0.77475070128E+02  0.00000000000E+00 0.  1.
</event>
<event>
 7    1  0.2714042E-009  0.1284945E+03  0.7561462E-02  0.1229707E+00
          4   -1    0    0  501    0  0.00000000000E+00  0.00000000000E+00  0.34154658828E+03  0.34154658828E+03  0.00000000000E+00 0.  1.
         -4   -1    0    0    0  501 -0.00000000000E+00 -0.00000000000E+00 -0.65774747930E+02  0.65774747930E+02  0.00000000000E+00 0. -1.
         25    2    1    2    0    0  0.26088045067E+01 -0.77046916250E+02  0.24175022553E+03  0.28290267204E+03  0.12509083557E+03 0.  0.
          5    1    3    3  502    0  0.21270787703E+02 -0.10807685664E+03  0.18871469235E+03  0.21854921840E+03  0.41800000000E+01 0.  1.
         -5    1    3    3    0  502 -0.18661983196E+02  0.31029940394E+02  0.53035533173E+02  0.64353453650E+02  0.41800000000E+01 0.  1.
        -11    1    1    2    0    0  0.24854217587E+02 -0.36012606567E+01  0.30005132949E+02  0.39128112828E+02  0.00000000000E+00 0.  1.
         11    1    1    2    0    0 -0.27463022094E+02  0.80648176907E+02  0.40164818765E+01  0.85290551338E+02  0.00000000000E+00 0. -1.
</event>
<event>
 7    1  0.2714042E-009  0.9008746E+02  0.7561462E-02  0.1302640E+00
         -1   -1    0    0    0  501 -0.00000000000E+00  0.00000000000E+00  0.50571268066E+03  0.50571268066E+03  0.00000000000E+00 0.  1.
          1   -1    0    0  501    0  0.00000000000E+00 -0.00000000000E+00 -0.44526881582E+02  0.44526881582E+02  0.00000000000E+00 0. -1.
         25    2    1    2    0    0  0.58100864486E+01 -0.40819576654E+02  0.42191064300E+03  0.44199141969E+03  0.12509128453E+03 0.  0.
          5    1    3    3  502    0 -0.49444984831E+02  0.10561680478E+02  0.11125055906E+03  0.12227229821E+03  0.41800000000E+01 0.  1.
         -5    1    3    3    0  502  0.55255071279E+02 -0.51381257132E+02  0.31066008394E+03  0.31971912148E+03  0.41800000000E+01 0.  1.
        -11    1    1    2    0    0 -0.19473459347E+02  0.14710715272E+02  0.64811970006E+02  0.69254690952E+02  0.00000000000E+00 0.  1.
         11    1    1    2    0    0  0.13663372899E+02  0.26108861382E+02 -0.25536813929E+02  0.38993451595E+02  0.00000000000E+00 0. -1.
</event>
<event>
 7    1  0.2714042E-009  0.9831954E+02  0.7561462E-02  0.1283870E+00
         -2   -1    0    0    0  501 -0.00000000000E+00  0.00000000000E+00  0.41147787802E+02  0.41147787802E+02  0.00000000000E+00 0.  1.
          2   -1    0    0  501    0  0.00000000000E+00 -0.00000000000E+00 -0.33814664527E+03  0.33814664527E+03  0.00000000000E+00 0. -1.
         25    2    1    2    0    0 -0.56921467708E+02  0.14626726245E+02 -0.15015056879E+03  0.20407374934E+03  0.12508759833E+03 0.  0.
          5    1    3    3  502    0 -0.21647198537E+02  0.67826942457E+02 -0.58160588633E+02  0.92028374960E+02  0.41800000000E+01 0.  1.
         -5    1    3    3    0  502 -0.35274269171E+02 -0.53200216213E+02 -0.91989980160E+02  0.11204537438E+03  0.41800000000E+01 0.  1.
        -11    1    1    2    0    0  0.33707789117E+02 -0.17464749482E+02 -0.14209094968E+02  0.40535551081E+02  0.00000000000E+00 0.  1.
         11    1    1    2    0    0  0.23213678590E+02  0.28380232371E+01 -0.13263919370E+03  0.13468513265E+03  0.00000000000E+00 0. -1.
</event>
<event>
 7    1  0.2714042E-009  0.1189825E+03  0.7561462E-02  0.1244785E+00
          2   -1    0    0  501    0  0.00000000000E+00  0.00000000000E+00  0.15956106995E+03  0.15956106995E+03  0.00000000000E+00 0. -1.
         -2   -1    0    0    0  501 -0.00000000000E+00 -0.00000000000E+00 -0.13344101894E+03  0.13344101894E+03  0.00000000000E+00 0.  1.
         25    2    1    2    0    0  0.17824844277E+01  0.75591432722E+02 -0.47073581771E+02  0.15356101653E+03  0.12509125367E+03 0.  0.
          5    1    3    3  502    0 -0.14748226375E+02 -0.32260248576E+02 -0.31121729969E+01  0.35852361710E+02  0.41800000000E+01 0.  1.
         -5    1    3    3    0  502  0.16530710802E+02  0.10785168130E+03 -0.43961408774E+02  0.11770865482E+03  0.41800000000E+01 0.  1.
        -11    1    1    2    0    0  0.22339673678E+02 -0.12698368418E+02 -0.13996830391E+02  0.29261251538E+02  0.00000000000E+00 0.  1.
         11    1    1    2    0    0 -0.24122158106E+02 -0.62893064304E+02  0.87190463169E+02  0.11017982082E+03  0.00000000000E+00 0. -1.
</event>
<event>
 7    1  0.2714042E-009  0.1287443E+03  0.7561462E-02  0.1229331E+00
          1   -1    0    0  501    0  0.00000000000E+00  0.00000000000E+00  0.69975205934E+03  0.69975205934E+03  0.00000000000E+00 0. -1.
         -1   -1    0    0    0  501 -0.00000000000E+00 -0.00000000000E+00 -0.27748558207E+02  0.27748558207E+02  0.00000000000E+00 0.  1.
         25    2    1    2    0    0 -0.56782962236E+02  0.44112260411E+02  0.47745138173E+03  0.49877670154E+03  0.12509268470E+03 0.  0.
          5    1    3    3  502    0 -0.64327013123E+02  0.82624213399E+02  0.35084441191E+03  0.36616116537E+03  0.41800000000E+01 0.  1.
         -5    1    3    3    0  502  0.75440508866E+01 -0.38511952988E+02  0.12660696982E+03  0.13261553617E+03  0.41800000000E+01 0.  1.
        -11    1    1    2    0    0  0.80530907649E+02 -0.34329676718E+02  0.11131849299E+03  0.14161765664E+03  0.00000000000E+00 0. -1.
         11    1    1    2    0    0 -0.23747945413E+02 -0.97825836931E+01  0.83233626420E+02  0.87106259374E+02  0.00000000000E+00 0.  1.
</event>
<event>
 7    1  0.2714042E-009  0.8168352E+02  0.7561462E-02  0.1324341E+00
         -1   -1    0    0    0  501 -0.00000000000E+00  0.00000000000E+00  0.48975590549E+02  0.48975590549E+02  0.00000000000E+00 0.  1.
          1   -1    0    0  501    0  0.00000000000E+00 -0.00000000000E+00 -0.35758725312E+03  0.35758725312E+03  0.00000000000E+00 0. -1.
         25    2    1    2    0    0  0.28233179445E+02  0.14378709931E+02 -0.27408703919E+03  0.30294456259E+03  0.12509133953E+03 0.  0.
          5    1    3    3  502    0  0.33379302338E+02 -0.14084203468E+02 -0.27112859951E+03  0.27357034285E+03  0.41800000000E+01 0. -1.
         -5    1    3    3    0  502 -0.51461228930E+01  0.28462913399E+02 -0.29584396809E+01  0.29374219740E+02  0.41800000000E+01 0. -1.
        -11    1    1    2    0    0  0.33950778645E+02 -0.47821948295E+00 -0.13113457232E+02  0.36398445366E+02  0.00000000000E+00 0. -1.
         11    1    1    2    0    0 -0.62183958089E+02 -0.13900490448E+02 -0.21411166148E+02  0.67219835719E+02  0.00000000000E+00 0.  1.
</event>
<event>
 7    1  0.2884414E-009  0.1190621E+03  0.7561462E-02  0.1244652E+00
          2   -1    0    0  501    0  0.00000000000E+00  0.00000000000E+00  0.24777820633E+03  0.24777820633E+03  0.00000000000E+00 0. -1.
         -2   -1    0    0    0  501 -0.00000000000E+00 -0.00000000000E+00 -0.64975189697E+02  0.64975189697E+02  0.00000000000E+00 0.  1.
         25    2    1    2    0    0 -0.56782836600E+02  0.19967409861E+02  0.13421561508E+03  0.19309094122E+03  0.12508913726E+03 0.  0.
          5    1    3    3  502    0 -0.19606640236E+02  0.71995876407E+02  0.71981140017E+02  0.10376214859E+03  0.41800000000E+01 0. -1.
         -5    1    3    3    0  502 -0.37176196364E+02 -0.52028466546E+02  0.62234475063E+02  0.89328792635E+02  0.41800000000E+01 0. -1.
        -11    1    1    2    0    0  0.10300982913E+02 -0.45240939847E+02 -0.20264620765E+01  0.46443077372E+02  0.00000000000E+00 0.  1.
         11    1    1    2    0    0  0.46481853687E+02  0.25273529986E+02  0.50613863626E+02  0.73219377430E+02  0.00000000000E+00 0. -1.
</event>
<event>
 7    1  0.2714042E-009  0.2269369E+03  0.7561462E-02  0.1128814E+00
         -2   -1    0    0    0  501 -0.00000000000E+00  0.00000000000E+00  0.65687452383E+02  0.65687452383E+02  0.00000000000E+00 0. -1.
          2   -1    0    0  501    0  0.00000000000E+00 -0.00000000000E+00 -0.98300566633E+03  0.98300566633E+03  0.00000000000E+00 0.  1.
         25    2    1    2    0    0  0.35259971460E+02 -0.21626760090E+03 -0.61193450464E+03  0.66191138661E+03  0.12509158632E+03 0.  0.
          5    1    3    3  502    0 -0.12648477082E+01 -0.47501116559E+02 -0.31340986919E+03  0.31701920197E+03  0.41800000000E+01 0.  1.
         -5    1    3    3    0  502  0.36524819168E+02 -0.16876648434E+03 -0.29852463545E+03  0.34489218464E+03  0.41800000000E+01 0.  1.
        -11    1    1    2    0    0  0.25638477495E+02  0.46674208275E+02 -0.10193115370E+03  0.11500336231E+03  0.00000000000E+00 0.  1.
         11    1    1    2    0    0 -0.60898448955E+02  0.16959339263E+03 -0.20345255560E+03  0.27177836980E+03  0.00000000000E+00 0. -1.
</event>
<event>
 7    1  0.2714042E-009  0.6497172E+02  0.7561462E-02  0.1378078E+00
          2   -1    0    0  501    0  0.00000000000E+00  0.00000000000E+00  0.21515419877E+03  0.21515419877E+03  0.00000000000E+00 0. -1.
         -2   -1    0    0    0  501 -0.00000000000E+00 -0.00000000000E+00 -0.77043130092E+02  0.77043130092E+02  0.00000000000E+00 0.  1.
         25    2    1    2    0    0  0.34578367443E+02 -0.53389888770E+01  0.14044827260E+03  0.19130426247E+03  0.12508970887E+03 0.  0.
          5    1    3    3  502    0  0.24357753414E+02  0.24432892152E+02  0.15319518795E+03  0.15708756915E+03  0.41800000000E+01 0. -1.
         -5    1    3    3    0  502  0.10220614029E+02 -0.29771881029E+02 -0.12746915345E+02  0.34216693323E+02  0.41800000000E+01 0. -1.
        -11    1    1    2    0    0  0.97097241257E+01  0.15226383175E+02  0.36784909576E+02  0.40978665909E+02  0.00000000000E+00 0. -1.
         11    1    1    2    0    0 -0.44288091569E+02 -0.98873942981E+01 -0.39122113498E+02  0.59914400484E+02  0.00000000000E+00 0.  1.
</event>
<event>
 7    1  0.2714042E-009  0.1070769E+03  0.7561462E-02  0.1266081E+00
         -2   -1    0    0    0  501 -0.00000000000E+00  0.00000000000E+00  0.65787592915E+02  0.65787592915E+02  0.00000000000E+00 0.  1.
          2   -1    0    0  501    0  0.00000000000E+00 -0.00000000000E+00 -0.21922964456E+03  0.21922964456E+03  0.00000000000E+00 0. -1.
         25    2    1    2    0    0  0.93889505527E+01  0.49999411824E+02 -0.84719941725E+02  0.15941507208E+03  0.12509037974E+03 0.  0.
          5    1    3    3  502    0  0.54114167247E+02  0.42264208275E+02 -0.67778495726E+01  0.69123209147E+02  0.41800000000E+01 0. -1.
         -5    1    3    3    0  502 -0.44725216695E+02  0.77352035488E+01 -0.77942092152E+02  0.90291862930E+02  0.41800000000E+01 0. -1.
        -11    1    1    2    0    0  0.31650468933E+02  0.40602843380E+01 -0.41793747136E+02  0.52582843136E+02  0.00000000000E+00 0.  1.
         11    1    1    2    0    0 -0.41039419486E+02 -0.54059696162E+02 -0.26928362780E+02  0.73019322257E+02  0.00000000000E+00 0. -1.
</event>
<event>
 7    1  0.2714042E-009  0.8069422E+02  0.7561462E-02  0.1327093E+00
          1   -1    0    0  501    0  0.00000000000E+00  0.00000000000E+00  0.54127530695E+03  0.54127530695E+03  0.00000000000E+00 0. -1.
         -1   -1    0    0    0  501 -0.00000000000E+00 -0.00000000000E+00 -0.23023315852E+02  0.23023315852E+02  0.00000000000E+00 0.  1.
         25    2    1    2    0    0  0.23006907321E+02  0.73345745950E+01  0.36303683777E+03  0.38474169828E+03  0.12508922836E+03 0.  0.
          5    1    3    3  502    0  0.50217058003E+02  0.25415595469E+02  0.70269679238E+02  0.90127718421E+02  0.41800000000E+01 0. -1.
         -5    1    3    3    0  502 -0.27210150682E+02 -0.18081020874E+02  0.29276715853E+03  0.29461397986E+03  0.41800000000E+01 0. -1.
        -11    1    1    2    0    0 -0.45573420280E+02  0.57415684307E+01  0.38414284394E+02  0.59879541494E+02  0.00000000000E+00 0.  1.
         11    1    1    2    0    0  0.22566512960E+02 -0.13076143026E+02  0.11680086894E+03  0.11967738303E+03  0.00000000000E+00 0. -1.
</event>
<event>
 7    1  0.3146118E-009  0.9663699E+02  0.7561462E-02  0.1287531E+00
          1   -1    0    0  501    0  0.00000000000E+00  0.00000000000E+00  0.36691056984E+02  0.36691056984E+02  0.00000000000E+00 0. -1.
         -1   -1    0    0    0  501 -0.00000000000E+00 -0.00000000000E+00 -0.55203251277E+03  0.55203251277E+03  0.00000000000E+00 0.  1.
         25    2    1    2    0    0  0.75251229096E+02  0.36358059151E+02 -0.35825239118E+03  0.38855722826E+03  0.12508911984E+03 0.  0.
          5    1    3    3  502    0  0.77549705463E+02  0.42233444739E+02 -0.36670575557E+03  0.37721108711E+03  0.41800000000E+01 0. -1.
         -5    1    3    3    0  502 -0.22984763674E+01 -0.58753855876E+01  0.84533643919E+01  0.11346141148E+02  0.41800000000E+01 0. -1.
        -11    1    1    2    0    0 -0.53356196335E+02  0.17142701963E+01 -0.21342762931E+02  0.57492051095E+02  0.00000000000E+00 0. -1.
         11    1    1    2    0    0 -0.21895032761E+02 -0.38072329347E+02 -0.13574630168E+03  0.14267429040E+03  0.00000000000E+00 0.  1.
</event>
<event>
 7    1  0.2714042E-009  0.1068846E+03  0.7561462E-02  0.1266450E+00
         -2   -1    0    0    0  501 -0.00000000000E+00  0.00000000000E+00  0.68415795168E+02  0.68415795168E+02  0.00000000000E+00 0.  1.
          2   -1    0    0  501    0  0.00000000000E+00 -0.00000000000E+00 -0.18439441377E+03  0.18439441377E+03  0.00000000000E+00 0. -1.
         25    2    1    2    0    0 -0.18288768550E+02  0.25048001172E+02 -0.55890078308E+02  0.14046934047E+03  0.12508418501E+03 0.  0.
          5    1    3    3  502    0  0.52873750355E+02  0.18712326281E+02 -0.33587182332E+02  0.65508441047E+02  0.41800000000E+01 0.  1.
         -5    1    3    3    0  502 -0.71162518904E+02  0.63356748906E+01 -0.22302895976E+02  0.74960899421E+02  0.41800000000E+01 0.  1.
        -11    1    1    2    0    0  0.45319220786E+01 -0.53850523068E+02 -0.13218078595E+02  0.55633935275E+02  0.00000000000E+00 0.  1.
         11    1    1    2    0    0  0.13756846471E+02  0.28802521897E+02 -0.46870461704E+02  0.56706933198E+02  0.00000000000E+00 0. -1.
</event>
<event>
 7    1  0.2714042E-009  0.3594911E+03  0.7561462E-02  0.1058786E+00
         -2   -1    0    0    0  501 -0.00000000000E+00  0.00000000000E+00  0.11197340003E+03  0.11197340003E+03  0.00000000000E+00 0.  1.
          2   -1    0    0  501    0  0.00000000000E+00 -0.00000000000E+00 -0.12215861939E+04  0.12215861939E+04  0.00000000000E+00 0. -1.
         25    2    1    2    0    0  0.23393466868E+03  0.25915313725E+03 -0.45924413730E+03  0.59028741132E+03  0.12509305561E+03 0.  0.
          5    1    3    3  502    0  0.19821342826E+03  0.26589520709E+03 -0.43215075960E+03  0.54475735490E+03  0.41800000000E+01 0.  1.
         -5    1    3    3    0  502  0.35721240414E+02 -0.67420698357E+01 -0.27093377707E+02  0.45530056424E+02  0.41800000000E+01 0.  1.
        -11    1    1    2    0    0 -0.16942730843E+03 -0.16429738666E+03 -0.51024516341E+03  0.56218268462E+03  0.00000000000E+00 0. -1.
         11    1    1    2    0    0 -0.64507360250E+02 -0.94855750591E+02 -0.14012349317E+03  0.18108949800E+03  0.00000000000E+00 0.  1.
</event>
<event>
 7    1  0.2714042E-009  0.9105088E+02  0.7561462E-02  0.1300327E+00
         -2   -1    0    0    0  501 -0.00000000000E+00  0.00000000000E+00  0.13284580243E+03  0.13284580243E+03  0.00000000000E+00 0.  1.
          2   -1    0    0  501    0  0.00000000000E+00 -0.00000000000E+00 -0.97646112297E+02  0.97646112297E+02  0.00000000000E+00 0. -1.
         25    2    1    2    0    0  0.16197213416E+02  0.16207575144E+02 -0.79507907802E+01  0.12741972386E+03  0.12509011048E+03 0.  0.
          5    1    3    3  502    0  0.21966238081E+02 -0.42405930166E+02 -0.37994745945E+02  0.61170676374E+02  0.41800000000E+01 0.  1.
         -5    1    3    3    0  502 -0.57690246650E+01  0.58613505310E+02  0.30043955164E+02  0.66249047481E+02  0.41800000000E+01 0.  1.
        -11    1    1    2    0    0  0.28292836616E+02 -0.17918150438E+01  0.48317521616E+02  0.56020336486E+02  0.00000000000E+00 0.  1.
         11    1    1    2    0    0 -0.44490050032E+02 -0.14415760100E+02 -0.51670407052E+01  0.47051854382E+02  0.00000000000E+00 0. -1.
</event>
<event>
 7    1  0.2714042E-009  0.1080855E+03  0.7561462E-02  0.1264157E+00
         -2   -1    0    0    0  501 -0.00000000000E+00  0.00000000000E+00  0.45905418983E+02  0.45905418983E+02  0.00000000000E+00 0. -1.
          2   -1    0    0  501    0  0.00000000000E+00 -0.00000000000E+00 -0.32662277648E+03  0.32662277648E+03  0.00000000000E+00 0.  1.
         25    2    1    2    0    0 -0.18256462311E+01  0.79291027195E+01 -0.24330427915E+03  0.27370066136E+03  0.12509546804E+03 0.  0.
          5    1    3    3  502    0  0.59186669336E+02 -0.12674342028E+02 -0.12469697948E+03  0.13867411390E+03  0.41800000000E+01 0. -1.
         -5    1    3    3    0  502 -0.61012315567E+02  0.20603444747E+02 -0.11860729967E+03  0.13502654747E+03  0.41800000000E+01 0. -1.
        -11    1    1    2    0    0  0.73488056947E+01  0.41036567025E+02 -0.11988509641E+02  0.43378902035E+02  0.00000000000E+00 0. -1.
         11    1    1    2    0    0 -0.55231594637E+01 -0.48965669745E+02 -0.25424568707E+02  0.55448632065E+02  0.00000000000E+00 0.  1.
</event>
<event>
 7    1  0.2714042E-009  0.1627802E+03  0.7561462E-02  0.1185593E+00
         -1   -1    0    0    0  501 -0.00000000000E+00  0.00000000000E+00  0.33897444221E+02  0.33897444221E+02  0.00000000000E+00 0.  1.
          1   -1    0    0  501    0  0.00000000000E+00 -0.00000000000E+00 -0.95310371409E+03  0.95310371409E+03  0.00000000000E+00 0. -1.
         25    2    1    2    0    0  0.12449028827E+03 -0.68244190431E+02 -0.44529718343E+03  0.48383004025E+03  0.12508726904E+03 0.  0.
          5    1    3    3  502    0 -0.11925869737E+02  0.85972456689E+01 -0.13873683008E+03  0.13957621367E+03  0.41800000000E+01 0.  1.
         -5    1    3    3    0  502  0.13641615801E+03 -0.76841436100E+02 -0.30656035335E+03  0.34425382658E+03  0.41800000000E+01 0.  1.
        -11    1    1    2    0    0 -0.53413969688E+02  0.62687537546E+02 -0.35584666089E+03  0.36525282420E+03  0.00000000000E+00 0. -1.
         11    1    1    2    0    0 -0.71076318583E+02  0.55566528846E+01 -0.11806242555E+03  0.13791829386E+03  0.00000000000E+00 0.  1.
</event>
<event>
 7    1  0.2714042E-009  0.1378137E+03  0.7561462E-02  0.1216301E+00
          1   -1    0    0  501    0  0.00000000000E+00  0.00000000000E+00  0.34689576451E+02  0.34689576451E+02  0.00000000000E+00 0. -1.
         -1   -1    0    0    0  501 -0.00000000000E+00 -0.00000000000E+00 -0.83773929606E+03  0.83773929606E+03  0.00000000000E+00 0.  1.
         25    2    1    2    0    0 -0.43702472550E+02 -0.11335093289E+03 -0.55627295888E+03  0.58296280169E+03  0.12509070020E+03 0.  0.
          5    1    3    3  502    0  0.23665778196E+02 -0.55983558944E+01 -0.25182139943E+03  0.25302746937E+03  0.41800000000E+01 0.  1.
         -5    1    3    3    0  502 -0.67368250746E+02 -0.10775257700E+03 -0.30445155945E+03  0.32993533231E+03  0.41800000000E+01 0.  1.
        -11    1    1    2    0    0  0.14014376353E+02  0.12863792683E+02  0.23818478699E+01  0.19171674575E+02  0.00000000000E+00 0. -1.
         11    1    1    2    0    0  0.29688096197E+02  0.10048714021E+03 -0.24915860861E+03  0.27029439625E+03  0.00000000000E+00 0.  1.
</event>
<event>
 7    1  0.2714042E-009  0.8591466E+02  0.7561462E-02  0.1313058E+00
          4   -1    0    0  501    0  0.00000000000E+00  0.00000000000E+00  0.10740889909E+03  0.10740889909E+03  0.00000000000E+00 0. -1.
         -4   -1    0    0    0  501 -0.00000000000E+00 -0.00000000000E+00 -0.12660750715E+03  0.12660750715E+03  0.00000000000E+00 0.  1.
         25    2    1    2    0    0  0.33617296223E+01  0.17997618215E+02  0.15244292747E+02  0.12733774242E+03  0.12508915499E+03 0.  0.
          5    1    3    3  502    0  0.34625327869E+02 -0.40130964905E+02  0.27836799519E+02  0.60014727207E+02  0.41800000000E+01 0.  1.
         -5    1    3    3    0  502 -0.31263598246E+02  0.58128583120E+02 -0.12592506771E+02  0.67323015215E+02  0.41800000000E+01 0.  1.
        -11    1    1    2    0    0  0.19167051218E+02 -0.22494389868E+02 -0.63261401553E+02  0.69823909618E+02  0.00000000000E+00 0.  1.
         11    1    1    2    0    0 -0.22528780840E+02  0.44967716526E+01  0.28818500746E+02  0.36854754193E+02  0.00000000000E+00 0. -1.
</event>
<event>
 7    1  0.2916907E-009  0.2638742E+03  0.7561462E-02  0.1104838E+00
         -1   -1    0    0    0  501 -0.00000000000E+00  0.00000000000E+00  0.19299661250E+03  0.19299661250E+03  0.00000000000E+00 0.  1.
          1   -1    0    0  501    0  0.00000000000E+00 -0.00000000000E+00 -0.42469996977E+03  0.42469996977E+03  0.00000000000E+00 0. -1.
         25    2    1    2    0    0 -0.11989120677E+03  0.22346471011E+03 -0.36893395293E+02  0.28516141268E+03  0.12508209521E+03 0.  0.
          5    1    3    3  502    0 -0.12447903289E+03  0.14331816123E+03 -0.63931951657E+02  0.20034942429E+03  0.41800000000E+01 0.  1.
         -5    1    3    3    0  502  0.45878261226E+01  0.80146548876E+02  0.27038556364E+02  0.84811988395E+02  0.41800000000E+01 0.  1.
        -11    1    1    2    0    0  0.87044933322E+02 -0.11544413323E+03 -0.15708706184E+03  0.21349593277E+03  0.00000000000E+00 0. -1.
         11    1    1    2    0    0  0.32846273448E+02 -0.10802057688E+03 -0.37722900143E+02  0.11903923682E+03  0.00000000000E+00 0.  1.
</event>
<event>
 7    1  0.2714042E-009  0.1097764E+03  0.7561462E-02  0.1260984E+00
         -2   -1    0    0    0  501 -0.00000000000E+00  0.00000000000E+00  0.12294719656E+02  0.12294719656E+02  0.00000000000E+00 0.  1.
          2   -1    0    0  501    0  0.00000000000E+00 -0.00000000000E+00 -0.14103258073E+04  0.14103258073E+04  0.00000000000E+00 0. -1.
         25    2    1    2    0    0 -0.15549937315E+02  0.65568870094E+02 -0.94478469792E+03  0.95540910731E+03  0.12508940654E+03 0.  0.
          5    1    3    3  502    0  0.21000299227E+02 -0.94619500703E+01 -0.60665486843E+03  0.60710636866E+03  0.41800000000E+01 0. -1.
         -5    1    3    3    0  502 -0.36550236542E+02  0.75030820164E+02 -0.33812982949E+03  0.34830273866E+03  0.41800000000E+01 0. -1.
        -11    1    1    2    0    0 -0.68702687211E+00 -0.86268202168E+02 -0.32216054826E+03  0.33351175927E+03  0.00000000000E+00 0. -1.
         11    1    1    2    0    0  0.16236964187E+02  0.20699332074E+02 -0.13108584146E+03  0.13369966038E+03  0.00000000000E+00 0.  1.
</event>
<event>
 7    1  0.2714042E-009  0.9886495E+02  0.7561462E-02  0.1282701E+00
          3   -1    0    0  501    0  0.00000000000E+00  0.00000000000E+00  0.51237867967E+02  0.51237867967E+02  0.00000000000E+00 0. -1.
         -3   -1    0    0    0  501 -0.00000000000E+00 -0.00000000000E+00 -0.37548265920E+03  0.37548265920E+03  0.00000000000E+00 0.  1.
         25    2    1    2    0    0 -0.13461012780E+02  0.68793439849E+02 -0.25662983741E+03  0.29397194836E+03  0.12508755630E+03 0.  0.
          5    1    3    3  502    0 -0.38234338261E+02  0.29397087945E+02 -0.23928233489E+03  0.24413021441E+03  0.41800000000E+01 0. -1.
         -5    1    3    3    0  502  0.24773325480E+02  0.39396351904E+02 -0.17347502524E+02  0.49841733943E+02  0.41800000000E+01 0. -1.
        -11    1    1    2    0    0 -0.25733453868E+02 -0.28611514295E+01 -0.46451031949E+02  0.53179838328E+02  0.00000000000E+00 0.  1.
         11    1    1    2    0    0  0.39194466648E+02 -0.65932288420E+02 -0.21163921871E+02  0.79568740477E+02  0.00000000000E+00 0. -1.
</event>
<event>
 7    1  0.2714042E-009  0.1096276E+03  0.7561462E-02  0.1261261E+00
         -2   -1    0    0    0  501 -0.00000000000E+00  0.00000000000E+00  0.86866592283E+02  0.86866592283E+02  0.00000000000E+00 0.  1.
          2   -1    0    0  501    0  0.00000000000E+00 -0.00000000000E+00 -0.25632927070E+03  0.25632927070E+03  0.00000000000E+00 0. -1.
         25    2    1    2    0    0  0.33767937166E+02 -0.93549827837E+02 -0.11606835914E+03  0.19751099045E+03  0.12508750332E+03 0.  0.
          5    1    3    3  502    0  0.10302084543E+02 -0.13922238525E+02  0.26824363911E+02  0.32202182700E+02  0.41800000000E+01 0. -1.
         -5    1    3    3    0  502  0.23465852623E+02 -0.79627589312E+02 -0.14289272305E+03  0.16530880775E+03  0.41800000000E+01 0. -1.
        -11    1    1    2    0    0 -0.48841103533E+02  0.90650312288E+02 -0.14645808713E+02  0.10400688547E+03  0.00000000000E+00 0.  1.
         11    1    1    2    0    0  0.15073166367E+02  0.28995155490E+01 -0.38748510566E+02  0.41677987066E+02  0.00000000000E+00 0. -1.
</event>
<event>
 7    1  0.2714042E-009  0.9463839E+02  0.7561462E-02  0.1291993E+00
         -2   -1    0    0    0  501 -0.00000000000E+00  0.00000000000E+00  0.52659709719E+02  0.52659709719E+02  0.00000000000E+00 0.  1.
          2   -1    0    0  501    0  0.00000000000E+00 -0.00000000000E+00 -0.23685779356E+03  0.23685779356E+03  0.00000000000E+00 0. -1.
         25    2    1    2    0    0  0.15996167291E+02 -0.13263977992E+02 -0.12836801720E+03  0.18043682482E+03  0.12508912596E+03 0.  0.
          5    1    3    3  502    0 -0.31525794823E+02  0.29453064918E+02 -0.79747312158E+01  0.44072979367E+02  0.41800000000E+01 0.  1.
         -5    1    3    3    0  502  0.47521962114E+02 -0.42717042911E+02 -0.12039328598E+03  0.13636384546E+03  0.41800000000E+01 0.  1.
        -11    1    1    2    0    0  0.25421317394E+02  0.28107939107E+02 -0.52781044341E+02  0.64977982891E+02  0.00000000000E+00 0.  1.
         11    1    1    2    0    0 -0.41417484686E+02 -0.14843961114E+02 -0.30490223062E+01  0.44102695567E+02  0.00000000000E+00 0. -1.
</event>
<event>
 7    1  0.2714042E-009  0.2876328E+03  0.7561462E-02  0.1091592E+00
          2   -1    0    0  501    0  0.00000000000E+00  0.00000000000E+00  0.46504494025E+03  0.46504494025E+03  0.00000000000E+00 0. -1.
         -2   -1    0    0    0  501 -0.00000000000E+00 -0.00000000000E+00 -0.24879428128E+03  0.24879428128E+03  0.00000000000E+00 0.  1.
         25    2    1    2    0    0  0.14870801789E+03 -0.24457032768E+03 -0.45069692531E+02  0.31560720516E+03  0.12509161042E+03 0.  0.
          5    1    3    3  502    0  0.82057935475E+02 -0.10814450347E+03 -0.82841107987E+02  0.15908758587E+03  0.41800000000E+01 0. -1.
         -5    1    3    3    0  502  0.66650082414E+02 -0.13642582421E+03  0.37771415456E+02  0.15651961929E+03  0.41800000000E+01 0. -1.
        -11    1    1    2    0    0 -0.87958241264E+02  0.11814958863E+03  0.75790676729E+02  0.16565085022E+03  0.00000000000E+00 0.  1.
         11    1    1    2    0    0 -0.60749776625E+02  0.12642073905E+03  0.18552967477E+03  0.23258116614E+03  0.00000000000E+00 0. -1.
</event>
<event>
 7    1  0.2714042E-009  0.1143722E+03  0.7561462E-02  0.1252681E+00
         -1   -1    0    0    0  501 -0.00000000000E+00  0.00000000000E+00  0.33640617833E+02  0.33640617833E+02  0.00000000000E+00 0.  1.
          1   -1    0    0  501    0  0.00000000000E+00 -0.00000000000E+00 -0.48998826775E+03  0.48998826775E+03  0.00000000000E+00 0. -1.
         25    2    1    2    0    0 -0.23551939688E+02 -0.50547368158E+02 -0.31003856885E+03  0.33894214844E+03  0.12509250788E+03 0.  0.
          5    1    3    3  502    0 -0.13761590694E+01  0.41711569402E+02 -0.91345248502E+02  0.10051455447E+03  0.41800000000E+01 0.  1.
         -5    1    3    3    0  502 -0.22175780618E+02 -0.92258937560E+02 -0.21869332034E+03  0.23842759397E+03  0.41800000000E+01 0.  1.
        -11    1    1    2    0    0  0.47403105952E+02  0.48603738923E+02 -0.47095220234E+02  0.82627705161E+02  0.00000000000E+00 0.  1.
         11    1    1    2    0    0 -0.23851166265E+02  0.19436292341E+01 -0.99213860838E+02  0.10205903198E+03  0.00000000000E+00 0. -1.
</event>
<event>
 7    1  0.2714042E-009  0.9850746E+02  0.7561462E-02  0.1283466E+00
          2   -1    0    0  501    0  0.00000000000E+00  0.00000000000E+00  0.15280338271E+04  0.15280338271E+04  0.00000000000E+00 0. -1.
         -2   -1    0    0    0  501 -0.00000000000E+00 -0.00000000000E+00 -0.14560205906E+02  0.14560205906E+02  0.00000000000E+00 0.  1.
         25    2    1    2    0    0 -0.29719641730E+02  0.44935284058E+02  0.12779975030E+04  0.12852345423E+04  0.12509106277E+03 0.  0.
          5    1    3    3  502    0  0.34076953967E+02  0.12548335717E+02  0.88506611955E+03  0.88582064093E+03  0.41800000000E+01 0.  1.
         -5    1    3    3    0  502 -0.63796595697E+02  0.32386948340E+02  0.39293138350E+03  0.39941390134E+03  0.41800000000E+01 0.  1.
        -11    1    1    2    0    0 -0.22343557216E+02 -0.23681202866E+02  0.15976599013E+03  0.16304970261E+03  0.00000000000E+00 0. -1.
         11    1    1    2    0    0  0.52063198947E+02 -0.21254081192E+02  0.75710127985E+02  0.94309788100E+02  0.00000000000E+00 0.  1.
</event>
<event>
 7    1  0.2714042E-009  0.1972591E+03  0.7561462E-02  0.1152072E+00
         -1   -1    0    0    0  501 -0.00000000000E+00  0.00000000000E+00  0.59811376607E+03  0.59811376607E+03  0.00000000000E+00 0.  1.
          1   -1    0    0  501    0  0.00000000000E+00 -0.00000000000E+00 -0.86355841247E+02  0.86355841247E+02  0.00000000000E+00 0. -1.
         25    2    1    2    0    0 -0.48256712548E+02 -0.17867992156E+03  0.15284150492E+03  0.27066981903E+03  0.12508557324E+03 0.  0.
          5    1    3    3  502    0 -0.49106757919E+02 -0.10873978311E+03  0.20796318571E+02  0.12118487269E+03  0.41800000000E+01 0.  1.
         -5    1    3    3    0  502  0.85004537026E+00 -0.69940138450E+02  0.13204518634E+03  0.14948494633E+03  0.41800000000E+01 0.  1.
        -11    1    1    2    0    0 -0.16795075162E+02  0.10681111594E+03  0.17014888055E+03  0.20159695085E+03  0.00000000000E+00 0.  1.
         11    1    1    2    0    0  0.65051787711E+02  0.71868805613E+02  0.18876753936E+03  0.21220283745E+03  0.00000000000E+00 0. -1.
</event>
<event>
 7    1  0.2714042E-009  0.1781030E+03  0.7561462E-02  0.1169652E+00
          2   -1    0    0  501    0  0.00000000000E+00  0.00000000000E+00  0.13389691292E+04  0.13389691292E+04  0.00000000000E+00 0. -1.
         -2   -1    0    0    0  501 -0.00000000000E+00 -0.00000000000E+00 -0.30713735683E+02  0.30713735683E+02  0.00000000000E+00 0.  1.
         25    2    1    2    0    0  0.16148503669E+03 -0.22755643531E+02  0.85333514303E+03  0.87773866844E+03  0.12509623239E+03 0.  0.
          5    1    3    3  502    0  0.10487925375E+02  0.27639438191E+02  0.31318950996E+03  0.31460940334E+03  0.41800000000E+01 0.  1.
         -5    1    3    3    0  502  0.15099711131E+03 -0.50395081722E+02  0.54014563308E+03  0.56312926510E+03  0.41800000000E+01 0.  1.
        -11    1    1    2    0    0 -0.59577075775E+02  0.26337332600E+02  0.29629333243E+03  0.30336911822E+03  0.00000000000E+00 0. -1.
         11    1    1    2    0    0 -0.10190796091E+03 -0.35816890686E+01  0.15862691803E+03  0.18857507820E+03  0.00000000000E+00 0.  1.
</event>
<event>
 7    1  0.2714042E-009  0.1070124E+03  0.7561462E-02  0.1266205E+00
          1   -1    0    0  501    0  0.00000000000E+00  0.00000000000E+00  0.45524306577E+03  0.45524306577E+03  0.00000000000E+00 0. -1.
         -1   -1    0    0    0  501 -0.00000000000E+00 -0.00000000000E+00 -0.30456573600E+02  0.30456573600E+02  0.00000000000E+00 0.  1.
         25    2    1    2    0    0  0.19285445261E+02  0.40342308713E+02  0.24433922316E+03  0.27811758516E+03  0.12509318499E+03 0.  0.
          5    1    3    3  502    0  0.43289509131E+02 -0.33616244202E+02  0.99621654833E+02  0.11378040247E+03  0.41800000000E+01 0.  1.
         -5    1    3    3    0  502 -0.24004063870E+02  0.73958552915E+02  0.14471756833E+03  0.16433718269E+03  0.41800000000E+01 0.  1.
        -11    1    1    2    0    0 -0.35324650999E+02 -0.50921167794E+02  0.17767000880E+03  0.18816861674E+03  0.00000000000E+00 0. -1.
         11    1    1    2    0    0  0.16039205738E+02  0.10578859080E+02  0.27772602065E+01  0.19413437470E+02  0.00000000000E+00 0.  1.
</event>
<event>
 7    1  0.2714042E-009  0.1010564E+03  0.7561462E-02  0.1278090E+00
          2   -1    0    0  501    0  0.00000000000E+00  0.00000000000E+00  0.15484076565E+03  0.15484076565E+03  0.00000000000E+00 0. -1.
         -2   -1    0    0    0  501 -0.00000000000E+00 -0.00000000000E+00 -0.11624969751E+03  0.11624969751E+03  0.00000000000E+00 0.  1.
         25    2    1    2    0    0 -0.58382830453E+02 -0.43693033461E+02 -0.11944354969E+02  0.14527913043E+03  0.12508286076E+03 0.  0.
          5    1    3    3  502    0 -0.62937542267E+02 -0.23687865502E+02 -0.61660804111E+02  0.91333325584E+02  0.41800000000E+01 0. -1.
         -5    1    3    3    0  502  0.45547118135E+01 -0.20005167959E+02  0.49716449142E+02  0.53945804842E+02  0.41800000000E+01 0. -1.
        -11    1    1    2    0    0  0.71939639896E+02  0.59223774568E+02  0.48631023224E+02  0.10510824745E+03  0.00000000000E+00 0. -1.
         11    1    1    2    0    0 -0.13556809442E+02 -0.15530741107E+02  0.19043998833E+01  0.20703085289E+02  0.00000000000E+00 0.  1.
</event>
<event>
 7    1  0.2714042E-009  0.1508757E+03  0.7561462E-02  0.1199401E+00
         -1   -1    0    0    0  501 -0.00000000000E+00  0.00000000000E+00  0.26235531693E+02  0.26235531693E+02  0.00000000000E+00 0.  1.
          1   -1    0    0  501    0  0.00000000000E+00 -0.00000000000E+00 -0.96859121366E+03  0.96859121366E+03  0.00000000000E+00 0. -1.
         25    2    1    2    0    0  0.23105040203E+01  0.10056303342E+03 -0.61207418260E+03  0.63277259744E+03  0.12509233768E+03 0.  0.
          5    1    3    3  502    0 -0.76190995825E+01 -0.28824856556E+02 -0.95581132596E+02  0.10021052012E+03  0.41800000000E+01 0. -1.
         -5    1    3    3    0  502  0.99296036028E+01  0.12938788997E+03 -0.51649305000E+03  0.53256207732E+03  0.41800000000E+01 0. -1.
        -11    1    1    2    0    0 -0.56238806646E+01  0.20216629446E+02 -0.19636850894E+02  0.28739277182E+02  0.00000000000E+00 0.  1.
         11    1    1    2    0    0  0.33133766443E+01 -0.12077966286E+03 -0.31064464847E+03  0.33331487073E+03  0.00000000000E+00 0. -1.
</event>
<event>
 7    1  0.2714042E-009  0.1256884E+03  0.7561462E-02  0.1233997E+00
         -2   -1    0    0    0  501 -0.00000000000E+00  0.00000000000E+00  0.11795260156E+03  0.11795260156E+03  0.00000000000E+00 0.  1.
          2   -1    0    0  501    0  0.00000000000E+00 -0.00000000000E+00 -0.15214965243E+03  0.15214965243E+03  0.00000000000E+00 0. -1.
         25    2    1    2    0    0  0.21718402100E+01 -0.77474407277E+02 -0.34429856984E+02  0.15112792585E+03  0.12508890537E+03 0.  0.
          5    1    3    3  502    0 -0.57519690718E+01  0.33939789525E+02 -0.14524227201E+02  0.37595478944E+02  0.41800000000E+01 0.  1.
         -5    1    3    3    0  502  0.79238092818E+01 -0.11141419680E+03 -0.19905629783E+02  0.11353244690E+03  0.41800000000E+01 0.  1.
        -11    1    1    2    0    0 -0.34696165130E+02  0.56248148746E+02  0.27435980327E+02  0.71557048071E+02  0.00000000000E+00 0.  1.
         11    1    1    2    0    0  0.32524324920E+02  0.21226258531E+02 -0.27203174206E+02  0.47417280074E+02  0.00000000000E+00 0. -1.
</event>
<event>
 7    1  0.2714042E-009  0.1748948E+03  0.7561462E-02  0.1172837E+00
          1   -1    0    0  501    0  0.00000000000E+00  0.00000000000E+00  0.90019052493E+02  0.90019052493E+02  0.00000000000E+00 0. -1.
         -1   -1    0    0    0  501 -0.00000000000E+00 -0.00000000000E+00 -0.46067762336E+03  0.46067762336E+03  0.00000000000E+00 0.  1.
         25    2    1    2    0    0 -0.16211697628E+03 -0.22684344028E+02 -0.26153035652E+03  0.33292906301E+03  0.12508852927E+03 0.  0.
          5    1    3    3  502    0 -0.12376149067E+03 -0.55025537627E+02 -0.11412308737E+03  0.17716169968E+03  0.41800000000E+01 0. -1.
         -5    1    3    3    0  502 -0.38355485605E+02  0.32341193600E+02 -0.14740726915E+03  0.15576736333E+03  0.41800000000E+01 0. -1.
        -11    1    1    2    0    0  0.22296503345E+02  0.45150018284E-01  0.17055235678E+02  0.28071643414E+02  0.00000000000E+00 0. -1.
         11    1    1    2    0    0  0.13982047293E+03  0.22639194009E+02 -0.12618345003E+03  0.18969596943E+03  0.00000000000E+00 0.  1.
</event>
<event>
 7    1  0.2714042E-009  0.3292923E+03  0.7561462E-02  0.1071450E+00
          2   -1    0    0  501    0  0.00000000000E+00  0.00000000000E+00  0.11851668771E+04  0.11851668771E+04  0.00000000000E+00 0. -1.
         -2   -1    0    0    0  501 -0.00000000000E+00 -0.00000000000E+00 -0.15446550527E+03  0.15446550527E+03  0.00000000000E+00 0.  1.
         25    2    1    2    0    0  0.32614261896E+03  0.36653564714E+02  0.91430372361E+03  0.97944471167E+03  0.12509257572E+03 0.  0.
          5    1    3    3  502    0  0.23063046670E+02 -0.40009514119E+01  0.21347966305E+03  0.21479979206E+03  0.41800000000E+01 0. -1.
         -5    1    3    3    0  502  0.30307957229E+03  0.40654516126E+02  0.70082406056E+03  0.76464491961E+03  0.41800000000E+01 0. -1.
        -11    1    1    2    0    0 -0.24159012608E+03 -0.37152891945E+02  0.12616676755E+03  0.27507122647E+03  0.00000000000E+00 0. -1.
         11    1    1    2    0    0 -0.84552492889E+02  0.49932723139E+00 -0.97691193532E+01  0.85116444206E+02  0.00000000000E+00 0.  1.
</event>
<event>
 7    1  0.2714042E-009  0.6859361E+02  0.7561462E-02  0.1364942E+00
          2   -1    0    0  501    0  0.00000000000E+00  0.00000000000E+00  0.29634163935E+03  0.29634163935E+03  0.00000000000E+00 0. -1.
         -2   -1    0    0    0  501 -0.00000000000E+00 -0.00000000000E+00 -0.49433175443E+02  0.49433175443E+02  0.00000000000E+00 0.  1.
         25    2    1    2    0    0  0.53685290643E+01  0.12892937624E+02  0.65400100935E+02  0.14184410229E+03  0.12509007638E+03 0.  0.
          5    1    3    3  502    0  0.14243027582E+02 -0.24199173948E+02  0.91261184226E+02  0.95574787474E+02  0.41800000000E+01 0.  1.
         -5    1    3    3    0  502 -0.88744985177E+01  0.37092111572E+02 -0.25861083290E+02  0.46269314818E+02  0.41800000000E+01 0.  1.
        -11    1    1    2    0    0 -0.33742019182E+02 -0.22407509571E+02  0.32456275280E+02  0.51904047518E+02  0.00000000000E+00 0.  1.
         11    1    1    2    0    0  0.28373490117E+02  0.95145719472E+01  0.14905208769E+03  0.15202666498E+03  0.00000000000E+00 0. -1.
</event>
<event>
 7    1  0.2714042E-009  0.8129439E+02  0.7561462E-02  0.1325418E+00
         -1   -1    0    0    0  501 -0.00000000000E+00  0.00000000000E+00  0.47331064972E+03  0.47331064972E+03  0.00000000000E+00 0.  1.
          1   -1    0    0  501    0  0.00000000000E+00 -0.00000000000E+00 -0.32716907195E+02  0.32716907195E+02  0.00000000000E+00 0. -1.
         25    2    1    2    0    0  0.41947803652E+02  0.30508038533E+02  0.18392063865E+03  0.22839589603E+03  0.12509006897E+03 0.  0.
          5    1    3    3  502    0 -0.23932123558E+01  0.10848994723E+02 -0.17516351028E+02  0.21159468453E+02  0.41800000000E+01 0.  1.
         -5    1    3    3    0  502  0.44341016007E+02  0.19659043810E+02  0.20143698968E+03  0.20723642758E+03  0.41800000000E+01 0.  1.
        -11    1    1    2    0    0 -0.41987135994E+02  0.23440141409E+02  0.84737128350E+02  0.97430697109E+02  0.00000000000E+00 0.  1.
         11    1    1    2    0    0  0.39332342190E-01 -0.53948179941E+02  0.17193597553E+03  0.18020096378E+03  0.00000000000E+00 0. -1.
</event>
<event>
 7    1  0.2714042E-009  0.1151947E+03  0.7561462E-02  0.1251242E+00
         -2   -1    0    0    0  501 -0.00000000000E+00  0.00000000000E+00  0.70376017131E+02  0.70376017131E+02  0.00000000000E+00 0.  1.
          2   -1    0    0  501    0  0.00000000000E+00 -0.00000000000E+00 -0.24167320398E+03  0.24167320398E+03  0.00000000000E+00 0. -1.
         25    2    1    2    0    0 -0.95494519071E+01  0.69362449303E+02 -0.11017071735E+03  0.18079509539E+03  0.12508772181E+03 0.  0.
          5    1    3    3  502    0 -0.47488043877E+02  0.58358473400E+02 -0.13865759369E+02  0.76619562853E+02  0.41800000000E+01 0. -1.
         -5    1    3    3    0  502  0.37938591970E+02  0.11003975903E+02 -0.96304957984E+02  0.10417553253E+03  0.41800000000E+01 0. -1.
        -11    1    1    2    0    0 -0.40644416780E+02 -0.40662026595E+02 -0.22602073885E+02  0.61775583899E+02  0.00000000000E+00 0. -1.
         11    1    1    2    0    0  0.50193868687E+02 -0.28700422708E+02 -0.38524395614E+02  0.69478541830E+02  0.00000000000E+00 0.  1.
</event>
<event>
 7    1  0.2714042E-009  0.1191984E+03  0.7561462E-02  0.1244425E+00
         -1   -1    0    0    0  501 -0.00000000000E+00  0.00000000000E+00  0.81736969357E+02  0.81736969357E+02  0.00000000000E+00 0.  1.
          1   -1    0    0  501    0  0.00000000000E+00 -0.00000000000E+00 -0.34029266120E+03  0.34029266120E+03  0.00000000000E+00 0. -1.
         25    2    1    2    0    0 -0.73156459924E+02  0.66690612723E+02 -0.23761956966E+03  0.28619923077E+03  0.12508970524E+03 0.  0.
          5    1    3    3  502    0 -0.69905095287E+02  0.35316574589E+02 -0.24171286082E+03  0.25411918911E+03  0.41800000000E+01 0. -1.
         -5    1    3    3    0  502 -0.32513646377E+01  0.31374038134E+02  0.40932911609E+01  0.32080041667E+02  0.41800000000E+01 0. -1.
        -11    1    1    2    0    0  0.14715861873E+02  0.19243106717E+02  0.11701664220E+02  0.26903209703E+02  0.00000000000E+00 0.  1.
         11    1    1    2    0    0  0.58440598051E+02 -0.85933719440E+02 -0.32637786406E+02  0.10892719008E+03  0.00000000000E+00 0. -1.
</event>
<event>
 7    1  0.2714042E-009  0.1285063E+03  0.7561462E-02  0.1229689E+00
          1   -1    0    0  501    0  0.00000000000E+00  0.00000000000E+00  0.64388217272E+03  0.64388217272E+03  0.00000000000E+00 0. -1.
         -1   -1    0    0    0  501 -0.00000000000E+00 -0.00000000000E+00 -0.40069218608E+02  0.40069218608E+02  0.00000000000E+00 0.  1.
         25    2    1    2    0    0 -0.30252232153E+02 -0.12429732066E+03  0.36394594363E+03  0.40554849081E+03  0.12509159460E+03 0.  0.
          5    1    3    3  502    0 -0.29013772080E+02 -0.11528554470E+03  0.37333241325E+03  0.39182536795E+03  0.41800000000E+01 0. -1.
         -5    1    3    3    0  502 -0.12384600734E+01 -0.90117759564E+01 -0.93864696151E+01  0.13723122862E+02  0.41800000000E+01 0. -1.
        -11    1    1    2    0    0  0.13030366083E+02  0.65340066906E+02  0.65075987487E+02  0.93134305875E+02  0.00000000000E+00 0. -1.
         11    1    1    2    0    0  0.17221866071E+02  0.58957253755E+02  0.17479102299E+03  0.18526859464E+03  0.00000000000E+00 0.  1.
</event>
<event>
 7    1  0.2714042E-009  0.9714681E+02  0.7561462E-02  0.1286413E+00
          2   -1    0    0  501    0  0.00000000000E+00  0.00000000000E+00  0.25680959065E+02  0.25680959065E+02  0.00000000000E+00 0.  1.
         -2   -1    0    0    0  501 -0.00000000000E+00 -0.00000000000E+00 -0.48213597896E+03  0.48213597896E+03  0.00000000000E+00 0. -1.
         25    2    1    2    0    0 -0.11074652672E+02 -0.12997817155E+02 -0.28519007765E+03  0.31188564664E+03  0.12509070711E+03 0.  0.
          5    1    3    3  502    0 -0.50961390851E+01 -0.56741226760E+02 -0.61880972293E+02  0.84215583948E+02  0.41800000000E+01 0. -1.
         -5    1    3    3    0  502 -0.59785135872E+01  0.43743409605E+02 -0.22330910536E+03  0.22767006269E+03  0.41800000000E+01 0. -1.
        -11    1    1    2    0    0 -0.40213142951E+02  0.10055150354E+02 -0.55421663935E+02  0.69208119090E+02  0.00000000000E+00 0.  1.
         11    1    1    2    0    0  0.51287795623E+02  0.29426668002E+01 -0.11584327831E+03  0.12672317229E+03  0.00000000000E+00 0. -1.
</event>
<event>
 7    1  0.2714042E-009  0.1191092E+03  0.7561462E-02  0.1244574E+00
          1   -1    0    0  501    0  0.00000000000E+00  0.00000000000E+00  0.22752304286E+03  0.22752304286E+03  0.00000000000E+00 0. -1.
         -1   -1    0    0    0  501 -0.00000000000E+00 -0.00000000000E+00 -0.12569036348E+03  0.12569036348E+03  0.00000000000E+00 0.  1.
         25    2    1    2    0    0 -0.34057080270E+02 -0.11010054152E+03  0.11489337339E+03  0.20525519379E+03  0.12508874197E+03 0.  0.
          5    1    3    3  502    0 -0.31325392719E+02 -0.70402158972E+02 -0.64948145485E+01  0.77442877226E+02  0.41800000000E+01 0.  1.
         -5    1    3    3    0  502 -0.27316875513E+01 -0.39698382549E+02  0.12138818794E+03  0.12781231656E+03  0.41800000000E+01 0.  1.
        -11    1    1    2    0    0  0.14998739797E+02  0.96413543925E+02 -0.45712167492E+02  0.10775034062E+03  0.00000000000E+00 0.  1.
         11    1    1    2    0    0  0.19058340472E+02  0.13686997596E+02  0.32651473484E+02  0.40207871934E+02  0.00000000000E+00 0. -1.
</event>
<event>
 7    1  0.2714042E-009  0.1363275E+03  0.7561462E-02  0.1218358E+00
          2   -1    0    0  501    0  0.00000000000E+00  0.00000000000E+00  0.13019708650E+04  0.13019708650E+04  0.00000000000E+00 0.  1.
         -2   -1    0    0    0  501 -0.00000000000E+00 -0.00000000000E+00 -0.17811383518E+02  0.17811383518E+02  0.00000000000E+00 0. -1.
         25    2    1    2    0    0  0.17886005033E+02 -0.10478142688E+03  0.77425750179E+03  0.79146874352E+03  0.12509610825E+03 0.  0.
          5    1    3    3  502    0  0.45010365268E+02 -0.28431735221E+02  0.55704081701E+03  0.55959471116E+03  0.41800000000E+01 0. -1.
         -5    1    3    3    0  502 -0.27124360235E+02 -0.76349691659E+02  0.21721668478E+03  0.23187403236E+03  0.41800000000E+01 0. -1.
        -11    1    1    2    0    0 -0.45887059101E+02  0.99575238270E+02  0.39494705359E+03  0.40988294111E+03  0.00000000000E+00 0.  1.
         11    1    1    2    0    0  0.28001054067E+02  0.52061886106E+01  0.11495492614E+03  0.11843056393E+03  0.00000000000E+00 0. -1.
</event>
<event>
 7    1  0.2714042E-009  0.1048311E+03  0.7561462E-02  0.1270453E+00
          2   -1    0    0  501    0  0.00000000000E+00  0.00000000000E+00  0.67209549287E+03  0.67209549287E+03  0.00000000000E+00 0. -1.
         -2   -1    0    0    0  501 -0.00000000000E+00 -0.00000000000E+00 -0.17601579164E+02  0.17601579164E+02  0.00000000000E+00 0.  1.
         25    2    1    2    0    0  0.54905532285E+01  0.26286963328E+01  0.38152154471E+03  0.40155028863E+03  0.12508752539E+03 0.  0.
          5    1    3    3  502    0  0.28347050740E+02  0.53938207609E+02  0.12770186405E+03  0.14155608079E+03  0.41800000000E+01 0. -1.
         -5    1    3    3    0  502 -0.22856497512E+02 -0.51309511276E+02  0.25381968066E+03  0.25999420785E+03  0.41800000000E+01 0. -1.
        -11    1    1    2    0    0 -0.15255222438E+02 -0.45656792455E+02  0.14499799171E+03  0.15277984851E+03  0.00000000000E+00 0.  1.
         11    1    1    2    0    0  0.97646692090E+01  0.43028096122E+02  0.12797437729E+03  0.13536693489E+03  0.00000000000E+00 0. -1.
</event>
<event>
 7    1  0.2714042E-009  0.1049076E+03  0.7561462E-02  0.1270302E+00
         -1   -1    0    0    0  501 -0.00000000000E+00  0.00000000000E+00  0.10283048284E+03  0.10283048284E+03  0.00000000000E+00 0. -1.
          1   -1    0    0  501    0  0.00000000000E+00 -0.00000000000E+00 -0.20499754219E+03  0.20499754219E+03  0.00000000000E+00 0.  1.
         25    2    1    2    0    0  0.16864944916E+02 -0.66155207403E+02 -0.12758126823E+03  0.19127201252E+03  0.12508822860E+03 0.  0.
          5    1    3    3  502    0  0.51414563114E+02 -0.38657355383E+02 -0.95287673476E+01  0.65162245454E+02  0.41800000000E+01 0. -1.
         -5    1    3    3    0  502 -0.34549618198E+02 -0.27497852020E+02 -0.11805250088E+03  0.12610976706E+03  0.41800000000E+01 0. -1.
        -11    1    1    2    0    0  0.29545890961E+02  0.21018395590E+02  0.35838774610E+02  0.50981863357E+02  0.00000000000E+00 0. -1.
         11    1    1    2    0    0 -0.46410835877E+02  0.45136811813E+02 -0.10424565733E+02  0.65574149161E+02  0.00000000000E+00 0.  1.
</event>
<event>
 7    1  0.2714042E-009  0.2163855E+03  0.7561462E-02  0.1136607E+00
         -2   -1    0    0    0  501 -0.00000000000E+00  0.00000000000E+00  0.23009943702E+03  0.23009943702E+03  0.00000000000E+00 0.  1.
          2   -1    0    0  501    0  0.00000000000E+00 -0.00000000000E+00 -0.24130918173E+03  0.24130918173E+03  0.00000000000E+00 0. -1.
         25    2    1    2    0    0  0.13408320495E+03 -0.15227957410E+03  0.45181558742E+02  0.24260439128E+03  0.12509253726E+03 0.  0.
          5    1    3    3  502    0 -0.35245590441E+00 -0.72829068050E+02 -0.16263110539E+02  0.74740608390E+02  0.41800000000E+01 0.  1.
         -5    1    3    3    0  502  0.13443566086E+03 -0.79450506049E+02  0.61444669281E+02  0.16786378289E+03  0.41800000000E+01 0.  1.
        -11    1    1    2    0    0 -0.70104068959E+02  0.66781273947E+02 -0.72303235469E+02  0.12083905368E+03  0.00000000000E+00 0. -1.
         11    1    1    2    0    0 -0.63979135993E+02  0.85498300152E+02  0.15911932024E+02  0.10796517379E+03  0.00000000000E+00 0.  1.
</event>
<event>
 7    1  0.2714042E-009  0.1235562E+03  0.7561462E-02  0.1237343E+00
         -1   -1    0    0    0  501 -0.00000000000E+00  0.00000000000E+00  0.65387974866E+02  0.65387974866E+02  0.00000000000E+00 0.  1.
          1   -1    0    0  501    0  0.00000000000E+00 -0.00000000000E+00 -0.28227437368E+03  0.28227437368E+03  0.00000000000E+00 0. -1.
         25    2    1    2    0    0 -0.78885489962E+01  0.64193293814E+02 -0.17763885793E+03  0.22668518631E+03  0.12509037401E+03 0.  0.
          5    1    3    3  502    0 -0.56377262008E+02  0.62347569308E+02 -0.73570840752E+02  0.11178441787E+03  0.41800000000E+01 0. -1.
         -5    1    3    3    0  502  0.48488713012E+02  0.18457245062E+01 -0.10406801718E+03  0.11490076844E+03  0.41800000000E+01 0. -1.
        -11    1    1    2    0    0 -0.37794427287E+02 -0.56418877162E+02 -0.26701726117E+02  0.72969107243E+02  0.00000000000E+00 0.  1.
         11    1    1    2    0    0  0.45682976284E+02 -0.77744166523E+01 -0.12545814773E+02  0.48008054998E+02  0.00000000000E+00 0. -1.
</event>
<event>
 7    1  0.2714042E-009  0.9035010E+02  0.7561462E-02  0.1302006E+00
          1   -1    0    0  501    0  0.00000000000E+00  0.00000000000E+00  0.27103975197E+03  0.27103975197E+03  0.00000000000E+00 0. -1.
         -1   -1    0    0    0  501 -0.00000000000E+00 -0.00000000000E+00 -0.57420171113E+02  0.57420171113E+02  0.00000000000E+00 0.  1.
         25    2    1    2    0    0  0.25824679027E+01  0.34519290756E+02  0.18744377851E+03  0.22799244112E+03  0.12508849879E+03 0.  0.
          5    1    3    3  502    0 -0.47010256578E+02  0.30427902890E+02  0.16298575236E+03  0.17238807780E+03  0.41800000000E+01 0. -1.
         -5    1    3    3    0  502  0.49592724480E+02  0.40913878655E+01  0.24458026153E+02  0.55604363312E+02  0.41800000000E+01 0. -1.
        -11    1    1    2    0    0  0.31720836046E+02 -0.18828221147E+02 -0.19097871819E+02  0.41538440739E+02  0.00000000000E+00 0.  1.
         11    1    1    2    0    0 -0.34303303948E+02 -0.15691069608E+02  0.45273674164E+02  0.58929041224E+02  0.00000000000E+00 0. -1.
</event>
<event>
 7    1  0.2714042E-009  0.1154870E+03  0.7561462E-02  0.1250733E+00
         -2   -1    0    0    0  501 -0.00000000000E+00  0.00000000000E+00  0.11502156118E+03  0.11502156118E+03  0.00000000000E+00 0.  1.
          2   -1    0    0  501    0  0.00000000000E+00 -0.00000000000E+00 -0.14150774701E+03  0.14150774701E+03  0.00000000000E+00 0. -1.
         25    2    1    2    0    0  0.24499576018E+02 -0.61554525492E+02 -0.24688964114E+02  0.14368768978E+03  0.12508964151E+03 0.  0.
          5    1    3    3  502    0  0.68581012680E+02 -0.44866134319E+02 -0.43367999352E+02  0.92814767557E+02  0.41800000000E+01 0. -1.
         -5    1    3    3    0  502 -0.44081436662E+02 -0.16688391172E+02  0.18679035238E+02  0.50872922223E+02  0.41800000000E+01 0. -1.
        -11    1    1    2    0    0 -0.48465515877E+02  0.17658249235E+02 -0.25448973812E+02  0.57518434118E+02  0.00000000000E+00 0. -1.
         11    1    1    2    0    0  0.23965939859E+02  0.43896276257E+02  0.23651752094E+02  0.55323184287E+02  0.00000000000E+00 0.  1.
</event>
<event>
 7    1  0.2714042E-009  0.1709765E+03  0.7561462E-02  0.1176833E+00
          2   -1    0    0  501    0  0.00000000000E+00  0.00000000000E+00  0.80862722057E+03  0.80862722057E+03  0.00000000000E+00 0. -1.
         -2   -1    0    0    0  501 -0.00000000000E+00 -0.00000000000E+00 -0.42582749086E+02  0.42582749086E+02  0.00000000000E+00 0.  1.
         25    2    1    2    0    0 -0.10039468684E+03 -0.11128520484E+03  0.38464363937E+03  0.43134863542E+03  0.12508967188E+03 0.  0.
          5    1    3    3  502    0 -0.85417825695E+02 -0.71060509154E+01  0.21709666675E+03  0.23344193286E+03  0.41800000000E+01 0.  1.
         -5    1    3    3    0  502 -0.14976861144E+02 -0.10417915393E+03  0.16754697262E+03  0.19790670256E+03  0.41800000000E+01 0.  1.
        -11    1    1    2    0    0  0.66384455641E+02  0.61376886804E+02  0.11283368542E+03  0.14458720120E+03  0.00000000000E+00 0. -1.
         11    1    1    2    0    0  0.34010231198E+02  0.49908318038E+02  0.26856714669E+03  0.27527413303E+03  0.00000000000E+00 0.  1.
</event>
<event>
 7    1  0.2714042E-009  0.7447525E+02  0.7561462E-02  0.1345504E+00
          2   -1    0    0  501    0  0.00000000000E+00  0.00000000000E+00  0.76878507169E+02  0.76878507169E+02  0.00000000000E+00 0. -1.
         -2   -1    0    0    0  501 -0.00000000000E+00 -0.00000000000E+00 -0.17729990685E+03  0.17729990685E+03  0.00000000000E+00 0.  1.
         25    2    1    2    0    0  0.36726977813E+02  0.18909972731E+02 -0.76000789891E+02  0.15208964714E+03  0.12509469508E+03 0.  0.
          5    1    3    3  502    0  0.17999098328E+02 -0.55138195270E+01 -0.10669409331E+03  0.10842265305E+03  0.41800000000E+01 0. -1.
         -5    1    3    3    0  502  0.18727879485E+02  0.24423792258E+02  0.30693303422E+02  0.43666994094E+02  0.41800000000E+01 0. -1.
        -11    1    1    2    0    0 -0.18198648570E+02 -0.55057777871E+02 -0.92090849090E+01  0.58714197250E+02  0.00000000000E+00 0. -1.
         11    1    1    2    0    0 -0.18528329243E+02  0.36147805140E+02 -0.15211524881E+02  0.43374569626E+02  0.00000000000E+00 0.  1.
</event>
<event>
 7    1  0.2714042E-009  0.1612771E+03  0.7561462E-02  0.1187262E+00
          2   -1    0    0  501    0  0.00000000000E+00  0.00000000000E+00  0.10118203810E+04  0.10118203810E+04  0.00000000000E+00 0. -1.
         -2   -1    0    0    0  501 -0.00000000000E+00 -0.00000000000E+00 -0.31616193276E+02  0.31616193276E+02  0.00000000000E+00 0.  1.
         25    2    1    2    0    0  0.77321650045E+02 -0.93657134871E+02  0.74557391233E+03  0.76568858148E+03  0.12509295972E+03 0.  0.
          5    1    3    3  502    0 -0.19116834314E+02 -0.73073336434E+02  0.32619517318E+03  0.33485210057E+03  0.41800000000E+01 0.  1.
         -5    1    3    3    0  502  0.96438484359E+02 -0.20583798438E+02  0.41937873915E+03  0.43083648090E+03  0.41800000000E+01 0.  1.
        -11    1    1    2    0    0  0.17792768890E+02  0.25912321379E+02  0.58784377341E+02  0.66660588382E+02  0.00000000000E+00 0.  1.
         11    1    1    2    0    0 -0.95114418934E+02  0.67744813492E+02  0.17584589806E+03  0.21108740443E+03  0.00000000000E+00 0. -1.
</event>
<event>
 7    1  0.2714042E-009  0.1960635E+03  0.7561462E-02  0.1153103E+00
          1   -1    0    0  501    0  0.00000000000E+00  0.00000000000E+00  0.23414215403E+04  0.23414215403E+04  0.00000000000E+00 0. -1.
         -1   -1    0    0    0  501 -0.00000000000E+00 -0.00000000000E+00 -0.25103315167E+02  0.25103315167E+02  0.00000000000E+00 0.  1.
         25    2    1    2    0    0  0.17462190979E+03  0.39839593133E+02  0.17884011572E+04  0.18016955750E+04  0.12509293078E+03 0.  0.
          5    1    3    3  502    0  0.14528466484E+03  0.63211078896E+02  0.10082048455E+04  0.10205869670E+04  0.41800000000E+01 0.  1.
         -5    1    3    3    0  502  0.29337244952E+02 -0.23371485764E+02  0.78019631169E+03  0.78110860798E+03  0.41800000000E+01 0.  1.
        -11    1    1    2    0    0 -0.59289420468E+02 -0.53364061679E+02  0.15609079050E+03  0.17529202302E+03  0.00000000000E+00 0.  1.
         11    1    1    2    0    0 -0.11533248932E+03  0.13524468546E+02  0.37182627741E+03  0.38953725742E+03  0.00000000000E+00 0. -1.
</event>
<event>
 7    1  0.2714042E-009  0.8439807E+02  0.7561462E-02  0.1317014E+00
         -1   -1    0    0    0  501 -0.00000000000E+00  0.00000000000E+00  0.18516095273E+03  0.18516095273E+03  0.00000000000E+00 0.  1.
          1   -1    0    0  501    0  0.00000000000E+00 -0.00000000000E+00 -0.73833810820E+02  0.73833810820E+02  0.00000000000E+00 0. -1.
         25    2    1    2    0    0  0.91750656316E+01  0.21675887964E+02  0.29797192240E+02  0.13072449318E+03  0.12508794708E+03 0.  0.
          5    1    3    3  502    0  0.13528333710E+02  0.62655052969E+02  0.52973125376E+02  0.83260410086E+02  0.41800000000E+01 0.  1.
         -5    1    3    3    0  502 -0.43532680781E+01 -0.40979165006E+02 -0.23175933135E+02  0.47464083097E+02  0.41800000000E+01 0.  1.
        -11    1    1    2    0    0 -0.32149983834E+02 -0.23895968959E+02 -0.34549000372E+01  0.40206655261E+02  0.00000000000E+00 0. -1.
         11    1    1    2    0    0  0.22974918203E+02  0.22200809951E+01  0.84984849708E+02  0.88063615108E+02  0.00000000000E+00 0.  1.
</event>
<event>
 7    1  0.2714042E-009  0.1557184E+03  0.7561462E-02  0.1193617E+00
         -2   -1    0    0    0  501 -0.00000000000E+00  0.00000000000E+00  0.30125281083E+02  0.30125281083E+02  0.00000000000E+00 0.  1.
          2   -1    0    0  501    0  0.00000000000E+00 -0.00000000000E+00 -0.12238270696E+04  0.12238270696E+04  0.00000000000E+00 0. -1.
         25    2    1    2    0    0  0.71739421021E+02  0.12782916635E+03 -0.81340299609E+03  0.83591814398E+03  0.12509144293E+03 0.  0.
          5    1    3    3  502    0  0.31141062677E+02  0.17992458435E+02 -0.50029190392E+03  0.50160039461E+03  0.41800000000E+01 0.  1.
         -5    1    3    3    0  502  0.40598358344E+02  0.10983670792E+03 -0.31311109217E+03  0.33431774937E+03  0.41800000000E+01 0.  1.
        -11    1    1    2    0    0 -0.72738097323E+02 -0.72438382746E+02 -0.15418586458E+03  0.18523344983E+03  0.00000000000E+00 0.  1.
         11    1    1    2    0    0  0.99867630181E+00 -0.55390783609E+02 -0.22611292788E+03  0.23280075691E+03  0.00000000000E+00 0. -1.
</event>
<event>
 7    1  0.2714042E-009  0.1413147E+03  0.7561462E-02  0.1211571E+00
          3   -1    0    0  501    0  0.00000000000E+00  0.00000000000E+00  0.50400486350E+02  0.50400486350E+02  0.00000000000E+00 0. -1.
         -3   -1    0    0    0  501 -0.00000000000E+00 -0.00000000000E+00 -0.41474999883E+03  0.41474999883E+03  0.00000000000E+00 0.  1.
         25    2    1    2    0    0  0.93024061458E+02  0.18172731087E+02 -0.18332362794E+03  0.24132291857E+03  0.12508187041E+03 0.  0.
          5    1    3    3  502    0  0.37543368864E+02  0.67035457379E+02 -0.12617375790E+03  0.14778547518E+03  0.41800000000E+01 0.  1.
         -5    1    3    3    0  502  0.55480692594E+02 -0.48862726293E+02 -0.57149870035E+02  0.93537443393E+02  0.41800000000E+01 0.  1.
        -11    1    1    2    0    0 -0.23227892727E+02  0.36301660884E+02 -0.58614344898E+02  0.72752917545E+02  0.00000000000E+00 0. -1.
         11    1    1    2    0    0 -0.69796168732E+02 -0.54474391971E+02 -0.12241153965E+03  0.15107464906E+03  0.00000000000E+00 0.  1.
</event>
<event>
 7    1  0.2714042E-009  0.1099366E+03  0.7561462E-02  0.1260687E+00
         -2   -1    0    0    0  501 -0.00000000000E+00  0.00000000000E+00  0.18683138787E+02  0.18683138787E+02  0.00000000000E+00 0.  1.
          2   -1    0    0  501    0  0.00000000000E+00 -0.00000000000E+00 -0.10052515264E+04  0.10052515264E+04  0.00000000000E+00 0. -1.
         25    2    1    2    0    0  0.31238417344E+02  0.29821207248E+02 -0.81353392468E+03  0.82422688040E+03  0.12508941060E+03 0.  0.
          5    1    3    3  502    0 -0.77617535126E+01  0.72789285380E+02 -0.40709703925E+03  0.41364718862E+03  0.41800000000E+01 0.  1.
         -5    1    3    3    0  502  0.39000170856E+02 -0.42968078132E+02 -0.40643688543E+03  0.41057969178E+03  0.41800000000E+01 0.  1.
        -11    1    1    2    0    0 -0.56259101311E+02 -0.11655410899E+02 -0.62345840749E+02  0.84781713490E+02  0.00000000000E+00 0.  1.
         11    1    1    2    0    0  0.25020683967E+02 -0.18165796349E+02 -0.11068862214E+03  0.11492607125E+03  0.00000000000E+00 0. -1.
</event>
<event>
 7    1  0.2714042E-009  0.9157752E+02  0.7561462E-02  0.1299076E+00
          2   -1    0    0  501    0  0.00000000000E+00  0.00000000000E+00  0.20274332309E+03  0.20274332309E+03  0.00000000000E+00 0. -1.
         -2   -1    0    0    0  501 -0.00000000000E+00 -0.00000000000E+00 -0.69331619752E+02  0.69331619752E+02  0.00000000000E+00 0.  1.
         25    2    1    2    0    0 -0.20880852606E+01  0.13797675911E+02  0.12703231305E+03  0.17882701077E+03  0.12508858965E+03 0.  0.
          5    1    3    3  502    0  0.36627073995E+00  0.69552757358E+02  0.65172120600E+02  0.95407535939E+02  0.41800000000E+01 0.  1.
         -5    1    3    3    0  502 -0.24543560005E+01 -0.55755081448E+02  0.61860192454E+02  0.83419474830E+02  0.41800000000E+01 0.  1.
        -11    1    1    2    0    0 -0.94823328486E+01  0.19812334402E+02 -0.33353096527E+02  0.39935852046E+02  0.00000000000E+00 0.  1.
         11    1    1    2    0    0  0.11570418109E+02 -0.33610010313E+02  0.39732486808E+02  0.53312080024E+02  0.00000000000E+00 0. -1.
</event>
<event>
 7    1  0.2714042E-009  0.1419964E+03  0.7561462E-02  0.1210668E+00
          1   -1    0    0  501    0  0.00000000000E+00  0.00000000000E+00  0.40531705107E+03  0.40531705107E+03  0.00000000000E+00 0. -1.
         -1   -1    0    0    0  501 -0.00000000000E+00 -0.00000000000E+00 -0.56079329305E+02  0.56079329305E+02  0.00000000000E+00 0.  1.
         25    2    1    2    0    0  0.88614625958E+02 -0.53100603486E+02  0.22983600396E+03  0.28132609727E+03  0.12509020050E+03 0.  0.
          5    1    3    3  502    0  0.10112764391E+03 -0.63910421851E+01  0.98784104137E+02  0.14157477676E+03  0.41800000000E+01 0.  1.
         -5    1    3    3    0  502 -0.12513017956E+02 -0.46709561301E+02  0.13105189983E+03  0.13975132051E+03  0.41800000000E+01 0.  1.
        -11    1    1    2    0    0 -0.44775089897E+02  0.73203611709E+02  0.67142798112E+02  0.10895748153E+03  0.00000000000E+00 0.  1.
         11    1    1    2    0    0 -0.43839536061E+02 -0.20103008223E+02  0.52258919687E+02  0.71112801580E+02  0.00000000000E+00 0. -1.
</event>
<event>
 7    1  0.2714042E-009  0.1623055E+03  0.7561462E-02  0.1186118E+00
         -2   -1    0    0    0  501 -0.00000000000E+00  0.00000000000E+00  0.16064956020E+02  0.16064956020E+02  0.00000000000E+00 0.  1.
          2   -1    0    0  501    0  0.00000000000E+00 -0.00000000000E+00 -0.17311711011E+04  0.17311711011E+04  0.00000000000E+00 0. -1.
         25    2    1    2    0    0  0.12088479127E+03  0.37395169243E+02 -0.90201545682E+03  0.91939728806E+03  0.12509179638E+03 0.  0.
          5    1    3    3  502    0  0.64498825879E+02 -0.41115448076E+02 -0.29832394941E+03  0.30800199643E+03  0.41800000000E+01 0. -1.
         -5    1    3    3    0  502  0.56385965387E+02  0.78510617319E+02 -0.60369150740E+03  0.61139529164E+03  0.41800000000E+01 0. -1.
        -11    1    1    2    0    0 -0.12951466348E+03 -0.18951531774E+02 -0.75547665556E+03  0.76673214731E+03  0.00000000000E+00 0. -1.
         11    1    1    2    0    0  0.86298722163E+01 -0.18443637469E+02 -0.57614032702E+02  0.61106621750E+02  0.00000000000E+00 0.  1.
</event>
<event>
 7    1  0.2714042E-009  0.1083364E+03  0.7561462E-02  0.1263682E+00
          1   -1    0    0  501    0  0.00000000000E+00  0.00000000000E+00  0.77828773873E+02  0.77828773873E+02  0.00000000000E+00 0. -1.
         -1   -1    0    0    0  501 -0.00000000000E+00 -0.00000000000E+00 -0.29987246759E+03  0.29987246759E+03  0.00000000000E+00 0.  1.
         25    2    1    2    0    0  0.83625571647E+02  0.40844511576E+02 -0.18014051019E+03  0.23824349941E+03  0.12509137157E+03 0.  0.
          5    1    3    3  502    0  0.44206309318E+02  0.10690337400E+02 -0.18274865714E+03  0.18836938495E+03  0.41800000000E+01 0.  1.
         -5    1    3    3    0  502  0.39419262329E+02  0.30154174176E+02  0.26081469577E+01  0.49874114462E+02  0.41800000000E+01 0.  1.
        -11    1    1    2    0    0  0.22293062842E+01 -0.35075493388E+02 -0.40192957268E+02  0.53392264017E+02  0.00000000000E+00 0.  1.
         11    1    1    2    0    0 -0.85854877931E+02 -0.57690181882E+01 -0.17102262586E+01  0.86065478034E+02  0.00000000000E+00 0. -1.
</event>
<event>
 7    1  0.2714042E-009  0.9731358E+02  0.7561462E-02  0.1286049E+00
         -2   -1    0    0    0  501 -0.00000000000E+00  0.00000000000E+00  0.50390562703E+03  0.50390562703E+03  0.00000000000E+00 0. -1.
          2   -1    0    0  501    0  0.00000000000E+00 -0.00000000000E+00 -0.36233933238E+02  0.36233933238E+02  0.00000000000E+00 0.  1.
         25    2    1    2    0    0  0.51388828735E+01  0.28023751386E+02  0.40830179134E+03  0.42798469162E+03  0.12509518252E+03 0.  0.
          5    1    3    3  502    0  0.45678960520E+02  0.36008956941E+02  0.35816561657E+03  0.36288192805E+03  0.41800000000E+01 0.  1.
         -5    1    3    3    0  502 -0.40540077646E+02 -0.79852055557E+01  0.50136174770E+02  0.65102763566E+02  0.41800000000E+01 0.  1.
        -11    1    1    2    0    0  0.37209137274E+02 -0.35903839124E+02  0.27445447844E+02  0.58539372800E+02  0.00000000000E+00 0.  1.
         11    1    1    2    0    0 -0.42348020147E+02  0.78800877383E+01  0.31924454609E+02  0.53615495850E+02  0.00000000000E+00 0. -1.
</event>
<event>
 7    1  0.2714042E-009  0.1145826E+03  0.7561462E-02  0.1252311E+00
          1   -1    0    0  501    0  0.00000000000E+00  0.00000000000E+00  0.18855757280E+02  0.18855757280E+02  0.00000000000E+00 0. -1.
         -1   -1    0    0    0  501 -0.00000000000E+00 -0.00000000000E+00 -0.10460904813E+04  0.10460904813E+04  0.00000000000E+00 0.  1.
         25    2    1    2    0    0  0.87065919633E+02 -0.18081055627E+02 -0.53864244355E+03  0.56008075123E+03  0.12508943590E+03 0.  0.
          5    1    3    3  502    0 -0.19989341810E+02 -0.14314871199E+02 -0.26527172579E+03  0.26644145741E+03  0.41800000000E+01 0.  1.
         -5    1    3    3    0  502  0.10705526144E+03 -0.37661844288E+01 -0.27337071776E+03  0.29363929382E+03  0.41800000000E+01 0.  1.
        -11    1    1    2    0    0 -0.80373395469E+02  0.27953752278E+02 -0.48500045434E+03  0.49240911412E+03  0.00000000000E+00 0.  1.
         11    1    1    2    0    0 -0.66925241642E+01 -0.98726966502E+01 -0.35918261310E+01  0.12456373220E+02  0.00000000000E+00 0. -1.
</event>
<event>
 7    1  0.2714042E-009  0.1811565E+03  0.7561462E-02  0.1166688E+00
         -2   -1    0    0    0  501 -0.00000000000E+00  0.00000000000E+00  0.12549022766E+03  0.12549022766E+03  0.00000000000E+00 0.  1.
          2   -1    0    0  501    0  0.00000000000E+00 -0.00000000000E+00 -0.30640868432E+03  0.30640868432E+03  0.00000000000E+00 0. -1.
         25    2    1    2    0    0  0.14361515426E+03 -0.74446080457E+02 -0.11813021121E+03  0.23615541122E+03  0.12508836885E+03 0.  0.
          5    1    3    3  502    0  0.43896257016E+01 -0.55184676516E+02 -0.51106659524E+01  0.55751310679E+02  0.41800000000E+01 0. -1.
         -5    1    3    3    0  502  0.13922552856E+03 -0.19261403941E+02 -0.11301954526E+03  0.18040410055E+03  0.41800000000E+01 0. -1.
        -11    1    1    2    0    0 -0.38070596017E+02  0.39850194380E+02 -0.64269227552E+02  0.84663698734E+02  0.00000000000E+00 0. -1.
         11    1    1    2    0    0 -0.10554455824E+03  0.34595886077E+02  0.14809820968E+01  0.11107980202E+03  0.00000000000E+00 0.  1.
</event>
<event>
 7    1  0.2714042E-009  0.7361408E+02  0.7561462E-02  0.1348217E+00
          1   -1    0    0  501    0  0.00000000000E+00  0.00000000000E+00  0.10327057029E+04  0.10327057029E+04  0.00000000000E+00 0. -1.
         -1   -1    0    0    0  501 -0.00000000000E+00 -0.00000000000E+00 -0.14115051514E+02  0.14115051514E+02  0.00000000000E+00 0.  1.
         25    2    1    2    0    0 -0.30806823425E+02  0.25759244174E+02  0.69872909950E+03  0.71097295893E+03  0.12509034661E+03 0.  0.
          5    1    3    3  502    0  0.17966006129E+01 -0.91068132370E+01  0.61038870577E+03  0.61047359186E+03  0.41800000000E+01 0. -1.
         -5    1    3    3    0  502 -0.32603424038E+02  0.34866057411E+02  0.88340393729E+02  0.10049936708E+03  0.41800000000E+01 0. -1.
        -11    1    1    2    0    0 -0.21663926241E+02 -0.29415891684E+02  0.56477312889E+02  0.67262970904E+02  0.00000000000E+00 0.  1.
         11    1    1    2    0    0  0.52470749666E+02  0.36566475099E+01  0.26338423899E+03  0.26858482457E+03  0.00000000000E+00 0. -1.
</event>
<event>
 7    1  0.2714042E-009  0.1088709E+03  0.7561462E-02  0.1262675E+00
          4   -1    0    0  501    0  0.00000000000E+00  0.00000000000E+00  0.10565378169E+03  0.10565378169E+03  0.00000000000E+00 0.  1.
         -4   -1    0    0    0  501 -0.00000000000E+00 -0.00000000000E+00 -0.22794252288E+03  0.22794252288E+03  0.00000000000E+00 0. -1.
         25    2    1    2    0    0  0.25933273865E+00  0.58360644494E+02  0.35136899571E+02  0.14243417154E+03  0.12508740716E+03 0.  0.
          5    1    3    3  502    0 -0.61344803477E+02  0.26371693871E+02  0.28007125408E+02  0.72529460393E+02  0.41800000000E+01 0.  1.
         -5    1    3    3    0  502  0.61604136215E+02  0.31988950623E+02  0.71297741627E+01  0.69904711146E+02  0.41800000000E+01 0.  1.
        -11    1    1    2    0    0 -0.15155431077E+02  0.51940038503E+01  0.44442367945E+01  0.16625763375E+02  0.00000000000E+00 0.  1.
         11    1    1    2    0    0  0.14896098338E+02 -0.63554648344E+02 -0.16186987755E+03  0.17453636965E+03  0.00000000000E+00 0. -1.
</event>
<event>
 7    1  0.2714042E-009  0.1781365E+03  0.7561462E-02  0.1169619E+00
          4   -1    0    0  501    0  0.00000000000E+00  0.00000000000E+00  0.58451251654E+02  0.58451251654E+02  0.00000000000E+00 0. -1.
         -4   -1    0    0    0  501 -0.00000000000E+00 -0.00000000000E+00 -0.62080327909E+03  0.62080327909E+03  0.00000000000E+00 0.  1.
         25    2    1    2    0    0 -0.10460369856E+03  0.11509613679E+03 -0.27727984084E+03  0.34164350184E+03  0.12508843971E+03 0.  0.
          5    1    3    3  502    0 -0.86079161483E+02  0.19592326143E+02 -0.70393863749E+02  0.11298783005E+03  0.41800000000E+01 0. -1.
         -5    1    3    3    0  502 -0.18524537082E+02  0.95503810649E+02 -0.20688597710E+03  0.22865567179E+03  0.41800000000E+01 0. -1.
        -11    1    1    2    0    0  0.20277106188E+02 -0.73970419587E+02 -0.18585518865E+03  0.20105953138E+03  0.00000000000E+00 0. -1.
         11    1    1    2    0    0  0.84326592377E+02 -0.41125717205E+02 -0.99216997939E+02  0.13655149753E+03  0.00000000000E+00 0.  1.
</event>
<event>
 7    1  0.2714042E-009  0.1012432E+03  0.7561462E-02  0.1277703E+00
         -1   -1    0    0    0  501 -0.00000000000E+00  0.00000000000E+00  0.73376327399E+02  0.73376327399E+02  0.00000000000E+00 0.  1.
          1   -1    0    0  501    0  0.00000000000E+00 -0.00000000000E+00 -0.18840273521E+03  0.18840273521E+03  0.00000000000E+00 0. -1.
         25    2    1    2    0    0 -0.30484342170E+02 -0.91900534904E+01 -0.10175510018E+03  0.16436382563E+03  0.12509042555E+03 0.  0.
          5    1    3    3  502    0 -0.99978069608E+01 -0.57052708702E+02 -0.95485857367E+02  0.11175861967E+03  0.41800000000E+01 0.  1.
         -5    1    3    3    0  502 -0.20486535209E+02  0.47862655211E+02 -0.62692428086E+01  0.52605205961E+02  0.41800000000E+01 0.  1.
        -11    1    1    2    0    0  0.27465149712E+02  0.46901339959E+02 -0.21923690570E+02  0.58606470179E+02  0.00000000000E+00 0. -1.
         11    1    1    2    0    0  0.30191924577E+01 -0.37711286468E+02  0.86523829306E+01  0.38808766800E+02  0.00000000000E+00 0.  1.
</event>
<event>
 7    1  0.2714042E-009  0.1104216E+03  0.7561462E-02  0.1259791E+00
          1   -1    0    0  501    0  0.00000000000E+00  0.00000000000E+00  0.16689770421E+03  0.16689770421E+03  0.00000000000E+00 0. -1.
         -1   -1    0    0    0  501 -0.00000000000E+00 -0.00000000000E+00 -0.13656546216E+03  0.13656546216E+03  0.00000000000E+00 0.  1.
         25    2    1    2    0    0 -0.14628530892E+02 -0.86974424788E+02  0.77894390852E+02  0.17173770565E+03  0.12509100260E+03 0.  0.
          5    1    3    3  502    0  0.32838224784E+02 -0.39309032940E+02 -0.18065470248E+02  0.54473688079E+02  0.41800000000E+01 0. -1.
         -5    1    3    3    0  502 -0.47466755676E+02 -0.47665391848E+02  0.95959861100E+02  0.11726401757E+03  0.41800000000E+01 0. -1.
        -11    1    1    2    0    0 -0.19197459078E+02  0.25915487257E+02 -0.52644522432E+02  0.61738162080E+02  0.00000000000E+00 0.  1.
         11    1    1    2    0    0  0.33825989970E+02  0.61058937530E+02  0.50823736252E+01  0.69987298644E+02  0.00000000000E+00 0. -1.
</event>
<event>
 7    1  0.2714042E-009  0.1328671E+03  0.7561462E-02  0.1223262E+00
          3   -1    0    0  501    0  0.00000000000E+00  0.00000000000E+00  0.31187428379E+03  0.31187428379E+03  0.00000000000E+00 0. -1.
         -3   -1    0    0    0  501 -0.00000000000E+00 -0.00000000000E+00 -0.67044646575E+02  0.67044646575E+02  0.00000000000E+00 0.  1.
         25    2    1    2    0    0 -0.46971617088E+02  0.75664602192E+02  0.17648280638E+03  0.23393505556E+03  0.12509182401E+03 0.  0.
          5    1    3    3  502    0 -0.67269312332E+02 -0.65197851190E+01  0.64720231888E+02  0.93668825099E+02  0.41800000000E+01 0. -1.
         -5    1    3    3    0  502  0.20297695244E+02  0.82184387311E+02  0.11176257449E+03  0.14026623046E+03  0.41800000000E+01 0. -1.
        -11    1    1    2    0    0  0.64837874454E+02 -0.67578741518E+02  0.24277803451E+02  0.96748374711E+02  0.00000000000E+00 0.  1.
         11    1    1    2    0    0 -0.17866257365E+02 -0.80858606736E+01  0.44069027386E+02  0.48235500099E+02  0.00000000000E+00 0. -1.
</event>
<event>
 7    1  0.2714042E-009  0.1324055E+03  0.7561462E-02  0.1223930E+00
         -2   -1    0    0    0  501 -0.00000000000E+00  0.00000000000E+00  0.16885743356E+03  0.16885743356E+03  0.00000000000E+00 0.  1.
          2   -1    0    0  501    0  0.00000000000E+00 -0.00000000000E+00 -0.12192534398E+03  0.12192534398E+03  0.00000000000E+00 0. -1.
         25    2    1    2    0    0 -0.70127774976E+02 -0.28082826734E+02  0.80611728907E+02  0.16688965765E+03  0.12508939608E+03 0.  0.
          5    1    3    3  502    0 -0.61581116654E+02 -0.75608890170E+02  0.56055773502E+02  0.11255514357E+03  0.41800000000E+01 0.  1.
         -5    1    3    3    0  502 -0.85466583213E+01  0.47526063436E+02  0.24555955405E+02  0.54334514078E+02  0.41800000000E+01 0.  1.
        -11    1    1    2    0    0 -0.21939613225E+02  0.12831796733E+02 -0.26818026708E+01  0.25557654458E+02  0.00000000000E+00 0. -1.
         11    1    1    2    0    0  0.92067388200E+02  0.15251030001E+02 -0.30997836653E+02  0.98335465440E+02  0.00000000000E+00 0.  1.
</event>
<event>
 7    1  0.2714042E-009  0.1086236E+03  0.7561462E-02  0.1263140E+00
         -2   -1    0    0    0  501 -0.00000000000E+00  0.00000000000E+00  0.45247157032E+02  0.45247157032E+02  0.00000000000E+00 0. -1.
          2   -1    0    0  501    0  0.00000000000E+00 -0.00000000000E+00 -0.40767987560E+03  0.40767987560E+03  0.00000000000E+00 0.  1.
         25    2    1    2    0    0 -0.58031194536E-01  0.60794717851E+02 -0.28015399524E+03  0.31277751858E+03  0.12509002356E+03 0.  0.
          5    1    3    3  502    0  0.15006076279E+02 -0.30465243245E+02 -0.14478196173E+03  0.14877030018E+03  0.41800000000E+01 0.  1.
         -5    1    3    3    0  502 -0.15064107473E+02  0.91259961096E+02 -0.13537203351E+03  0.16400721840E+03  0.41800000000E+01 0.  1.
        -11    1    1    2    0    0  0.23400961932E+02 -0.62794126347E+02 -0.92800592560E+02  0.11446683931E+03  0.00000000000E+00 0.  1.
         11    1    1    2    0    0 -0.23342930738E+02  0.19994084964E+01  0.10521869227E+02  0.25682674740E+02  0.00000000000E+00 0. -1.
</event>
<event>
 7    1  0.2714042E-009  0.1156778E+03  0.7561462E-02  0.1250403E+00
          1   -1    0    0  501    0  0.00000000000E+00  0.00000000000E+00  0.18039919200E+03  0.18039919200E+03  0.00000000000E+00 0. -1.
         -1   -1    0    0    0  501 -0.00000000000E+00 -0.00000000000E+00 -0.85959455384E+02  0.85959455384E+02  0.00000000000E+00 0.  1.
         25    2    1    2    0    0 -0.13111289787E+02  0.55005022468E+02  0.21578362622E+02  0.13897061568E+03  0.12509895232E+03 0.  0.
          5    1    3    3  502    0 -0.63923288079E+02  0.46667808134E+02 -0.76330998064E+01  0.79622909314E+02  0.41800000000E+01 0. -1.
         -5    1    3    3    0  502  0.50811998292E+02  0.83372143339E+01  0.29211462428E+02  0.59347706362E+02  0.41800000000E+01 0. -1.
        -11    1    1    2    0    0  0.46287540840E+02 -0.15417761103E+02  0.17906184933E+02  0.51969945673E+02  0.00000000000E+00 0.  1.
         11    1    1    2    0    0 -0.33176251053E+02 -0.39587261365E+02  0.54955189059E+02  0.75418086032E+02  0.00000000000E+00 0. -1.
</event>
<event>
 7    1  0.2714042E-009  0.9866725E+02  0.7561462E-02  0.1283124E+00
         -2   -1    0    0    0  501 -0.00000000000E+00  0.00000000000E+00  0.21322494884E+02  0.21322494884E+02  0.00000000000E+00 0. -1.
          2   -1    0    0  501    0  0.00000000000E+00 -0.00000000000E+00 -0.66289051042E+03  0.66289051042E+03  0.00000000000E+00 0.  1.
         25    2    1    2    0    0  0.31019487249E+02  0.33691260341E+01 -0.44531954879E+03  0.46360396234E+03  0.12508226799E+03 0.  0.
          5    1    3    3  502    0  0.47482015392E+02  0.52281661881E+02 -0.18251913317E+03  0.19575142484E+03  0.41800000000E+01 0.  1.
         -5    1    3    3    0  502 -0.16462528143E+02 -0.48912535846E+02 -0.26280041562E+03  0.26785253750E+03  0.41800000000E+01 0.  1.
        -11    1    1    2    0    0 -0.46339232194E+02  0.16966589736E+02 -0.18718966388E+03  0.19358501975E+03  0.00000000000E+00 0.  1.
         11    1    1    2    0    0  0.15319744945E+02 -0.20335715771E+02 -0.90588028633E+01  0.27024023209E+02  0.00000000000E+00 0. -1.
</event>
<event>
 7    1  0.2714042E-009  0.1259197E+03  0.7561462E-02  0.1233639E+00
         -1   -1    0    0    0  501 -0.00000000000E+00  0.00000000000E+00  0.19330947387E+02  0.19330947387E+02  0.00000000000E+00 0.  1.
          1   -1    0    0  501    0  0.00000000000E+00 -0.00000000000E+00 -0.12996218039E+04  0.12996218039E+04  0.00000000000E+00 0. -1.
         25    2    1    2    0    0  0.17295805121E+02 -0.93912782464E+02 -0.95003228805E+03  0.96297862119E+03  0.12509085075E+03 0.  0.
          5    1    3    3  502    0 -0.12951062339E+02  0.12723434648E+02 -0.46710802563E+03  0.46747940684E+03  0.41800000000E+01 0. -1.
         -5    1    3    3    0  502  0.30246867460E+02 -0.10663621711E+03 -0.48292426242E+03  0.49549921435E+03  0.41800000000E+01 0. -1.
        -11    1    1    2    0    0 -0.21384633317E+02 -0.60634271324E+01 -0.13240846040E+03  0.13426119349E+03  0.00000000000E+00 0.  1.
         11    1    1    2    0    0  0.40888281959E+01  0.99976209596E+02 -0.19785010806E+03  0.22171293661E+03  0.00000000000E+00 0. -1.
</event>
<event>
 7    1  0.2714042E-009  0.6424815E+02  0.7561462E-02  0.1380822E+00
          1   -1    0    0  501    0  0.00000000000E+00  0.00000000000E+00  0.55391042031E+02  0.55391042031E+02  0.00000000000E+00 0. -1.
         -1   -1    0    0    0  501 -0.00000000000E+00 -0.00000000000E+00 -0.21162150590E+03  0.21162150590E+03  0.00000000000E+00 0.  1.
         25    2    1    2    0    0  0.93188610187E+01  0.68594298702E+01 -0.83207319049E+02  0.15067780530E+03  0.12508577105E+03 0.  0.
          5    1    3    3  502    0 -0.88892635164E+01 -0.15844747187E+02 -0.10959595717E+03  0.11117023544E+03  0.41800000000E+01 0.  1.
         -5    1    3    3    0  502  0.18208124535E+02  0.22704177057E+02  0.26388638119E+02  0.39507569866E+02  0.41800000000E+01 0.  1.
        -11    1    1    2    0    0  0.28677994333E+02 -0.25275750365E+02 -0.83986424552E+01  0.39138575736E+02  0.00000000000E+00 0. -1.
         11    1    1    2    0    0 -0.37996855352E+02  0.18416320495E+02 -0.64624502360E+02  0.77196166890E+02  0.00000000000E+00 0.  1.
</event>
<event>
 7    1  0.2714042E-009  0.2127485E+03  0.7561462E-02  0.1139408E+00
          1   -1    0    0  501    0  0.00000000000E+00  0.00000000000E+00  0.87238565713E+02  0.87238565713E+02  0.00000000000E+00 0. -1.
         -1   -1    0    0    0  501 -0.00000000000E+00 -0.00000000000E+00 -0.62586840353E+03  0.62586840353E+03  0.00000000000E+00 0.  1.
         25    2    1    2    0    0  0.14651000855E+03  0.13747375831E+03 -0.35305326417E+03  0.42503870993E+03  0.12508829190E+03 0.  0.
          5    1    3    3  502    0  0.67952641858E+02  0.88917658964E+01 -0.19451775030E+03  0.20627954968E+03  0.41800000000E+01 0. -1.
         -5    1    3    3    0  502  0.78557366689E+02  0.12858199241E+03 -0.15853551387E+03  0.21875916025E+03  0.41800000000E+01 0. -1.
        -11    1    1    2    0    0 -0.85257958244E+02 -0.10945797618E+03 -0.72736002924E+02  0.15665405872E+03  0.00000000000E+00 0.  1.
         11    1    1    2    0    0 -0.61252050303E+02 -0.28015782132E+02 -0.11284057073E+03  0.13141420059E+03  0.00000000000E+00 0. -1.
</event>
<event>
 7    1  0.2714042E-009  0.1049436E+03  0.7561462E-02  0.1270231E+00
          1   -1    0    0  501    0  0.00000000000E+00  0.00000000000E+00  0.77691108885E+03  0.77691108885E+03  0.00000000000E+00 0. -1.
         -1   -1    0    0    0  501 -0.00000000000E+00 -0.00000000000E+00 -0.16354192173E+02  0.16354192173E+02  0.00000000000E+00 0.  1.
         25    2    1    2    0    0 -0.19479563747E+02  0.23828565319E+01  0.49940478741E+03  0.51520651829E+03  0.12508990124E+03 0.  0.
          5    1    3    3  502    0 -0.13806241828E+02 -0.55614578089E+02  0.35178160999E+03  0.35644265617E+03  0.41800000000E+01 0. -1.
         -5    1    3    3    0  502 -0.56733219192E+01  0.57997434621E+02  0.14762317742E+03  0.15876386212E+03  0.41800000000E+01 0. -1.
        -11    1    1    2    0    0 -0.34484477912E+02 -0.16499590671E+02  0.83048998438E+02  0.91425116083E+02  0.00000000000E+00 0. -1.
         11    1    1    2    0    0  0.53964041659E+02  0.14116734139E+02  0.17810311083E+03  0.18663364665E+03  0.00000000000E+00 0.  1.
</event>
<event>
 7    1  0.2714042E-009  0.1202988E+03  0.7561462E-02  0.1242605E+00
         -2   -1    0    0    0  501 -0.00000000000E+00  0.00000000000E+00  0.31604201099E+02  0.31604201099E+02  0.00000000000E+00 0. -1.
          2   -1    0    0  501    0  0.00000000000E+00 -0.00000000000E+00 -0.58367393508E+03  0.58367393508E+03  0.00000000000E+00 0.  1.
         25    2    1    2    0    0  0.29679783016E+02 -0.62858950331E+02 -0.20759477331E+03  0.25214122280E+03  0.12508984439E+03 0.  0.
          5    1    3    3  502    0  0.19437386285E+02 -0.98994802767E+02 -0.17589178464E+03  0.20281315358E+03  0.41800000000E+01 0. -1.
         -5    1    3    3    0  502  0.10242396731E+02  0.36135852436E+02 -0.31702988670E+02  0.49328069217E+02  0.41800000000E+01 0. -1.
        -11    1    1    2    0    0 -0.53038525031E+02  0.56779075697E+02 -0.31781060964E+03  0.32717049405E+03  0.00000000000E+00 0.  1.
         11    1    1    2    0    0  0.23358742015E+02  0.60798746340E+01 -0.26664351029E+02  0.35966419337E+02  0.00000000000E+00 0. -1.
</event>
<event>
 7    1  0.2714042E-009  0.1145513E+03  0.7561462E-02  0.1252366E+00
         -1   -1    0    0    0  501 -0.00000000000E+00  0.00000000000E+00  0.13418223362E+03  0.13418223362E+03  0.00000000000E+00 0.  1.
          1   -1    0    0  501    0  0.00000000000E+00 -0.00000000000E+00 -0.13081490203E+03  0.13081490203E+03  0.00000000000E+00 0. -1.
         25    2    1    2    0    0  0.65921003040E+02 -0.20371111879E+02  0.54271881227E+02  0.15282026695E+03  0.12509211030E+03 0.  0.
          5    1    3    3  502    0 -0.18033092073E+02 -0.45776758897E+02 -0.39788545650E+00  0.49379497543E+02  0.41800000000E+01 0. -1.
         -5    1    3    3    0  502  0.83954095113E+02  0.25405647017E+02  0.54669766683E+02  0.10344076941E+03  0.41800000000E+01 0. -1.
        -11    1    1    2    0    0 -0.56700907929E+02 -0.12252629402E+02 -0.96945951127E+01  0.58814156983E+02  0.00000000000E+00 0.  1.
         11    1    1    2    0    0 -0.92200951115E+01  0.32623741281E+02 -0.41209954533E+02  0.53362711716E+02  0.00000000000E+00 0. -1.
</event>
<event>
 7    1  0.2714042E-009  0.1738194E+03  0.7561462E-02  0.1173922E+00
         -2   -1    0    0    0  501 -0.00000000000E+00  0.00000000000E+00  0.49115384117E+02  0.49115384117E+02  0.00000000000E+00 0. -1.
          2   -1    0    0  501    0  0.00000000000E+00 -0.00000000000E+00 -0.78823822100E+03  0.78823822100E+03  0.00000000000E+00 0.  1.
         25    2    1    2    0    0  0.11608286149E+03  0.69926316951E+02 -0.19152569650E+03  0.26588677673E+03  0.12509502423E+03 0.  0.
          5    1    3    3  502    0  0.15693097554E+02  0.81478062539E+02 -0.80106619900E+02  0.11541009894E+03  0.41800000000E+01 0.  1.
         -5    1    3    3    0  502  0.10038976393E+03 -0.11551745588E+02 -0.11141907660E+03  0.15047667779E+03  0.41800000000E+01 0.  1.
        -11    1    1    2    0    0 -0.71603229914E+02 -0.89673329250E+02 -0.38835668565E+03  0.40495585413E+03  0.00000000000E+00 0.  1.
         11    1    1    2    0    0 -0.44479631574E+02  0.19747012299E+02 -0.15924045474E+03  0.16651097425E+03  0.00000000000E+00 0. -1.
</event>
<event>
 7    1  0.2714042E-009  0.1079614E+03  0.7561462E-02  0.1264392E+00
         -2   -1    0    0    0  501 -0.00000000000E+00  0.00000000000E+00  0.90118394840E+02  0.90118394840E+02  0.00000000000E+00 0.  1.
          2   -1    0    0  501    0  0.00000000000E+00 -0.00000000000E+00 -0.16373355752E+03  0.16373355752E+03  0.00000000000E+00 0. -1.
         25    2    1    2    0    0  0.47810440166E+02  0.23865922407E+02 -0.51447477519E+02  0.14542849255E+03  0.12508870077E+03 0.  0.
          5    1    3    3  502    0 -0.38495052109E+02  0.17956347652E+02  0.35561202341E+01  0.42830104471E+02  0.41800000000E+01 0.  1.
         -5    1    3    3    0  502  0.86305492275E+02  0.59095747547E+01 -0.55003597753E+02  0.10259838808E+03  0.41800000000E+01 0.  1.
        -11    1    1    2    0    0 -0.93615413468E+01 -0.42773269530E+02  0.20152267495E+02  0.48200673521E+02  0.00000000000E+00 0.  1.
         11    1    1    2    0    0 -0.38448898819E+02  0.18907347124E+02 -0.42319952657E+02  0.60222786291E+02  0.00000000000E+00 0. -1.
</event>
<event>
 7    1  0.2714042E-009  0.1291763E+03  0.7561462E-02  0.1228683E+00
          2   -1    0    0  501    0  0.00000000000E+00  0.00000000000E+00  0.68988536239E+03  0.68988536239E+03  0.00000000000E+00 0.  1.
         -2   -1    0    0    0  501 -0.00000000000E+00 -0.00000000000E+00 -0.47171295833E+02  0.47171295833E+02  0.00000000000E+00 0. -1.
         25    2    1    2    0    0 -0.43379909559E+02  0.10607507103E+03  0.51619214127E+03  0.54335586078E+03  0.12509007751E+03 0.  0.
          5    1    3    3  502    0 -0.54637614334E+02  0.66048252642E+02  0.48136838073E+03  0.48895872111E+03  0.41800000000E+01 0.  1.
         -5    1    3    3    0  502  0.11257704775E+02  0.40026818387E+02  0.34823760535E+02  0.54397139675E+02  0.41800000000E+01 0.  1.
        -11    1    1    2    0    0  0.24678536512E+01 -0.84414712904E+02  0.12031352210E+03  0.14699414157E+03  0.00000000000E+00 0.  1.
         11    1    1    2    0    0  0.40912055908E+02 -0.21660358125E+02  0.62084031933E+01  0.46706655873E+02  0.00000000000E+00 0. -1.
</event>
<event>
 7    1  0.2714042E-009  0.1214721E+03  0.7561462E-02  0.1240688E+00
          2   -1    0    0  501    0  0.00000000000E+00  0.00000000000E+00  0.35352813975E+03  0.35352813975E+03  0.00000000000E+00 0. -1.
         -2   -1    0    0    0  501 -0.00000000000E+00 -0.00000000000E+00 -0.67941754032E+02  0.67941754032E+02  0.00000000000E+00 0.  1.
         25    2    1    2    0    0 -0.24908819829E+02  0.73737738111E+02  0.47349177482E+02  0.15476231846E+03  0.12510686344E+03 0.  0.
          5    1    3    3  502    0 -0.74044306510E+02  0.57310552778E+02  0.19272555587E+02  0.95686794205E+02  0.41800000000E+01 0.  1.
         -5    1    3    3    0  502  0.49135486681E+02  0.16427185333E+02  0.28076621895E+02  0.59075524258E+02  0.41800000000E+01 0.  1.
        -11    1    1    2    0    0  0.40699851581E+02 -0.29491289642E+02  0.19974769209E+03  0.20597415998E+03  0.00000000000E+00 0. -1.
         11    1    1    2    0    0 -0.15791031752E+02 -0.44246448468E+02  0.38489516147E+02  0.60733415342E+02  0.00000000000E+00 0.  1.
</event>
<event>
 7    1  0.2714042E-009  0.9310605E+02  0.7561462E-02  0.1295500E+00
          1   -1    0    0  501    0  0.00000000000E+00  0.00000000000E+00  0.35447940589E+03  0.35447940589E+03  0.00000000000E+00 0. -1.
         -1   -1    0    0    0  501 -0.00000000000E+00 -0.00000000000E+00 -0.34881742370E+02  0.34881742370E+02  0.00000000000E+00 0.  1.
         25    2    1    2    0    0 -0.54976284963E+00  0.19916006703E+02  0.16444731219E+03  0.20757448438E+03  0.12508916227E+03 0.  0.
          5    1    3    3  502    0  0.34830642703E+02  0.49436852385E+02  0.14541639948E+03  0.15754547814E+03  0.41800000000E+01 0. -1.
         -5    1    3    3    0  502 -0.35380405553E+02 -0.29520845682E+02  0.19030912709E+02  0.50029006240E+02  0.41800000000E+01 0. -1.
        -11    1    1    2    0    0  0.37751295774E+02 -0.14165054914E+01  0.25339624253E+02  0.45489156705E+02  0.00000000000E+00 0.  1.
         11    1    1    2    0    0 -0.37201532925E+02 -0.18499501212E+02  0.12981072708E+03  0.13629750717E+03  0.00000000000E+00 0. -1.
</event>
<event>
 7    1  0.2714042E-009  0.1242702E+03  0.7561462E-02  0.1236214E+00
         -2   -1    0    0    0  501 -0.00000000000E+00  0.00000000000E+00  0.23313087551E+02  0.23313087551E+02  0.00000000000E+00 0.  1.
          2   -1    0    0  501    0  0.00000000000E+00 -0.00000000000E+00 -0.70086821743E+03  0.70086821743E+03  0.00000000000E+00 0. -1.
         25    2    1    2    0    0  0.66442479950E+02 -0.15336032966E+02 -0.36591404334E+03  0.39266984668E+03  0.12508686713E+03 0.  0.
          5    1    3    3  502    0 -0.29938315478E+02 -0.24339833741E+02 -0.16650091218E+03  0.17096419625E+03  0.41800000000E+01 0. -1.
         -5    1    3    3    0  502  0.96380795427E+02  0.90038007744E+01 -0.19941313116E+03  0.22170565043E+03  0.41800000000E+01 0. -1.
        -11    1    1    2    0    0  0.19510419008E+01 -0.30464767576E+02 -0.75652464689E+02  0.81579433937E+02  0.00000000000E+00 0. -1.
         11    1    1    2    0    0 -0.68393521851E+02  0.45800800542E+02 -0.23598862185E+03  0.24993202437E+03  0.00000000000E+00 0.  1.
</event>
<event>
 7    1  0.2714042E-009  0.9945170E+02  0.7561462E-02  0.1281453E+00
         -2   -1    0    0    0  501 -0.00000000000E+00  0.00000000000E+00  0.55237332426E+02  0.55237332426E+02  0.00000000000E+00 0.  1.
          2   -1    0    0  501    0  0.00000000000E+00 -0.00000000000E+00 -0.29918953677E+03  0.29918953677E+03  0.00000000000E+00 0. -1.
         25    2    1    2    0    0  0.34202241959E+02  0.61238371298E+02 -0.16466301651E+03  0.21836216924E+03  0.12509275150E+03 0.  0.
          5    1    3    3  502    0  0.36979011738E+02  0.11597049768E+02 -0.16389016659E+03  0.16846185912E+03  0.41800000000E+01 0. -1.
         -5    1    3    3    0  502 -0.27767697785E+01  0.49641321529E+02 -0.77284991730E+00  0.49900310125E+02  0.41800000000E+01 0. -1.
        -11    1    1    2    0    0 -0.15583857181E+02 -0.81229656836E+02 -0.53564939925E+02  0.98540938414E+02  0.00000000000E+00 0.  1.
         11    1    1    2    0    0 -0.18618384778E+02  0.19991285539E+02 -0.25724247906E+02  0.37523761533E+02  0.00000000000E+00 0. -1.
</event>
<event>
 7    1  0.2714042E-009  0.3041317E+03  0.7561462E-02  0.1083193E+00
         -1   -1    0    0    0  501 -0.00000000000E+00  0.00000000000E+00  0.10238448121E+03  0.10238448121E+03  0.00000000000E+00 0.  1.
          1   -1    0    0  501    0  0.00000000000E+00 -0.00000000000E+00 -0.97771732090E+03  0.97771732090E+03  0.00000000000E+00 0. -1.
         25    2    1    2    0    0  0.98597342558E+02 -0.27292122881E+03 -0.33596201263E+03  0.46122156378E+03  0.12508966334E+03 0.  0.
          5    1    3    3  502    0 -0.25273226807E+02 -0.14746612827E+02 -0.28933915655E+02  0.41362331393E+02  0.41800000000E+01 0. -1.
         -5    1    3    3    0  502  0.12387056937E+03 -0.25817461599E+03 -0.30702809697E+03  0.41985923239E+03  0.41800000000E+01 0. -1.
        -11    1    1    2    0    0 -0.70044015376E+02  0.14215395642E+03 -0.20795152827E+03  0.26145314977E+03  0.00000000000E+00 0.  1.
         11    1    1    2    0    0 -0.28553327182E+02  0.13076727239E+03 -0.33141929879E+03  0.35742708856E+03  0.00000000000E+00 0. -1.
</event>
<event>
 7    1  0.2714042E-009  0.1236295E+03  0.7561462E-02  0.1237227E+00
         -1   -1    0    0    0  501 -0.00000000000E+00  0.00000000000E+00  0.16345826591E+03  0.16345826591E+03  0.00000000000E+00 0.  1.
          1   -1    0    0  501    0  0.00000000000E+00 -0.00000000000E+00 -0.13749718173E+03  0.13749718173E+03  0.00000000000E+00 0. -1.
         25    2    1    2    0    0 -0.39656753097E+02  0.68103404144E+02  0.79987523996E+02  0.16809858046E+03  0.12509355314E+03 0.  0.
          5    1    3    3  502    0 -0.37857831848E+02 -0.25193993198E+02  0.54840276996E+02  0.71364424656E+02  0.41800000000E+01 0.  1.
         -5    1    3    3    0  502 -0.17989212496E+01  0.93297397341E+02  0.25147247000E+02  0.96734155809E+02  0.41800000000E+01 0.  1.
        -11    1    1    2    0    0  0.32130644375E+02  0.68510296728E+01 -0.46799579643E+02  0.57179677949E+02  0.00000000000E+00 0. -1.
         11    1    1    2    0    0  0.75261087220E+01 -0.74954433816E+02 -0.72268601648E+01  0.75677189225E+02  0.00000000000E+00 0.  1.
</event>
<event>
 7    1  0.2714042E-009  0.1163460E+03  0.7561462E-02  0.1249250E+00
         -1   -1    0    0    0  501 -0.00000000000E+00  0.00000000000E+00  0.51552657252E+03  0.51552657252E+03  0.00000000000E+00 0.  1.
          1   -1    0    0  501    0  0.00000000000E+00 -0.00000000000E+00 -0.41203553907E+02  0.41203553907E+02  0.00000000000E+00 0. -1.
         25    2    1    2    0    0 -0.90422815629E+02 -0.29627997490E+02  0.29525218103E+03  0.33447778571E+03  0.12508970743E+03 0.  0.
          5    1    3    3  502    0 -0.53588153706E+02  0.19000910075E+02  0.25494245263E+03  0.26123906935E+03  0.41800000000E+01 0. -1.
         -5    1    3    3    0  502 -0.36834661923E+02 -0.48628907566E+02  0.40309728402E+02  0.73238716359E+02  0.41800000000E+01 0. -1.
        -11    1    1    2    0    0  0.72750614571E+02 -0.77760998108E+01  0.55189044247E+02  0.91645786884E+02  0.00000000000E+00 0. -1.
         11    1    1    2    0    0  0.17672201058E+02  0.37404097301E+02  0.12388179333E+03  0.13060655383E+03  0.00000000000E+00 0.  1.
</event>
<event>
 7    1  0.2714042E-009  0.9867110E+02  0.7561462E-02  0.1283116E+00
         -2   -1    0    0    0  501 -0.00000000000E+00  0.00000000000E+00  0.46475121388E+03  0.46475121388E+03  0.00000000000E+00 0.  1.
          2   -1    0    0  501    0  0.00000000000E+00 -0.00000000000E+00 -0.32760514446E+02  0.32760514446E+02  0.00000000000E+00 0. -1.
         25    2    1    2    0    0  0.44167550285E+01 -0.45449028529E+02  0.16311170189E+03  0.21056501151E+03  0.12508826827E+03 0.  0.
          5    1    3    3  502    0  0.52322033645E+02 -0.40657218906E+02  0.38124661294E+02  0.76560870245E+02  0.41800000000E+01 0. -1.
         -5    1    3    3    0  502 -0.47905278617E+02 -0.47918096227E+01  0.12498704059E+03  0.13400414126E+03  0.41800000000E+01 0. -1.
        -11    1    1    2    0    0 -0.34015804208E+02  0.80983539169E+01  0.20093884317E+03  0.20395851776E+03  0.00000000000E+00 0.  1.
         11    1    1    2    0    0  0.29599049180E+02  0.37350674612E+02  0.67940154376E+02  0.82988199058E+02  0.00000000000E+00 0. -1.
</event>
<event>
 7    1  0.2714042E-009  0.9836113E+02  0.7561462E-02  0.1283780E+00
          1   -1    0    0  501    0  0.00000000000E+00  0.00000000000E+00  0.34016627837E+03  0.34016627837E+03  0.00000000000E+00 0. -1.
         -1   -1    0    0    0  501 -0.00000000000E+00 -0.00000000000E+00 -0.35669515229E+02  0.35669515229E+02  0.00000000000E+00 0.  1.
         25    2    1    2    0    0 -0.39081669112E+01 -0.21432028648E+02  0.17883991959E+03  0.21933111733E+03  0.12509123300E+03 0.  0.
          5    1    3    3  502    0 -0.55312865562E+02 -0.10901986283E+02  0.14775289307E+03  0.15819847096E+03  0.41800000000E+01 0. -1.
         -5    1    3    3    0  502  0.51404698651E+02 -0.10530042364E+02  0.31087026513E+02  0.61132646377E+02  0.41800000000E+01 0. -1.
        -11    1    1    2    0    0  0.43176960087E+02  0.78030143568E+00  0.35050173660E+02  0.55618103404E+02  0.00000000000E+00 0.  1.
         11    1    1    2    0    0 -0.39268793175E+02  0.20651727212E+02  0.90606669891E+02  0.10088657286E+03  0.00000000000E+00 0. -1.
</event>
<event>
 7    1  0.2714042E-009  0.1276602E+03  0.7561462E-02  0.1230969E+00
          1   -1    0    0  501    0  0.00000000000E+00  0.00000000000E+00  0.30716845019E+02  0.30716845019E+02  0.00000000000E+00 0. -1.
         -1   -1    0    0    0  501 -0.00000000000E+00 -0.00000000000E+00 -0.65624228811E+03  0.65624228811E+03  0.00000000000E+00 0.  1.
         25    2    1    2    0    0  0.76820833522E+02 -0.75563889307E+02 -0.28754829666E+03  0.33157691434E+03  0.12509150804E+03 0.  0.
          5    1    3    3  502    0  0.78652956368E+02 -0.88351347964E+01 -0.76388129859E+02  0.11007709088E+03  0.41800000000E+01 0. -1.
         -5    1    3    3    0  502 -0.18321228460E+01 -0.66728754510E+02 -0.21116016680E+03  0.22149982347E+03  0.41800000000E+01 0. -1.
        -11    1    1    2    0    0 -0.14351258933E+02  0.24926718413E+02 -0.72644147435E+02  0.78131121075E+02  0.00000000000E+00 0.  1.
         11    1    1    2    0    0 -0.62469574589E+02  0.50637170893E+02 -0.26533299899E+03  0.27725109771E+03  0.00000000000E+00 0. -1.
</event>
<event>
 7    1  0.2714042E-009  0.1148951E+03  0.7561462E-02  0.1251764E+00
          2   -1    0    0  501    0  0.00000000000E+00  0.00000000000E+00  0.26498600880E+03  0.26498600880E+03  0.00000000000E+00 0.  1.
         -2   -1    0    0    0  501 -0.00000000000E+00 -0.00000000000E+00 -0.62382770318E+02  0.62382770318E+02  0.00000000000E+00 0. -1.
         25    2    1    2    0    0 -0.61280601847E+02 -0.43864220273E+02  0.11691379006E+03  0.18706377027E+03  0.12507852677E+03 0.  0.
          5    1    3    3  502    0  0.22580904005E+02 -0.24012478292E+02  0.91152874654E+02  0.97019664487E+02  0.41800000000E+01 0. -1.
         -5    1    3    3    0  502 -0.83861505851E+02 -0.19851741981E+02  0.25760915403E+02  0.90044105780E+02  0.41800000000E+01 0. -1.
        -11    1    1    2    0    0  0.66560756126E+02  0.62262654198E+02  0.76865777832E+02  0.11922801754E+03  0.00000000000E+00 0. -1.
         11    1    1    2    0    0 -0.52801542787E+01 -0.18398433925E+02  0.88236705889E+01  0.21076991312E+02  0.00000000000E+00 0.  1.
</event>
<event>
 7    1  0.2714042E-009  0.8786504E+02  0.7561462E-02  0.1308106E+00
          4   -1    0    0  501    0  0.00000000000E+00  0.00000000000E+00  0.28930023516E+03  0.28930023516E+03  0.00000000000E+00 0. -1.
         -4   -1    0    0    0  501 -0.00000000000E+00 -0.00000000000E+00 -0.56090424682E+02  0.56090424682E+02  0.00000000000E+00 0.  1.
         25    2    1    2    0    0  0.42199667731E+02  0.32975925719E+02  0.79212937469E+02  0.15744452662E+03  0.12508343562E+03 0.  0.
          5    1    3    3  502    0  0.15084006137E+02 -0.12317144424E+02  0.98947437084E+02  0.10093219008E+03  0.41800000000E+01 0. -1.
         -5    1    3    3    0  502  0.27115661594E+02  0.45293070143E+02 -0.19734499616E+02  0.56512336545E+02  0.41800000000E+01 0. -1.
        -11    1    1    2    0    0  0.18075037229E+02 -0.38297526667E+02  0.92186286313E+02  0.10144810942E+03  0.00000000000E+00 0.  1.
         11    1    1    2    0    0 -0.60274704961E+02  0.53216009480E+01  0.61810586696E+02  0.86498023807E+02  0.00000000000E+00 0. -1.
</event>
<event>
 7    1  0.3315788E-009  0.1835908E+03  0.7561462E-02  0.1164372E+00
         -1   -1    0    0    0  501 -0.00000000000E+00  0.00000000000E+00  0.43872366262E+02  0.43872366262E+02  0.00000000000E+00 0.  1.
          1   -1    0    0  501    0  0.00000000000E+00 -0.00000000000E+00 -0.79227616109E+03  0.79227616109E+03  0.00000000000E+00 0. -1.
         25    2    1    2    0    0  0.86102869168E+02  0.12088408623E+03 -0.32872518900E+03  0.38175107484E+03  0.12508783664E+03 0.  0.
          5    1    3    3  502    0  0.10051760009E+03  0.13782211492E+03 -0.27773835770E+03  0.32596746928E+03  0.41800000000E+01 0.  1.
         -5    1    3    3    0  502 -0.14414730927E+02 -0.16938028684E+02 -0.50986831305E+02  0.55783605566E+02  0.41800000000E+01 0.  1.
        -11    1    1    2    0    0 -0.27324862012E+02 -0.11099887029E+03 -0.28801843718E+03  0.30987419615E+03  0.00000000000E+00 0.  1.
         11    1    1    2    0    0 -0.58778007156E+02 -0.98852159463E+01 -0.13166016865E+03  0.14452325636E+03  0.00000000000E+00 0. -1.
</event>
<event>
 7    1  0.2714042E-009  0.1066921E+03  0.7561462E-02  0.1266821E+00
          2   -1    0    0  501    0  0.00000000000E+00  0.00000000000E+00  0.12574849664E+03  0.12574849664E+03  0.00000000000E+00 0. -1.
         -2   -1    0    0    0  501 -0.00000000000E+00 -0.00000000000E+00 -0.10816888924E+03  0.10816888924E+03  0.00000000000E+00 0.  1.
         25    2    1    2    0    0 -0.18249409319E+02  0.20538564487E+02  0.46719455314E+02  0.13632214927E+03  0.12508456062E+03 0.  0.
          5    1    3    3  502    0  0.50915675982E+02 -0.13087378373E+01  0.22791886491E+01  0.51154530164E+02  0.41800000000E+01 0.  1.
         -5    1    3    3    0  502 -0.69165085301E+02  0.21847302324E+02  0.44440266665E+02  0.85167619110E+02  0.41800000000E+01 0.  1.
        -11    1    1    2    0    0  0.52739791424E+02 -0.11709058152E+02 -0.43226380162E+01  0.54196612825E+02  0.00000000000E+00 0. -1.
         11    1    1    2    0    0 -0.34490382105E+02 -0.88295063354E+01 -0.24817209897E+02  0.43398623791E+02  0.00000000000E+00 0.  1.
</event>
<event>
 7    1  0.2714042E-009  0.1288312E+03  0.7561462E-02  0.1229200E+00
          1   -1    0    0  501    0  0.00000000000E+00  0.00000000000E+00  0.40407206370E+03  0.40407206370E+03  0.00000000000E+00 0. -1.
         -1   -1    0    0    0  501 -0.00000000000E+00 -0.00000000000E+00 -0.46908823374E+02  0.46908823374E+02  0.00000000000E+00 0.  1.
         25    2    1    2    0    0 -0.11905400557E+02 -0.84610858067E+02  0.20449984976E+03  0.25449529425E+03  0.12508769075E+03 0.  0.
          5    1    3    3  502    0  0.56297812820E+02 -0.45021399414E+02  0.89609967156E+02  0.11508166121E+03  0.41800000000E+01 0. -1.
         -5    1    3    3    0  502 -0.68203213377E+02 -0.39589458653E+02  0.11488988261E+03  0.13941363304E+03  0.41800000000E+01 0. -1.
        -11    1    1    2    0    0 -0.18982348352E+02  0.29926407242E+01 -0.15640797473E+01  0.19280347323E+02  0.00000000000E+00 0.  1.
         11    1    1    2    0    0  0.30887748909E+02  0.81618217343E+02  0.15422747031E+03  0.17720524550E+03  0.00000000000E+00 0. -1.
</event>
<event>
 7    1  0.2714042E-009  0.1085514E+03  0.7561462E-02  0.1263276E+00
          2   -1    0    0  501    0  0.00000000000E+00  0.00000000000E+00  0.15151666708E+04  0.15151666708E+04  0.00000000000E+00 0.  1.
         -2   -1    0    0    0  501 -0.00000000000E+00 -0.00000000000E+00 -0.93042154976E+01  0.93042154976E+01  0.00000000000E+00 0. -1.
         25    2    1    2    0    0  0.48487781945E+02 -0.94662919509E+01  0.11618540127E+04  0.11696127866E+04  0.12509455659E+03 0.  0.
          5    1    3    3  502    0  0.66318365704E+02  0.39808327723E+02  0.53799470555E+03  0.54354264247E+03  0.41800000000E+01 0.  1.
         -5    1    3    3    0  502 -0.17830583760E+02 -0.49274619674E+02  0.62385930712E+03  0.62607014411E+03  0.41800000000E+01 0.  1.
        -11    1    1    2    0    0  0.11379877748E+02  0.23030082402E+02  0.99920531688E+02  0.10316975800E+03  0.00000000000E+00 0.  1.
         11    1    1    2    0    0 -0.59867659693E+02 -0.13563790451E+02  0.24408791098E+03  0.25168834175E+03  0.00000000000E+00 0. -1.
</event>
<event>
 7    1  0.2714042E-009  0.1108897E+03  0.7561462E-02  0.1258931E+00
         -2   -1    0    0    0  501 -0.00000000000E+00  0.00000000000E+00  0.91203563959E+02  0.91203563959E+02  0.00000000000E+00 0.  1.
          2   -1    0    0  501    0  0.00000000000E+00 -0.00000000000E+00 -0.18050119002E+03  0.18050119002E+03  0.00000000000E+00 0. -1.
         25    2    1    2    0    0 -0.21914776342E+02  0.40912581487E+02  0.36716501954E+01  0.13347327324E+03  0.12509011515E+03 0.  0.
          5    1    3    3  502    0 -0.64563629917E+02  0.13898765267E+01 -0.23899634039E+02  0.68985933146E+02  0.41800000000E+01 0.  1.
         -5    1    3    3    0  502  0.42648853575E+02  0.39522704960E+02  0.27571284235E+02  0.64487340099E+02  0.41800000000E+01 0.  1.
        -11    1    1    2    0    0  0.53257106393E+02 -0.89498815584E+01 -0.68457788569E+02  0.87194544422E+02  0.00000000000E+00 0. -1.
         11    1    1    2    0    0 -0.31342330051E+02 -0.31962699928E+02 -0.24511487691E+02  0.51036936316E+02  0.00000000000E+00 0.  1.
</event>
<event>
 7    1  0.2714042E-009  0.2067626E+03  0.7561462E-02  0.1144156E+00
          1   -1    0    0  501    0  0.00000000000E+00  0.00000000000E+00  0.70157872352E+03  0.70157872352E+03  0.00000000000E+00 0. -1.
         -1   -1    0    0    0  501 -0.00000000000E+00 -0.00000000000E+00 -0.69443981157E+02  0.69443981157E+02  0.00000000000E+00 0.  1.
         25    2    1    2    0    0 -0.12314363371E+03  0.14221676662E+03  0.39071124581E+03  0.45132350477E+03  0.12509062763E+03 0.  0.
          5    1    3    3  502    0 -0.13118009858E+03  0.15740979717E+03  0.37636350775E+03  0.42854757597E+03  0.41800000000E+01 0.  1.
         -5    1    3    3    0  502  0.80364648707E+01 -0.15193030549E+02  0.14347738063E+02  0.22775928794E+02  0.41800000000E+01 0.  1.
        -11    1    1    2    0    0  0.63425349808E+02 -0.48847339135E+02  0.39297957323E+02  0.89180530323E+02  0.00000000000E+00 0.  1.
         11    1    1    2    0    0  0.59718283899E+02 -0.93369427483E+02  0.20212553922E+03  0.23051866958E+03  0.00000000000E+00 0. -1.
</event>
<event>
 7    1  0.2714042E-009  0.8264133E+02  0.7561462E-02  0.1321719E+00
          1   -1    0    0  501    0  0.00000000000E+00  0.00000000000E+00  0.12322498087E+03  0.12322498087E+03  0.00000000000E+00 0. -1.
         -1   -1    0    0    0  501 -0.00000000000E+00 -0.00000000000E+00 -0.12693049596E+03  0.12693049596E+03  0.00000000000E+00 0.  1.
         25    2    1    2    0    0  0.28548991514E+02 -0.56251721422E+02  0.11601884766E+02  0.14057082500E+03  0.12508497925E+03 0.  0.
          5    1    3    3  502    0  0.18248967967E+02 -0.66001997298E+02  0.59269740007E+02  0.90662356905E+02  0.41800000000E+01 0.  1.
         -5    1    3    3    0  502  0.10300023547E+02  0.97502758756E+01 -0.47667855241E+02  0.49908468099E+02  0.41800000000E+01 0.  1.
        -11    1    1    2    0    0 -0.20965758938E+02 -0.38466675510E+01  0.27949553348E+02  0.35150212396E+02  0.00000000000E+00 0. -1.
         11    1    1    2    0    0 -0.75832325759E+01  0.60098388973E+02 -0.43256953198E+02  0.74434439431E+02  0.00000000000E+00 0.  1.
</event>
<event>
 7    1  0.2714042E-009  0.1106455E+03  0.7561462E-02  0.1259379E+00
         -1   -1    0    0    0  501 -0.00000000000E+00  0.00000000000E+00  0.20931373191E+02  0.20931373191E+02  0.00000000000E+00 0.  1.
          1   -1    0    0  501    0  0.00000000000E+00 -0.00000000000E+00 -0.79983109269E+03  0.79983109269E+03  0.00000000000E+00 0. -1.
         25    2    1    2    0    0 -0.59637800185E+02  0.14300651730E+02 -0.32184358878E+03  0.35070165368E+03  0.12508868215E+03 0.  0.
          5    1    3    3  502    0 -0.14627766669E+02  0.51840989345E+02 -0.53624516428E+02  0.76121750480E+02  0.41800000000E+01 0. -1.
         -5    1    3    3    0  502 -0.45010033516E+02 -0.37540337615E+02 -0.26821907235E+03  0.27457990320E+03  0.41800000000E+01 0. -1.
        -11    1    1    2    0    0  0.12787744647E+02  0.36930376610E+02 -0.13148479871E+03  0.13717008209E+03  0.00000000000E+00 0. -1.
         11    1    1    2    0    0  0.46850055537E+02 -0.51231028340E+02 -0.32557133202E+03  0.33289073012E+03  0.00000000000E+00 0.  1.
</event>
<event>
 7    1  0.2714042E-009  0.1250550E+03  0.7561462E-02  0.1234983E+00
         -1   -1    0    0    0  501 -0.00000000000E+00  0.00000000000E+00  0.59323270111E+03  0.59323270111E+03  0.00000000000E+00 0.  1.
          1   -1    0    0  501    0  0.00000000000E+00 -0.00000000000E+00 -0.29768070483E+02  0.29768070483E+02  0.00000000000E+00 0. -1.
         25    2    1    2    0    0  0.73216928366E+02  0.48756975090E+01  0.34485531045E+03  0.37410785438E+03  0.12508801117E+03 0.  0.
          5    1    3    3  502    0 -0.49766582098E+01  0.52753223108E+02  0.13281189495E+03  0.14305293256E+03  0.41800000000E+01 0.  1.
         -5    1    3    3    0  502  0.78193586575E+02 -0.47877525599E+02  0.21204341551E+03  0.23105492182E+03  0.41800000000E+01 0.  1.
        -11    1    1    2    0    0 -0.11057165756E+02 -0.34564456386E+02  0.13880259965E+03  0.14346819937E+03  0.00000000000E+00 0.  1.
         11    1    1    2    0    0 -0.62159762609E+02  0.29688758877E+02  0.79806720521E+02  0.10542471784E+03  0.00000000000E+00 0. -1.
</event>
<event>
 7    1  0.2714042E-009  0.1580017E+03  0.7561462E-02  0.1190971E+00
          2   -1    0    0  501    0  0.00000000000E+00  0.00000000000E+00  0.70054154218E+02  0.70054154218E+02  0.00000000000E+00 0. -1.
         -2   -1    0    0    0  501 -0.00000000000E+00 -0.00000000000E+00 -0.44226321062E+03  0.44226321062E+03  0.00000000000E+00 0.  1.
         25    2    1    2    0    0  0.15925078480E+02  0.11845392942E+03 -0.96624465360E+02  0.19815839007E+03  0.12508204798E+03 0.  0.
          5    1    3    3  502    0 -0.49827166416E+02  0.54576763117E+02 -0.15391274395E+02  0.75602468961E+02  0.41800000000E+01 0.  1.
         -5    1    3    3    0  502  0.65752244897E+02  0.63877166307E+02 -0.81233190965E+02  0.12255592111E+03  0.41800000000E+01 0.  1.
        -11    1    1    2    0    0  0.14741783924E+02 -0.11863779130E+03 -0.20726177464E+03  0.23926907227E+03  0.00000000000E+00 0. -1.
         11    1    1    2    0    0 -0.30666862404E+02  0.18386187846E+00 -0.68322816400E+02  0.74889902495E+02  0.00000000000E+00 0.  1.
</event>
<event>
 7    1  0.2714042E-009  0.1172112E+03  0.7561462E-02  0.1247770E+00
          1   -1    0    0  501    0  0.00000000000E+00  0.00000000000E+00  0.11993986990E+04  0.11993986990E+04  0.00000000000E+00 0. -1.
         -1   -1    0    0    0  501 -0.00000000000E+00 -0.00000000000E+00 -0.19351327872E+02  0.19351327872E+02  0.00000000000E+00 0.  1.
         25    2    1    2    0    0 -0.12880494243E+02  0.73718732688E+02  0.93572216198E+03  0.94700793474E+03  0.12509078844E+03 0.  0.
          5    1    3    3  502    0  0.28356896568E+02 -0.24846027622E+02  0.29430866141E+03  0.29674315368E+03  0.41800000000E+01 0. -1.
         -5    1    3    3    0  502 -0.41237390812E+02  0.98564760310E+02  0.64141350057E+03  0.65026478106E+03  0.41800000000E+01 0. -1.
        -11    1    1    2    0    0 -0.81732961496E+01 -0.66953045244E+02  0.23988399110E+03  0.24918636043E+03  0.00000000000E+00 0. -1.
         11    1    1    2    0    0  0.21053790393E+02 -0.67656874441E+01  0.44412180856E+01  0.22555731746E+02  0.00000000000E+00 0.  1.
</event>
<event>
 7    1  0.2714042E-009  0.2598948E+03  0.7561462E-02  0.1107206E+00
         -1   -1    0    0    0  501 -0.00000000000E+00  0.00000000000E+00  0.68526274360E+03  0.68526274360E+03  0.00000000000E+00 0.  1.
          1   -1    0    0  501    0  0.00000000000E+00 -0.00000000000E+00 -0.11147017228E+03  0.11147017228E+03  0.00000000000E+00 0. -1.
         25    2    1    2    0    0 -0.14010203993E+02  0.23983961056E+03  0.17881928598E+03  0.32456664091E+03  0.12509133760E+03 0.  0.
          5    1    3    3  502    0  0.49568017814E+02  0.16553962574E+03  0.10925094162E+03  0.20448373217E+03  0.41800000000E+01 0. -1.
         -5    1    3    3    0  502 -0.63578221807E+02  0.74299984821E+02  0.69568344363E+02  0.12008290873E+03  0.41800000000E+01 0. -1.
        -11    1    1    2    0    0  0.40302237663E+02 -0.16021178809E+03  0.19658529144E+03  0.25678369149E+03  0.00000000000E+00 0.  1.
         11    1    1    2    0    0 -0.26292033670E+02 -0.79627822466E+02  0.19838799390E+03  0.21538258348E+03  0.00000000000E+00 0. -1.
</event>
<event>
 7    1  0.2714042E-009  0.9316284E+02  0.7561462E-02  0.1295368E+00
          1   -1    0    0  501    0  0.00000000000E+00  0.00000000000E+00  0.48997289196E+03  0.48997289196E+03  0.00000000000E+00 0. -1.
         -1   -1    0    0    0  501 -0.00000000000E+00 -0.00000000000E+00 -0.27261601347E+02  0.27261601347E+02  0.00000000000E+00 0.  1.
         25    2    1    2    0    0  0.35126154526E+02  0.94144000107E+01  0.23067551659E+03  0.26491668035E+03  0.12508867222E+03 0.  0.
          5    1    3    3  502    0  0.72126925007E+02  0.11754772831E+02  0.74870888375E+02  0.10470716461E+03  0.41800000000E+01 0.  1.
         -5    1    3    3    0  502 -0.37000770481E+02 -0.23403728200E+01  0.15580462821E+03  0.16020951574E+03  0.41800000000E+01 0.  1.
        -11    1    1    2    0    0 -0.45609688340E+02 -0.28685215508E+02  0.22154101029E+03  0.22799891337E+03  0.00000000000E+00 0. -1.
         11    1    1    2    0    0  0.10483533814E+02  0.19270815497E+02  0.10494763743E+02  0.24318899588E+02  0.00000000000E+00 0.  1.
</event>
<event>
 7    1  0.2714042E-009  0.9189648E+02  0.7561462E-02  0.1298323E+00
         -2   -1    0    0    0  501 -0.00000000000E+00  0.00000000000E+00  0.21422502617E+03  0.21422502617E+03  0.00000000000E+00 0.  1.
          2   -1    0    0  501    0  0.00000000000E+00 -0.00000000000E+00 -0.84445970991E+02  0.84445970991E+02  0.00000000000E+00 0. -1.
         25    2    1    2    0    0 -0.53530597765E+02  0.34098232314E+02  0.12466214563E+03  0.18766142795E+03  0.12509175289E+03 0.  0.
          5    1    3    3  502    0 -0.62841051565E+02  0.30799509993E+02  0.80627195590E+01  0.70569734478E+02  0.41800000000E+01 0. -1.
         -5    1    3    3    0  502  0.93104538002E+01  0.32987223212E+01  0.11659942607E+03  0.11709169347E+03  0.41800000000E+01 0. -1.
        -11    1    1    2    0    0  0.22632230878E+01 -0.49404423367E+02  0.23072633464E+02  0.54573488453E+02  0.00000000000E+00 0.  1.
         11    1    1    2    0    0  0.51267374677E+02  0.15306191053E+02 -0.17955723913E+02  0.56436080765E+02  0.00000000000E+00 0. -1.
</event>
<event>
 7    1  0.2714042E-009  0.8505044E+02  0.7561462E-02  0.1315301E+00
         -2   -1    0    0    0  501 -0.00000000000E+00  0.00000000000E+00  0.92891065557E+02  0.92891065557E+02  0.00000000000E+00 0. -1.
          2   -1    0    0  501    0  0.00000000000E+00 -0.00000000000E+00 -0.16810678895E+03  0.16810678895E+03  0.00000000000E+00 0.  1.
         25    2    1    2    0    0 -0.31868092059E+02 -0.11472220559E+02  0.11767021385E+02  0.13012639780E+03  0.12508888630E+03 0.  0.
          5    1    3    3  502    0 -0.45686970343E+02 -0.28905035651E+02 -0.44071003753E+02  0.69875075076E+02  0.41800000000E+01 0.  1.
         -5    1    3    3    0  502  0.13818878283E+02  0.17432815092E+02  0.55838025137E+02  0.60251322727E+02  0.41800000000E+01 0.  1.
        -11    1    1    2    0    0 -0.29404787214E+02 -0.49212009580E+01 -0.10727715811E+02  0.31685069299E+02  0.00000000000E+00 0.  1.
         11    1    1    2    0    0  0.61272879274E+02  0.16393421517E+02 -0.76255028966E+02  0.99186387403E+02  0.00000000000E+00 0. -1.
</event>
<event>
 7    1  0.2714042E-009  0.1725680E+03  0.7561462E-02  0.1175196E+00
          2   -1    0    0  501    0  0.00000000000E+00  0.00000000000E+00  0.26552704980E+03  0.26552704980E+03  0.00000000000E+00 0. -1.
         -2   -1    0    0    0  501 -0.00000000000E+00 -0.00000000000E+00 -0.12857466802E+03  0.12857466802E+03  0.00000000000E+00 0.  1.
         25    2    1    2    0    0  0.85251135990E+02 -0.12209842585E+03  0.59838438823E+02  0.20348161153E+03  0.12509334789E+03 0.  0.
          5    1    3    3  502    0  0.36343721818E+02  0.21025698363E+02  0.21670438028E+02  0.47434443093E+02  0.41800000000E+01 0. -1.
         -5    1    3    3    0  502  0.48907414172E+02 -0.14312412421E+03  0.38168000795E+02  0.15604716843E+03  0.41800000000E+01 0. -1.
        -11    1    1    2    0    0 -0.14314398376E+02  0.43320479688E+02 -0.17170782251E+02  0.48748350991E+02  0.00000000000E+00 0.  1.
         11    1    1    2    0    0 -0.70936737614E+02  0.78777946158E+02  0.94284725214E+02  0.14187175530E+03  0.00000000000E+00 0. -1.
</event>
<event>
 7    1  0.2714042E-009  0.1058541E+03  0.7561462E-02  0.1268446E+00
          2   -1    0    0  501    0  0.00000000000E+00  0.00000000000E+00  0.45769391870E+03  0.45769391870E+03  0.00000000000E+00 0. -1.
         -2   -1    0    0    0  501 -0.00000000000E+00 -0.00000000000E+00 -0.28814879448E+02  0.28814879448E+02  0.00000000000E+00 0.  1.
         25    2    1    2    0    0 -0.85551311599E+01  0.16480378260E+02  0.17173943133E+03  0.21327649619E+03  0.12509052090E+03 0.  0.
          5    1    3    3  502    0 -0.16257124948E+02 -0.53362290300E+02  0.71251643040E+02  0.90587511134E+02  0.41800000000E+01 0.  1.
         -5    1    3    3    0  502  0.77019937886E+01  0.69842668560E+02  0.10048778829E+03  0.12268898506E+03  0.41800000000E+01 0.  1.
        -11    1    1    2    0    0 -0.21962951530E+02  0.25386617339E+02  0.15627580617E+03  0.15984048040E+03  0.00000000000E+00 0. -1.
         11    1    1    2    0    0  0.30518082690E+02 -0.41866995600E+02  0.10086380176E+03  0.11339182156E+03  0.00000000000E+00 0.  1.
</event>
<event>
 7    1  0.2714042E-009  0.2959372E+03  0.7561462E-02  0.1087289E+00
         -1   -1    0    0    0  501 -0.00000000000E+00  0.00000000000E+00  0.14286740024E+03  0.14286740024E+03  0.00000000000E+00 0.  1.
          1   -1    0    0  501    0  0.00000000000E+00 -0.00000000000E+00 -0.62393268724E+03  0.62393268724E+03  0.00000000000E+00 0. -1.
         25    2    1    2    0    0 -0.20765278590E+03 -0.18075044347E+03 -0.19801542685E+03  0.36145324467E+03  0.12509171238E+03 0.  0.
          5    1    3    3  502    0 -0.91425799034E+02 -0.15893412468E+03 -0.10865371646E+03  0.21317090613E+03  0.41800000000E+01 0.  1.
         -5    1    3    3    0  502 -0.11622698686E+03 -0.21816318791E+02 -0.89361710382E+02  0.14828233854E+03  0.41800000000E+01 0.  1.
        -11    1    1    2    0    0  0.72885501914E+02  0.11494393263E+02 -0.70448299297E+02  0.10201656895E+03  0.00000000000E+00 0. -1.
         11    1    1    2    0    0  0.13476728398E+03  0.16925605021E+03 -0.21260156086E+03  0.30333027387E+03  0.00000000000E+00 0.  1.
</event>
<event>
 7    1  0.2714042E-009  0.9648439E+02  0.7561462E-02  0.1287867E+00
         -2   -1    0    0    0  501 -0.00000000000E+00  0.00000000000E+00  0.20027841125E+03  0.20027841125E+03  0.00000000000E+00 0.  1.
          2   -1    0    0  501    0  0.00000000000E+00 -0.00000000000E+00 -0.67430028933E+02  0.67430028933E+02  0.00000000000E+00 0. -1.
         25    2    1    2    0    0 -0.33323274056E+02  0.18285742626E+02  0.46869190251E+02  0.13888314727E+03  0.12508796354E+03 0.  0.
          5    1    3    3  502    0 -0.78175973728E+02  0.30551851926E+02  0.30973762494E+02  0.89564194227E+02  0.41800000000E+01 0. -1.
         -5    1    3    3    0  502  0.44852699672E+02 -0.12266109300E+02  0.15895427756E+02  0.49318953039E+02  0.41800000000E+01 0. -1.
        -11    1    1    2    0    0 -0.64961367757E+01  0.11027205989E+02 -0.12962797553E+02  0.18216289011E+02  0.00000000000E+00 0. -1.
         11    1    1    2    0    0  0.39819410832E+02 -0.29312948615E+02  0.98941989618E+02  0.11060900391E+03  0.00000000000E+00 0.  1.
</event>
<event>
 7    1  0.2714042E-009  0.8832669E+02  0.7561462E-02  0.1306955E+00
         -4   -1    0    0    0  501 -0.00000000000E+00  0.00000000000E+00  0.14467406752E+03  0.14467406752E+03  0.00000000000E+00 0. -1.
          4   -1    0    0  501    0  0.00000000000E+00 -0.00000000000E+00 -0.10236196641E+03  0.10236196641E+03  0.00000000000E+00 0.  1.
         25    2    1    2    0    0  0.54373414167E+02 -0.23105760612E+01  0.38619891747E+02  0.14177707658E+03  0.12508971370E+03 0.  0.
          5    1    3    3  502    0  0.58678825702E+02  0.82678259232E+01  0.79433311061E+02  0.99190144861E+02  0.41800000000E+01 0.  1.
         -5    1    3    3    0  502 -0.43054115351E+01 -0.10578401984E+02 -0.40813419314E+02  0.42586931718E+02  0.41800000000E+01 0.  1.
        -11    1    1    2    0    0 -0.11517332899E+02 -0.41934978510E+02 -0.82390406726E+00  0.43495634237E+02  0.00000000000E+00 0.  1.
         11    1    1    2    0    0 -0.42856081268E+02  0.44245554571E+02  0.45161134351E+01  0.61763323110E+02  0.00000000000E+00 0. -1.
</event>
<event>
 7    1  0.2714042E-009  0.1151446E+03  0.7561462E-02  0.1251329E+00
          2   -1    0    0  501    0  0.00000000000E+00  0.00000000000E+00  0.84886434556E+03  0.84886434556E+03  0.00000000000E+00 0. -1.
         -2   -1    0    0    0  501 -0.00000000000E+00 -0.00000000000E+00 -0.25651684705E+02  0.25651684705E+02  0.00000000000E+00 0.  1.
         25    2    1    2    0    0 -0.39160001628E+02 -0.83553886656E+02  0.56863546710E+03  0.58949857809E+03  0.12509005325E+03 0.  0.
          5    1    3    3  502    0  0.32272928340E+01  0.55529352758E+01  0.34429884324E+03  0.34438411166E+03  0.41800000000E+01 0. -1.
         -5    1    3    3    0  502 -0.42387294462E+02 -0.89106821932E+02  0.22433662386E+03  0.24511446643E+03  0.41800000000E+01 0. -1.
        -11    1    1    2    0    0  0.62962815314E+02  0.41095183770E+02  0.11692877407E+03  0.13901607262E+03  0.00000000000E+00 0.  1.
         11    1    1    2    0    0 -0.23802813686E+02  0.42458702886E+02  0.13764841969E+03  0.14600137956E+03  0.00000000000E+00 0. -1.
</event>
<event>
 7    1  0.2714042E-009  0.1175553E+03  0.7561462E-02  0.1247185E+00
          2   -1    0    0  501    0  0.00000000000E+00  0.00000000000E+00  0.42130424858E+03  0.42130424858E+03  0.00000000000E+00 0. -1.
         -2   -1    0    0    0  501 -0.00000000000E+00 -0.00000000000E+00 -0.36798540785E+02  0.36798540785E+02  0.00000000000E+00 0.  1.
         25    2    1    2    0    0 -0.22099249116E+02  0.56900644937E+02  0.21947478358E+03  0.25989036226E+03  0.12509100514E+03 0.  0.
          5    1    3    3  502    0 -0.66083618942E+02  0.64882139105E+02  0.16537660927E+03  0.18958805860E+03  0.41800000000E+01 0. -1.
         -5    1    3    3    0  502  0.43984369826E+02 -0.79814941680E+01  0.54098174302E+02  0.70302303668E+02  0.41800000000E+01 0. -1.
        -11    1    1    2    0    0 -0.26807995498E+02 -0.34563053164E+02  0.30471000734E+02  0.53308115258E+02  0.00000000000E+00 0.  1.
         11    1    1    2    0    0  0.48907244614E+02 -0.22337591773E+02  0.13455992348E+03  0.14490431184E+03  0.00000000000E+00 0. -1.
</event>
<event>
 7    1  0.2714042E-009  0.1205825E+03  0.7561462E-02  0.1242139E+00
          2   -1    0    0  501    0  0.00000000000E+00  0.00000000000E+00  0.29093854057E+03  0.29093854057E+03  0.00000000000E+00 0.  1.
         -2   -1    0    0    0  501 -0.00000000000E+00 -0.00000000000E+00 -0.59869217795E+02  0.59869217795E+02  0.00000000000E+00 0. -1.
         25    2    1    2    0    0 -0.55024834555E+02  0.24790358975E+02  0.71888028639E+02  0.15638747655E+03  0.12508740881E+03 0.  0.
          5    1    3    3  502    0 -0.44055482831E+02  0.72196684428E+02  0.24063164707E+02  0.88032693391E+02  0.41800000000E+01 0. -1.
         -5    1    3    3    0  502 -0.10969351724E+02 -0.47406325453E+02  0.47824863931E+02  0.68354783156E+02  0.41800000000E+01 0. -1.
        -11    1    1    2    0    0  0.65498035253E+02  0.14416027669E+02  0.72809310007E+02  0.98989949487E+02  0.00000000000E+00 0. -1.
         11    1    1    2    0    0 -0.10473200698E+02 -0.39206386644E+02  0.86371984127E+02  0.95430332330E+02  0.00000000000E+00 0.  1.
</event>
<event>
 7    1  0.2714042E-009  0.1526693E+03  0.7561462E-02  0.1197231E+00
         -2   -1    0    0    0  501 -0.00000000000E+00  0.00000000000E+00  0.13615577384E+03  0.13615577384E+03  0.00000000000E+00 0.  1.
          2   -1    0    0  501    0  0.00000000000E+00 -0.00000000000E+00 -0.33063638212E+03  0.33063638212E+03  0.00000000000E+00 0. -1.
         25    2    1    2    0    0 -0.95660035023E+02  0.98391107773E+02 -0.23312524250E+03  0.29803833923E+03  0.12509124899E+03 0.  0.
          5    1    3    3  502    0 -0.19627573264E+02  0.70009406001E+02 -0.19523130312E+03  0.20837296532E+03  0.41800000000E+01 0.  1.
         -5    1    3    3    0  502 -0.76032461759E+02  0.28381701772E+02 -0.37893939379E+02  0.89665373909E+02  0.41800000000E+01 0.  1.
        -11    1    1    2    0    0  0.59769262567E+02 -0.98661338716E+02 -0.89027299555E+00  0.11535691176E+03  0.00000000000E+00 0. -1.
         11    1    1    2    0    0  0.35890772456E+02  0.27023094329E+00  0.39534907209E+02  0.53396904970E+02  0.00000000000E+00 0.  1.
</event>
<event>
 7    1  0.2714042E-009  0.9227904E+02  0.7561462E-02  0.1297425E+00
         -2   -1    0    0    0  501 -0.00000000000E+00  0.00000000000E+00  0.50127680575E+02  0.50127680575E+02  0.00000000000E+00 0.  1.
          2   -1    0    0  501    0  0.00000000000E+00 -0.00000000000E+00 -0.25891311902E+03  0.25891311902E+03  0.00000000000E+00 0. -1.
         25    2    1    2    0    0 -0.17897070489E+02 -0.11118714127E+02 -0.15988262233E+03  0.20409230877E+03  0.12508911480E+03 0.  0.
          5    1    3    3  502    0 -0.62554795372E+02 -0.11699898017E+02 -0.38051230444E+02  0.74265460182E+02  0.41800000000E+01 0. -1.
         -5    1    3    3    0  502  0.44657724884E+02  0.58118388993E+00 -0.12183139188E+03  0.12982684859E+03  0.41800000000E+01 0. -1.
        -11    1    1    2    0    0 -0.24121094796E+02 -0.13077213064E+02  0.95050722778E+01  0.29037684389E+02  0.00000000000E+00 0. -1.
         11    1    1    2    0    0  0.42018165285E+02  0.24195927191E+02 -0.58407888396E+02  0.75910806434E+02  0.00000000000E+00 0.  1.
</event>
<event>
 7    1  0.2714042E-009  0.1248554E+03  0.7561462E-02  0.1235295E+00
         -1   -1    0    0    0  501 -0.00000000000E+00  0.00000000000E+00  0.70133236213E+02  0.70133236213E+02  0.00000000000E+00 0.  1.
          1   -1    0    0  501    0  0.00000000000E+00 -0.00000000000E+00 -0.27762987786E+03  0.27762987786E+03  0.00000000000E+00 0. -1.
         25    2    1    2    0    0 -0.59872743841E+02 -0.27098610890E+02 -0.41200208744E+02  0.14718739239E+03  0.12509033180E+03 0.  0.
          5    1    3    3  502    0 -0.95676337654E+02 -0.34782454230E+02 -0.42285890812E+02  0.11031477540E+03  0.41800000000E+01 0. -1.
         -5    1    3    3    0  502  0.35803593813E+02  0.76838433392E+01  0.10856820682E+01  0.36872616993E+02  0.41800000000E+01 0. -1.
        -11    1    1    2    0    0 -0.20418037449E+02  0.22733204131E+02 -0.59556895274E+02  0.66938169963E+02  0.00000000000E+00 0. -1.
         11    1    1    2    0    0  0.80290781290E+02  0.43654067592E+01 -0.10673953762E+03  0.13363755172E+03  0.00000000000E+00 0.  1.
</event>
<event>
 7    1  0.2714042E-009  0.3953937E+03  0.7561462E-02  0.1045386E+00
         -1   -1    0    0    0  501 -0.00000000000E+00  0.00000000000E+00  0.20846605629E+03  0.20846605629E+03  0.00000000000E+00 0.  1.
          1   -1    0    0  501    0  0.00000000000E+00 -0.00000000000E+00 -0.76176529036E+03  0.76176529036E+03  0.00000000000E+00 0. -1.
         25    2    1    2    0    0  0.37455638486E+03  0.76367267990E+02 -0.27355944945E+03  0.48642298676E+03  0.12509238428E+03 0.  0.
          5    1    3    3  502    0  0.22315709458E+03  0.10663500912E+03 -0.15783905333E+03  0.29342929845E+03  0.41800000000E+01 0. -1.
         -5    1    3    3    0  502  0.15139929028E+03 -0.30267741126E+02 -0.11572039612E+03  0.19299368831E+03  0.41800000000E+01 0. -1.
        -11    1    1    2    0    0 -0.13672507315E+03  0.71324955907E+01 -0.13905007365E+03  0.19513979887E+03  0.00000000000E+00 0. -1.
         11    1    1    2    0    0 -0.23783131171E+03 -0.83499763581E+02 -0.14068971097E+03  0.28866856102E+03  0.00000000000E+00 0.  1.
</event>
<event>
 7    1  0.2714042E-009  0.1289053E+03  0.7561462E-02  0.1229089E+00
          1   -1    0    0  501    0  0.00000000000E+00  0.00000000000E+00  0.52893248653E+03  0.52893248653E+03  0.00000000000E+00 0. -1.
         -1   -1    0    0    0  501 -0.00000000000E+00 -0.00000000000E+00 -0.37916835505E+02  0.37916835505E+02  0.00000000000E+00 0.  1.
         25    2    1    2    0    0 -0.61077560131E+02  0.59337156006E+02  0.30168496421E+03  0.33750986396E+03  0.12509086379E+03 0.  0.
          5    1    3    3  502    0 -0.46843978095E+02  0.95857995566E+02  0.25472763320E+03  0.27620056682E+03  0.41800000000E+01 0.  1.
         -5    1    3    3    0  502 -0.14233582037E+02 -0.36520839560E+02  0.46957331012E+02  0.61309297138E+02  0.41800000000E+01 0.  1.
        -11    1    1    2    0    0 -0.15956362681E+01 -0.47879915434E+02  0.14230457001E+03  0.15015199966E+03  0.00000000000E+00 0. -1.
         11    1    1    2    0    0  0.62673196399E+02 -0.11457240572E+02  0.47026116810E+02  0.79187458418E+02  0.00000000000E+00 0.  1.
</event>
<event>
 7    1  0.2714042E-009  0.1108865E+03  0.7561462E-02  0.1258937E+00
          2   -1    0    0  501    0  0.00000000000E+00  0.00000000000E+00  0.52111958921E+02  0.52111958921E+02  0.00000000000E+00 0. -1.
         -2   -1    0    0    0  501 -0.00000000000E+00 -0.00000000000E+00 -0.25936675696E+03  0.25936675696E+03  0.00000000000E+00 0.  1.
         25    2    1    2    0    0  0.31061949537E+02  0.23157455310E+02 -0.88182251800E+02  0.15787383377E+03  0.12508767090E+03 0.  0.
          5    1    3    3  502    0 -0.20359661250E+02 -0.38979521310E+02 -0.55040942781E+02  0.70575467905E+02  0.41800000000E+01 0.  1.
         -5    1    3    3    0  502  0.51421610787E+02  0.62136976621E+02 -0.33141309019E+02  0.87298365867E+02  0.41800000000E+01 0.  1.
        -11    1    1    2    0    0  0.31219093283E+02 -0.12600197157E+02 -0.36758333682E+02  0.49845479724E+02  0.00000000000E+00 0.  1.
         11    1    1    2    0    0 -0.62281042820E+02 -0.10557258153E+02 -0.82314212553E+02  0.10375940238E+03  0.00000000000E+00 0. -1.
</event>
<event>
 7    1  0.2714042E-009  0.8527298E+02  0.7561462E-02  0.1314720E+00
         -1   -1    0    0    0  501 -0.00000000000E+00  0.00000000000E+00  0.32127983859E+02  0.32127983859E+02  0.00000000000E+00 0.  1.
          1   -1    0    0  501    0  0.00000000000E+00 -0.00000000000E+00 -0.61114580820E+03  0.61114580820E+03  0.00000000000E+00 0. -1.
         25    2    1    2    0    0  0.36194088788E+02  0.44875705019E+02 -0.45786586853E+03  0.47813396534E+03  0.12508834591E+03 0.  0.
          5    1    3    3  502    0  0.37492094052E+00 -0.53103248660E+00  0.77992256138E+01  0.88725915825E+01  0.41800000000E+01 0. -1.
         -5    1    3    3    0  502  0.35819167848E+02  0.45406737506E+02 -0.46566509414E+03  0.46926137376E+03  0.41800000000E+01 0. -1.
        -11    1    1    2    0    0 -0.41491974969E+02  0.18002939939E+02 -0.72538029669E+02  0.85483656810E+02  0.00000000000E+00 0. -1.
         11    1    1    2    0    0  0.52978861812E+01 -0.62878644959E+02 -0.48613926144E+02  0.79656169912E+02  0.00000000000E+00 0.  1.
</event>
<event>
 7    1  0.2714042E-009  0.1290798E+03  0.7561462E-02  0.1228828E+00
          1   -1    0    0  501    0  0.00000000000E+00  0.00000000000E+00  0.15432834533E+03  0.15432834533E+03  0.00000000000E+00 0. -1.
         -1   -1    0    0    0  501 -0.00000000000E+00 -0.00000000000E+00 -0.12749461520E+03  0.12749461520E+03  0.00000000000E+00 0.  1.
         25    2    1    2    0    0  0.50581592832E+02 -0.68268610451E+02  0.34006971793E+02  0.15499339460E+03  0.12508947810E+03 0.  0.
          5    1    3    3  502    0  0.10664962053E+02  0.34102042987E+02  0.26687999937E+02  0.44792996016E+02  0.41800000000E+01 0. -1.
         -5    1    3    3    0  502  0.39916630780E+02 -0.10237065344E+03  0.73189718560E+01  0.11020039858E+03  0.41800000000E+01 0. -1.
        -11    1    1    2    0    0  0.18489300013E+02  0.23566035455E+02  0.24471618407E+02  0.38679094476E+02  0.00000000000E+00 0. -1.
         11    1    1    2    0    0 -0.69070892845E+02  0.44702574996E+02 -0.31644860073E+02  0.88150471460E+02  0.00000000000E+00 0.  1.
</event>
<event>
 7    1  0.2714042E-009  0.1235646E+03  0.7561462E-02  0.1237330E+00
          3   -1    0    0  501    0  0.00000000000E+00  0.00000000000E+00  0.72476695113E+02  0.72476695113E+02  0.00000000000E+00 0. -1.
         -3   -1    0    0    0  501 -0.00000000000E+00 -0.00000000000E+00 -0.43824476788E+03  0.43824476788E+03  0.00000000000E+00 0.  1.
         25    2    1    2    0    0 -0.60563251361E+02 -0.48445087490E+01 -0.11032138055E+02  0.13950021122E+03  0.12508886514E+03 0.  0.
          5    1    3    3  502    0 -0.73085590980E+02  0.45412201955E+02 -0.14772484884E+02  0.87404064008E+02  0.41800000000E+01 0. -1.
         -5    1    3    3    0  502  0.12522339619E+02 -0.50256710704E+02  0.37403468289E+01  0.52096147216E+02  0.41800000000E+01 0. -1.
        -11    1    1    2    0    0  0.43196267191E+02 -0.41271367401E+02 -0.17897457058E+03  0.18868264409E+03  0.00000000000E+00 0. -1.
         11    1    1    2    0    0  0.17366984170E+02  0.46115876150E+02 -0.17576136413E+03  0.18253860768E+03  0.00000000000E+00 0.  1.
</event>
<event>
 7    1  0.2714042E-009  0.1302286E+03  0.7561462E-02  0.1227117E+00
          1   -1    0    0  501    0  0.00000000000E+00  0.00000000000E+00  0.11331096193E+03  0.11331096193E+03  0.00000000000E+00 0. -1.
         -1   -1    0    0    0  501 -0.00000000000E+00 -0.00000000000E+00 -0.18967031232E+03  0.18967031232E+03  0.00000000000E+00 0.  1.
         25    2    1    2    0    0  0.46879814190E+02 -0.81861113134E+02 -0.93408334319E+01  0.15695355760E+03  0.12509280256E+03 0.  0.
          5    1    3    3  502    0  0.62047681756E+02 -0.53542377426E+01 -0.38777363919E+02  0.73482916556E+02  0.41800000000E+01 0. -1.
         -5    1    3    3    0  502 -0.15167867566E+02 -0.76506875391E+02  0.29436530487E+02  0.83470641041E+02  0.41800000000E+01 0. -1.
        -11    1    1    2    0    0 -0.60693810543E+02  0.86224862917E+02 -0.75085622447E+02  0.12944619083E+03  0.00000000000E+00 0.  1.
         11    1    1    2    0    0  0.13813996353E+02 -0.43637497828E+01  0.80671054929E+01  0.16581525818E+02  0.00000000000E+00 0. -1.
</event>
<event>
 7    1  0.2714042E-009  0.9809522E+02  0.7561462E-02  0.1284353E+00
         -1   -1    0    0    0  501 -0.00000000000E+00  0.00000000000E+00  0.39280145283E+03  0.39280145283E+03  0.00000000000E+00 0.  1.
          1   -1    0    0  501    0  0.00000000000E+00 -0.00000000000E+00 -0.77729226828E+02  0.77729226828E+02  0.00000000000E+00 0. -1.
         25    2    1    2    0    0 -0.41946105730E+02 -0.54757544091E+02  0.32612084032E+03  0.35603621252E+03  0.12509643366E+03 0.  0.
          5    1    3    3  502    0 -0.49641428792E+02 -0.35218740259E+02  0.32884100120E+03  0.33445254909E+03  0.41800000000E+01 0.  1.
         -5    1    3    3    0  502  0.76953230617E+01 -0.19538803832E+02 -0.27201608782E+01  0.21583663438E+02  0.41800000000E+01 0.  1.
        -11    1    1    2    0    0 -0.28182632553E+00  0.69154543034E+02 -0.99413952671E+01  0.69866025994E+02  0.00000000000E+00 0.  1.
         11    1    1    2    0    0  0.42227932056E+02 -0.14396998943E+02 -0.11072190582E+01  0.44628441137E+02  0.00000000000E+00 0. -1.
</event>
<event>
 7    1  0.2714042E-009  0.1258122E+03  0.7561462E-02  0.1233805E+00
          1   -1    0    0  501    0  0.00000000000E+00  0.00000000000E+00  0.44657558589E+03  0.44657558589E+03  0.00000000000E+00 0. -1.
         -1   -1    0    0    0  501 -0.00000000000E+00 -0.00000000000E+00 -0.57073698525E+02  0.57073698525E+02  0.00000000000E+00 0.  1.
         25    2    1    2    0    0 -0.24541199622E+02  0.11597173300E+03  0.21900449832E+03  0.27868065693E+03  0.12509286522E+03 0.  0.
          5    1    3    3  502    0 -0.29107417764E+02  0.65461769559E+02  0.21610650680E+03  0.22771029780E+03  0.41800000000E+01 0. -1.
         -5    1    3    3    0  502  0.45662181415E+01  0.50509963440E+02  0.28979915147E+01  0.50970359128E+02  0.41800000000E+01 0. -1.
        -11    1    1    2    0    0  0.40425842579E+02 -0.86967907139E+02  0.68800699713E+02  0.11803051259E+03  0.00000000000E+00 0.  1.
         11    1    1    2    0    0 -0.15884642956E+02 -0.29003825860E+02  0.10169668933E+03  0.10693811490E+03  0.00000000000E+00 0. -1.
</event>
<event>
 7    1  0.2714042E-009  0.1447538E+03  0.7561462E-02  0.1207072E+00
         -2   -1    0    0    0  501 -0.00000000000E+00  0.00000000000E+00  0.36038585075E+02  0.36038585075E+02  0.00000000000E+00 0. -1.
          2   -1    0    0  501    0  0.00000000000E+00 -0.00000000000E+00 -0.83126217658E+03  0.83126217658E+03  0.00000000000E+00 0.  1.
         25    2    1    2    0    0  0.77210115673E+02  0.99722705248E+02 -0.53850364439E+03  0.56704430229E+03  0.12508815228E+03 0.  0.
          5    1    3    3  502    0 -0.15624202723E+02  0.41640154370E+02 -0.31465950137E+03  0.31781455657E+03  0.41800000000E+01 0. -1.
         -5    1    3    3    0  502  0.92834318396E+02  0.58082550878E+02 -0.22384414301E+03  0.24922974572E+03  0.41800000000E+01 0. -1.
        -11    1    1    2    0    0 -0.38619158533E+02 -0.86031806140E+02 -0.23646045575E+03  0.25457112603E+03  0.00000000000E+00 0.  1.
         11    1    1    2    0    0 -0.38590957140E+02 -0.13690899108E+02 -0.20259491365E+02  0.45685333333E+02  0.00000000000E+00 0. -1.
</event>
<event>
 7    1  0.2714042E-009  0.1084594E+03  0.7561462E-02  0.1263450E+00
          1   -1    0    0  501    0  0.00000000000E+00  0.00000000000E+00  0.57833431442E+03  0.57833431442E+03  0.00000000000E+00 0. -1.
         -1   -1    0    0    0  501 -0.00000000000E+00 -0.00000000000E+00 -0.22770269267E+02  0.22770269267E+02  0.00000000000E+00 0.  1.
         25    2    1    2    0    0  0.25656474062E+01 -0.35633918808E+02  0.32109308034E+03  0.34644335673E+03  0.12508346998E+03 0.  0.
          5    1    3    3  502    0  0.47527069740E+02 -0.60837902409E+02  0.17027147633E+03  0.18700246196E+03  0.41800000000E+01 0.  1.
         -5    1    3    3    0  502 -0.44961422334E+02  0.25203983601E+02  0.15082160401E+03  0.15944089476E+03  0.41800000000E+01 0.  1.
        -11    1    1    2    0    0  0.25559478549E+02 -0.15241736875E+02  0.14458116077E+03  0.14761202368E+03  0.00000000000E+00 0. -1.
         11    1    1    2    0    0 -0.28125125955E+02  0.50875655684E+02  0.89889804048E+02  0.10704920328E+03  0.00000000000E+00 0.  1.
</event>
<event>
 7    1  0.2714042E-009  0.9341088E+02  0.7561462E-02  0.1294796E+00
          1   -1    0    0  501    0  0.00000000000E+00  0.00000000000E+00  0.46697935933E+03  0.46697935933E+03  0.00000000000E+00 0. -1.
         -1   -1    0    0    0  501 -0.00000000000E+00 -0.00000000000E+00 -0.35534605027E+02  0.35534605027E+02  0.00000000000E+00 0.  1.
         25    2    1    2    0    0 -0.15011639684E+02 -0.28756593041E+02  0.36013524038E+03  0.38261346889E+03  0.12507351538E+03 0.  0.
          5    1    3    3  502    0 -0.48008712812E+02 -0.63906599593E+02  0.20355801154E+03  0.21872865940E+03  0.41800000000E+01 0. -1.
         -5    1    3    3    0  502  0.32997073128E+02  0.35150006552E+02  0.15657722883E+03  0.16388480950E+03  0.41800000000E+01 0. -1.
        -11    1    1    2    0    0 -0.14825192446E+02 -0.26608734668E+01  0.74923305929E+02  0.76422302700E+02  0.00000000000E+00 0. -1.
         11    1    1    2    0    0  0.29836832130E+02  0.31417466508E+02 -0.36137920003E+01  0.43478192763E+02  0.00000000000E+00 0.  1.
</event>
<event>
 7    1  0.2714042E-009  0.2070050E+03  0.7561462E-02  0.1143960E+00
          2   -1    0    0  501    0  0.00000000000E+00  0.00000000000E+00  0.16872450431E+04  0.16872450431E+04  0.00000000000E+00 0. -1.
         -2   -1    0    0    0  501 -0.00000000000E+00 -0.00000000000E+00 -0.37445752049E+02  0.37445752049E+02  0.00000000000E+00 0.  1.
         25    2    1    2    0    0  0.57930340775E+02 -0.18703851229E+03  0.12392685384E+04  0.12608621292E+04  0.12508984461E+03 0.  0.
          5    1    3    3  502    0  0.13932995202E+02 -0.96763351194E+02  0.94183203389E+03  0.94690143466E+03  0.41800000000E+01 0. -1.
         -5    1    3    3    0  502  0.43997345573E+02 -0.90275161100E+02  0.29743650446E+03  0.31396069454E+03  0.41800000000E+01 0. -1.
        -11    1    1    2    0    0  0.12654213774E+02  0.11167749110E+03  0.22457717073E+03  0.25113123413E+03  0.00000000000E+00 0.  1.
         11    1    1    2    0    0 -0.70584554549E+02  0.75361021198E+02  0.18595358197E+03  0.21269743182E+03  0.00000000000E+00 0. -1.
</event>
<event>
 7    1  0.2714042E-009  0.1027231E+03  0.7561462E-02  0.1274672E+00
         -1   -1    0    0    0  501 -0.00000000000E+00  0.00000000000E+00  0.18446446201E+02  0.18446446201E+02  0.00000000000E+00 0.  1.
          1   -1    0    0  501    0  0.00000000000E+00 -0.00000000000E+00 -0.11323383549E+04  0.11323383549E+04  0.00000000000E+00 0. -1.
         25    2    1    2    0    0 -0.51378148267E+02 -0.34844402161E+02 -0.89344908584E+03  0.90429644563E+03  0.12508775367E+03 0.  0.
          5    1    3    3  502    0 -0.62918474917E+02 -0.62660398097E+02 -0.39317706135E+03  0.40310139413E+03  0.41800000000E+01 0.  1.
         -5    1    3    3    0  502  0.11540326649E+02  0.27815995936E+02 -0.50027202449E+03  0.50119505150E+03  0.41800000000E+01 0.  1.
        -11    1    1    2    0    0  0.48137043750E+02 -0.29366667501E+01 -0.19487572891E+03  0.20075444880E+03  0.00000000000E+00 0. -1.
         11    1    1    2    0    0  0.32411045173E+01  0.37781068911E+02 -0.25567093954E+02  0.45733906676E+02  0.00000000000E+00 0.  1.
</event>
<event>
 7    1  0.2714042E-009  0.2331081E+03  0.7561462E-02  0.1124471E+00
         -1   -1    0    0    0  501 -0.00000000000E+00  0.00000000000E+00  0.20824920476E+03  0.20824920476E+03  0.00000000000E+00 0.  1.
          1   -1    0    0  501    0  0.00000000000E+00 -0.00000000000E+00 -0.30726710118E+03  0.30726710118E+03  0.00000000000E+00 0. -1.
         25    2    1    2    0    0  0.46015412128E+01  0.22775536777E+03 -0.37734826862E+02  0.26261226044E+03  0.12509036912E+03 0.  0.
          5    1    3    3  502    0  0.35937296483E+02  0.88535334241E+02  0.35675872336E+02  0.10207955209E+03  0.41800000000E+01 0. -1.
         -5    1    3    3    0  502 -0.31335755270E+02  0.13922003353E+03 -0.73410699199E+02  0.16053270836E+03  0.41800000000E+01 0. -1.
        -11    1    1    2    0    0 -0.23239531142E+01 -0.15814944318E+03  0.29039780222E+01  0.15819317376E+03  0.00000000000E+00 0.  1.
         11    1    1    2    0    0 -0.22775880986E+01 -0.69605924596E+02 -0.64187047583E+02  0.94710871730E+02  0.00000000000E+00 0. -1.
</event>
<event>
 7    1  0.2714042E-009  0.1191980E+03  0.7561462E-02  0.1244426E+00
          2   -1    0    0  501    0  0.00000000000E+00  0.00000000000E+00  0.11346561155E+04  0.11346561155E+04  0.00000000000E+00 0. -1.
         -2   -1    0    0    0  501 -0.00000000000E+00 -0.00000000000E+00 -0.13633614973E+02  0.13633614973E+02  0.00000000000E+00 0.  1.
         25    2    1    2    0    0  0.58126042930E+02  0.19613595577E+02  0.60247026900E+03  0.61836933580E+03  0.12508749111E+03 0.  0.
          5    1    3    3  502    0  0.20881188211E+02 -0.47833189964E+02  0.36347869442E+03  0.36723054309E+03  0.41800000000E+01 0. -1.
         -5    1    3    3    0  502  0.37244854719E+02  0.67446785541E+02  0.23899157458E+03  0.25113879271E+03  0.41800000000E+01 0. -1.
        -11    1    1    2    0    0 -0.82502609625E+02 -0.12217423535E+02  0.37986431236E+03  0.38891238324E+03  0.00000000000E+00 0.  1.
         11    1    1    2    0    0  0.24376566695E+02 -0.73961720421E+01  0.13868791913E+03  0.14100801139E+03  0.00000000000E+00 0. -1.
</event>
<event>
 7    1  0.2714042E-009  0.9692574E+02  0.7561462E-02  0.1286897E+00
         -2   -1    0    0    0  501 -0.00000000000E+00  0.00000000000E+00  0.23523270165E+02  0.23523270165E+02  0.00000000000E+00 0.  1.
          2   -1    0    0  501    0  0.00000000000E+00 -0.00000000000E+00 -0.60209966875E+03  0.60209966875E+03  0.00000000000E+00 0. -1.
         25    2    1    2    0    0 -0.63854888738E+01 -0.22961988403E+02 -0.25924286632E+03  0.28882959377E+03  0.12509053970E+03 0.  0.
          5    1    3    3  502    0 -0.24826556978E-01 -0.65711024607E+02 -0.76198787872E+02  0.10070584414E+03  0.41800000000E+01 0. -1.
         -5    1    3    3    0  502 -0.63606623169E+01  0.42749036204E+02 -0.18304407845E+03  0.18812374963E+03  0.41800000000E+01 0. -1.
        -11    1    1    2    0    0  0.40289892835E+02  0.29655845235E+02 -0.28000203886E+03  0.28443608489E+03  0.00000000000E+00 0.  1.
         11    1    1    2    0    0 -0.33904403961E+02 -0.66938568321E+01 -0.39331493401E+02  0.52357260245E+02  0.00000000000E+00 0. -1.
</event>
<event>
 7    1  0.2714042E-009  0.1496879E+03  0.7561462E-02  0.1200857E+00
          2   -1    0    0  501    0  0.00000000000E+00  0.00000000000E+00  0.11063729651E+04  0.11063729651E+04  0.00000000000E+00 0. -1.
         -2   -1    0    0    0  501 -0.00000000000E+00 -0.00000000000E+00 -0.25529889693E+02  0.25529889693E+02  0.00000000000E+00 0.  1.
         25    2    1    2    0    0  0.10669824873E+03 -0.41093897024E+02  0.77383359624E+03  0.79217386084E+03  0.12509103275E+03 0.  0.
          5    1    3    3  502    0  0.11958962373E+03  0.26370368282E+01  0.47470735906E+03  0.48956427690E+03  0.41800000000E+01 0.  1.
         -5    1    3    3    0  502 -0.12891375007E+02 -0.43730933852E+02  0.29912623718E+03  0.30260958394E+03  0.41800000000E+01 0.  1.
        -11    1    1    2    0    0 -0.18137938307E+02  0.41553867426E+02  0.48140857168E+02  0.66130558994E+02  0.00000000000E+00 0.  1.
         11    1    1    2    0    0 -0.88560310419E+02 -0.45997040188E+00  0.25886862196E+03  0.27359843491E+03  0.00000000000E+00 0. -1.
</event>
<event>
 7    1  0.2714042E-009  0.7757066E+02  0.7561462E-02  0.1336090E+00
         -1   -1    0    0    0  501 -0.00000000000E+00  0.00000000000E+00  0.51621111001E+02  0.51621111001E+02  0.00000000000E+00 0.  1.
          1   -1    0    0  501    0  0.00000000000E+00 -0.00000000000E+00 -0.29511536916E+03  0.29511536916E+03  0.00000000000E+00 0. -1.
         25    2    1    2    0    0 -0.14286096181E+02  0.33305238226E+02 -0.20068694852E+03  0.23924041062E+03  0.12508953326E+03 0.  0.
          5    1    3    3  502    0  0.25147263743E+02  0.15408860396E+02  0.39335581408E+01  0.30046016910E+02  0.41800000000E+01 0.  1.
         -5    1    3    3    0  502 -0.39433359924E+02  0.17896377830E+02 -0.20462050666E+03  0.20919439371E+03  0.41800000000E+01 0.  1.
        -11    1    1    2    0    0 -0.13370724911E+02  0.18675152799E+02 -0.42848312977E+02  0.48616000881E+02  0.00000000000E+00 0. -1.
         11    1    1    2    0    0  0.27656821093E+02 -0.51980391025E+02  0.41003337785E-01  0.58880068659E+02  0.00000000000E+00 0.  1.
</event>
<event>
 7    1  0.2714042E-009  0.1434101E+03  0.7561462E-02  0.1208813E+00
         -1   -1    0    0    0  501 -0.00000000000E+00  0.00000000000E+00  0.12624233158E+03  0.12624233158E+03  0.00000000000E+00 0.  1.
          1   -1    0    0  501    0  0.00000000000E+00 -0.00000000000E+00 -0.23059046614E+03  0.23059046614E+03  0.00000000000E+00 0. -1.
         25    2    1    2    0    0  0.97292499169E+02  0.64763488887E+02 -0.11841338675E+03  0.20815391288E+03  0.12508469690E+03 0.  0.
          5    1    3    3  502    0  0.73281991305E+02 -0.24520581373E+02 -0.41487649029E+02  0.87807782015E+02  0.41800000000E+01 0.  1.
         -5    1    3    3    0  502  0.24010507865E+02  0.89284070260E+02 -0.76925737725E+02  0.12034613087E+03  0.41800000000E+01 0.  1.
        -11    1    1    2    0    0 -0.28288244650E+02 -0.19389580820E+02  0.48334433669E+02  0.59265488338E+02  0.00000000000E+00 0.  1.
         11    1    1    2    0    0 -0.69004254519E+02 -0.45373908067E+02 -0.34269181478E+02  0.89413396503E+02  0.00000000000E+00 0. -1.
</event>
<event>
 7    1  0.2714042E-009  0.1188469E+03  0.7561462E-02  0.1245012E+00
         -1   -1    0    0    0  501 -0.00000000000E+00  0.00000000000E+00  0.29813903684E+02  0.29813903684E+02  0.00000000000E+00 0.  1.
          1   -1    0    0  501    0  0.00000000000E+00 -0.00000000000E+00 -0.61718652991E+03  0.61718652991E+03  0.00000000000E+00 0. -1.
         25    2    1    2    0    0 -0.67634676623E+02  0.11988796317E+02 -0.42334201868E+03  0.44674871798E+03  0.12509105288E+03 0.  0.
          5    1    3    3  502    0 -0.10418828888E+03  0.78829868979E+01 -0.33567393911E+03  0.35158470788E+03  0.41800000000E+01 0.  1.
         -5    1    3    3    0  502  0.36553612256E+02  0.41058094189E+01 -0.87668079579E+02  0.95164010093E+02  0.41800000000E+01 0.  1.
        -11    1    1    2    0    0  0.86025460939E+01 -0.32492754769E+02 -0.11681947911E+02  0.35584418202E+02  0.00000000000E+00 0.  1.
         11    1    1    2    0    0  0.59032130530E+02  0.20503958453E+02 -0.15234865963E+03  0.16466729741E+03  0.00000000000E+00 0. -1.
</event>
<event>
 7    1  0.2714042E-009  0.1151178E+03  0.7561462E-02  0.1251376E+00
          3   -1    0    0  501    0  0.00000000000E+00  0.00000000000E+00  0.20579830685E+03  0.20579830685E+03  0.00000000000E+00 0. -1.
         -3   -1    0    0    0  501 -0.00000000000E+00 -0.00000000000E+00 -0.73423588106E+02  0.73423588106E+02  0.00000000000E+00 0.  1.
         25    2    1    2    0    0 -0.42292858586E+02 -0.98326261572E+01  0.11886633609E+03  0.17793572866E+03  0.12508617531E+03 0.  0.
          5    1    3    3  502    0 -0.86832759957E+02 -0.72346615958E+01  0.84662109534E+02  0.12156238613E+03  0.41800000000E+01 0.  1.
         -5    1    3    3    0  502  0.44539901371E+02 -0.25979645614E+01  0.34204226554E+02  0.56373342532E+02  0.41800000000E+01 0.  1.
        -11    1    1    2    0    0 -0.18177211642E+02 -0.23052783540E+02 -0.55181678694E+01  0.29871257568E+02  0.00000000000E+00 0.  1.
         11    1    1    2    0    0  0.60470070228E+02  0.32885409698E+02  0.19026550528E+02  0.71414908733E+02  0.00000000000E+00 0. -1.
</event>
<event>
 7    1  0.2714042E-009  0.1055750E+03  0.7561462E-02  0.1268991E+00
         -1   -1    0    0    0  501 -0.00000000000E+00  0.00000000000E+00  0.25234348357E+03  0.25234348357E+03  0.00000000000E+00 0.  1.
          1   -1    0    0  501    0  0.00000000000E+00 -0.00000000000E+00 -0.65903051698E+02  0.65903051698E+02  0.00000000000E+00 0. -1.
         25    2    1    2    0    0  0.28777944819E+01  0.13649943609E+01  0.18920941080E+03  0.22684146762E+03  0.12508679143E+03 0.  0.
          5    1    3    3  502    0 -0.57731144372E+02  0.89288642388E+01  0.59914196796E+02  0.83784205103E+02  0.41800000000E+01 0. -1.
         -5    1    3    3    0  502  0.60608938854E+02 -0.75638698779E+01  0.12929521400E+03  0.14305726252E+03  0.41800000000E+01 0. -1.
        -11    1    1    2    0    0  0.42436153741E+02  0.12030800654E+02 -0.16394777274E+01  0.44139043895E+02  0.00000000000E+00 0. -1.
         11    1    1    2    0    0 -0.45313948223E+02 -0.13395795015E+02 -0.11295012013E+01  0.47266023745E+02  0.00000000000E+00 0.  1.
</event>
<event>
 7    1  0.2714042E-009  0.1179866E+03  0.7561462E-02  0.1246456E+00
          4   -1    0    0  501    0  0.00000000000E+00  0.00000000000E+00  0.26421185771E+03  0.26421185771E+03  0.00000000000E+00 0.  1.
         -4   -1    0    0    0  501 -0.00000000000E+00 -0.00000000000E+00 -0.56848119749E+02  0.56848119749E+02  0.00000000000E+00 0. -1.
         25    2    1    2    0    0 -0.52094064722E+02 -0.17062387898E+02  0.13954044836E+03  0.19525350595E+03  0.12508988048E+03 0.  0.
          5    1    3    3  502    0 -0.73291781632E+02 -0.54534014104E+02  0.10911625457E+03  0.14237090068E+03  0.41800000000E+01 0.  1.
         -5    1    3    3    0  502  0.21197716910E+02  0.37471626205E+02  0.30424193793E+02  0.52882605275E+02  0.41800000000E+01 0.  1.
        -11    1    1    2    0    0  0.64158843535E+02 -0.15957732829E+02  0.61081111149E+02  0.90010602597E+02  0.00000000000E+00 0.  1.
         11    1    1    2    0    0 -0.12064778813E+02  0.33020120727E+02  0.67421784530E+01  0.35795868909E+02  0.00000000000E+00 0. -1.
</event>
<event>
 7    1  0.2714042E-009  0.9475981E+02  0.7561462E-02  0.1291718E+00
         -1   -1    0    0    0  501 -0.00000000000E+00  0.00000000000E+00  0.36827678724E+02  0.36827678724E+02  0.00000000000E+00 0.  1.
          1   -1    0    0  501    0  0.00000000000E+00 -0.00000000000E+00 -0.32399369571E+03  0.32399369571E+03  0.00000000000E+00 0. -1.
         25    2    1    2    0    0 -0.81970121073E+01  0.96847609332E+01 -0.15410111782E+03  0.19887430817E+03  0.12507138095E+03 0.  0.
          5    1    3    3  502    0 -0.46983031162E+02 -0.30384647729E+02 -0.32038574219E+02  0.64610948552E+02  0.41800000000E+01 0.  1.
         -5    1    3    3    0  502  0.38786019055E+02  0.40069408662E+02 -0.12206254361E+03  0.13426335962E+03  0.41800000000E+01 0.  1.
        -11    1    1    2    0    0  0.39147231900E+02 -0.21135148943E+02 -0.11714319964E+03  0.12530654216E+03  0.00000000000E+00 0. -1.
         11    1    1    2    0    0 -0.30950219793E+02  0.11450388010E+02 -0.15921699520E+02  0.36640524101E+02  0.00000000000E+00 0.  1.
</event>
<event>
 7    1  0.2714042E-009  0.7817393E+02  0.7561462E-02  0.1334315E+00
          1   -1    0    0  501    0  0.00000000000E+00  0.00000000000E+00  0.76966707592E+03  0.76966707592E+03  0.00000000000E+00 0. -1.
         -1   -1    0    0    0  501 -0.00000000000E+00 -0.00000000000E+00 -0.20742857729E+02  0.20742857729E+02  0.00000000000E+00 0.  1.
         25    2    1    2    0    0 -0.40454347183E+02  0.18704323065E+02  0.26634342498E+03  0.29761327080E+03  0.12509369695E+03 0.  0.
          5    1    3    3  502    0 -0.65534380528E+01 -0.94807465540E+01 -0.11171988364E+02  0.16586676266E+02  0.41800000000E+01 0. -1.
         -5    1    3    3    0  502 -0.33900909130E+02  0.28185069619E+02  0.27751541335E+03  0.28102659453E+03  0.41800000000E+01 0. -1.
        -11    1    1    2    0    0  0.34863862461E+02 -0.53885569670E+02  0.30579084635E+03  0.31245349292E+03  0.00000000000E+00 0. -1.
         11    1    1    2    0    0  0.55904847225E+01  0.35181246606E+02  0.17678994686E+03  0.18034316993E+03  0.00000000000E+00 0.  1.
</event>
<event>
 7    1  0.2714042E-009  0.1184870E+03  0.7561462E-02  0.1245614E+00
          1   -1    0    0  501    0  0.00000000000E+00  0.00000000000E+00  0.98524085430E+02  0.98524085430E+02  0.00000000000E+00 0. -1.
         -1   -1    0    0    0  501 -0.00000000000E+00 -0.00000000000E+00 -0.17415999893E+03  0.17415999893E+03  0.00000000000E+00 0.  1.
         25    2    1    2    0    0  0.61552740462E+02  0.39986795695E+02 -0.53103487432E+02  0.15445348178E+03  0.12509282140E+03 0.  0.
          5    1    3    3  502    0 -0.13061212940E+02  0.44222521782E+02  0.19441371459E+02  0.50216193010E+02  0.41800000000E+01 0.  1.
         -5    1    3    3    0  502  0.74613953403E+02 -0.42357260873E+01 -0.72544858891E+02  0.10423728877E+03  0.41800000000E+01 0.  1.
        -11    1    1    2    0    0  0.57560036795E+01 -0.47724965763E+02 -0.56095492201E+01  0.48397014142E+02  0.00000000000E+00 0.  1.
         11    1    1    2    0    0 -0.67308744142E+02  0.77381700683E+01 -0.16922876849E+02  0.69833588443E+02  0.00000000000E+00 0. -1.
</event>
<event>
 7    1  0.2714042E-009  0.9983894E+02  0.7561462E-02  0.1280635E+00
          1   -1    0    0  501    0  0.00000000000E+00  0.00000000000E+00  0.30823169184E+02  0.30823169184E+02  0.00000000000E+00 0. -1.
         -1   -1    0    0    0  501 -0.00000000000E+00 -0.00000000000E+00 -0.46357912237E+03  0.46357912237E+03  0.00000000000E+00 0.  1.
         25    2    1    2    0    0  0.34750769039E+02 -0.34264615989E+02 -0.24810177163E+03  0.28210601961E+03  0.12509051666E+03 0.  0.
          5    1    3    3  502    0  0.55256073938E+01 -0.64135988689E+02 -0.22522446228E+03  0.23428078921E+03  0.41800000000E+01 0. -1.
         -5    1    3    3    0  502  0.29225161645E+02  0.29871372700E+02 -0.22877309352E+02  0.47825230406E+02  0.41800000000E+01 0. -1.
        -11    1    1    2    0    0 -0.36099585559E+02 -0.18379265330E+02 -0.13098506976E+03  0.13710603915E+03  0.00000000000E+00 0.  1.
         11    1    1    2    0    0  0.13488165196E+01  0.52643881319E+02 -0.53669111795E+02  0.75190232791E+02  0.00000000000E+00 0. -1.
</event>
<event>
 7    1  0.2714042E-009  0.1491849E+03  0.7561462E-02  0.1201478E+00
          2   -1    0    0  501    0  0.00000000000E+00  0.00000000000E+00  0.16711858673E+03  0.16711858673E+03  0.00000000000E+00 0. -1.
         -2   -1    0    0    0  501 -0.00000000000E+00 -0.00000000000E+00 -0.16412314679E+03  0.16412314679E+03  0.00000000000E+00 0.  1.
         25    2    1    2    0    0  0.92054512842E+02 -0.66296348821E+02  0.53525437724E+02  0.17714855760E+03  0.12508956701E+03 0.  0.
          5    1    3    3  502    0  0.11038895706E+03 -0.78239542370E+02  0.67074445966E+02  0.15107482098E+03  0.41800000000E+01 0. -1.
         -5    1    3    3    0  502 -0.18334444220E+02  0.11943193549E+02 -0.13549008242E+02  0.26073736621E+02  0.41800000000E+01 0. -1.
        -11    1    1    2    0    0 -0.10795155972E+03  0.54501882308E+02 -0.56416059025E+02  0.13344199540E+03  0.00000000000E+00 0.  1.
         11    1    1    2    0    0  0.15897046881E+02  0.11794466513E+02  0.58860612382E+01  0.20651180517E+02  0.00000000000E+00 0. -1.
</event>
<event>
 7    1  0.2714042E-009  0.2570658E+03  0.7561462E-02  0.1108919E+00
          2   -1    0    0  501    0  0.00000000000E+00  0.00000000000E+00  0.21930954243E+04  0.21930954243E+04  0.00000000000E+00 0. -1.
         -2   -1    0    0    0  501 -0.00000000000E+00 -0.00000000000E+00 -0.31654220196E+02  0.31654220196E+02  0.00000000000E+00 0.  1.
         25    2    1    2    0    0  0.14338435965E+03  0.18914791946E+03  0.12714305859E+04  0.12994308651E+04  0.12509527693E+03 0.  0.
          5    1    3    3  502    0  0.66979852171E+02  0.17690125021E+03  0.83432154709E+03  0.85550585578E+03  0.41800000000E+01 0. -1.
         -5    1    3    3    0  502  0.76404507478E+02  0.12246669243E+02  0.43710903879E+03  0.44392500928E+03  0.41800000000E+01 0. -1.
        -11    1    1    2    0    0 -0.15219490783E+02 -0.72681039376E+02  0.18492807991E+03  0.19928010720E+03  0.00000000000E+00 0. -1.
         11    1    1    2    0    0 -0.12816486887E+03 -0.11646688008E+03  0.70508253833E+03  0.72603867226E+03  0.00000000000E+00 0.  1.
</event>
<event>
 7    1  0.2714042E-009  0.8509660E+02  0.7561462E-02  0.1315180E+00
          1   -1    0    0  501    0  0.00000000000E+00  0.00000000000E+00  0.19306774910E+03  0.19306774910E+03  0.00000000000E+00 0. -1.
         -1   -1    0    0    0  501 -0.00000000000E+00 -0.00000000000E+00 -0.70528741305E+02  0.70528741305E+02  0.00000000000E+00 0.  1.
         25    2    1    2    0    0  0.10179432440E+02 -0.14609052183E+02  0.24495096823E+02  0.12870182610E+03  0.12508838884E+03 0.  0.
          5    1    3    3  502    0 -0.15569550110E+02  0.27475438268E+02  0.59892117305E+02  0.67836927362E+02  0.41800000000E+01 0.  1.
         -5    1    3    3    0  502  0.25748982550E+02 -0.42084490452E+02 -0.35397020481E+02  0.60864898734E+02  0.41800000000E+01 0.  1.
        -11    1    1    2    0    0 -0.38928944664E+02  0.35973633184E+02  0.38891639678E+02  0.65742867705E+02  0.00000000000E+00 0.  1.
         11    1    1    2    0    0  0.28749512225E+02 -0.21364581001E+02  0.59152271296E+02  0.69151796608E+02  0.00000000000E+00 0. -1.
</event>
<event>
 7    1  0.4057463E-009  0.1759803E+03  0.7561462E-02  0.1171751E+00
         -1   -1    0    0    0  501 -0.00000000000E+00  0.00000000000E+00  0.15600577266E+03  0.15600577266E+03  0.00000000000E+00 0.  1.
          1   -1    0    0  501    0  0.00000000000E+00 -0.00000000000E+00 -0.22376982208E+03  0.22376982208E+03  0.00000000000E+00 0. -1.
         25    2    1    2    0    0 -0.13834129137E+03  0.56571519189E+02 -0.92627917941E+01  0.19512380469E+03  0.12509536428E+03 0.  0.
          5    1    3    3  502    0 -0.16093597699E+03  0.49136169983E+02  0.23222443158E+01  0.16833780653E+03  0.41800000000E+01 0. -1.
         -5    1    3    3    0  502  0.22594685615E+02  0.74353492065E+01 -0.11585036110E+02  0.26785998162E+02  0.41800000000E+01 0. -1.
        -11    1    1    2    0    0  0.45748358407E+02 -0.48299084786E+02  0.12483523799E+02  0.67687164622E+02  0.00000000000E+00 0.  1.
         11    1    1    2    0    0  0.92592932966E+02 -0.82724344034E+01 -0.70984781425E+02  0.11696462542E+03  0.00000000000E+00 0. -1.
</event>
<event>
 7    1  0.2714042E-009  0.2124549E+03  0.7561462E-02  0.1139637E+00
         -1   -1    0    0    0  501 -0.00000000000E+00  0.00000000000E+00  0.46847394328E+03  0.46847394328E+03  0.00000000000E+00 0.  1.
          1   -1    0    0  501    0  0.00000000000E+00 -0.00000000000E+00 -0.13620118753E+03  0.13620118753E+03  0.00000000000E+00 0. -1.
         25    2    1    2    0    0 -0.13518308277E+03 -0.16265635722E+03  0.26998736039E+03  0.36506391817E+03  0.12508770190E+03 0.  0.
          5    1    3    3  502    0 -0.34392625527E+02 -0.54900595775E+02  0.18198051797E+03  0.19321311919E+03  0.41800000000E+01 0.  1.
         -5    1    3    3    0  502 -0.10079045725E+03 -0.10775576144E+03  0.88006842420E+02  0.17185079898E+03  0.41800000000E+01 0.  1.
        -11    1    1    2    0    0  0.70794323846E+01  0.16973005039E+02  0.40395681585E+02  0.44384821208E+02  0.00000000000E+00 0.  1.
         11    1    1    2    0    0  0.12810365039E+03  0.14568335218E+03  0.21889713769E+02  0.19522639144E+03  0.00000000000E+00 0. -1.
</event>
<event>
 7    1  0.2714042E-009  0.8342297E+02  0.7561462E-02  0.1319609E+00
          1   -1    0    0  501    0  0.00000000000E+00  0.00000000000E+00  0.42429879392E+03  0.42429879392E+03  0.00000000000E+00 0. -1.
         -1   -1    0    0    0  501 -0.00000000000E+00 -0.00000000000E+00 -0.48691224599E+02  0.48691224599E+02  0.00000000000E+00 0.  1.
         25    2    1    2    0    0  0.26193582312E+00  0.71562570167E+02  0.11640456767E+03  0.18524822111E+03  0.12508241279E+03 0.  0.
          5    1    3    3  502    0  0.71410366369E+01  0.72734613282E+02  0.14125696585E+03  0.15909846378E+03  0.41800000000E+01 0. -1.
         -5    1    3    3    0  502 -0.68791008138E+01 -0.11720431149E+01 -0.24852398181E+02  0.26149757330E+02  0.41800000000E+01 0. -1.
        -11    1    1    2    0    0  0.18103106542E+02 -0.62421472418E+02  0.25920339400E+03  0.26722754751E+03  0.00000000000E+00 0. -1.
         11    1    1    2    0    0 -0.18365042365E+02 -0.91410977493E+01 -0.39234891499E-03  0.20514249908E+02  0.00000000000E+00 0.  1.
</event>
<event>
 7    1  0.2714042E-009  0.1045741E+03  0.7561462E-02  0.1270961E+00
          2   -1    0    0  501    0  0.00000000000E+00  0.00000000000E+00  0.30321981446E+03  0.30321981446E+03  0.00000000000E+00 0. -1.
         -2   -1    0    0    0  501 -0.00000000000E+00 -0.00000000000E+00 -0.45883518763E+02  0.45883518763E+02  0.00000000000E+00 0.  1.
         25    2    1    2    0    0 -0.20850192242E+02 -0.17437798133E+02  0.10324370916E+03  0.16445825985E+03  0.12509375856E+03 0.  0.
          5    1    3    3  502    0 -0.28965929343E+01 -0.71001083204E+02  0.61844653357E+02  0.94296222701E+02  0.41800000000E+01 0. -1.
         -5    1    3    3    0  502 -0.17953599308E+02  0.53563285071E+02  0.41399055798E+02  0.70162037147E+02  0.41800000000E+01 0. -1.
        -11    1    1    2    0    0  0.73120061285E+01 -0.30573203738E+02  0.12043235775E+03  0.12446742149E+03  0.00000000000E+00 0. -1.
         11    1    1    2    0    0  0.13538186114E+02  0.48011001871E+02  0.33660228798E+02  0.60177651887E+02  0.00000000000E+00 0.  1.
</event>
<event>
 7    1  0.2714042E-009  0.9392594E+02  0.7561462E-02  0.1293614E+00
          1   -1    0    0  501    0  0.00000000000E+00  0.00000000000E+00  0.35057518121E+03  0.35057518121E+03  0.00000000000E+00 0. -1.
         -1   -1    0    0    0  501 -0.00000000000E+00 -0.00000000000E+00 -0.59602193779E+02  0.59602193779E+02  0.00000000000E+00 0.  1.
         25    2    1    2    0    0  0.62179458071E+02  0.61553828216E+02  0.21241627466E+03  0.26157105335E+03  0.12507431166E+03 0.  0.
          5    1    3    3  502    0  0.51357573983E+02  0.58109479559E+02  0.22856016318E+03  0.24139497222E+03  0.41800000000E+01 0.  1.
         -5    1    3    3    0  502  0.10821884088E+02  0.34443486566E+01 -0.16143888525E+02  0.20176081126E+02  0.41800000000E+01 0.  1.
        -11    1    1    2    0    0 -0.26942278860E+02 -0.56358843553E+02  0.12710038056E+00  0.62467766018E+02  0.00000000000E+00 0.  1.
         11    1    1    2    0    0 -0.35237179211E+02 -0.51949846621E+01  0.78429612393E+02  0.86138555622E+02  0.00000000000E+00 0. -1.
</event>
<event>
 7    1  0.2714042E-009  0.9965403E+02  0.7561462E-02  0.1281025E+00
         -1   -1    0    0    0  501 -0.00000000000E+00  0.00000000000E+00  0.73189029075E+02  0.73189029075E+02  0.00000000000E+00 0.  1.
          1   -1    0    0  501    0  0.00000000000E+00 -0.00000000000E+00 -0.43763468002E+03  0.43763468002E+03  0.00000000000E+00 0. -1.
         25    2    1    2    0    0 -0.73615680791E+02  0.32335833198E+02 -0.35968730379E+03  0.38921326232E+03  0.12508849863E+03 0.  0.
          5    1    3    3  502    0 -0.71277304642E+01  0.19118291783E+02 -0.29396769486E+03  0.29470458368E+03  0.41800000000E+01 0. -1.
         -5    1    3    3    0  502 -0.66487950327E+02  0.13217541415E+02 -0.65719608937E+02  0.94508678641E+02  0.41800000000E+01 0. -1.
        -11    1    1    2    0    0  0.77016721509E+02  0.10304292106E+01  0.20405582005E+02  0.79680769031E+02  0.00000000000E+00 0.  1.
         11    1    1    2    0    0 -0.34010407185E+01 -0.33366262409E+02 -0.25163929157E+02  0.41929677744E+02  0.00000000000E+00 0. -1.
</event>
<event>
 7    1  0.2714042E-009  0.2596516E+03  0.7561462E-02  0.1107353E+00
          1   -1    0    0  501    0  0.00000000000E+00  0.00000000000E+00  0.27541541202E+03  0.27541541202E+03  0.00000000000E+00 0. -1.
         -1   -1    0    0    0  501 -0.00000000000E+00 -0.00000000000E+00 -0.29336956128E+03  0.29336956128E+03  0.00000000000E+00 0.  1.
         25    2    1    2    0    0  0.16542240638E+03 -0.17259082842E+03 -0.11434963877E+03  0.29304512083E+03  0.12508971326E+03 0.  0.
          5    1    3    3  502    0  0.81170633035E+02 -0.58274913975E+01 -0.21030763952E+02  0.84156976869E+02  0.41800000000E+01 0. -1.
         -5    1    3    3    0  502  0.84251773346E+02 -0.16676333703E+03 -0.93318874820E+02  0.20888814396E+03  0.41800000000E+01 0. -1.
        -11    1    1    2    0    0 -0.13610485474E+03  0.89689824526E+02  0.30431948669E+02  0.16581586054E+03  0.00000000000E+00 0. -1.
         11    1    1    2    0    0 -0.29317551646E+02  0.82901003898E+02  0.65963540850E+02  0.10992399194E+03  0.00000000000E+00 0.  1.
</event>
<event>
 7    1  0.2714042E-009  0.1108820E+03  0.7561462E-02  0.1258945E+00
         -2   -1    0    0    0  501 -0.00000000000E+00  0.00000000000E+00  0.21978750380E+02  0.21978750380E+02  0.00000000000E+00 0. -1.
          2   -1    0    0  501    0  0.00000000000E+00 -0.00000000000E+00 -0.73661847436E+03  0.73661847436E+03  0.00000000000E+00 0.  1.
         25    2    1    2    0    0 -0.33664892381E+02 -0.32215291924E+02 -0.53703016306E+03  0.55337085444E+03  0.12508699567E+03 0.  0.
          5    1    3    3  502    0 -0.75570109476E+02 -0.42009655904E+02 -0.29220564806E+03  0.30475771654E+03  0.41800000000E+01 0. -1.
         -5    1    3    3    0  502  0.41905217095E+02  0.97943639805E+01 -0.24482451501E+03  0.24861313789E+03  0.41800000000E+01 0. -1.
        -11    1    1    2    0    0 -0.21301536398E+02  0.30205232833E+02 -0.12005435437E+03  0.12561512467E+03  0.00000000000E+00 0.  1.
         11    1    1    2    0    0  0.54966428779E+02  0.20100590907E+01 -0.57555206545E+02  0.79611245630E+02  0.00000000000E+00 0. -1.
</event>
<event>
 7    1  0.2714042E-009  0.7405553E+02  0.7561462E-02  0.1346821E+00
         -1   -1    0    0    0  501 -0.00000000000E+00  0.00000000000E+00  0.12871013529E+03  0.12871013529E+03  0.00000000000E+00 0.  1.
          1   -1    0    0  501    0  0.00000000000E+00 -0.00000000000E+00 -0.93755910605E+02  0.93755910605E+02  0.00000000000E+00 0. -1.
         25    2    1    2    0    0 -0.12705905622E+02 -0.11575518914E+02  0.21905812588E+02  0.12815207832E+03  0.12509059868E+03 0.  0.
          5    1    3    3  502    0 -0.97632843531E-01  0.42733912636E+02 -0.29585261507E+02  0.52143618207E+02  0.41800000000E+01 0. -1.
         -5    1    3    3    0  502 -0.12608272778E+02 -0.54309431550E+02  0.51491074094E+02  0.76008460115E+02  0.41800000000E+01 0. -1.
        -11    1    1    2    0    0 -0.17557012919E+02  0.30300825735E+01  0.45658670708E+02  0.49011675281E+02  0.00000000000E+00 0.  1.
         11    1    1    2    0    0  0.30262918540E+02  0.85454363409E+01 -0.32610258606E+02  0.45302292295E+02  0.00000000000E+00 0. -1.
</event>
<event>
 7    1  0.2714042E-009  0.3598192E+03  0.7561462E-02  0.1058655E+00
          1   -1    0    0  501    0  0.00000000000E+00  0.00000000000E+00  0.13368602720E+04  0.13368602720E+04  0.00000000000E+00 0. -1.
         -1   -1    0    0    0  501 -0.00000000000E+00 -0.00000000000E+00 -0.10120987330E+03  0.10120987330E+03  0.00000000000E+00 0.  1.
         25    2    1    2    0    0  0.30273483730E+03  0.17401435665E+03  0.70135069267E+03  0.79339122861E+03  0.12508984564E+03 0.  0.
          5    1    3    3  502    0  0.31876230734E+02  0.73174444546E+02  0.12055265095E+03  0.14464096056E+03  0.41800000000E+01 0.  1.
         -5    1    3    3    0  502  0.27085860657E+03  0.10083991211E+03  0.58079804171E+03  0.64875026804E+03  0.41800000000E+01 0.  1.
        -11    1    1    2    0    0 -0.14796155793E+03 -0.10358870998E+03  0.19912872168E+03  0.26884101483E+03  0.00000000000E+00 0.  1.
         11    1    1    2    0    0 -0.15477327937E+03 -0.70425646669E+02  0.33517098432E+03  0.37583790182E+03  0.00000000000E+00 0. -1.
</event>
<event>
 7    1  0.2714042E-009  0.1251526E+03  0.7561462E-02  0.1234831E+00
         -2   -1    0    0    0  501 -0.00000000000E+00  0.00000000000E+00  0.86976959655E+02  0.86976959655E+02  0.00000000000E+00 0.  1.
          2   -1    0    0  501    0  0.00000000000E+00 -0.00000000000E+00 -0.33716398852E+03  0.33716398852E+03  0.00000000000E+00 0. -1.
         25    2    1    2    0    0  0.78614479756E+02  0.95845480740E+02 -0.18495491174E+03  0.25538477473E+03  0.12508585524E+03 0.  0.
          5    1    3    3  502    0  0.29998981192E+02  0.50086482289E+02  0.18243173831E+00  0.58532898971E+02  0.41800000000E+01 0. -1.
         -5    1    3    3    0  502  0.48615498564E+02  0.45758998451E+02 -0.18513734347E+03  0.19685187576E+03  0.41800000000E+01 0. -1.
        -11    1    1    2    0    0 -0.32445532395E+02 -0.51458551730E+02  0.18273420964E+02  0.63518603828E+02  0.00000000000E+00 0.  1.
         11    1    1    2    0    0 -0.46168947361E+02 -0.44386929010E+02 -0.83505538095E+02  0.10523756962E+03  0.00000000000E+00 0. -1.
</event>
<event>
 7    1  0.2714042E-009  0.1673573E+03  0.7561462E-02  0.1180632E+00
         -2   -1    0    0    0  501 -0.00000000000E+00  0.00000000000E+00  0.53378093439E+02  0.53378093439E+02  0.00000000000E+00 0.  1.
          2   -1    0    0  501    0  0.00000000000E+00 -0.00000000000E+00 -0.60762392218E+03  0.60762392218E+03  0.00000000000E+00 0. -1.
         25    2    1    2    0    0  0.13189161775E+03  0.54168213711E+02 -0.27335647049E+03  0.33271733099E+03  0.12508984041E+03 0.  0.
          5    1    3    3  502    0  0.99339930870E+02 -0.25715044590E+02 -0.16174517555E+03  0.19159504064E+03  0.41800000000E+01 0. -1.
         -5    1    3    3    0  502  0.32551686876E+02  0.79883258302E+02 -0.11161129494E+03  0.14112229035E+03  0.41800000000E+01 0. -1.
        -11    1    1    2    0    0 -0.71909663316E+02 -0.45378404127E+02 -0.74083724122E+02  0.11277675921E+03  0.00000000000E+00 0.  1.
         11    1    1    2    0    0 -0.59981954431E+02 -0.87898095845E+01 -0.20680563412E+03  0.21550792541E+03  0.00000000000E+00 0. -1.
</event>
<event>
 7    1  0.2714042E-009  0.1276033E+03  0.7561462E-02  0.1231056E+00
          2   -1    0    0  501    0  0.00000000000E+00  0.00000000000E+00  0.33600070396E+03  0.33600070396E+03  0.00000000000E+00 0. -1.
         -2   -1    0    0    0  501 -0.00000000000E+00 -0.00000000000E+00 -0.76192705247E+02  0.76192705247E+02  0.00000000000E+00 0.  1.
         25    2    1    2    0    0 -0.62484585632E+01  0.11803767950E+03  0.11375429590E+03  0.20630314192E+03  0.12509600119E+03 0.  0.
          5    1    3    3  502    0  0.76465182412E+01  0.48952479988E+01 -0.24856419120E+02  0.26790794420E+02  0.41800000000E+01 0.  1.
         -5    1    3    3    0  502 -0.13894976804E+02  0.11314243150E+03  0.13861071502E+03  0.17951234750E+03  0.41800000000E+01 0.  1.
        -11    1    1    2    0    0 -0.24810944299E+02 -0.39026923064E+02  0.97936387291E+02  0.10830613850E+03  0.00000000000E+00 0. -1.
         11    1    1    2    0    0  0.31059402862E+02 -0.79010756435E+02  0.48117315519E+02  0.97584128788E+02  0.00000000000E+00 0.  1.
</event>
<event>
 7    1  0.2714042E-009  0.9981146E+02  0.7561462E-02  0.1280693E+00
         -2   -1    0    0    0  501 -0.00000000000E+00  0.00000000000E+00  0.58703302525E+02  0.58703302525E+02  0.00000000000E+00 0.  1.
          2   -1    0    0  501    0  0.00000000000E+00 -0.00000000000E+00 -0.25529179351E+03  0.25529179351E+03  0.00000000000E+00 0. -1.
         25    2    1    2    0    0  0.24570724369E+02  0.44526781027E+02 -0.13702443364E+03  0.19237994940E+03  0.12509194535E+03 0.  0.
          5    1    3    3  502    0 -0.27532871600E+02 -0.76814379511E+01  0.76936143157E+01  0.29895277366E+02  0.41800000000E+01 0.  1.
         -5    1    3    3    0  502  0.52103595969E+02  0.52208218978E+02 -0.14471804796E+03  0.16248467203E+03  0.41800000000E+01 0.  1.
        -11    1    1    2    0    0  0.12347815913E+02 -0.56664297586E+02 -0.59025962794E+02  0.82748869857E+02  0.00000000000E+00 0.  1.
         11    1    1    2    0    0 -0.36918540282E+02  0.12137516559E+02 -0.53809454944E+00  0.38866276777E+02  0.00000000000E+00 0. -1.
</event>
<event>
 7    1  0.2714042E-009  0.1209049E+03  0.7561462E-02  0.1241612E+00
         -1   -1    0    0    0  501 -0.00000000000E+00  0.00000000000E+00  0.34214535400E+03  0.34214535400E+03  0.00000000000E+00 0.  1.
          1   -1    0    0  501    0  0.00000000000E+00 -0.00000000000E+00 -0.12170681860E+03  0.12170681860E+03  0.00000000000E+00 0. -1.
         25    2    1    2    0    0  0.70020493442E+02 -0.73932771617E+02 -0.42819755151E+02  0.16688302195E+03  0.12508991711E+03 0.  0.
          5    1    3    3  502    0  0.34604811157E+02 -0.14302823467E+02  0.42536421149E+02  0.56823263181E+02  0.41800000000E+01 0. -1.
         -5    1    3    3    0  502  0.35415682284E+02 -0.59629948150E+02 -0.85356176299E+02  0.11005975877E+03  0.41800000000E+01 0. -1.
        -11    1    1    2    0    0 -0.90393015601E+02  0.50278807608E+02  0.22465229100E+03  0.24732065748E+03  0.00000000000E+00 0. -1.
         11    1    1    2    0    0  0.20372522160E+02  0.23653964009E+02  0.38605999545E+02  0.49648493163E+02  0.00000000000E+00 0.  1.
</event>
<event>
 7    1  0.2714042E-009  0.6824441E+02  0.7561462E-02  0.1366167E+00
          1   -1    0    0  501    0  0.00000000000E+00  0.00000000000E+00  0.55443008767E+03  0.55443008767E+03  0.00000000000E+00 0. -1.
         -1   -1    0    0    0  501 -0.00000000000E+00 -0.00000000000E+00 -0.23730356640E+02  0.23730356640E+02  0.00000000000E+00 0.  1.
         25    2    1    2    0    0 -0.16518059291E+02 -0.32915276065E+02  0.36126048026E+03  0.38407523454E+03  0.12509352305E+03 0.  0.
          5    1    3    3  502    0 -0.20226796895E+02  0.14017872903E+01  0.34512365877E+03  0.34574398124E+03  0.41800000000E+01 0.  1.
         -5    1    3    3    0  502  0.37087376044E+01 -0.34317063355E+02  0.16136821488E+02  0.38331253302E+02  0.41800000000E+01 0.  1.
        -11    1    1    2    0    0 -0.58425598756E+00 -0.22763952552E+02  0.11020818987E+02  0.25298168748E+02  0.00000000000E+00 0.  1.
         11    1    1    2    0    0  0.17102315278E+02  0.55679228617E+02  0.15841843178E+03  0.16878704102E+03  0.00000000000E+00 0. -1.
</event>
<event>
 7    1  0.2714042E-009  0.1364362E+03  0.7561462E-02  0.1218206E+00
          1   -1    0    0  501    0  0.00000000000E+00  0.00000000000E+00  0.66263294046E+02  0.66263294046E+02  0.00000000000E+00 0. -1.
         -1   -1    0    0    0  501 -0.00000000000E+00 -0.00000000000E+00 -0.53627814497E+03  0.53627814497E+03  0.00000000000E+00 0.  1.
         25    2    1    2    0    0  0.79419869044E+02  0.66308024924E+02 -0.62975374968E+02  0.17411769135E+03  0.12508718088E+03 0.  0.
          5    1    3    3  502    0  0.75878731379E+02 -0.83398678375E+01 -0.23318893019E+00  0.76450389458E+02  0.41800000000E+01 0.  1.
         -5    1    3    3    0  502  0.35411376656E+01  0.74647892761E+02 -0.62742186038E+02  0.97667301890E+02  0.41800000000E+01 0.  1.
        -11    1    1    2    0    0 -0.47361031311E+02 -0.74687366332E+02 -0.36115466060E+03  0.37182517242E+03  0.00000000000E+00 0.  1.
         11    1    1    2    0    0 -0.32058837733E+02  0.83793414084E+01 -0.45884815358E+02  0.56598575244E+02  0.00000000000E+00 0. -1.
</event>
<event>
 7    1  0.2714042E-009  0.1553780E+03  0.7561462E-02  0.1194016E+00
          2   -1    0    0  501    0  0.00000000000E+00  0.00000000000E+00  0.80470742130E+03  0.80470742130E+03  0.00000000000E+00 0.  1.
         -2   -1    0    0    0  501 -0.00000000000E+00 -0.00000000000E+00 -0.41273605269E+02  0.41273605269E+02  0.00000000000E+00 0. -1.
         25    2    1    2    0    0  0.39428472933E+02  0.13157223656E+03  0.50777239590E+03  0.54069038824E+03  0.12508969576E+03 0.  0.
          5    1    3    3  502    0 -0.16739960700E+02  0.10445270893E+03  0.41865810187E+03  0.43183639651E+03  0.41800000000E+01 0. -1.
         -5    1    3    3    0  502  0.56168433633E+02  0.27119527622E+02  0.89114294028E+02  0.10885399173E+03  0.41800000000E+01 0. -1.
        -11    1    1    2    0    0 -0.44790408080E+02 -0.90742226245E+02  0.24132958265E+03  0.26168740845E+03  0.00000000000E+00 0.  1.
         11    1    1    2    0    0  0.53619351477E+01 -0.40830010311E+02  0.14331837487E+02  0.43603229884E+02  0.00000000000E+00 0. -1.
</event>
<event>
 7    1  0.2714042E-009  0.8740350E+02  0.7561462E-02  0.1309264E+00
          2   -1    0    0  501    0  0.00000000000E+00  0.00000000000E+00  0.93470306427E+02  0.93470306427E+02  0.00000000000E+00 0. -1.
         -2   -1    0    0    0  501 -0.00000000000E+00 -0.00000000000E+00 -0.17864126029E+03  0.17864126029E+03  0.00000000000E+00 0.  1.
         25    2    1    2    0    0 -0.54769833297E+02  0.14431518416E+02 -0.93926050407E+02  0.16636839344E+03  0.12509330929E+03 0.  0.
          5    1    3    3  502    0 -0.43959513469E+02 -0.41288042760E+02 -0.91166901112E+02  0.10938929362E+03  0.41800000000E+01 0.  1.
         -5    1    3    3    0  502 -0.10810319828E+02  0.55719561176E+02 -0.27591492958E+01  0.56979099828E+02  0.41800000000E+01 0.  1.
        -11    1    1    2    0    0  0.29229462863E+02 -0.27568655987E+01  0.48729654617E+02  0.56890605958E+02  0.00000000000E+00 0. -1.
         11    1    1    2    0    0  0.25540370434E+02 -0.11674652817E+02 -0.39974558074E+02  0.48852567317E+02  0.00000000000E+00 0.  1.
</event>
<event>
 7    1  0.2714042E-009  0.1060113E+03  0.7561462E-02  0.1268140E+00
          2   -1    0    0  501    0  0.00000000000E+00  0.00000000000E+00  0.70408940133E+03  0.70408940133E+03  0.00000000000E+00 0. -1.
         -2   -1    0    0    0  501 -0.00000000000E+00 -0.00000000000E+00 -0.26776099077E+02  0.26776099077E+02  0.00000000000E+00 0.  1.
         25    2    1    2    0    0  0.77607197059E+02  0.47123736592E+02  0.38253703633E+03  0.41258335364E+03  0.12508763309E+03 0.  0.
          5    1    3    3  502    0  0.42545313546E+02  0.34882232355E+02  0.40334846458E+02  0.68346514743E+02  0.41800000000E+01 0.  1.
         -5    1    3    3    0  502  0.35061883513E+02  0.12241504236E+02  0.34220218987E+03  0.34423683890E+03  0.41800000000E+01 0.  1.
        -11    1    1    2    0    0 -0.99606193441E+01  0.21141129662E+02  0.70816605587E+02  0.74573138112E+02  0.00000000000E+00 0. -1.
         11    1    1    2    0    0 -0.67646577715E+02 -0.68264866253E+02  0.22395966034E+03  0.24370900866E+03  0.00000000000E+00 0.  1.
</event>
<event>
 7    1  0.2714042E-009  0.1051289E+03  0.7561462E-02  0.1269866E+00
         -4   -1    0    0    0  501 -0.00000000000E+00  0.00000000000E+00  0.11123301665E+03  0.11123301665E+03  0.00000000000E+00 0.  1.
          4   -1    0    0  501    0  0.00000000000E+00 -0.00000000000E+00 -0.11984950849E+03  0.11984950849E+03  0.00000000000E+00 0. -1.
         25    2    1    2    0    0 -0.62133113347E+01  0.90950604121E+01 -0.33051348201E+02  0.12984915773E+03  0.12508831594E+03 0.  0.
          5    1    3    3  502    0  0.13929962752E+02  0.63511571234E+02 -0.29621176546E+02  0.71572690622E+02  0.41800000000E+01 0. -1.
         -5    1    3    3    0  502 -0.20143274086E+02 -0.54416510822E+02 -0.34301716543E+01  0.58276467107E+02  0.41800000000E+01 0. -1.
        -11    1    1    2    0    0  0.46193657475E+02 -0.14131516477E+01 -0.10721880884E+02  0.47442699314E+02  0.00000000000E+00 0. -1.
         11    1    1    2    0    0 -0.39980346140E+02 -0.76819087644E+01  0.35156737246E+02  0.53790668090E+02  0.00000000000E+00 0.  1.
</event>
<event>
 7    1  0.2714042E-009  0.3450339E+03  0.7561462E-02  0.1064672E+00
          1   -1    0    0  501    0  0.00000000000E+00  0.00000000000E+00  0.22648867259E+03  0.22648867259E+03  0.00000000000E+00 0. -1.
         -1   -1    0    0    0  501 -0.00000000000E+00 -0.00000000000E+00 -0.57325980442E+03  0.57325980442E+03  0.00000000000E+00 0.  1.
         25    2    1    2    0    0 -0.15615301660E+03 -0.30326710713E+03 -0.13170247010E+03  0.38645469323E+03  0.12508791478E+03 0.  0.
          5    1    3    3  502    0 -0.11397396460E+03 -0.25035230060E+03 -0.15375867311E+03  0.31515954845E+03  0.41800000000E+01 0. -1.
         -5    1    3    3    0  502 -0.42179051998E+02 -0.52914806536E+02  0.22056203007E+02  0.71295144781E+02  0.41800000000E+01 0. -1.
        -11    1    1    2    0    0  0.13999514534E+03  0.20921363147E+03 -0.12103373558E+03  0.27931729173E+03  0.00000000000E+00 0. -1.
         11    1    1    2    0    0  0.16157871254E+02  0.94053475666E+02 -0.94034926147E+02  0.13397649206E+03  0.00000000000E+00 0.  1.
</event>
<event>
 7    1  0.2714042E-009  0.1350546E+03  0.7561462E-02  0.1220143E+00
         -3   -1    0    0    0  501 -0.00000000000E+00  0.00000000000E+00  0.12460705824E+04  0.12460705824E+04  0.00000000000E+00 0. -1.
          3   -1    0    0  501    0  0.00000000000E+00 -0.00000000000E+00 -0.17564239365E+02  0.17564239365E+02  0.00000000000E+00 0.  1.
         25    2    1    2    0    0 -0.10028836332E+03  0.10794642490E+02  0.66394093902E+03  0.68311048463E+03  0.12509230022E+03 0.  0.
          5    1    3    3  502    0  0.10269512092E+02 -0.20663226855E+02  0.31136390007E+03  0.31224570852E+03  0.41800000000E+01 0. -1.
         -5    1    3    3    0  502 -0.11055787542E+03  0.31457869344E+02  0.35257703895E+03  0.37086477611E+03  0.41800000000E+01 0. -1.
        -11    1    1    2    0    0  0.10308628906E+03  0.16327067532E+02  0.49331657741E+03  0.50423665245E+03  0.00000000000E+00 0.  1.
         11    1    1    2    0    0 -0.27979257325E+01 -0.27121710021E+02  0.71248826608E+02  0.76287684693E+02  0.00000000000E+00 0. -1.
</event>
<event>
 7    1  0.2714042E-009  0.1775240E+03  0.7561462E-02  0.1170221E+00
          1   -1    0    0  501    0  0.00000000000E+00  0.00000000000E+00  0.15800181120E+03  0.15800181120E+03  0.00000000000E+00 0. -1.
         -1   -1    0    0    0  501 -0.00000000000E+00 -0.00000000000E+00 -0.26232468981E+03  0.26232468981E+03  0.00000000000E+00 0.  1.
         25    2    1    2    0    0  0.31784301292E+02 -0.16317093684E+03 -0.98410455167E+02  0.23014598836E+03  0.12509021480E+03 0.  0.
          5    1    3    3  502    0  0.35900078998E+02 -0.17276034575E+03 -0.11459629320E+03  0.21043938688E+03  0.41800000000E+01 0.  1.
         -5    1    3    3    0  502 -0.41157777055E+01  0.95894089114E+01  0.16185838031E+02  0.19706601487E+02  0.41800000000E+01 0.  1.
        -11    1    1    2    0    0 -0.20010527608E+02  0.55572786574E+02  0.41319602821E+02  0.72083738805E+02  0.00000000000E+00 0.  1.
         11    1    1    2    0    0 -0.11773773684E+02  0.10759815026E+03 -0.47232026259E+02  0.11809677384E+03  0.00000000000E+00 0. -1.
</event>
<event>
 7    1  0.2714042E-009  0.1204219E+03  0.7561462E-02  0.1242403E+00
         -2   -1    0    0    0  501 -0.00000000000E+00  0.00000000000E+00  0.36042805833E+03  0.36042805833E+03  0.00000000000E+00 0.  1.
          2   -1    0    0  501    0  0.00000000000E+00 -0.00000000000E+00 -0.54368104470E+02  0.54368104470E+02  0.00000000000E+00 0. -1.
         25    2    1    2    0    0 -0.85834006875E+02 -0.67848925614E+01  0.11817603298E+03  0.19242295052E+03  0.12508999006E+03 0.  0.
          5    1    3    3  502    0 -0.89728956481E+02 -0.32862544743E+02  0.29922503787E+02  0.10022006342E+03  0.41800000000E+01 0. -1.
         -5    1    3    3    0  502  0.38949496059E+01  0.26077652182E+02  0.88253529192E+02  0.92202887106E+02  0.41800000000E+01 0. -1.
        -11    1    1    2    0    0  0.33050729821E+02  0.43185268823E+02  0.95941481292E+02  0.11028184809E+03  0.00000000000E+00 0.  1.
         11    1    1    2    0    0  0.52783277054E+02 -0.36400376262E+02  0.91942439584E+02  0.11209136419E+03  0.00000000000E+00 0. -1.
</event>
<event>
 7    1  0.2714042E-009  0.1193349E+03  0.7561462E-02  0.1244198E+00
         -1   -1    0    0    0  501 -0.00000000000E+00  0.00000000000E+00  0.10565534579E+03  0.10565534579E+03  0.00000000000E+00 0.  1.
          1   -1    0    0  501    0  0.00000000000E+00 -0.00000000000E+00 -0.27718440341E+03  0.27718440341E+03  0.00000000000E+00 0. -1.
         25    2    1    2    0    0  0.71723615520E+02  0.30938649836E+02 -0.21289617598E+03  0.25898705974E+03  0.12509211921E+03 0.  0.
          5    1    3    3  502    0  0.56489863838E+02 -0.29753247532E+02 -0.40960846370E+02  0.75971203693E+02  0.41800000000E+01 0.  1.
         -5    1    3    3    0  502  0.15233751682E+02  0.60691897368E+02 -0.17193532961E+03  0.18301585604E+03  0.41800000000E+01 0.  1.
        -11    1    1    2    0    0  0.11159975073E+02 -0.26748494431E+02 -0.40235171744E+01  0.29261163483E+02  0.00000000000E+00 0. -1.
         11    1    1    2    0    0 -0.82883590593E+02 -0.41901554055E+01  0.45390635537E+02  0.94591525975E+02  0.00000000000E+00 0.  1.
</event>
<event>
 7    1  0.2714042E-009  0.7954911E+02  0.7561462E-02  0.1330336E+00
          1   -1    0    0  501    0  0.00000000000E+00  0.00000000000E+00  0.12162019124E+04  0.12162019124E+04  0.00000000000E+00 0. -1.
         -1   -1    0    0    0  501 -0.00000000000E+00 -0.00000000000E+00 -0.11298150006E+02  0.11298150006E+02  0.00000000000E+00 0.  1.
         25    2    1    2    0    0 -0.24015498255E+02 -0.34283461235E+02  0.76549334886E+03  0.77677542813E+03  0.12509156137E+03 0.  0.
          5    1    3    3  502    0  0.11614374505E+02 -0.25648842828E+02  0.70728247584E+03  0.70785502037E+03  0.41800000000E+01 0.  1.
         -5    1    3    3    0  502 -0.35629872760E+02 -0.86346184069E+01  0.58210873023E+02  0.68920407761E+02  0.41800000000E+01 0.  1.
        -11    1    1    2    0    0  0.40578030354E+01  0.60583798687E+02  0.35372548727E+03  0.35889912618E+03  0.00000000000E+00 0. -1.
         11    1    1    2    0    0  0.19957695219E+02 -0.26300337452E+02  0.85684926273E+02  0.91825508106E+02  0.00000000000E+00 0.  1.
</event>
<event>
 7    1  0.2714042E-009  0.2426106E+03  0.7561462E-02  0.1118066E+00
          2   -1    0    0  501    0  0.00000000000E+00  0.00000000000E+00  0.57143190180E+03  0.57143190180E+03  0.00000000000E+00 0. -1.
         -2   -1    0    0    0  501 -0.00000000000E+00 -0.00000000000E+00 -0.13641067357E+03  0.13641067357E+03  0.00000000000E+00 0.  1.
         25    2    1    2    0    0  0.55443672615E+02  0.21445677013E+03  0.38653339997E+03  0.46273272104E+03  0.12509114575E+03 0.  0.
          5    1    3    3  502    0 -0.52799003773E+01 -0.14993936099E+02  0.33414996606E+02  0.37238822027E+02  0.41800000000E+01 0. -1.
         -5    1    3    3    0  502  0.60723572992E+02  0.22945070623E+03  0.35311840336E+03  0.42549389902E+03  0.41800000000E+01 0. -1.
        -11    1    1    2    0    0 -0.28968545041E+02 -0.20130623277E+02 -0.15893675786E+02  0.38691439948E+02  0.00000000000E+00 0.  1.
         11    1    1    2    0    0 -0.26475127574E+02 -0.19432614686E+03  0.64381504051E+02  0.20641841438E+03  0.00000000000E+00 0. -1.
</event>
<event>
 7    1  0.2714042E-009  0.9633177E+02  0.7561462E-02  0.1288204E+00
          2   -1    0    0  501    0  0.00000000000E+00  0.00000000000E+00  0.27847978277E+03  0.27847978277E+03  0.00000000000E+00 0. -1.
         -2   -1    0    0    0  501 -0.00000000000E+00 -0.00000000000E+00 -0.65718094139E+02  0.65718094139E+02  0.00000000000E+00 0.  1.
         25    2    1    2    0    0  0.33466474104E+01  0.16486879093E+02  0.21611617928E+03  0.25027510402E+03  0.12509359500E+03 0.  0.
          5    1    3    3  502    0  0.32109571037E+02  0.46733131941E+02  0.40720700208E+02  0.69933239583E+02  0.41800000000E+01 0.  1.
         -5    1    3    3    0  502 -0.28762923627E+02 -0.30246252848E+02  0.17539547908E+03  0.18034186443E+03  0.41800000000E+01 0.  1.
        -11    1    1    2    0    0  0.29271490610E+02  0.26781886046E+02 -0.11155484049E+01  0.39690477838E+02  0.00000000000E+00 0. -1.
         11    1    1    2    0    0 -0.32618138021E+02 -0.43268765139E+02 -0.22389422477E+01  0.54232295056E+02  0.00000000000E+00 0.  1.
</event>
<event>
 7    1  0.2714042E-009  0.5927786E+02  0.7561462E-02  0.1400887E+00
         -1   -1    0    0    0  501 -0.00000000000E+00  0.00000000000E+00  0.37071881768E+02  0.37071881768E+02  0.00000000000E+00 0.  1.
          1   -1    0    0  501    0  0.00000000000E+00 -0.00000000000E+00 -0.28746580906E+03  0.28746580906E+03  0.00000000000E+00 0. -1.
         25    2    1    2    0    0 -0.67128191209E+01 -0.15970643730E+01 -0.12471081181E+03  0.17677299948E+03  0.12509314214E+03 0.  0.
          5    1    3    3  502    0 -0.13430379147E+02 -0.31126888306E+02  0.12367154386E+02  0.36327361138E+02  0.41800000000E+01 0. -1.
         -5    1    3    3    0  502  0.67175600266E+01  0.29529823933E+02 -0.13707796619E+03  0.14044563834E+03  0.41800000000E+01 0. -1.
        -11    1    1    2    0    0  0.12722429377E+02 -0.24199277806E+02 -0.10036826162E+02  0.29123927190E+02  0.00000000000E+00 0.  1.
         11    1    1    2    0    0 -0.60096102557E+01  0.25796342179E+02 -0.11564628932E+03  0.11864076416E+03  0.00000000000E+00 0. -1.
</event>
<event>
 7    1  0.2714042E-009  0.1320760E+03  0.7561462E-02  0.1224407E+00
         -2   -1    0    0    0  501 -0.00000000000E+00  0.00000000000E+00  0.25005606860E+02  0.25005606860E+02  0.00000000000E+00 0.  1.
          2   -1    0    0  501    0  0.00000000000E+00 -0.00000000000E+00 -0.93089874022E+03  0.93089874022E+03  0.00000000000E+00 0. -1.
         25    2    1    2    0    0 -0.92476669178E+02 -0.30632093825E+02 -0.34974203356E+03  0.38400265885E+03  0.12509313511E+03 0.  0.
          5    1    3    3  502    0 -0.77780430630E+02 -0.60030176462E+02 -0.33232901834E+03  0.34657389732E+03  0.41800000000E+01 0.  1.
         -5    1    3    3    0  502 -0.14696238548E+02  0.29398082637E+02 -0.17413015216E+02  0.37428761523E+02  0.41800000000E+01 0.  1.
        -11    1    1    2    0    0  0.22998209446E+02  0.54549950838E+02 -0.22114474664E+03  0.22893146079E+03  0.00000000000E+00 0.  1.
         11    1    1    2    0    0  0.69478459732E+02 -0.23917857013E+02 -0.33500635317E+03  0.34297022745E+03  0.00000000000E+00 0. -1.
</event>
<event>
 7    1  0.3520091E-009  0.1424734E+03  0.7561462E-02  0.1210039E+00
         -1   -1    0    0    0  501 -0.00000000000E+00  0.00000000000E+00  0.11319995279E+03  0.11319995279E+03  0.00000000000E+00 0.  1.
          1   -1    0    0  501    0  0.00000000000E+00 -0.00000000000E+00 -0.18155462003E+03  0.18155462003E+03  0.00000000000E+00 0. -1.
         25    2    1    2    0    0  0.48981235668E+02 -0.78294559107E+02 -0.50610604112E+02  0.16351791209E+03  0.12508986726E+03 0.  0.
          5    1    3    3  502    0  0.82745027076E+02 -0.86962484982E+02 -0.43140369544E+02  0.12762357613E+03  0.41800000000E+01 0.  1.
         -5    1    3    3    0  502 -0.33763791408E+02  0.86679258756E+01 -0.74702345680E+01  0.35894335956E+02  0.41800000000E+01 0.  1.
        -11    1    1    2    0    0  0.12546218101E+02  0.65746937893E+02 -0.46688451074E+01  0.67095942840E+02  0.00000000000E+00 0. -1.
         11    1    1    2    0    0 -0.61527453769E+02  0.12547621214E+02 -0.13075218025E+02  0.64140717893E+02  0.00000000000E+00 0.  1.
</event>
<event>
 7    1  0.2714042E-009  0.1701187E+03  0.7561462E-02  0.1177724E+00
          2   -1    0    0  501    0  0.00000000000E+00  0.00000000000E+00  0.16931977471E+04  0.16931977471E+04  0.00000000000E+00 0. -1.
         -2   -1    0    0    0  501 -0.00000000000E+00 -0.00000000000E+00 -0.21390089442E+02  0.21390089442E+02  0.00000000000E+00 0.  1.
         25    2    1    2    0    0 -0.45293833100E+02  0.13963329122E+03  0.10975405170E+04  0.11143568262E+04  0.12508781909E+03 0.  0.
          5    1    3    3  502    0  0.12894353445E+02  0.13087795198E+03  0.83221684637E+03  0.84255424422E+03  0.41800000000E+01 0. -1.
         -5    1    3    3    0  502 -0.58188186545E+02  0.87553392310E+01  0.26532367060E+03  0.27180258203E+03  0.41800000000E+01 0. -1.
        -11    1    1    2    0    0  0.23572726968E+02 -0.31328457479E+02  0.45556262619E+02  0.60104232534E+02  0.00000000000E+00 0.  1.
         11    1    1    2    0    0  0.21721106132E+02 -0.10830483374E+03  0.52871087803E+03  0.54012677772E+03  0.00000000000E+00 0. -1.
</event>
<event>
 7    1  0.2714042E-009  0.9346742E+02  0.7561462E-02  0.1294666E+00
         -2   -1    0    0    0  501 -0.00000000000E+00  0.00000000000E+00  0.18458368343E+03  0.18458368343E+03  0.00000000000E+00 0.  1.
          2   -1    0    0  501    0  0.00000000000E+00 -0.00000000000E+00 -0.79801223151E+02  0.79801223151E+02  0.00000000000E+00 0. -1.
         25    2    1    2    0    0 -0.41498109491E+02  0.49071784731E+01  0.22683791118E+02  0.13381858662E+03  0.12508671494E+03 0.  0.
          5    1    3    3  502    0 -0.85715193716E+02  0.61519564982E+00  0.24218525474E+02  0.89171084302E+02  0.41800000000E+01 0.  1.
         -5    1    3    3    0  502  0.44217084225E+02  0.42919828232E+01 -0.15347343558E+01  0.44647502320E+02  0.41800000000E+01 0.  1.
        -11    1    1    2    0    0  0.24788836852E+02  0.16170718735E+02  0.95879713635E+02  0.10034389899E+03  0.00000000000E+00 0.  1.
         11    1    1    2    0    0  0.16709272639E+02 -0.21077897208E+02 -0.13781044472E+02  0.30222420975E+02  0.00000000000E+00 0. -1.
</event>
<event>
 7    1  0.2714042E-009  0.1149519E+03  0.7561462E-02  0.1251665E+00
          1   -1    0    0  501    0  0.00000000000E+00  0.00000000000E+00  0.22885866773E+03  0.22885866773E+03  0.00000000000E+00 0. -1.
         -1   -1    0    0    0  501 -0.00000000000E+00 -0.00000000000E+00 -0.10835185632E+03  0.10835185632E+03  0.00000000000E+00 0.  1.
         25    2    1    2    0    0 -0.43254725325E+02  0.91719807172E+02  0.92092941141E+01  0.16129586491E+03  0.12509216861E+03 0.  0.
          5    1    3    3  502    0 -0.53463581814E+02  0.67595660529E+02 -0.47639787798E+02  0.98562415170E+02  0.41800000000E+01 0. -1.
         -5    1    3    3    0  502  0.10208856489E+02  0.24124146643E+02  0.56849081912E+02  0.62733449740E+02  0.41800000000E+01 0. -1.
        -11    1    1    2    0    0 -0.12452161851E+02 -0.36865382875E+02  0.84908686648E+02  0.93400202663E+02  0.00000000000E+00 0. -1.
         11    1    1    2    0    0  0.55706887176E+02 -0.54854424298E+02  0.26388830649E+02  0.82514456472E+02  0.00000000000E+00 0.  1.
</event>
<event>
 7    1  0.2714042E-009  0.9930671E+02  0.7561462E-02  0.1281761E+00
         -1   -1    0    0    0  501 -0.00000000000E+00  0.00000000000E+00  0.61985295956E+02  0.61985295956E+02  0.00000000000E+00 0.  1.
          1   -1    0    0  501    0  0.00000000000E+00 -0.00000000000E+00 -0.25636474639E+03  0.25636474639E+03  0.00000000000E+00 0. -1.
         25    2    1    2    0    0 -0.41939477821E+02  0.16413954782E+02 -0.16360803602E+03  0.21081523757E+03  0.12508851759E+03 0.  0.
          5    1    3    3  502    0  0.29229364672E+02 -0.34359401647E+02 -0.51568740676E+02  0.68642054570E+02  0.41800000000E+01 0. -1.
         -5    1    3    3    0  502 -0.71168842493E+02  0.50773356429E+02 -0.11203929534E+03  0.14217318300E+03  0.41800000000E+01 0. -1.
        -11    1    1    2    0    0 -0.10871870564E+02 -0.21484423806E+01 -0.48717599463E+02  0.49962164401E+02  0.00000000000E+00 0. -1.
         11    1    1    2    0    0  0.52811348385E+02 -0.14265512401E+02  0.17946185041E+02  0.57572640376E+02  0.00000000000E+00 0.  1.
</event>
<event>
 7    1  0.2714042E-009  0.1193087E+03  0.7561462E-02  0.1244242E+00
          1   -1    0    0  501    0  0.00000000000E+00  0.00000000000E+00  0.56296805222E+03  0.56296805222E+03  0.00000000000E+00 0. -1.
         -1   -1    0    0    0  501 -0.00000000000E+00 -0.00000000000E+00 -0.32633765758E+02  0.32633765758E+02  0.00000000000E+00 0.  1.
         25    2    1    2    0    0 -0.30024418627E+02  0.72470476857E+02  0.33554980781E+03  0.36659726623E+03  0.12508575599E+03 0.  0.
          5    1    3    3  502    0  0.33489249942E+02  0.15262715778E+02  0.21839112832E+03  0.22150990426E+03  0.41800000000E+01 0. -1.
         -5    1    3    3    0  502 -0.63513668569E+02  0.57207761080E+02  0.11715867949E+03  0.14508736197E+03  0.41800000000E+01 0. -1.
        -11    1    1    2    0    0 -0.25743460225E+02 -0.15701339270E+01  0.21219298648E+02  0.33398348762E+02  0.00000000000E+00 0. -1.
         11    1    1    2    0    0  0.55767878852E+02 -0.70900342930E+02  0.17356518001E+03  0.19560620299E+03  0.00000000000E+00 0.  1.
</event>
<event>
 7    1  0.2714042E-009  0.1066410E+03  0.7561462E-02  0.1266920E+00
          2   -1    0    0  501    0  0.00000000000E+00  0.00000000000E+00  0.99492100471E+02  0.99492100471E+02  0.00000000000E+00 0. -1.
         -2   -1    0    0    0  501 -0.00000000000E+00 -0.00000000000E+00 -0.15015436585E+03  0.15015436585E+03  0.00000000000E+00 0.  1.
         25    2    1    2    0    0 -0.86886557507E+01  0.36501904802E+02 -0.72043761452E+02  0.14914711891E+03  0.12508668084E+03 0.  0.
          5    1    3    3  502    0 -0.59279873604E+02  0.21978316398E+01 -0.63983640707E+02  0.87351660296E+02  0.41800000000E+01 0. -1.
         -5    1    3    3    0  502  0.50591217853E+02  0.34304073162E+02 -0.80601207451E+01  0.61795458618E+02  0.41800000000E+01 0. -1.
        -11    1    1    2    0    0  0.11880385696E+02 -0.63884027516E+02 -0.10049358181E+01  0.64987094350E+02  0.00000000000E+00 0.  1.
         11    1    1    2    0    0 -0.31917299456E+01  0.27382122714E+02  0.22386431891E+02  0.35512253057E+02  0.00000000000E+00 0. -1.
</event>
<event>
 7    1  0.2714042E-009  0.1015206E+03  0.7561462E-02  0.1277130E+00
         -2   -1    0    0    0  501 -0.00000000000E+00  0.00000000000E+00  0.34981473828E+03  0.34981473828E+03  0.00000000000E+00 0.  1.
          2   -1    0    0  501    0  0.00000000000E+00 -0.00000000000E+00 -0.50735103979E+02  0.50735103979E+02  0.00000000000E+00 0. -1.
         25    2    1    2    0    0 -0.38101078036E+02 -0.64709680110E+02  0.15230728940E+03  0.21091228363E+03  0.12508975231E+03 0.  0.
          5    1    3    3  502    0 -0.47127577466E+02 -0.83516081684E+02  0.16139209523E+03  0.18777866029E+03  0.41800000000E+01 0.  1.
         -5    1    3    3    0  502  0.90264994301E+01  0.18806401574E+02 -0.90848058243E+01  0.23133623343E+02  0.41800000000E+01 0.  1.
        -11    1    1    2    0    0  0.35236006921E+02  0.19099563981E+02  0.13721524124E+03  0.14294891380E+03  0.00000000000E+00 0.  1.
         11    1    1    2    0    0  0.28650711150E+01  0.45610116129E+02  0.95571036617E+01  0.46688644832E+02  0.00000000000E+00 0. -1.
</event>
<event>
 7    1  0.2714042E-009  0.1003864E+03  0.7561462E-02  0.1279485E+00
          3   -1    0    0  501    0  0.00000000000E+00  0.00000000000E+00  0.79197314878E+02  0.79197314878E+02  0.00000000000E+00 0. -1.
         -3   -1    0    0    0  501 -0.00000000000E+00 -0.00000000000E+00 -0.19310272286E+03  0.19310272286E+03  0.00000000000E+00 0.  1.
         25    2    1    2    0    0 -0.25394009475E+02 -0.26353205679E+02 -0.12931269399E+02  0.13097379729E+03  0.12509025015E+03 0.  0.
          5    1    3    3  502    0  0.47607589284E+02  0.97574176919E+01 -0.42577531439E+01  0.48962134546E+02  0.41800000000E+01 0.  1.
         -5    1    3    3    0  502 -0.73001598759E+02 -0.36110623371E+02 -0.86735162547E+01  0.82011662743E+02  0.41800000000E+01 0.  1.
        -11    1    1    2    0    0  0.38065030128E+02  0.37598406337E+02 -0.10986013519E+03  0.12219589184E+03  0.00000000000E+00 0.  1.
         11    1    1    2    0    0 -0.12671020653E+02 -0.11245200658E+02  0.88859966089E+01  0.19130348610E+02  0.00000000000E+00 0. -1.
</event>
<event>
 7    1  0.2714042E-009  0.1008483E+03  0.7561462E-02  0.1278522E+00
          4   -1    0    0  501    0  0.00000000000E+00  0.00000000000E+00  0.43386254585E+03  0.43386254585E+03  0.00000000000E+00 0.  1.
         -4   -1    0    0    0  501 -0.00000000000E+00 -0.00000000000E+00 -0.31821918505E+02  0.31821918505E+02  0.00000000000E+00 0. -1.
         25    2    1    2    0    0 -0.22192568061E+02  0.13732361671E+02  0.29675268590E+03  0.32309600041E+03  0.12509109103E+03 0.  0.
          5    1    3    3  502    0  0.41033462874E+02 -0.47708325941E+01  0.38788817470E+02  0.56820336850E+02  0.41800000000E+01 0.  1.
         -5    1    3    3    0  502 -0.63226030935E+02  0.18503194265E+02  0.25796386843E+03  0.26627566356E+03  0.41800000000E+01 0.  1.
        -11    1    1    2    0    0  0.55709570288E+02 -0.21577959474E+02  0.80140119807E+02  0.99958007980E+02  0.00000000000E+00 0.  1.
         11    1    1    2    0    0 -0.33517002227E+02  0.78455978034E+01  0.25147821639E+02  0.42630455972E+02  0.00000000000E+00 0. -1.
</event>
<event>
 7    1  0.2714042E-009  0.1012497E+03  0.7561462E-02  0.1277690E+00
          1   -1    0    0  501    0  0.00000000000E+00  0.00000000000E+00  0.32820092504E+02  0.32820092504E+02  0.00000000000E+00 0. -1.
         -1   -1    0    0    0  501 -0.00000000000E+00 -0.00000000000E+00 -0.46055116484E+03  0.46055116484E+03  0.00000000000E+00 0.  1.
         25    2    1    2    0    0  0.25038999916E+02  0.34266431332E+02 -0.31216057928E+03  0.33895953331E+03  0.12509275813E+03 0.  0.
          5    1    3    3  502    0  0.26726020462E+02  0.76971454284E+02 -0.25319044253E+03  0.26601082221E+03  0.41800000000E+01 0.  1.
         -5    1    3    3    0  502 -0.16870205467E+01 -0.42705022952E+02 -0.58970136749E+02  0.72948711104E+02  0.41800000000E+01 0.  1.
        -11    1    1    2    0    0 -0.13910220025E+02 -0.53756518716E+02 -0.11936631758E+03  0.13164944093E+03  0.00000000000E+00 0.  1.
         11    1    1    2    0    0 -0.11128779890E+02  0.19490087385E+02  0.37958245181E+01  0.22762283099E+02  0.00000000000E+00 0. -1.
</event>
<event>
 7    1  0.2757279E-009  0.1542695E+03  0.7561462E-02  0.1195323E+00
         -2   -1    0    0    0  501 -0.00000000000E+00  0.00000000000E+00  0.63769322690E+02  0.63769322690E+02  0.00000000000E+00 0.  1.
          2   -1    0    0  501    0  0.00000000000E+00 -0.00000000000E+00 -0.48020277155E+03  0.48020277155E+03  0.00000000000E+00 0. -1.
         25    2    1    2    0    0  0.10870477494E+03 -0.62565853370E+02 -0.30605829889E+03  0.35362445147E+03  0.12508939305E+03 0.  0.
          5    1    3    3  502    0  0.90563626061E+02 -0.10017237095E+03 -0.23773190788E+03  0.27344141364E+03  0.41800000000E+01 0.  1.
         -5    1    3    3    0  502  0.18141148877E+02  0.37606517581E+02 -0.68326391008E+02  0.80183037828E+02  0.41800000000E+01 0.  1.
        -11    1    1    2    0    0 -0.36200586806E+02  0.77682503430E+00  0.93029862835E+01  0.37384910004E+02  0.00000000000E+00 0.  1.
         11    1    1    2    0    0 -0.72504188132E+02  0.61789028335E+02 -0.11967813625E+03  0.15296273277E+03  0.00000000000E+00 0. -1.
</event>
<event>
 7    1  0.2714042E-009  0.9185357E+02  0.7561462E-02  0.1298424E+00
          1   -1    0    0  501    0  0.00000000000E+00  0.00000000000E+00  0.35816983321E+02  0.35816983321E+02  0.00000000000E+00 0. -1.
         -1   -1    0    0    0  501 -0.00000000000E+00 -0.00000000000E+00 -0.52125121753E+03  0.52125121753E+03  0.00000000000E+00 0.  1.
         25    2    1    2    0    0  0.56555108085E+02  0.27903364551E+02 -0.17572704369E+03  0.22473131968E+03  0.12508834541E+03 0.  0.
          5    1    3    3  502    0  0.32732129081E+02  0.28119070212E+02  0.38576599925E+01  0.43525031009E+02  0.41800000000E+01 0.  1.
         -5    1    3    3    0  502  0.23822979004E+02 -0.21570566057E+00 -0.17958470368E+03  0.18120628867E+03  0.41800000000E+01 0.  1.
        -11    1    1    2    0    0 -0.34828595987E+02 -0.64673992366E+02 -0.23579998645E+03  0.24697649685E+03  0.00000000000E+00 0. -1.
         11    1    1    2    0    0 -0.21726512098E+02  0.36770627815E+02 -0.73907204078E+02  0.85360384327E+02  0.00000000000E+00 0.  1.
</event>
<event>
 7    1  0.2714042E-009  0.9789974E+02  0.7561462E-02  0.1284776E+00
          2   -1    0    0  501    0  0.00000000000E+00  0.00000000000E+00  0.11560451090E+04  0.11560451090E+04  0.00000000000E+00 0. -1.
         -2   -1    0    0    0  501 -0.00000000000E+00 -0.00000000000E+00 -0.15905962917E+02  0.15905962917E+02  0.00000000000E+00 0.  1.
         25    2    1    2    0    0  0.13761625959E+02  0.24294429882E+02  0.86139003998E+03  0.87087310036E+03  0.12509018458E+03 0.  0.
          5    1    3    3  502    0  0.24255460892E+02  0.60775988471E+02  0.25547014745E+03  0.26375086122E+03  0.41800000000E+01 0. -1.
         -5    1    3    3    0  502 -0.10493834933E+02 -0.36481558589E+02  0.60591989253E+03  0.60712223914E+03  0.41800000000E+01 0. -1.
        -11    1    1    2    0    0  0.32594100274E+02  0.10315844338E+02  0.20250556312E+03  0.20537111557E+03  0.00000000000E+00 0. -1.
         11    1    1    2    0    0 -0.46355726232E+02 -0.34610274220E+02  0.76243542980E+02  0.95706855984E+02  0.00000000000E+00 0.  1.
</event>
<event>
 7    1  0.2714042E-009  0.1516978E+03  0.7561462E-02  0.1198402E+00
          4   -1    0    0  501    0  0.00000000000E+00  0.00000000000E+00  0.15365271741E+03  0.15365271741E+03  0.00000000000E+00 0. -1.
         -4   -1    0    0    0  501 -0.00000000000E+00 -0.00000000000E+00 -0.31024354516E+03  0.31024354516E+03  0.00000000000E+00 0.  1.
         25    2    1    2    0    0  0.95293795079E+02  0.79233811242E+02  0.70994704684E+02  0.18985781863E+03  0.12508732541E+03 0.  0.
          5    1    3    3  502    0 -0.17677850429E+02 -0.59406056016E+01  0.40906607057E+02  0.45151080736E+02  0.41800000000E+01 0. -1.
         -5    1    3    3    0  502  0.11297164551E+03  0.85174416843E+02  0.30088097627E+02  0.14470673790E+03  0.41800000000E+01 0. -1.
        -11    1    1    2    0    0 -0.89153573065E+02 -0.31412769326E+02 -0.99798881639E+02  0.13745886091E+03  0.00000000000E+00 0. -1.
         11    1    1    2    0    0 -0.61402220136E+01 -0.47821041916E+02 -0.12778665079E+03  0.13657958302E+03  0.00000000000E+00 0.  1.
</event>
<event>
 7    1  0.2714042E-009  0.1132707E+03  0.7561462E-02  0.1254630E+00
         -2   -1    0    0    0  501 -0.00000000000E+00  0.00000000000E+00  0.21114757916E+03  0.21114757916E+03  0.00000000000E+00 0.  1.
          2   -1    0    0  501    0  0.00000000000E+00 -0.00000000000E+00 -0.12336139343E+03  0.12336139343E+03  0.00000000000E+00 0. -1.
         25    2    1    2    0    0 -0.19152895908E+02  0.72413007065E+02 -0.47463834574E+02  0.15334166441E+03  0.12510145259E+03 0.  0.
          5    1    3    3  502    0 -0.53289599522E+02  0.17238612278E+02  0.20028152279E+02  0.59628436624E+02  0.41800000000E+01 0. -1.
         -5    1    3    3    0  502  0.34136703614E+02  0.55174394787E+02 -0.67491986852E+02  0.93713227791E+02  0.41800000000E+01 0. -1.
        -11    1    1    2    0    0 -0.13962210039E+02 -0.70846995048E+02  0.45153550463E+02  0.85165034703E+02  0.00000000000E+00 0. -1.
         11    1    1    2    0    0  0.33115105948E+02 -0.15660120169E+01  0.90096469836E+02  0.96002273475E+02  0.00000000000E+00 0.  1.
</event>
<event>
 7    1  0.2714042E-009  0.1348606E+03  0.7561462E-02  0.1220417E+00
         -2   -1    0    0    0  501 -0.00000000000E+00  0.00000000000E+00  0.15585149402E+03  0.15585149402E+03  0.00000000000E+00 0.  1.
          2   -1    0    0  501    0  0.00000000000E+00 -0.00000000000E+00 -0.12232508973E+03  0.12232508973E+03  0.00000000000E+00 0. -1.
         25    2    1    2    0    0  0.74418430272E+02 -0.32176995106E+02 -0.99243090641E+01  0.14939560538E+03  0.12508834166E+03 0.  0.
          5    1    3    3  502    0 -0.41244351221E+01  0.41127589163E+02 -0.23141712282E+01  0.41609101696E+02  0.41800000000E+01 0. -1.
         -5    1    3    3    0  502  0.78542865395E+02 -0.73304584269E+02 -0.76101378359E+01  0.10778650369E+03  0.41800000000E+01 0. -1.
        -11    1    1    2    0    0 -0.55354130424E+02 -0.24742020371E+02  0.15593749543E+02  0.62605210261E+02  0.00000000000E+00 0. -1.
         11    1    1    2    0    0 -0.19064299849E+02  0.56919015477E+02  0.27856963817E+02  0.66175768108E+02  0.00000000000E+00 0.  1.
</event>
<event>
 7    1  0.2714042E-009  0.1085477E+03  0.7561462E-02  0.1263283E+00
          2   -1    0    0  501    0  0.00000000000E+00  0.00000000000E+00  0.10149283770E+04  0.10149283770E+04  0.00000000000E+00 0. -1.
         -2   -1    0    0    0  501 -0.00000000000E+00 -0.00000000000E+00 -0.20010468745E+02  0.20010468745E+02  0.00000000000E+00 0.  1.
         25    2    1    2    0    0 -0.67161219272E+02  0.44195287584E+01  0.31959946642E+03  0.34974442013E+03  0.12508868402E+03 0.  0.
          5    1    3    3  502    0  0.64419767072E+01  0.23794112994E+02  0.23315948686E+03  0.23449622085E+03  0.41800000000E+01 0.  1.
         -5    1    3    3    0  502 -0.73603195980E+02 -0.19374584236E+02  0.86439979556E+02  0.11524819929E+03  0.41800000000E+01 0.  1.
        -11    1    1    2    0    0  0.54145021703E+02  0.41448552973E+02  0.38768696026E+03  0.39363796193E+03  0.00000000000E+00 0. -1.
         11    1    1    2    0    0  0.13016197569E+02 -0.45868081731E+02  0.28763148158E+03  0.29155646368E+03  0.00000000000E+00 0.  1.
</event>
<event>
 7    1  0.2714042E-009  0.1040536E+03  0.7561462E-02  0.1271996E+00
          2   -1    0    0  501    0  0.00000000000E+00  0.00000000000E+00  0.83230929163E+02  0.83230929163E+02  0.00000000000E+00 0. -1.
         -2   -1    0    0    0  501 -0.00000000000E+00 -0.00000000000E+00 -0.19125049452E+03  0.19125049452E+03  0.00000000000E+00 0.  1.
         25    2    1    2    0    0 -0.56751265135E+02  0.18349863765E+02 -0.37319393867E+02  0.14351961758E+03  0.12509084649E+03 0.  0.
          5    1    3    3  502    0 -0.78366679359E+02  0.15195797478E+02  0.19690383586E+02  0.82325162013E+02  0.41800000000E+01 0. -1.
         -5    1    3    3    0  502  0.21615414225E+02  0.31540662870E+01 -0.57009777453E+02  0.61194455562E+02  0.41800000000E+01 0. -1.
        -11    1    1    2    0    0  0.19643455457E+02 -0.52156129329E+02 -0.55158217548E+02  0.78412729400E+02  0.00000000000E+00 0.  1.
         11    1    1    2    0    0  0.37107809678E+02  0.33806265564E+02 -0.15541953939E+02  0.52549076706E+02  0.00000000000E+00 0. -1.
</event>
<event>
 7    1  0.2714042E-009  0.9827594E+02  0.7561462E-02  0.1283964E+00
         -2   -1    0    0    0  501 -0.00000000000E+00  0.00000000000E+00  0.14845967640E+02  0.14845967640E+02  0.00000000000E+00 0.  1.
          2   -1    0    0  501    0  0.00000000000E+00 -0.00000000000E+00 -0.23708555012E+04  0.23708555012E+04  0.00000000000E+00 0. -1.
         25    2    1    2    0    0  0.57326035491E+02  0.54271833400E+02 -0.20510310953E+04  0.20563580338E+04  0.12509237743E+03 0.  0.
          5    1    3    3  502    0  0.18426084600E+02  0.33855560615E+02 -0.18556536283E+04  0.18560586144E+04  0.41800000000E+01 0.  1.
         -5    1    3    3    0  502  0.38899950891E+02  0.20416272785E+02 -0.19537746699E+03  0.20029941932E+03  0.41800000000E+01 0.  1.
        -11    1    1    2    0    0 -0.78553386208E+02 -0.40912146518E+02 -0.28106241096E+03  0.29468715118E+03  0.00000000000E+00 0. -1.
         11    1    1    2    0    0  0.21227350717E+02 -0.13359686882E+02 -0.23916027327E+02  0.34656283920E+02  0.00000000000E+00 0.  1.
</event>
<event>
 7    1  0.2714042E-009  0.1456540E+03  0.7561462E-02  0.1205917E+00
          1   -1    0    0  501    0  0.00000000000E+00  0.00000000000E+00  0.59815526602E+03  0.59815526602E+03  0.00000000000E+00 0. -1.
         -1   -1    0    0    0  501 -0.00000000000E+00 -0.00000000000E+00 -0.44972075683E+02  0.44972075683E+02  0.00000000000E+00 0.  1.
         25    2    1    2    0    0  0.63536245476E+02 -0.10492835812E+03  0.30566858087E+03  0.35231841861E+03  0.12509265338E+03 0.  0.
          5    1    3    3  502    0  0.92509160833E+02 -0.87138189694E+02  0.28557662099E+03  0.31260596251E+03  0.41800000000E+01 0.  1.
         -5    1    3    3    0  502 -0.28972915358E+02 -0.17790168428E+02  0.20091959880E+02  0.39712456092E+02  0.41800000000E+01 0.  1.
        -11    1    1    2    0    0  0.46189844092E+01  0.22368827652E+02  0.12938471302E+03  0.13138532426E+03  0.00000000000E+00 0. -1.
         11    1    1    2    0    0 -0.68155229885E+02  0.82559530469E+02  0.11812989644E+03  0.15942359883E+03  0.00000000000E+00 0.  1.
</event>
<event>
 7    1  0.2714042E-009  0.1169115E+03  0.7561462E-02  0.1248281E+00
         -1   -1    0    0    0  501 -0.00000000000E+00  0.00000000000E+00  0.58324787229E+03  0.58324787229E+03  0.00000000000E+00 0.  1.
          1   -1    0    0  501    0  0.00000000000E+00 -0.00000000000E+00 -0.35372930923E+02  0.35372930923E+02  0.00000000000E+00 0. -1.
         25    2    1    2    0    0 -0.70941027543E+02  0.36783347086E+01  0.43966520341E+03  0.46260047562E+03  0.12509016517E+03 0.  0.
          5    1    3    3  502    0 -0.13588356181E+02  0.50378262685E+02  0.29973228987E+03  0.30426884620E+03  0.41800000000E+01 0.  1.
         -5    1    3    3    0  502 -0.57352671363E+02 -0.46699927976E+02  0.13993291353E+03  0.15833162942E+03  0.41800000000E+01 0.  1.
        -11    1    1    2    0    0  0.55953055358E+02 -0.39551101385E+02  0.45549003304E+02  0.82278464537E+02  0.00000000000E+00 0.  1.
         11    1    1    2    0    0  0.14987972185E+02  0.35872766676E+02  0.62660734661E+02  0.73741863059E+02  0.00000000000E+00 0. -1.
</event>
<event>
 7    1  0.2714042E-009  0.1601929E+03  0.7561462E-02  0.1188479E+00
         -1   -1    0    0    0  501 -0.00000000000E+00  0.00000000000E+00  0.18282582765E+02  0.18282582765E+02  0.00000000000E+00 0.  1.
          1   -1    0    0  501    0  0.00000000000E+00 -0.00000000000E+00 -0.14209482410E+04  0.14209482410E+04  0.00000000000E+00 0. -1.
         25    2    1    2    0    0  0.92351992048E+02  0.72376772561E+02 -0.79825611297E+03  0.81647313789E+03  0.12509306679E+03 0.  0.
          5    1    3    3  502    0  0.12023614678E+03  0.76596708276E+02 -0.68430090235E+03  0.69900571104E+03  0.41800000000E+01 0. -1.
         -5    1    3    3    0  502 -0.27884154735E+02 -0.42199357147E+01 -0.11395521062E+03  0.11746742685E+03  0.41800000000E+01 0. -1.
        -11    1    1    2    0    0  0.19039955848E+02 -0.12650678433E+02 -0.71548230589E+02  0.75111309960E+02  0.00000000000E+00 0. -1.
         11    1    1    2    0    0 -0.11139194790E+03 -0.59726094128E+02 -0.53286131472E+03  0.54764637596E+03  0.00000000000E+00 0.  1.
</event>
<event>
 7    1  0.2714042E-009  0.1245308E+03  0.7561462E-02  0.1235804E+00
         -2   -1    0    0    0  501 -0.00000000000E+00  0.00000000000E+00  0.97663317120E+02  0.97663317120E+02  0.00000000000E+00 0. -1.
          2   -1    0    0  501    0  0.00000000000E+00 -0.00000000000E+00 -0.21235394047E+03  0.21235394047E+03  0.00000000000E+00 0.  1.
         25    2    1    2    0    0 -0.37235088180E+02 -0.80726242488E+02 -0.94737127643E+02  0.18035117974E+03  0.12509295209E+03 0.  0.
          5    1    3    3  502    0  0.92237249732E+01  0.12965275614E+02  0.19437286190E+02  0.25464798616E+02  0.41800000000E+01 0.  1.
         -5    1    3    3    0  502 -0.46458813153E+02 -0.93691518102E+02 -0.11417441383E+03  0.15488638112E+03  0.41800000000E+01 0.  1.
        -11    1    1    2    0    0  0.54602822427E+02  0.10495372705E+02 -0.53375036781E+01  0.55857944920E+02  0.00000000000E+00 0. -1.
         11    1    1    2    0    0 -0.17367734247E+02  0.70230869783E+02 -0.14615992027E+02  0.73808132927E+02  0.00000000000E+00 0.  1.
</event>
<event>
 7    1  0.2714042E-009  0.1234255E+03  0.7561462E-02  0.1237551E+00
          2   -1    0    0  501    0  0.00000000000E+00  0.00000000000E+00  0.69886552238E+03  0.69886552238E+03  0.00000000000E+00 0. -1.
         -2   -1    0    0    0  501 -0.00000000000E+00 -0.00000000000E+00 -0.25496571214E+02  0.25496571214E+02  0.00000000000E+00 0.  1.
         25    2    1    2    0    0  0.54107179236E+02 -0.37069199013E+02  0.48662948644E+03  0.50671443832E+03  0.12509817172E+03 0.  0.
          5    1    3    3  502    0  0.93875989107E+02 -0.29326711063E+02  0.30172574262E+03  0.31737777721E+03  0.41800000000E+01 0.  1.
         -5    1    3    3    0  502 -0.39768809871E+02 -0.77424879494E+01  0.18490374383E+03  0.18933666111E+03  0.41800000000E+01 0.  1.
        -11    1    1    2    0    0  0.10076744749E+02  0.42110986100E+02  0.47676567640E+02  0.64404433364E+02  0.00000000000E+00 0.  1.
         11    1    1    2    0    0 -0.64183923985E+02 -0.50417870868E+01  0.13906289708E+03  0.15324322190E+03  0.00000000000E+00 0. -1.
</event>
<event>
 7    1  0.2714042E-009  0.8160670E+02  0.7561462E-02  0.1324553E+00
         -3   -1    0    0    0  501 -0.00000000000E+00  0.00000000000E+00  0.76385572429E+03  0.76385572429E+03  0.00000000000E+00 0.  1.
          3   -1    0    0  501    0  0.00000000000E+00 -0.00000000000E+00 -0.19466684097E+02  0.19466684097E+02  0.00000000000E+00 0. -1.
         25    2    1    2    0    0 -0.40643236661E+02 -0.33216968901E+02  0.51111805820E+03  0.52881387772E+03  0.12508880101E+03 0.  0.
          5    1    3    3  502    0  0.80140612551E+01  0.16038009446E+02  0.66104312183E+01  0.19560499117E+02  0.41800000000E+01 0.  1.
         -5    1    3    3    0  502 -0.48657297916E+02 -0.49254978347E+02  0.50450762698E+03  0.50925337860E+03  0.41800000000E+01 0.  1.
        -11    1    1    2    0    0  0.19958621922E+02  0.46675963671E+02  0.22136055795E+03  0.22710677839E+03  0.00000000000E+00 0. -1.
         11    1    1    2    0    0  0.20684614739E+02 -0.13458994771E+02  0.11910424037E+02  0.27401752278E+02  0.00000000000E+00 0.  1.
</event>
<event>
 7    1  0.2714042E-009  0.9987342E+02  0.7561462E-02  0.1280562E+00
         -3   -1    0    0    0  501 -0.00000000000E+00  0.00000000000E+00  0.53708642163E+03  0.53708642163E+03  0.00000000000E+00 0.  1.
          3   -1    0    0  501    0  0.00000000000E+00 -0.00000000000E+00 -0.33818243288E+02  0.33818243288E+02  0.00000000000E+00 0. -1.
         25    2    1    2    0    0  0.64460389031E+02  0.35417879235E+02  0.21055893215E+03  0.25571883720E+03  0.12508993513E+03 0.  0.
          5    1    3    3  502    0 -0.68528175320E+00 -0.10141009725E+02  0.16220810701E+03  0.16257998669E+03  0.41800000000E+01 0.  1.
         -5    1    3    3    0  502  0.65145670785E+02  0.45558888960E+02  0.48350825131E+02  0.93138850519E+02  0.41800000000E+01 0.  1.
        -11    1    1    2    0    0 -0.76775963907E+02 -0.57056078229E+01  0.14668211269E+03  0.16565851858E+03  0.00000000000E+00 0. -1.
         11    1    1    2    0    0  0.12315574875E+02 -0.29712271412E+02  0.14602713350E+03  0.14952730913E+03  0.00000000000E+00 0.  1.
</event>
<event>
 7    1  0.2714042E-009  0.1008154E+03  0.7561462E-02  0.1278591E+00
          2   -1    0    0  501    0  0.00000000000E+00  0.00000000000E+00  0.21948903583E+03  0.21948903583E+03  0.00000000000E+00 0.  1.
         -2   -1    0    0    0  501 -0.00000000000E+00 -0.00000000000E+00 -0.62049144204E+02  0.62049144204E+02  0.00000000000E+00 0. -1.
         25    2    1    2    0    0 -0.35347870210E+02 -0.19669432198E+02  0.78994907190E+02  0.15337759822E+03  0.12509250090E+03 0.  0.
          5    1    3    3  502    0  0.26850724638E+02  0.25573565808E+02  0.65203691449E+02  0.75126310040E+02  0.41800000000E+01 0.  1.
         -5    1    3    3    0  502 -0.62198594847E+02 -0.45242998006E+02  0.13791215741E+02  0.78251288176E+02  0.41800000000E+01 0.  1.
        -11    1    1    2    0    0  0.38346481433E+02  0.46511044818E+02  0.81069564666E+02  0.10102477045E+03  0.00000000000E+00 0.  1.
         11    1    1    2    0    0 -0.29986112235E+01 -0.26841612620E+02 -0.26245802324E+01  0.27135811370E+02  0.00000000000E+00 0. -1.
</event>
<event>
 7    1  0.2714042E-009  0.8935986E+02  0.7561462E-02  0.1304409E+00
          2   -1    0    0  501    0  0.00000000000E+00  0.00000000000E+00  0.19933299378E+02  0.19933299378E+02  0.00000000000E+00 0. -1.
         -2   -1    0    0    0  501 -0.00000000000E+00 -0.00000000000E+00 -0.78058689089E+03  0.78058689089E+03  0.00000000000E+00 0.  1.
         25    2    1    2    0    0 -0.67435536305E+01 -0.43977010403E+02 -0.28767732792E+03  0.31683123486E+03  0.12507730977E+03 0.  0.
          5    1    3    3  502    0 -0.14434967984E+02 -0.58909238286E+02 -0.50530573220E+02  0.79053639296E+02  0.41800000000E+01 0. -1.
         -5    1    3    3    0  502  0.76914143534E+01  0.14932227883E+02 -0.23714675470E+03  0.23777759556E+03  0.41800000000E+01 0. -1.
        -11    1    1    2    0    0 -0.29099118519E+02 -0.14125394685E+02 -0.12810355067E+03  0.13212420357E+03  0.00000000000E+00 0.  1.
         11    1    1    2    0    0  0.35842672150E+02  0.58102405088E+02 -0.34487271292E+03  0.35156475185E+03  0.00000000000E+00 0. -1.
</event>
<event>
 7    1  0.2714042E-009  0.7840285E+02  0.7561462E-02  0.1333646E+00
         -1   -1    0    0    0  501 -0.00000000000E+00  0.00000000000E+00  0.34838546853E+03  0.34838546853E+03  0.00000000000E+00 0.  1.
          1   -1    0    0  501    0  0.00000000000E+00 -0.00000000000E+00 -0.38162360627E+02  0.38162360627E+02  0.00000000000E+00 0. -1.
         25    2    1    2    0    0  0.22762743113E+02  0.25962926007E+02  0.21267684552E+03  0.24914088024E+03  0.12509005392E+03 0.  0.
          5    1    3    3  502    0  0.54643056061E+02  0.15195434495E+02  0.31889335783E+02  0.65200973473E+02  0.41800000000E+01 0. -1.
         -5    1    3    3    0  502 -0.31880312948E+02  0.10767491512E+02  0.18078750974E+03  0.18393990677E+03  0.41800000000E+01 0. -1.
        -11    1    1    2    0    0 -0.39756371707E+02 -0.66610982366E+01  0.10344573463E+03  0.11102233710E+03  0.00000000000E+00 0.  1.
         11    1    1    2    0    0  0.16993628594E+02 -0.19301827770E+02 -0.58994722435E+01  0.26384611819E+02  0.00000000000E+00 0. -1.
</event>
<event>
 7    1  0.2714042E-009  0.1541184E+03  0.7561462E-02  0.1195502E+00
          2   -1    0    0  501    0  0.00000000000E+00  0.00000000000E+00  0.50994573242E+03  0.50994573242E+03  0.00000000000E+00 0. -1.
         -2   -1    0    0    0  501 -0.00000000000E+00 -0.00000000000E+00 -0.10049332619E+03  0.10049332619E+03  0.00000000000E+00 0.  1.
         25    2    1    2    0    0  0.11720789750E+03  0.68527166411E+02  0.40742458110E+03  0.44729687890E+03  0.12508415092E+03 0.  0.
          5    1    3    3  502    0  0.41455430062E+02  0.53910642179E+02  0.33341744297E+03  0.34030805706E+03  0.41800000000E+01 0.  1.
         -5    1    3    3    0  502  0.75752467440E+02  0.14616524232E+02  0.74007138128E+02  0.10698882184E+03  0.41800000000E+01 0.  1.
        -11    1    1    2    0    0 -0.14620006104E+02  0.21735291883E+02 -0.32539072515E+01  0.26396124794E+02  0.00000000000E+00 0.  1.
         11    1    1    2    0    0 -0.10258789140E+03 -0.90262458295E+02  0.52817323808E+01  0.13674605492E+03  0.00000000000E+00 0. -1.
</event>
<event>
 7    1  0.2714042E-009  0.1579302E+03  0.7561462E-02  0.1191054E+00
         -4   -1    0    0    0  501 -0.00000000000E+00  0.00000000000E+00  0.35579494787E+02  0.35579494787E+02  0.00000000000E+00 0.  1.
          4   -1    0    0  501    0  0.00000000000E+00 -0.00000000000E+00 -0.84059436148E+03  0.84059436148E+03  0.00000000000E+00 0. -1.
         25    2    1    2    0    0 -0.11542889479E+02  0.13247843767E+03 -0.48590656019E+03  0.51907226508E+03  0.12508819448E+03 0.  0.
          5    1    3    3  502    0 -0.39175731991E+02  0.12029790451E+03 -0.24050064013E+03  0.27177997371E+03  0.41800000000E+01 0.  1.
         -5    1    3    3    0  502  0.27632842512E+02  0.12180533163E+02 -0.24540592006E+03  0.24729229137E+03  0.41800000000E+01 0.  1.
        -11    1    1    2    0    0  0.47510063196E+02 -0.50867505973E+02 -0.11608539469E+03  0.13535334547E+03  0.00000000000E+00 0.  1.
         11    1    1    2    0    0 -0.35967173717E+02 -0.81610931696E+02 -0.20302291182E+03  0.22174824572E+03  0.00000000000E+00 0. -1.
</event>
<event>
 7    1  0.2714042E-009  0.2504220E+03  0.7561462E-02  0.1113038E+00
          2   -1    0    0  501    0  0.00000000000E+00  0.00000000000E+00  0.16071702255E+04  0.16071702255E+04  0.00000000000E+00 0. -1.
         -2   -1    0    0    0  501 -0.00000000000E+00 -0.00000000000E+00 -0.41058263320E+02  0.41058263320E+02  0.00000000000E+00 0.  1.
         25    2    1    2    0    0  0.21806146219E+03  0.70797711566E+02  0.89095052822E+03  0.92844147702E+03  0.12509042838E+03 0.  0.
          5    1    3    3  502    0  0.67418383339E+01  0.38150786042E+02  0.24308987526E+03  0.24619320607E+03  0.41800000000E+01 0.  1.
         -5    1    3    3    0  502  0.21131962385E+03  0.32646925524E+02  0.64786065296E+03  0.68224827096E+03  0.41800000000E+01 0.  1.
        -11    1    1    2    0    0 -0.19384776725E+03 -0.24011518935E+02  0.49720993897E+03  0.53420149131E+03  0.00000000000E+00 0.  1.
         11    1    1    2    0    0 -0.24213694938E+02 -0.46786192631E+02  0.17795149498E+03  0.18558552047E+03  0.00000000000E+00 0. -1.
</event>
<event>
 7    1  0.2714042E-009  0.9878708E+02  0.7561462E-02  0.1282867E+00
         -2   -1    0    0    0  501 -0.00000000000E+00  0.00000000000E+00  0.32465268406E+02  0.32465268406E+02  0.00000000000E+00 0.  1.
          2   -1    0    0  501    0  0.00000000000E+00 -0.00000000000E+00 -0.55500304822E+03  0.55500304822E+03  0.00000000000E+00 0. -1.
         25    2    1    2    0    0 -0.62187467182E+02 -0.24833977577E+02 -0.16839997163E+03  0.22020185350E+03  0.12508516429E+03 0.  0.
          5    1    3    3  502    0 -0.79690575984E+01 -0.44568918247E+02 -0.15402084793E+03  0.16059199342E+03  0.41800000000E+01 0. -1.
         -5    1    3    3    0  502 -0.54218409584E+02  0.19734940670E+02 -0.14379123697E+02  0.59609860085E+02  0.41800000000E+01 0. -1.
        -11    1    1    2    0    0  0.60088329933E+01  0.36405682380E+02 -0.96326894883E+02  0.10315207444E+03  0.00000000000E+00 0. -1.
         11    1    1    2    0    0  0.56178634189E+02 -0.11571704803E+02 -0.25781091331E+03  0.26411438869E+03  0.00000000000E+00 0.  1.
</event>
<event>
 7    1  0.2714042E-009  0.9010209E+02  0.7561462E-02  0.1302605E+00
          2   -1    0    0  501    0  0.00000000000E+00  0.00000000000E+00  0.10797292934E+03  0.10797292934E+03  0.00000000000E+00 0. -1.
         -2   -1    0    0    0  501 -0.00000000000E+00 -0.00000000000E+00 -0.17170593732E+03  0.17170593732E+03  0.00000000000E+00 0.  1.
         25    2    1    2    0    0 -0.23270434850E+02 -0.30625830179E+02  0.40518846432E+02  0.13700085164E+03  0.12509197345E+03 0.  0.
          5    1    3    3  502    0 -0.63694602189E+02  0.76900024406E+01 -0.56422593865E+01  0.64540266319E+02  0.41800000000E+01 0. -1.
         -5    1    3    3    0  502  0.40424167339E+02 -0.38315832619E+02  0.46161105819E+02  0.72460585319E+02  0.41800000000E+01 0. -1.
        -11    1    1    2    0    0  0.31108128840E+02  0.28982884383E+01  0.32220771726E+01  0.31408558342E+02  0.00000000000E+00 0. -1.
         11    1    1    2    0    0 -0.78376939899E+01  0.27727541740E+02 -0.10747393159E+03  0.11126945668E+03  0.00000000000E+00 0.  1.
</event>
<event>
 7    1  0.2714042E-009  0.8284925E+02  0.7561462E-02  0.1321155E+00
          1   -1    0    0  501    0  0.00000000000E+00  0.00000000000E+00  0.12767900920E+03  0.12767900920E+03  0.00000000000E+00 0. -1.
         -1   -1    0    0    0  501 -0.00000000000E+00 -0.00000000000E+00 -0.21837659499E+03  0.21837659499E+03  0.00000000000E+00 0.  1.
         25    2    1    2    0    0  0.39138701010E+02 -0.60549454140E+02  0.59777103425E+02  0.15625721236E+03  0.12507973459E+03 0.  0.
          5    1    3    3  502    0  0.28917117030E+02 -0.62587591930E+02  0.96038143225E+02  0.11829709918E+03  0.41800000000E+01 0.  1.
         -5    1    3    3    0  502  0.10221583981E+02  0.20381377904E+01 -0.36261039801E+02  0.37960113174E+02  0.41800000000E+01 0.  1.
        -11    1    1    2    0    0 -0.27581829798E+02  0.42300809108E+01 -0.12291248396E+03  0.12604019054E+03  0.00000000000E+00 0.  1.
         11    1    1    2    0    0 -0.11556871212E+02  0.56319373229E+02 -0.27562205253E+02  0.63758201288E+02  0.00000000000E+00 0. -1.
</event>
<event>
 7    1  0.2714042E-009  0.8743953E+02  0.7561462E-02  0.1309173E+00
          3   -1    0    0  501    0  0.00000000000E+00  0.00000000000E+00  0.71195174374E+02  0.71195174374E+02  0.00000000000E+00 0. -1.
         -3   -1    0    0    0  501 -0.00000000000E+00 -0.00000000000E+00 -0.26169688253E+03  0.26169688253E+03  0.00000000000E+00 0.  1.
         25    2    1    2    0    0  0.65005805700E+02 -0.31993883594E+02 -0.14632899116E+03  0.20569917913E+03  0.12510241915E+03 0.  0.
          5    1    3    3  502    0  0.65511393464E+02 -0.20512279490E+02 -0.10797655582E+02  0.69617225236E+02  0.41800000000E+01 0. -1.
         -5    1    3    3    0  502 -0.50558776373E+00 -0.11481604104E+02 -0.13553133558E+03  0.13608195389E+03  0.41800000000E+01 0. -1.
        -11    1    1    2    0    0 -0.67911479997E+02  0.65064166124E+01 -0.64939351547E+02  0.94188226185E+02  0.00000000000E+00 0.  1.
         11    1    1    2    0    0  0.29056742964E+01  0.25487466982E+02  0.20766634548E+02  0.33004651592E+02  0.00000000000E+00 0. -1.
</event>
<event>
 7    1  0.2714042E-009  0.9170741E+02  0.7561462E-02  0.1298769E+00
         -1   -1    0    0    0  501 -0.00000000000E+00  0.00000000000E+00  0.37126029062E+03  0.37126029062E+03  0.00000000000E+00 0.  1.
          1   -1    0    0  501    0  0.00000000000E+00 -0.00000000000E+00 -0.52446015418E+02  0.52446015418E+02  0.00000000000E+00 0. -1.
         25    2    1    2    0    0  0.24099910302E+02  0.34548696823E+02  0.28882441800E+03  0.31755654602E+03  0.12509275502E+03 0.  0.
          5    1    3    3  502    0 -0.18586349823E+02 -0.19537867426E+02  0.80931786174E+01  0.28463179784E+02  0.41800000000E+01 0.  1.
         -5    1    3    3    0  502  0.42686260125E+02  0.54086564249E+02  0.28073123938E+03  0.28909336623E+03  0.41800000000E+01 0.  1.
        -11    1    1    2    0    0 -0.51945806209E+02 -0.19837178714E+02 -0.86800370715E+01  0.56278090636E+02  0.00000000000E+00 0.  1.
         11    1    1    2    0    0  0.27845895907E+02 -0.14711518109E+02  0.38669894271E+02  0.49871669381E+02  0.00000000000E+00 0. -1.
</event>
<event>
 7    1  0.2714042E-009  0.1078728E+03  0.7561462E-02  0.1264561E+00
         -1   -1    0    0    0  501 -0.00000000000E+00  0.00000000000E+00  0.37536300433E+03  0.37536300433E+03  0.00000000000E+00 0.  1.
          1   -1    0    0  501    0  0.00000000000E+00 -0.00000000000E+00 -0.34389732466E+02  0.34389732466E+02  0.00000000000E+00 0. -1.
         25    2    1    2    0    0  0.54067810397E+01 -0.25700439521E+02  0.15730440348E+03  0.20268483848E+03  0.12508685991E+03 0.  0.
          5    1    3    3  502    0  0.60479138927E+02  0.49982432529E+01  0.52732038102E+02  0.80503719935E+02  0.41800000000E+01 0. -1.
         -5    1    3    3    0  502 -0.55072357887E+02 -0.30698682774E+02  0.10457236538E+03  0.12218111854E+03  0.41800000000E+01 0. -1.
        -11    1    1    2    0    0  0.19193590563E+02 -0.27256065008E+02  0.96961830417E+02  0.10253235370E+03  0.00000000000E+00 0.  1.
         11    1    1    2    0    0 -0.24600371603E+02  0.52956504529E+02  0.86707037968E+02  0.10453554462E+03  0.00000000000E+00 0. -1.
</event>
<event>
 7    1  0.2714042E-009  0.1057661E+03  0.7561462E-02  0.1268617E+00
          3   -1    0    0  501    0  0.00000000000E+00  0.00000000000E+00  0.69678451841E+02  0.69678451841E+02  0.00000000000E+00 0. -1.
         -3   -1    0    0    0  501 -0.00000000000E+00 -0.00000000000E+00 -0.19115655091E+03  0.19115655091E+03  0.00000000000E+00 0.  1.
         25    2    1    2    0    0 -0.25106847566E+02  0.19773973575E+02 -0.98008814694E+02  0.16209482615E+03  0.12509053154E+03 0.  0.
          5    1    3    3  502    0  0.39089792154E+02 -0.26241185158E+02 -0.21063828666E+02  0.51747163470E+02  0.41800000000E+01 0. -1.
         -5    1    3    3    0  502 -0.64196639720E+02  0.46015158732E+02 -0.76944986028E+02  0.11034766268E+03  0.41800000000E+01 0. -1.
        -11    1    1    2    0    0 -0.28119912325E+02 -0.14624626742E+02 -0.31475422835E+02  0.44668908865E+02  0.00000000000E+00 0.  1.
         11    1    1    2    0    0  0.53226759892E+02 -0.51493468327E+01  0.80061384601E+01  0.54071267735E+02  0.00000000000E+00 0. -1.
</event>
<event>
 7    1  0.2714042E-009  0.1152607E+03  0.7561462E-02  0.1251127E+00
         -2   -1    0    0    0  501 -0.00000000000E+00  0.00000000000E+00  0.16865560982E+03  0.16865560982E+03  0.00000000000E+00 0.  1.
          2   -1    0    0  501    0  0.00000000000E+00 -0.00000000000E+00 -0.15695651464E+03  0.15695651464E+03  0.00000000000E+00 0. -1.
         25    2    1    2    0    0 -0.31229953953E+02 -0.10610728694E+03 -0.37940504413E+02  0.17123364601E+03  0.12508962101E+03 0.  0.
          5    1    3    3  502    0 -0.12903080632E+02 -0.84377309082E+02  0.35372336470E+02  0.92491590781E+02  0.41800000000E+01 0. -1.
         -5    1    3    3    0  502 -0.18326873321E+02 -0.21729977857E+02 -0.73312840883E+02  0.78742055229E+02  0.41800000000E+01 0. -1.
        -11    1    1    2    0    0 -0.60188924849E+00  0.61636116581E+02 -0.20932072605E+02  0.65096273330E+02  0.00000000000E+00 0.  1.
         11    1    1    2    0    0  0.31831843201E+02  0.44471170358E+02  0.70571672202E+02  0.89282205125E+02  0.00000000000E+00 0. -1.
</event>
<event>
 7    1  0.2714042E-009  0.1323568E+03  0.7561462E-02  0.1224000E+00
          2   -1    0    0  501    0  0.00000000000E+00  0.00000000000E+00  0.35757039965E+03  0.35757039965E+03  0.00000000000E+00 0. -1.
         -2   -1    0    0    0  501 -0.00000000000E+00 -0.00000000000E+00 -0.72858890935E+02  0.72858890935E+02  0.00000000000E+00 0.  1.
         25    2    1    2    0    0 -0.99487302457E+02  0.63623587794E+02  0.17583976459E+03  0.24598962265E+03  0.12508232235E+03 0.  0.
          5    1    3    3  502    0 -0.44962994768E+01  0.22451569964E+02  0.13106378733E+03  0.13311453133E+03  0.41800000000E+01 0. -1.
         -5    1    3    3    0  502 -0.94991002980E+02  0.41172017830E+02  0.44775977257E+02  0.11287509131E+03  0.41800000000E+01 0. -1.
        -11    1    1    2    0    0 -0.23515058666E+01  0.11205222183E+02 -0.66336431378E+01  0.13232226014E+02  0.00000000000E+00 0.  1.
         11    1    1    2    0    0  0.10183880832E+03 -0.74828809977E+02  0.11550538727E+03  0.17120744193E+03  0.00000000000E+00 0. -1.
</event>
<event>
 7    1  0.2714042E-009  0.1142820E+03  0.7561462E-02  0.1252840E+00
         -2   -1    0    0    0  501 -0.00000000000E+00  0.00000000000E+00  0.89848986800E+01  0.89848986800E+01  0.00000000000E+00 0.  1.
          2   -1    0    0  501    0  0.00000000000E+00 -0.00000000000E+00 -0.17957375816E+04  0.17957375816E+04  0.00000000000E+00 0. -1.
         25    2    1    2    0    0  0.11509314663E+02 -0.48354896178E+02 -0.13066058959E+04  0.13135209217E+04  0.12509030448E+03 0.  0.
          5    1    3    3  502    0  0.34808393284E+02  0.28844596071E+02 -0.71361224261E+03  0.71505492109E+03  0.41800000000E+01 0. -1.
         -5    1    3    3    0  502 -0.23299078621E+02 -0.77199492249E+02 -0.59299365327E+03  0.59846600061E+03  0.41800000000E+01 0. -1.
        -11    1    1    2    0    0  0.11951782587E+02  0.69689223254E+02 -0.36399404968E+03  0.37079792495E+03  0.00000000000E+00 0. -1.
         11    1    1    2    0    0 -0.23461097250E+02 -0.21334327076E+02 -0.11615273733E+03  0.12040363361E+03  0.00000000000E+00 0.  1.
</event>
<event>
 7    1  0.2714042E-009  0.8889034E+02  0.7561462E-02  0.1305561E+00
         -1   -1    0    0    0  501 -0.00000000000E+00  0.00000000000E+00  0.94228902561E+02  0.94228902561E+02  0.00000000000E+00 0.  1.
          1   -1    0    0  501    0  0.00000000000E+00 -0.00000000000E+00 -0.18311152045E+03  0.18311152045E+03  0.00000000000E+00 0. -1.
         25    2    1    2    0    0 -0.25722892824E+02  0.67727367565E+02 -0.37794494617E+02  0.14941846651E+03  0.12509512692E+03 0.  0.
          5    1    3    3  502    0 -0.21230323596E+01  0.12884429226E+02 -0.76776918195E+02  0.77991559482E+02  0.41800000000E+01 0. -1.
         -5    1    3    3    0  502 -0.23599860465E+02  0.54842938339E+02  0.38982423578E+02  0.71426907028E+02  0.41800000000E+01 0. -1.
        -11    1    1    2    0    0 -0.19289841179E+02  0.38439822580E+01  0.11448289195E+02  0.22758240218E+02  0.00000000000E+00 0.  1.
         11    1    1    2    0    0  0.45012734003E+02 -0.71571349823E+02 -0.62536412462E+02  0.10516371628E+03  0.00000000000E+00 0. -1.
</event>
<event>
 7    1  0.2714042E-009  0.2051666E+03  0.7561462E-02  0.1145452E+00
         -2   -1    0    0    0  501 -0.00000000000E+00  0.00000000000E+00  0.64356113208E+02  0.64356113208E+02  0.00000000000E+00 0. -1.
          2   -1    0    0  501    0  0.00000000000E+00 -0.00000000000E+00 -0.71839564689E+03  0.71839564689E+03  0.00000000000E+00 0.  1.
         25    2    1    2    0    0 -0.16289076885E+03  0.68966128333E+02 -0.23942812807E+03  0.32289862565E+03  0.12509182427E+03 0.  0.
          5    1    3    3  502    0 -0.86278783528E+02  0.97715171777E+02 -0.17714963532E+03  0.21998124688E+03  0.41800000000E+01 0. -1.
         -5    1    3    3    0  502 -0.76611985323E+02 -0.28749043444E+02 -0.62278492752E+02  0.10291737877E+03  0.41800000000E+01 0. -1.
        -11    1    1    2    0    0  0.61854187633E+02  0.18264078231E+02 -0.15652519118E+03  0.16929161986E+03  0.00000000000E+00 0. -1.
         11    1    1    2    0    0  0.10103658122E+03 -0.87230206564E+02 -0.25808621442E+03  0.29056151458E+03  0.00000000000E+00 0.  1.
</event>
<event>
 7    1  0.2714042E-009  0.1010901E+03  0.7561462E-02  0.1278020E+00
          1   -1    0    0  501    0  0.00000000000E+00  0.00000000000E+00  0.26039259777E+03  0.26039259777E+03  0.00000000000E+00 0. -1.
         -1   -1    0    0    0  501 -0.00000000000E+00 -0.00000000000E+00 -0.47946076154E+02  0.47946076154E+02  0.00000000000E+00 0.  1.
         25    2    1    2    0    0 -0.40347427492E+01  0.10251745344E+02  0.15431878625E+03  0.19895520957E+03  0.12509000837E+03 0.  0.
          5    1    3    3  502    0 -0.34906848200E+02 -0.40745709202E+02  0.11624203985E+03  0.12809521888E+03  0.41800000000E+01 0.  1.
         -5    1    3    3    0  502  0.30872105451E+02  0.50997454546E+02  0.38076746393E+02  0.70859990693E+02  0.41800000000E+01 0.  1.
        -11    1    1    2    0    0  0.18496246211E+02  0.35821080322E+02  0.10726238522E+02  0.41717060205E+02  0.00000000000E+00 0. -1.
         11    1    1    2    0    0 -0.14461503461E+02 -0.46072825665E+02  0.47401496844E+02  0.67666404147E+02  0.00000000000E+00 0.  1.
</event>
<event>
 7    1  0.2714042E-009  0.1346873E+03  0.7561462E-02  0.1220662E+00
          4   -1    0    0  501    0  0.00000000000E+00  0.00000000000E+00  0.12678342798E+03  0.12678342798E+03  0.00000000000E+00 0. -1.
         -4   -1    0    0    0  501 -0.00000000000E+00 -0.00000000000E+00 -0.16740245600E+03  0.16740245600E+03  0.00000000000E+00 0.  1.
         25    2    1    2    0    0  0.20380423965E+02 -0.86355848626E+02  0.17786475430E+02  0.15439039768E+03  0.12508933574E+03 0.  0.
          5    1    3    3  502    0 -0.43821490914E+02 -0.13304722591E+02  0.31984964323E+02  0.56016506959E+02  0.41800000000E+01 0. -1.
         -5    1    3    3    0  502  0.64201914879E+02 -0.73051126035E+02 -0.14198488893E+02  0.98373890723E+02  0.41800000000E+01 0. -1.
        -11    1    1    2    0    0  0.35650470587E+02  0.36899887299E+02 -0.32316116242E+02  0.60637357336E+02  0.00000000000E+00 0.  1.
         11    1    1    2    0    0 -0.56030894551E+02  0.49455961327E+02 -0.26089387213E+02  0.79158128958E+02  0.00000000000E+00 0. -1.
</event>
<event>
 7    1  0.2714042E-009  0.7332860E+02  0.7561462E-02  0.1349126E+00
          3   -1    0    0  501    0  0.00000000000E+00  0.00000000000E+00  0.29182225934E+03  0.29182225934E+03  0.00000000000E+00 0. -1.
         -3   -1    0    0    0  501 -0.00000000000E+00 -0.00000000000E+00 -0.82088615756E+02  0.82088615756E+02  0.00000000000E+00 0.  1.
         25    2    1    2    0    0 -0.33602026469E+02  0.29624637307E+02  0.23684198670E+03  0.27156905555E+03  0.12509560323E+03 0.  0.
          5    1    3    3  502    0 -0.54138695323E+02  0.31917289084E+02  0.24183534803E+03  0.24990302045E+03  0.41800000000E+01 0. -1.
         -5    1    3    3    0  502  0.20536668854E+02 -0.22926517769E+01 -0.49933613212E+01  0.21666035103E+02  0.41800000000E+01 0. -1.
        -11    1    1    2    0    0  0.71436665446E+01 -0.34888157066E+02 -0.53717529488E+02  0.64449890996E+02  0.00000000000E+00 0.  1.
         11    1    1    2    0    0  0.26458359924E+02  0.52635197585E+01  0.26609186371E+02  0.37891928553E+02  0.00000000000E+00 0. -1.
</event>
<event>
 7    1  0.2714042E-009  0.1385732E+03  0.7561462E-02  0.1215262E+00
          2   -1    0    0  501    0  0.00000000000E+00  0.00000000000E+00  0.20411736280E+03  0.20411736280E+03  0.00000000000E+00 0. -1.
         -2   -1    0    0    0  501 -0.00000000000E+00 -0.00000000000E+00 -0.12888842766E+03  0.12888842766E+03  0.00000000000E+00 0.  1.
         25    2    1    2    0    0 -0.10972657052E+03  0.11268610454E+02 -0.16700502913E+02  0.16760881001E+03  0.12508758746E+03 0.  0.
          5    1    3    3  502    0 -0.95860678444E+02  0.61757891745E+02 -0.14630985233E+02  0.11504279636E+03  0.41800000000E+01 0.  1.
         -5    1    3    3    0  502 -0.13865892074E+02 -0.50489281291E+02 -0.20695176802E+01  0.52566013656E+02  0.41800000000E+01 0.  1.
        -11    1    1    2    0    0  0.41825583352E+02 -0.98421465127E+00 -0.95028367197E+01  0.42902820501E+02  0.00000000000E+00 0.  1.
         11    1    1    2    0    0  0.67900987166E+02 -0.10284395802E+02  0.10143227477E+03  0.12249415994E+03  0.00000000000E+00 0. -1.
</event>
<event>
 7    1  0.2714042E-009  0.4335812E+03  0.7561462E-02  0.1032735E+00
          1   -1    0    0  501    0  0.00000000000E+00  0.00000000000E+00  0.34438877437E+03  0.34438877437E+03  0.00000000000E+00 0. -1.
         -1   -1    0    0    0  501 -0.00000000000E+00 -0.00000000000E+00 -0.65400223699E+03  0.65400223699E+03  0.00000000000E+00 0.  1.
         25    2    1    2    0    0 -0.24620372537E+03 -0.35305529897E+03  0.20527918857E+02  0.44870225990E+03  0.12509198243E+03 0.  0.
          5    1    3    3  502    0 -0.17966285746E+03 -0.30663196172E+03 -0.23695950158E+02  0.35620341485E+03  0.41800000000E+01 0.  1.
         -5    1    3    3    0  502 -0.66540867915E+02 -0.46423337247E+02  0.44223869016E+02  0.92498845046E+02  0.41800000000E+01 0.  1.
        -11    1    1    2    0    0  0.19047859643E+03  0.27919513523E+03 -0.30127214729E+03  0.45276586219E+03  0.00000000000E+00 0.  1.
         11    1    1    2    0    0  0.55725128947E+02  0.73860163737E+02 -0.28869234193E+02  0.96922889279E+02  0.00000000000E+00 0. -1.
</event>
<event>
 7    1  0.2714042E-009  0.1229013E+03  0.7561462E-02  0.1238386E+00
         -2   -1    0    0    0  501 -0.00000000000E+00  0.00000000000E+00  0.12326930706E+03  0.12326930706E+03  0.00000000000E+00 0.  1.
          2   -1    0    0  501    0  0.00000000000E+00 -0.00000000000E+00 -0.16029062109E+03  0.16029062109E+03  0.00000000000E+00 0. -1.
         25    2    1    2    0    0 -0.84112426390E+02 -0.82142940793E+01  0.13269999763E+02  0.15154267251E+03  0.12508682504E+03 0.  0.
          5    1    3    3  502    0  0.14664961967E+02 -0.19201903461E+02 -0.33586570681E+02  0.41584905147E+02  0.41800000000E+01 0.  1.
         -5    1    3    3    0  502 -0.98777388357E+02  0.10987609382E+02  0.46856570443E+02  0.10995776737E+03  0.41800000000E+01 0.  1.
        -11    1    1    2    0    0  0.10034246286E+03 -0.55944263065E+01 -0.44670531709E+02  0.10997892463E+03  0.00000000000E+00 0.  1.
         11    1    1    2    0    0 -0.16230036471E+02  0.13808720386E+02 -0.56207820870E+01  0.22038331013E+02  0.00000000000E+00 0. -1.
</event>
<event>
 7    1  0.2714042E-009  0.3102694E+03  0.7561462E-02  0.1080217E+00
         -1   -1    0    0    0  501 -0.00000000000E+00  0.00000000000E+00  0.60957135178E+02  0.60957135178E+02  0.00000000000E+00 0.  1.
          1   -1    0    0  501    0  0.00000000000E+00 -0.00000000000E+00 -0.16898616185E+04  0.16898616185E+04  0.00000000000E+00 0. -1.
         25    2    1    2    0    0 -0.23007479671E+03 -0.19118283102E+03 -0.90986871113E+03  0.96591687397E+03  0.12509615888E+03 0.  0.
          5    1    3    3  502    0 -0.20900696529E+03 -0.20136162449E+03 -0.74850961864E+03  0.80281662723E+03  0.41800000000E+01 0. -1.
         -5    1    3    3    0  502 -0.21067831421E+02  0.10178793477E+02 -0.16135909250E+03  0.16310024675E+03  0.41800000000E+01 0. -1.
        -11    1    1    2    0    0  0.12501794367E+03  0.14584223039E+03 -0.35957036635E+03  0.40766443401E+03  0.00000000000E+00 0. -1.
         11    1    1    2    0    0  0.10505685304E+03  0.45340600627E+02 -0.35946540583E+03  0.37723744569E+03  0.00000000000E+00 0.  1.
</event>
<event>
 7    1  0.2714042E-009  0.1534696E+03  0.7561462E-02  0.1196273E+00
         -1   -1    0    0    0  501 -0.00000000000E+00  0.00000000000E+00  0.31206256942E+02  0.31206256942E+02  0.00000000000E+00 0.  1.
          1   -1    0    0  501    0  0.00000000000E+00 -0.00000000000E+00 -0.12892846761E+04  0.12892846761E+04  0.00000000000E+00 0. -1.
         25    2    1    2    0    0  0.11575207471E+03 -0.11264924519E+01 -0.10580878518E+04  0.10717260854E+04  0.12508832195E+03 0.  0.
          5    1    3    3  502    0  0.78319393488E+00 -0.38870248437E+02 -0.45036225191E+03  0.45205656720E+03  0.41800000000E+01 0. -1.
         -5    1    3    3    0  502  0.11496888078E+03  0.37743755985E+02 -0.60772559986E+03  0.61966951820E+03  0.41800000000E+01 0. -1.
        -11    1    1    2    0    0 -0.28882263076E+02 -0.41049335063E+02 -0.53975379568E+02  0.73706001309E+02  0.00000000000E+00 0.  1.
         11    1    1    2    0    0 -0.86869811638E+02  0.42175827515E+02 -0.14601518778E+03  0.17505884629E+03  0.00000000000E+00 0. -1.
</event>
<event>
 7    1  0.2714042E-009  0.3834867E+03  0.7561462E-02  0.1049653E+00
         -1   -1    0    0    0  501 -0.00000000000E+00  0.00000000000E+00  0.29905005222E+03  0.29905005222E+03  0.00000000000E+00 0.  1.
          1   -1    0    0  501    0  0.00000000000E+00 -0.00000000000E+00 -0.51448916493E+03  0.51448916493E+03  0.00000000000E+00 0. -1.
         25    2    1    2    0    0  0.65874045858E+02 -0.36147114618E+03 -0.30357476990E+02  0.38931866185E+03  0.12508662844E+03 0.  0.
          5    1    3    3  502    0  0.94772744807E+02 -0.33528625218E+03 -0.21504072249E+02  0.34911121664E+03  0.41800000000E+01 0.  1.
         -5    1    3    3    0  502 -0.28898698949E+02 -0.26184893998E+02 -0.88534047415E+01  0.40207445208E+02  0.41800000000E+01 0.  1.
        -11    1    1    2    0    0 -0.70655656067E+02  0.13146725913E+03 -0.96345031738E+02  0.17764635403E+03  0.00000000000E+00 0. -1.
         11    1    1    2    0    0  0.47816102095E+01  0.23000388705E+03 -0.88736603980E+02  0.24657420128E+03  0.00000000000E+00 0.  1.
</event>
<event>
 7    1  0.2714042E-009  0.1075120E+03  0.7561462E-02  0.1265248E+00
          2   -1    0    0  501    0  0.00000000000E+00  0.00000000000E+00  0.33516215789E+03  0.33516215789E+03  0.00000000000E+00 0. -1.
         -2   -1    0    0    0  501 -0.00000000000E+00 -0.00000000000E+00 -0.40732855617E+02  0.40732855617E+02  0.00000000000E+00 0.  1.
         25    2    1    2    0    0 -0.24648723533E+02  0.71146905730E+01  0.10871748493E+03  0.16770552355E+03  0.12508985853E+03 0.  0.
          5    1    3    3  502    0  0.30118222305E+02 -0.42241126830E+02  0.31376173508E+02  0.60772993794E+02  0.41800000000E+01 0.  1.
         -5    1    3    3    0  502 -0.54766945838E+02  0.49355817403E+02  0.77341311422E+02  0.10693252976E+03  0.41800000000E+01 0.  1.
        -11    1    1    2    0    0  0.39793235576E+02 -0.37818611540E+02  0.79626792372E+02  0.96716984237E+02  0.00000000000E+00 0. -1.
         11    1    1    2    0    0 -0.15144512044E+02  0.30703920967E+02  0.10608502497E+03  0.11147250572E+03  0.00000000000E+00 0.  1.
</event>
<event>
 7    1  0.2714042E-009  0.9133620E+02  0.7561462E-02  0.1299648E+00
         -2   -1    0    0    0  501 -0.00000000000E+00  0.00000000000E+00  0.11748101226E+02  0.11748101226E+02  0.00000000000E+00 0.  1.
          2   -1    0    0  501    0  0.00000000000E+00 -0.00000000000E+00 -0.14509773574E+04  0.14509773574E+04  0.00000000000E+00 0. -1.
         25    2    1    2    0    0  0.59695284059E+02 -0.34943392971E+02 -0.11553871077E+04  0.11641957970E+04  0.12509163558E+03 0.  0.
          5    1    3    3  502    0  0.10984797846E+02  0.15997228121E+02 -0.26538249808E+02  0.33141034899E+02  0.41800000000E+01 0.  1.
         -5    1    3    3    0  502  0.48710486214E+02 -0.50940621093E+02 -0.11288488579E+04  0.11310547621E+04  0.41800000000E+01 0.  1.
        -11    1    1    2    0    0 -0.28161123495E+02  0.49913035606E+02 -0.16515277825E+03  0.17481361550E+03  0.00000000000E+00 0.  1.
         11    1    1    2    0    0 -0.31534160565E+02 -0.14969642634E+02 -0.11868937021E+03  0.12371604619E+03  0.00000000000E+00 0. -1.
</event>
<event>
 7    1  0.2714042E-009  0.2555946E+03  0.7561462E-02  0.1109819E+00
          1   -1    0    0  501    0  0.00000000000E+00  0.00000000000E+00  0.88918488109E+03  0.88918488109E+03  0.00000000000E+00 0. -1.
         -1   -1    0    0    0  501 -0.00000000000E+00 -0.00000000000E+00 -0.10907103078E+03  0.10907103078E+03  0.00000000000E+00 0.  1.
         25    2    1    2    0    0  0.66347142703E+02 -0.23077785123E+03  0.66261781657E+03  0.71580149778E+03  0.12509617669E+03 0.  0.
          5    1    3    3  502    0  0.34476447486E+02 -0.16020177136E+02  0.21401478882E+03  0.21740532133E+03  0.41800000000E+01 0.  1.
         -5    1    3    3    0  502  0.31870695217E+02 -0.21475767409E+03  0.44860302775E+03  0.49839617645E+03  0.41800000000E+01 0.  1.
        -11    1    1    2    0    0 -0.24322291178E+02  0.33931203105E+01  0.40517229591E+01  0.24889828696E+02  0.00000000000E+00 0.  1.
         11    1    1    2    0    0 -0.42024851525E+02  0.22738473092E+03  0.11344431078E+03  0.25756458540E+03  0.00000000000E+00 0. -1.
</event>
<event>
 7    1  0.2714042E-009  0.1872971E+03  0.7561462E-02  0.1160922E+00
         -1   -1    0    0    0  501 -0.00000000000E+00  0.00000000000E+00  0.76460265494E+03  0.76460265494E+03  0.00000000000E+00 0.  1.
          1   -1    0    0  501    0  0.00000000000E+00 -0.00000000000E+00 -0.49339890067E+02  0.49339890067E+02  0.00000000000E+00 0. -1.
         25    2    1    2    0    0 -0.82563249452E+02  0.13222599172E+03  0.45371905767E+03  0.49579102134E+03  0.12508937006E+03 0.  0.
          5    1    3    3  502    0  0.54317158414E+01  0.10727169519E+03  0.22252588483E+03  0.24712742046E+03  0.41800000000E+01 0. -1.
         -5    1    3    3    0  502 -0.87994965294E+02  0.24954296529E+02  0.23119317284E+03  0.24866360088E+03  0.41800000000E+01 0. -1.
        -11    1    1    2    0    0  0.24642291862E+02 -0.11124164570E+03  0.20497739394E+03  0.23451583809E+03  0.00000000000E+00 0. -1.
         11    1    1    2    0    0  0.57920957591E+02 -0.20984346020E+02  0.56566313259E+02  0.83635685576E+02  0.00000000000E+00 0.  1.
</event>
<event>
 7    1  0.2714042E-009  0.2644045E+03  0.7561462E-02  0.1104525E+00
          1   -1    0    0  501    0  0.00000000000E+00  0.00000000000E+00  0.42363931715E+03  0.42363931715E+03  0.00000000000E+00 0. -1.
         -1   -1    0    0    0  501 -0.00000000000E+00 -0.00000000000E+00 -0.18241656112E+03  0.18241656112E+03  0.00000000000E+00 0.  1.
         25    2    1    2    0    0 -0.21588013352E+03 -0.13744960907E+03  0.12151323672E+03  0.30969334799E+03  0.12509147057E+03 0.  0.
          5    1    3    3  502    0 -0.21411339757E+03 -0.10677068119E+03  0.69580998502E+02  0.24920576465E+03  0.41800000000E+01 0. -1.
         -5    1    3    3    0  502 -0.17667359429E+01 -0.30678927886E+02  0.51932238220E+02  0.60487583343E+02  0.41800000000E+01 0. -1.
        -11    1    1    2    0    0  0.14337152335E+03  0.11100307416E+03  0.12301400369E+03  0.21911075119E+03  0.00000000000E+00 0. -1.
         11    1    1    2    0    0  0.72508610166E+02  0.26446534911E+02 -0.33044843815E+01  0.77251779099E+02  0.00000000000E+00 0.  1.
</event>
<event>
 7    1  0.2714042E-009  0.1112733E+03  0.7561462E-02  0.1258230E+00
         -2   -1    0    0    0  501 -0.00000000000E+00  0.00000000000E+00  0.15486230132E+03  0.15486230132E+03  0.00000000000E+00 0. -1.
          2   -1    0    0  501    0  0.00000000000E+00 -0.00000000000E+00 -0.12843269618E+03  0.12843269618E+03  0.00000000000E+00 0.  1.
         25    2    1    2    0    0 -0.49112990182E+01 -0.91214400643E+02  0.12694830067E+02  0.15541247773E+03  0.12509073420E+03 0.  0.
          5    1    3    3  502    0 -0.37648980317E+02 -0.89901694358E+02 -0.29414932272E+02  0.10189441107E+03  0.41800000000E+01 0.  1.
         -5    1    3    3    0  502  0.32737681299E+02 -0.13127062851E+01  0.42109762339E+02  0.53518066659E+02  0.41800000000E+01 0.  1.
        -11    1    1    2    0    0 -0.37669407295E+00  0.72829263311E+02 -0.31057638769E+02  0.79175882810E+02  0.00000000000E+00 0.  1.
         11    1    1    2    0    0  0.52879930912E+01  0.18385137332E+02  0.44792413838E+02  0.48706636951E+02  0.00000000000E+00 0. -1.
</event>
<event>
 7    1  0.2714042E-009  0.1485056E+03  0.7561462E-02  0.1202321E+00
         -1   -1    0    0    0  501 -0.00000000000E+00  0.00000000000E+00  0.64257568944E+03  0.64257568944E+03  0.00000000000E+00 0.  1.
          1   -1    0    0  501    0  0.00000000000E+00 -0.00000000000E+00 -0.49557800257E+02  0.49557800257E+02  0.00000000000E+00 0. -1.
         25    2    1    2    0    0 -0.13646521526E+03 -0.35046391017E+02  0.29039579998E+03  0.34616179167E+03  0.12508901176E+03 0.  0.
          5    1    3    3  502    0 -0.22609504440E+01  0.22843128476E+01 -0.12049561271E+02  0.13152730093E+02  0.41800000000E+01 0.  1.
         -5    1    3    3    0  502 -0.13420426482E+03 -0.37330703864E+02  0.30244536125E+03  0.33300906157E+03  0.41800000000E+01 0.  1.
        -11    1    1    2    0    0  0.46565707353E+02  0.41323913256E+02  0.57269041790E+02  0.84591808443E+02  0.00000000000E+00 0. -1.
         11    1    1    2    0    0  0.89899507909E+02 -0.62775222391E+01  0.24535304741E+03  0.26137988959E+03  0.00000000000E+00 0.  1.
</event>
<event>
 7    1  0.2714042E-009  0.1492356E+03  0.7561462E-02  0.1201415E+00
         -1   -1    0    0    0  501 -0.00000000000E+00  0.00000000000E+00  0.59052521477E+02  0.59052521477E+02  0.00000000000E+00 0.  1.
          1   -1    0    0  501    0  0.00000000000E+00 -0.00000000000E+00 -0.57678767411E+03  0.57678767411E+03  0.00000000000E+00 0. -1.
         25    2    1    2    0    0  0.10822388287E+03 -0.84861320055E+02 -0.37128292306E+03  0.41522572044E+03  0.12509011751E+03 0.  0.
          5    1    3    3  502    0  0.18217574311E+02 -0.36609637085E+02 -0.26349755146E+03  0.26668441568E+03  0.41800000000E+01 0.  1.
         -5    1    3    3    0  502  0.90006308561E+02 -0.48251682970E+02 -0.10778537160E+03  0.14854130476E+03  0.41800000000E+01 0.  1.
        -11    1    1    2    0    0 -0.99880368768E+02  0.36906026178E+02 -0.13249031286E+03  0.16997595664E+03  0.00000000000E+00 0. -1.
         11    1    1    2    0    0 -0.83435141033E+01  0.47955293877E+02 -0.13961916720E+02  0.50638518510E+02  0.00000000000E+00 0.  1.
</event>
<event>
 7    1  0.2714042E-009  0.8219305E+02  0.7561462E-02  0.1322941E+00
          4   -1    0    0  501    0  0.00000000000E+00  0.00000000000E+00  0.73772317908E+03  0.73772317908E+03  0.00000000000E+00 0. -1.
         -4   -1    0    0    0  501 -0.00000000000E+00 -0.00000000000E+00 -0.20937495877E+02  0.20937495877E+02  0.00000000000E+00 0.  1.
         25    2    1    2    0    0  0.19017240218E+02  0.13529614691E+02  0.56456812747E+03  0.57873252631E+03  0.12509780396E+03 0.  0.
          5    1    3    3  502    0  0.21981680359E+02  0.39620354127E+02  0.70244177251E+02  0.83693987659E+02  0.41800000000E+01 0. -1.
         -5    1    3    3    0  502 -0.29644401412E+01 -0.26090739437E+02  0.49432395022E+03  0.49503853865E+03  0.41800000000E+01 0. -1.
        -11    1    1    2    0    0 -0.54240121820E+02  0.85755505614E+00  0.64270210514E+02  0.84103425466E+02  0.00000000000E+00 0.  1.
         11    1    1    2    0    0  0.35222881602E+02 -0.14387169747E+02  0.87947345221E+02  0.95824723183E+02  0.00000000000E+00 0. -1.
</event>
<event>
 7    1  0.2714042E-009  0.8546178E+02  0.7561462E-02  0.1314229E+00
          2   -1    0    0  501    0  0.00000000000E+00  0.00000000000E+00  0.75334120357E+02  0.75334120357E+02  0.00000000000E+00 0.  1.
         -2   -1    0    0    0  501 -0.00000000000E+00 -0.00000000000E+00 -0.20355073383E+03  0.20355073383E+03  0.00000000000E+00 0. -1.
         25    2    1    2    0    0 -0.49085264699E+02 -0.13661757242E+02 -0.39112552379E+02  0.14062654435E+03  0.12510006555E+03 0.  0.
          5    1    3    3  502    0 -0.20033525117E+02 -0.54788226633E+02  0.20962602809E+02  0.62128858212E+02  0.41800000000E+01 0.  1.
         -5    1    3    3    0  502 -0.29051739582E+02  0.41126469392E+02 -0.60075155188E+02  0.78497686133E+02  0.41800000000E+01 0.  1.
        -11    1    1    2    0    0  0.32003820626E+02 -0.92684712991E+01 -0.10169614082E+03  0.10701520524E+03  0.00000000000E+00 0. -1.
         11    1    1    2    0    0  0.17081444073E+02  0.22930228541E+02  0.12592079735E+02  0.31243104593E+02  0.00000000000E+00 0.  1.
</event>
<event>
 7    1  0.2714042E-009  0.1362745E+03  0.7561462E-02  0.1218432E+00
         -3   -1    0    0    0  501 -0.00000000000E+00  0.00000000000E+00  0.12576366470E+03  0.12576366470E+03  0.00000000000E+00 0.  1.
          3   -1    0    0  501    0  0.00000000000E+00 -0.00000000000E+00 -0.19001820642E+03  0.19001820642E+03  0.00000000000E+00 0. -1.
         25    2    1    2    0    0  0.78810389542E+02 -0.66488488764E+02  0.40096210359E+01  0.16216128071E+03  0.12509359402E+03 0.  0.
          5    1    3    3  502    0  0.10720125288E+03 -0.61208514027E+02 -0.19043345187E+02  0.12497484628E+03  0.41800000000E+01 0. -1.
         -5    1    3    3    0  502 -0.28390863334E+02 -0.52799747367E+01  0.23052966222E+02  0.37186434431E+02  0.41800000000E+01 0. -1.
        -11    1    1    2    0    0 -0.25028418845E+02 -0.94903855153E+01  0.13268485410E+02  0.29875439281E+02  0.00000000000E+00 0.  1.
         11    1    1    2    0    0 -0.53781970697E+02  0.75978874279E+02 -0.81532648173E+02  0.12374515113E+03  0.00000000000E+00 0. -1.
</event>
<event>
 7    1  0.2714042E-009  0.1380555E+03  0.7561462E-02  0.1215970E+00
         -1   -1    0    0    0  501 -0.00000000000E+00  0.00000000000E+00  0.68556405848E+02  0.68556405848E+02  0.00000000000E+00 0.  1.
          1   -1    0    0  501    0  0.00000000000E+00 -0.00000000000E+00 -0.79870725877E+03  0.79870725877E+03  0.00000000000E+00 0. -1.
         25    2    1    2    0    0 -0.80227761632E+02  0.50884816257E+02 -0.37838169644E+02  0.16157957488E+03  0.12510185320E+03 0.  0.
          5    1    3    3  502    0 -0.57556076408E+01  0.63383814130E+02  0.19473114162E+02  0.66688151033E+02  0.41800000000E+01 0. -1.
         -5    1    3    3    0  502 -0.74472153991E+02 -0.12498997874E+02 -0.57311283807E+02  0.94891423846E+02  0.41800000000E+01 0. -1.
        -11    1    1    2    0    0  0.19790196217E+02 -0.70447997517E+02 -0.37705913049E+03  0.38409394698E+03  0.00000000000E+00 0. -1.
         11    1    1    2    0    0  0.60437565416E+02  0.19563181261E+02 -0.31525355279E+03  0.32159014276E+03  0.00000000000E+00 0.  1.
</event>
<event>
 7    1  0.2714042E-009  0.1790334E+03  0.7561462E-02  0.1168742E+00
         -3   -1    0    0    0  501 -0.00000000000E+00  0.00000000000E+00  0.21138046951E+03  0.21138046951E+03  0.00000000000E+00 0.  1.
          3   -1    0    0  501    0  0.00000000000E+00 -0.00000000000E+00 -0.17130851459E+03  0.17130851459E+03  0.00000000000E+00 0. -1.
         25    2    1    2    0    0  0.13332970650E+03 -0.71021280634E+02 -0.14343725435E+02  0.19666549848E+03  0.12510292921E+03 0.  0.
          5    1    3    3  502    0  0.89120238592E+02  0.80140540112E+01 -0.45927634264E+02  0.10066509811E+03  0.41800000000E+01 0. -1.
         -5    1    3    3    0  502  0.44209467908E+02 -0.79035334646E+02  0.31583908829E+02  0.96000400375E+02  0.41800000000E+01 0. -1.
        -11    1    1    2    0    0 -0.12838680671E+03  0.24071298685E+02  0.37950726667E+02  0.13602520801E+03  0.00000000000E+00 0. -1.
         11    1    1    2    0    0 -0.49428997864E+01  0.46949981949E+02  0.16464953688E+02  0.49998277603E+02  0.00000000000E+00 0.  1.
</event>
<event>
 7    1  0.2714042E-009  0.1068157E+03  0.7561462E-02  0.1266583E+00
         -2   -1    0    0    0  501 -0.00000000000E+00  0.00000000000E+00  0.69626741050E+02  0.69626741050E+02  0.00000000000E+00 0.  1.
          2   -1    0    0  501    0  0.00000000000E+00 -0.00000000000E+00 -0.19931696353E+03  0.19931696353E+03  0.00000000000E+00 0. -1.
         25    2    1    2    0    0 -0.53465138283E+01 -0.30553546434E+02 -0.38450877982E+02  0.13449177994E+03  0.12508982551E+03 0.  0.
          5    1    3    3  502    0  0.29305065576E+02 -0.65054693521E+02  0.10692490690E+01  0.71480876541E+02  0.41800000000E+01 0.  1.
         -5    1    3    3    0  502 -0.34651579405E+02  0.34501147087E+02 -0.39520127051E+02  0.63010903403E+02  0.41800000000E+01 0.  1.
        -11    1    1    2    0    0 -0.99985432608E+01 -0.29474089613E+02 -0.53530374076E+02  0.61920867036E+02  0.00000000000E+00 0. -1.
         11    1    1    2    0    0  0.15345057089E+02  0.60027636047E+02 -0.37708970427E+02  0.72531057603E+02  0.00000000000E+00 0.  1.
</event>
<event>
 7    1  0.2714042E-009  0.9103225E+02  0.7561462E-02  0.1300371E+00
          1   -1    0    0  501    0  0.00000000000E+00  0.00000000000E+00  0.35417646464E+03  0.35417646464E+03  0.00000000000E+00 0. -1.
         -1   -1    0    0    0  501 -0.00000000000E+00 -0.00000000000E+00 -0.37603890828E+02  0.37603890828E+02  0.00000000000E+00 0.  1.
         25    2    1    2    0    0  0.28803069828E+02  0.17293254373E+02  0.14820129745E+03  0.19682513527E+03  0.12509130997E+03 0.  0.
          5    1    3    3  502    0  0.27392275720E+02  0.57432628489E+02  0.27313139913E+02  0.69370913185E+02  0.41800000000E+01 0. -1.
         -5    1    3    3    0  502  0.14107941085E+01 -0.40139374115E+02  0.12088815753E+03  0.12745422208E+03  0.41800000000E+01 0. -1.
        -11    1    1    2    0    0  0.26630059808E+01 -0.39381173230E+02  0.25475914257E+02  0.46978618680E+02  0.00000000000E+00 0.  1.
         11    1    1    2    0    0 -0.31466075809E+02  0.22087918856E+02  0.14289536211E+03  0.14797660152E+03  0.00000000000E+00 0. -1.
</event>
<event>
 7    1  0.2714042E-009  0.6602567E+02  0.7561462E-02  0.1374154E+00
         -1   -1    0    0    0  501 -0.00000000000E+00  0.00000000000E+00  0.66997422793E+02  0.66997422793E+02  0.00000000000E+00 0.  1.
          1   -1    0    0  501    0  0.00000000000E+00 -0.00000000000E+00 -0.37713633672E+03  0.37713633672E+03  0.00000000000E+00 0. -1.
         25    2    1    2    0    0  0.11518331204E+02  0.25433386699E+02 -0.32448192171E+03  0.34887808029E+03  0.12509143968E+03 0.  0.
          5    1    3    3  502    0  0.19407069082E+02  0.66087408251E+00 -0.32179695113E+03  0.32240940005E+03  0.41800000000E+01 0.  1.
         -5    1    3    3    0  502 -0.78887378773E+01  0.24772512616E+02 -0.26849705770E+01  0.26468680240E+02  0.41800000000E+01 0.  1.
        -11    1    1    2    0    0 -0.13001206500E+02  0.28802004247E+02  0.24590229928E+02  0.40040807022E+02  0.00000000000E+00 0.  1.
         11    1    1    2    0    0  0.14828752958E+01 -0.54235390945E+02 -0.10247222145E+02  0.55214872198E+02  0.00000000000E+00 0. -1.
</event>
<event>
 7    1  0.2714042E-009  0.1337424E+03  0.7561462E-02  0.1222006E+00
          2   -1    0    0  501    0  0.00000000000E+00  0.00000000000E+00  0.65951970252E+03  0.65951970252E+03  0.00000000000E+00 0.  1.
         -2   -1    0    0    0  501 -0.00000000000E+00 -0.00000000000E+00 -0.27503243653E+02  0.27503243653E+02  0.00000000000E+00 0. -1.
         25    2    1    2    0    0 -0.18175196190E+02 -0.78212508667E+02  0.32158818333E+03  0.35427916563E+03  0.12508890146E+03 0.  0.
          5    1    3    3  502    0 -0.71596157197E+02 -0.43324961173E+02  0.16269683245E+03  0.18300490069E+03  0.41800000000E+01 0. -1.
         -5    1    3    3    0  502  0.53420961008E+02 -0.34887547494E+02  0.15889135088E+03  0.17127426494E+03  0.41800000000E+01 0. -1.
        -11    1    1    2    0    0  0.51815231703E+02  0.66129011377E+02  0.21344499418E+03  0.22938315091E+03  0.00000000000E+00 0.  1.
         11    1    1    2    0    0 -0.33640035514E+02  0.12083497290E+02  0.96983281357E+02  0.10336062964E+03  0.00000000000E+00 0. -1.
</event>
<event>
 7    1  0.2714042E-009  0.9298828E+02  0.7561462E-02  0.1295772E+00
          1   -1    0    0  501    0  0.00000000000E+00  0.00000000000E+00  0.66982713617E+03  0.66982713617E+03  0.00000000000E+00 0. -1.
         -1   -1    0    0    0  501 -0.00000000000E+00 -0.00000000000E+00 -0.19847159499E+02  0.19847159499E+02  0.00000000000E+00 0.  1.
         25    2    1    2    0    0 -0.39567306204E+02  0.44557360296E+01  0.34247389366E+03  0.36677179287E+03  0.12509098648E+03 0.  0.
          5    1    3    3  502    0 -0.19994001142E+02  0.41898186434E+02  0.30956545159E+03  0.31305504201E+03  0.41800000000E+01 0. -1.
         -5    1    3    3    0  502 -0.19573305062E+02 -0.37442450405E+02  0.32908442071E+02  0.53716750859E+02  0.41800000000E+01 0. -1.
        -11    1    1    2    0    0  0.63906959634E+02 -0.21238214692E+02  0.23860257001E+03  0.24792407642E+03  0.00000000000E+00 0.  1.
         11    1    1    2    0    0 -0.24339653430E+02  0.16782478662E+02  0.68903513002E+02  0.74978426385E+02  0.00000000000E+00 0. -1.
</event>
<event>
 7    1  0.2782422E-009  0.1304163E+03  0.7561462E-02  0.1226839E+00
         -2   -1    0    0    0  501 -0.00000000000E+00  0.00000000000E+00  0.72965796406E+02  0.72965796406E+02  0.00000000000E+00 0.  1.
          2   -1    0    0  501    0  0.00000000000E+00 -0.00000000000E+00 -0.27880457335E+03  0.27880457335E+03  0.00000000000E+00 0. -1.
         25    2    1    2    0    0  0.61488785636E+02  0.67714863936E+02 -0.93421473807E+02  0.18093868168E+03  0.12508021907E+03 0.  0.
          5    1    3    3  502    0 -0.37127124348E+02  0.24375762730E+02 -0.13064592128E+02  0.46483944954E+02  0.41800000000E+01 0.  1.
         -5    1    3    3    0  502  0.98615909984E+02  0.43339101206E+02 -0.80356881679E+02  0.13445473673E+03  0.41800000000E+01 0.  1.
        -11    1    1    2    0    0 -0.34247169264E+02  0.12520962387E+01 -0.85214238277E+02  0.91847170630E+02  0.00000000000E+00 0. -1.
         11    1    1    2    0    0 -0.27241616372E+02 -0.68966960175E+02 -0.27203064862E+02  0.78984517446E+02  0.00000000000E+00 0.  1.
</event>
<event>
 7    1  0.2714042E-009  0.1317057E+03  0.7561462E-02  0.1224947E+00
          2   -1    0    0  501    0  0.00000000000E+00  0.00000000000E+00  0.75187895417E+03  0.75187895417E+03  0.00000000000E+00 0. -1.
         -2   -1    0    0    0  501 -0.00000000000E+00 -0.00000000000E+00 -0.31054154121E+02  0.31054154121E+02  0.00000000000E+00 0.  1.
         25    2    1    2    0    0 -0.98932605748E+02 -0.39115981280E+02  0.38340872599E+03  0.41709284618E+03  0.12508585330E+03 0.  0.
          5    1    3    3  502    0  0.35396308789E+01 -0.22967980166E+02  0.42685210117E+01  0.23994786336E+02  0.41800000000E+01 0.  1.
         -5    1    3    3    0  502 -0.10247223663E+03 -0.16148001114E+02  0.37914020498E+03  0.39309805984E+03  0.41800000000E+01 0.  1.
        -11    1    1    2    0    0  0.10357154745E+03  0.56504059252E+02  0.31887532165E+03  0.34000183074E+03  0.00000000000E+00 0. -1.
         11    1    1    2    0    0 -0.46389417042E+01 -0.17388077971E+02  0.18540752410E+02  0.25838431369E+02  0.00000000000E+00 0.  1.
</event>
<event>
 7    1  0.2714042E-009  0.1070699E+03  0.7561462E-02  0.1266094E+00
          2   -1    0    0  501    0  0.00000000000E+00  0.00000000000E+00  0.13688432387E+04  0.13688432387E+04  0.00000000000E+00 0. -1.
         -2   -1    0    0    0  501 -0.00000000000E+00 -0.00000000000E+00 -0.14352846781E+02  0.14352846781E+02  0.00000000000E+00 0.  1.
         25    2    1    2    0    0  0.54201889926E+02  0.46548024029E+02  0.10056694808E+04  0.10159345198E+04  0.12508909034E+03 0.  0.
          5    1    3    3  502    0  0.80234737620E+02  0.10381325146E+02  0.85303744082E+03  0.85687556440E+03  0.41800000000E+01 0. -1.
         -5    1    3    3    0  502 -0.26032847695E+02  0.36166698882E+02  0.15263203997E+03  0.15905895540E+03  0.41800000000E+01 0. -1.
        -11    1    1    2    0    0 -0.11670073401E+02  0.11516506828E+02  0.68009026872E+01  0.17750290704E+02  0.00000000000E+00 0.  1.
         11    1    1    2    0    0 -0.42531816525E+02 -0.58064530857E+02  0.34202000849E+03  0.34951127502E+03  0.00000000000E+00 0. -1.
</event>
<event>
 7    1  0.2714042E-009  0.1863611E+03  0.7561462E-02  0.1161785E+00
         -4   -1    0    0    0  501 -0.00000000000E+00  0.00000000000E+00  0.38454295532E+03  0.38454295532E+03  0.00000000000E+00 0. -1.
          4   -1    0    0  501    0  0.00000000000E+00 -0.00000000000E+00 -0.97036476540E+02  0.97036476540E+02  0.00000000000E+00 0.  1.
         25    2    1    2    0    0  0.13026628545E+03  0.91614936538E+02  0.13467637301E+03  0.24320316529E+03  0.12508977751E+03 0.  0.
          5    1    3    3  502    0  0.79644140072E+02 -0.17943131715E+02  0.54874232033E+02  0.98457090983E+02  0.41800000000E+01 0.  1.
         -5    1    3    3    0  502  0.50622145373E+02  0.10955806825E+03  0.79802140978E+02  0.14474607430E+03  0.41800000000E+01 0.  1.
        -11    1    1    2    0    0 -0.19808076565E+01 -0.26087339569E+02  0.63990933397E+02  0.69132571497E+02  0.00000000000E+00 0.  1.
         11    1    1    2    0    0 -0.12828547779E+03 -0.65527596968E+02  0.88839172375E+02  0.16924369508E+03  0.00000000000E+00 0. -1.
</event>
<event>
 7    1  0.2714042E-009  0.1021414E+03  0.7561462E-02  0.1275856E+00
          1   -1    0    0  501    0  0.00000000000E+00  0.00000000000E+00  0.26449541696E+03  0.26449541696E+03  0.00000000000E+00 0. -1.
         -1   -1    0    0    0  501 -0.00000000000E+00 -0.00000000000E+00 -0.50803169049E+02  0.50803169049E+02  0.00000000000E+00 0.  1.
         25    2    1    2    0    0  0.41637448782E+02  0.81044120506E+01  0.13049714976E+03  0.18567674310E+03  0.12508792186E+03 0.  0.
          5    1    3    3  502    0 -0.31027548195E+02 -0.33448910223E+02  0.29753740024E+02  0.54628708456E+02  0.41800000000E+01 0. -1.
         -5    1    3    3    0  502  0.72664996977E+02  0.41553322274E+02  0.10074340974E+03  0.13104803464E+03  0.41800000000E+01 0. -1.
        -11    1    1    2    0    0 -0.19811823744E+02  0.26898009903E+02 -0.35238972841E+01  0.33592099501E+02  0.00000000000E+00 0.  1.
         11    1    1    2    0    0 -0.21825625038E+02 -0.35002421954E+02  0.86718995432E+02  0.96029743412E+02  0.00000000000E+00 0. -1.
</event>
<event>
 7    1  0.2714042E-009  0.1263992E+03  0.7561462E-02  0.1232899E+00
         -2   -1    0    0    0  501 -0.00000000000E+00  0.00000000000E+00  0.33358013636E+02  0.33358013636E+02  0.00000000000E+00 0. -1.
          2   -1    0    0  501    0  0.00000000000E+00 -0.00000000000E+00 -0.69827484113E+03  0.69827484113E+03  0.00000000000E+00 0.  1.
         25    2    1    2    0    0 -0.99381817465E+02  0.32137194542E+02 -0.40594145984E+03  0.43742920273E+03  0.12508514568E+03 0.  0.
          5    1    3    3  502    0 -0.67085335082E+02  0.55363884694E+02 -0.11762567667E+03  0.14635188459E+03  0.41800000000E+01 0. -1.
         -5    1    3    3    0  502 -0.32296482383E+02 -0.23226690152E+02 -0.28831578318E+03  0.29107731815E+03  0.41800000000E+01 0. -1.
        -11    1    1    2    0    0  0.10719309082E+03 -0.16794537999E+02 -0.25412234304E+03  0.27631608794E+03  0.00000000000E+00 0.  1.
         11    1    1    2    0    0 -0.78112733514E+01 -0.15342656544E+02 -0.48530246140E+01  0.17887564090E+02  0.00000000000E+00 0. -1.
</event>
<event>
 7    1  0.2714042E-009  0.1290860E+03  0.7561462E-02  0.1228818E+00
         -1   -1    0    0    0  501 -0.00000000000E+00  0.00000000000E+00  0.28896026178E+02  0.28896026178E+02  0.00000000000E+00 0.  1.
          1   -1    0    0  501    0  0.00000000000E+00 -0.00000000000E+00 -0.96079267852E+03  0.96079267852E+03  0.00000000000E+00 0. -1.
         25    2    1    2    0    0  0.91957903613E+02  0.37043034958E+02 -0.73870528208E+03  0.75575532926E+03  0.12510867857E+03 0.  0.
          5    1    3    3  502    0 -0.27901685446E+02  0.25834044772E+02 -0.14556751535E+03  0.15051005231E+03  0.41800000000E+01 0.  1.
         -5    1    3    3    0  502  0.11985958906E+03  0.11208990186E+02 -0.59313776673E+03  0.60524527695E+03  0.41800000000E+01 0.  1.
        -11    1    1    2    0    0 -0.33840541005E+02 -0.17840969113E+02 -0.82612411731E+01  0.39137328730E+02  0.00000000000E+00 0.  1.
         11    1    1    2    0    0 -0.58117362608E+02 -0.19202065845E+02 -0.18493012909E+03  0.19479604672E+03  0.00000000000E+00 0. -1.
</event>
<event>
 7    1  0.2714042E-009  0.1057988E+03  0.7561462E-02  0.1268554E+00
         -2   -1    0    0    0  501 -0.00000000000E+00  0.00000000000E+00  0.94102234372E+02  0.94102234372E+02  0.00000000000E+00 0.  1.
          2   -1    0    0  501    0  0.00000000000E+00 -0.00000000000E+00 -0.17190639483E+03  0.17190639483E+03  0.00000000000E+00 0. -1.
         25    2    1    2    0    0 -0.62929649603E+02  0.16167046243E+02 -0.63692196341E+02  0.15467505583E+03  0.12508462271E+03 0.  0.
          5    1    3    3  502    0 -0.23693900331E+02  0.47614153004E+02 -0.84634785073E+02  0.10004512843E+03  0.41800000000E+01 0. -1.
         -5    1    3    3    0  502 -0.39235749272E+02 -0.31447106761E+02  0.20942588732E+02  0.54629927397E+02  0.41800000000E+01 0. -1.
        -11    1    1    2    0    0  0.44311970240E+02 -0.51448801690E+02 -0.20510618472E+02  0.70931060700E+02  0.00000000000E+00 0. -1.
         11    1    1    2    0    0  0.18617679363E+02  0.35281755447E+02  0.63986543571E+01  0.40402512668E+02  0.00000000000E+00 0.  1.
</event>
<event>
 7    1  0.2714042E-009  0.6901584E+02  0.7561462E-02  0.1363472E+00
          2   -1    0    0  501    0  0.00000000000E+00  0.00000000000E+00  0.68667625317E+02  0.68667625317E+02  0.00000000000E+00 0. -1.
         -2   -1    0    0    0  501 -0.00000000000E+00 -0.00000000000E+00 -0.17706743646E+03  0.17706743646E+03  0.00000000000E+00 0.  1.
         25    2    1    2    0    0 -0.10153856086E+02  0.73642252406E+01 -0.49374830617E+02  0.13506398895E+03  0.12508826726E+03 0.  0.
          5    1    3    3  502    0 -0.40853998564E+02  0.16465863323E+02 -0.79447559568E+02  0.90937126494E+02  0.41800000000E+01 0.  1.
         -5    1    3    3    0  502  0.30700142478E+02 -0.91016380821E+01  0.30072728952E+02  0.44126862460E+02  0.41800000000E+01 0.  1.
        -11    1    1    2    0    0 -0.82500804540E+01  0.23861840816E+02  0.14199443199E+02  0.28966799302E+02  0.00000000000E+00 0. -1.
         11    1    1    2    0    0  0.18403936540E+02 -0.31226066057E+02 -0.73224423721E+02  0.81704273517E+02  0.00000000000E+00 0.  1.
</event>
<event>
 7    1  0.2714042E-009  0.1212615E+03  0.7561462E-02  0.1241030E+00
          1   -1    0    0  501    0  0.00000000000E+00  0.00000000000E+00  0.51202941913E+02  0.51202941913E+02  0.00000000000E+00 0. -1.
         -1   -1    0    0    0  501 -0.00000000000E+00 -0.00000000000E+00 -0.40920574249E+03  0.40920574249E+03  0.00000000000E+00 0.  1.
         25    2    1    2    0    0 -0.65167072167E+02  0.67764868726E+02 -0.16407166778E+03  0.22672796827E+03  0.12508890719E+03 0.  0.
          5    1    3    3  502    0  0.31588061026E+02  0.54700503156E+01 -0.89642284877E+01  0.33549319549E+02  0.41800000000E+01 0.  1.
         -5    1    3    3    0  502 -0.96755133193E+02  0.62294818410E+02 -0.15510743929E+03  0.19317864872E+03  0.41800000000E+01 0.  1.
        -11    1    1    2    0    0  0.39757577865E+02 -0.31308916469E+02 -0.18019900606E+03  0.18716996296E+03  0.00000000000E+00 0.  1.
         11    1    1    2    0    0  0.25409494302E+02 -0.36455952257E+02 -0.13732126736E+02  0.46510753169E+02  0.00000000000E+00 0. -1.
</event>
<event>
 7    1  0.2714042E-009  0.1959737E+03  0.7561462E-02  0.1153181E+00
          1   -1    0    0  501    0  0.00000000000E+00  0.00000000000E+00  0.41185584335E+03  0.41185584335E+03  0.00000000000E+00 0. -1.
         -1   -1    0    0    0  501 -0.00000000000E+00 -0.00000000000E+00 -0.11736117004E+03  0.11736117004E+03  0.00000000000E+00 0.  1.
         25    2    1    2    0    0 -0.15738452143E+03 -0.10939626667E+03  0.17104754687E+03  0.28573026213E+03  0.12508832343E+03 0.  0.
          5    1    3    3  502    0 -0.15532196058E+03 -0.89885963257E+02  0.87288094602E+02  0.19960230882E+03  0.41800000000E+01 0.  1.
         -5    1    3    3    0  502 -0.20625608553E+01 -0.19510303412E+02  0.83759452269E+02  0.86127953307E+02  0.41800000000E+01 0.  1.
        -11    1    1    2    0    0  0.10222773397E+03  0.61273124917E+02  0.12159353720E+03  0.17026418801E+03  0.00000000000E+00 0. -1.
         11    1    1    2    0    0  0.55156787460E+02  0.48123141752E+02  0.18535892372E+01  0.73222563244E+02  0.00000000000E+00 0.  1.
</event>
<event>
 7    1  0.2714042E-009  0.1568352E+03  0.7561462E-02  0.1192317E+00
          1   -1    0    0  501    0  0.00000000000E+00  0.00000000000E+00  0.13155105401E+04  0.13155105401E+04  0.00000000000E+00 0. -1.
         -1   -1    0    0    0  501 -0.00000000000E+00 -0.00000000000E+00 -0.28353065470E+02  0.28353065470E+02  0.00000000000E+00 0.  1.
         25    2    1    2    0    0 -0.14165624629E+03 -0.17834431329E+02  0.42355308322E+03  0.46414875443E+03  0.12510912389E+03 0.  0.
          5    1    3    3  502    0 -0.45383325028E+02  0.94190385529E+01  0.24246458652E+02  0.52475971978E+02  0.41800000000E+01 0.  1.
         -5    1    3    3    0  502 -0.96272921263E+02 -0.27253469882E+02  0.39930662456E+03  0.41167278245E+03  0.41800000000E+01 0.  1.
        -11    1    1    2    0    0  0.12084501180E+03 -0.21259093405E+02  0.66596181044E+03  0.67717102632E+03  0.00000000000E+00 0. -1.
         11    1    1    2    0    0  0.20811234493E+02  0.39093524733E+02  0.19764258094E+03  0.20254382478E+03  0.00000000000E+00 0.  1.
</event>
<event>
 7    1  0.2714042E-009  0.1307990E+03  0.7561462E-02  0.1226275E+00
         -2   -1    0    0    0  501 -0.00000000000E+00  0.00000000000E+00  0.10737686291E+03  0.10737686291E+03  0.00000000000E+00 0.  1.
          2   -1    0    0  501    0  0.00000000000E+00 -0.00000000000E+00 -0.16619989759E+03  0.16619989759E+03  0.00000000000E+00 0. -1.
         25    2    1    2    0    0 -0.50809693576E+02 -0.53481920541E+02 -0.41436933070E+02  0.15101791161E+03  0.12508976545E+03 0.  0.
          5    1    3    3  502    0 -0.16310997613E+02  0.38481250112E+02 -0.30898949681E+02  0.52144728830E+02  0.41800000000E+01 0.  1.
         -5    1    3    3    0  502 -0.34498695963E+02 -0.91963170653E+02 -0.10537983389E+02  0.98873182783E+02  0.41800000000E+01 0.  1.
        -11    1    1    2    0    0  0.79374350532E+02  0.32173134825E+02 -0.13622879556E+02  0.86723589491E+02  0.00000000000E+00 0. -1.
         11    1    1    2    0    0 -0.28564656956E+02  0.21308785716E+02 -0.37632220468E+01  0.35835259394E+02  0.00000000000E+00 0.  1.
</event>
<event>
 7    1  0.2714042E-009  0.1293403E+03  0.7561462E-02  0.1228438E+00
          1   -1    0    0  501    0  0.00000000000E+00  0.00000000000E+00  0.12715301772E+03  0.12715301772E+03  0.00000000000E+00 0. -1.
         -1   -1    0    0    0  501 -0.00000000000E+00 -0.00000000000E+00 -0.14291831113E+03  0.14291831113E+03  0.00000000000E+00 0.  1.
         25    2    1    2    0    0  0.70005912926E+02  0.14577042962E+02 -0.45019408370E+02  0.15095762859E+03  0.12509252765E+03 0.  0.
          5    1    3    3  502    0 -0.32621720811E+02  0.23221157156E+02 -0.19681093365E+02  0.44813130267E+02  0.41800000000E+01 0.  1.
         -5    1    3    3    0  502  0.10262763374E+03 -0.86441141938E+01 -0.25338315005E+02  0.10614449832E+03  0.41800000000E+01 0.  1.
        -11    1    1    2    0    0  0.15161407015E+02 -0.25310110044E+02  0.98747643569E+01  0.31112391490E+02  0.00000000000E+00 0.  1.
         11    1    1    2    0    0 -0.85167319942E+02  0.10733067082E+02  0.19379350603E+02  0.88001308768E+02  0.00000000000E+00 0. -1.
</event>
<event>
 7    1  0.2714042E-009  0.1506283E+03  0.7561462E-02  0.1199703E+00
          2   -1    0    0  501    0  0.00000000000E+00  0.00000000000E+00  0.24482373820E+04  0.24482373820E+04  0.00000000000E+00 0. -1.
         -2   -1    0    0    0  501 -0.00000000000E+00 -0.00000000000E+00 -0.12039526356E+02  0.12039526356E+02  0.00000000000E+00 0.  1.
         25    2    1    2    0    0  0.28930729862E+01  0.12882987121E+03  0.15285052962E+04  0.15390196318E+04  0.12508989156E+03 0.  0.
          5    1    3    3  502    0 -0.28633512136E+02  0.39174364546E+02  0.10511582668E+04  0.10522859322E+04  0.41800000000E+01 0.  1.
         -5    1    3    3    0  502  0.31526585122E+02  0.89655506665E+02  0.47734702938E+03  0.48673369958E+03  0.41800000000E+01 0.  1.
        -11    1    1    2    0    0  0.35948747633E+02 -0.18443222276E+02  0.22001052184E+03  0.22368972848E+03  0.00000000000E+00 0.  1.
         11    1    1    2    0    0 -0.38841820619E+02 -0.11038664893E+03  0.68768203761E+03  0.69756754808E+03  0.00000000000E+00 0. -1.
</event>
<event>
 7    1  0.2714042E-009  0.1205449E+03  0.7561462E-02  0.1242201E+00
         -1   -1    0    0    0  501 -0.00000000000E+00  0.00000000000E+00  0.49163054001E+02  0.49163054001E+02  0.00000000000E+00 0. -1.
          1   -1    0    0  501    0  0.00000000000E+00 -0.00000000000E+00 -0.35900176992E+03  0.35900176992E+03  0.00000000000E+00 0.  1.
         25    2    1    2    0    0 -0.40281433802E+02  0.38973275743E+02 -0.90399813448E+02  0.16419561817E+03  0.12508622875E+03 0.  0.
          5    1    3    3  502    0 -0.84653770558E+02  0.21211585672E+02 -0.70449087743E+02  0.11223519323E+03  0.41800000000E+01 0.  1.
         -5    1    3    3    0  502  0.44372336755E+02  0.17761690071E+02 -0.19950725705E+02  0.51960424935E+02  0.41800000000E+01 0.  1.
        -11    1    1    2    0    0  0.55422381991E+02  0.83563806123E+01 -0.13179597946E+03  0.14321888746E+03  0.00000000000E+00 0.  1.
         11    1    1    2    0    0 -0.15140948189E+02 -0.47329656355E+02 -0.87642923009E+02  0.10075031829E+03  0.00000000000E+00 0. -1.
</event>
<event>
 7    1  0.2714042E-009  0.1224123E+03  0.7561462E-02  0.1239170E+00
          2   -1    0    0  501    0  0.00000000000E+00  0.00000000000E+00  0.38138192104E+02  0.38138192104E+02  0.00000000000E+00 0.  1.
         -2   -1    0    0    0  501 -0.00000000000E+00 -0.00000000000E+00 -0.45997929844E+03  0.45997929844E+03  0.00000000000E+00 0. -1.
         25    2    1    2    0    0 -0.20126978325E+02  0.64776169530E+02 -0.16558983658E+03  0.21833209188E+03  0.12509141047E+03 0.  0.
          5    1    3    3  502    0 -0.49934031662E+02  0.84526256759E+02 -0.84455755035E+02  0.12956983661E+03  0.41800000000E+01 0.  1.
         -5    1    3    3    0  502  0.29807053338E+02 -0.19750087229E+02 -0.81134081543E+02  0.88762255278E+02  0.41800000000E+01 0.  1.
        -11    1    1    2    0    0 -0.21979703251E+02 -0.64830480785E+02 -0.18166138492E+03  0.19413128899E+03  0.00000000000E+00 0. -1.
         11    1    1    2    0    0  0.42106681575E+02  0.54311255174E-01 -0.74589884836E+02  0.85654109667E+02  0.00000000000E+00 0.  1.
</event>
<event>
 7    1  0.2714042E-009  0.1086062E+03  0.7561462E-02  0.1263173E+00
         -2   -1    0    0    0  501 -0.00000000000E+00  0.00000000000E+00  0.14999293647E+03  0.14999293647E+03  0.00000000000E+00 0.  1.
          2   -1    0    0  501    0  0.00000000000E+00 -0.00000000000E+00 -0.45412252582E+03  0.45412252582E+03  0.00000000000E+00 0. -1.
         25    2    1    2    0    0  0.93470946472E+02 -0.51527150587E+02 -0.40296872397E+03  0.43522725736E+03  0.12508840063E+03 0.  0.
          5    1    3    3  502    0  0.93075079285E+02 -0.51086768226E+02 -0.41188078627E+03  0.42536582229E+03  0.41800000000E+01 0. -1.
         -5    1    3    3    0  502  0.39586718737E+00 -0.44038236125E+00  0.89120622966E+01  0.98614350798E+01  0.41800000000E+01 0. -1.
        -11    1    1    2    0    0 -0.58623704060E+02  0.32694184994E+02  0.53299929947E+01  0.67335408482E+02  0.00000000000E+00 0.  1.
         11    1    1    2    0    0 -0.34847242413E+02  0.18832965594E+02  0.93509141625E+02  0.10155279644E+03  0.00000000000E+00 0. -1.
</event>
<event>
 7    1  0.2714042E-009  0.1588678E+03  0.7561462E-02  0.1189981E+00
          2   -1    0    0  501    0  0.00000000000E+00  0.00000000000E+00  0.60249208474E+03  0.60249208474E+03  0.00000000000E+00 0. -1.
         -2   -1    0    0    0  501 -0.00000000000E+00 -0.00000000000E+00 -0.55993528669E+02  0.55993528669E+02  0.00000000000E+00 0.  1.
         25    2    1    2    0    0 -0.14610758386E+03 -0.77194787635E+01  0.25086533772E+03  0.31620896141E+03  0.12509065988E+03 0.  0.
          5    1    3    3  502    0  0.10519834345E+02 -0.73575533394E+01 -0.64351647839E+01  0.14956077413E+02  0.41800000000E+01 0.  1.
         -5    1    3    3    0  502 -0.15662741820E+03 -0.36192542408E+00  0.25730050251E+03  0.30125288399E+03  0.41800000000E+01 0.  1.
        -11    1    1    2    0    0  0.44972994013E+02 -0.64342754260E+01  0.22541056307E+02  0.50715572660E+02  0.00000000000E+00 0.  1.
         11    1    1    2    0    0  0.10113458984E+03  0.14153754190E+02  0.27309216204E+03  0.29156107935E+03  0.00000000000E+00 0. -1.
</event>
<event>
 7    1  0.2714042E-009  0.1131934E+03  0.7561462E-02  0.1254768E+00
          1   -1    0    0  501    0  0.00000000000E+00  0.00000000000E+00  0.47090271759E+02  0.47090271759E+02  0.00000000000E+00 0. -1.
         -1   -1    0    0    0  501 -0.00000000000E+00 -0.00000000000E+00 -0.30113120036E+03  0.30113120036E+03  0.00000000000E+00 0.  1.
         25    2    1    2    0    0  0.47832490801E+02 -0.51870802920E+02 -0.13799259789E+03  0.19916740706E+03  0.12508865493E+03 0.  0.
          5    1    3    3  502    0  0.43559092951E+02 -0.92368200012E+02 -0.91048847842E+02  0.13688186164E+03  0.41800000000E+01 0.  1.
         -5    1    3    3    0  502  0.42733978501E+01  0.40497397092E+02 -0.46943750049E+02  0.62285545426E+02  0.41800000000E+01 0.  1.
        -11    1    1    2    0    0 -0.33722476999E+02  0.47527081392E+01 -0.83222092882E+02  0.89920578475E+02  0.00000000000E+00 0.  1.
         11    1    1    2    0    0 -0.14110013802E+02  0.47118094781E+02 -0.32826237832E+02  0.59133486583E+02  0.00000000000E+00 0. -1.
</event>
<event>
 7    1  0.2714042E-009  0.1784119E+03  0.7561462E-02  0.1169349E+00
         -2   -1    0    0    0  501 -0.00000000000E+00  0.00000000000E+00  0.60165298723E+02  0.60165298723E+02  0.00000000000E+00 0.  1.
          2   -1    0    0  501    0  0.00000000000E+00 -0.00000000000E+00 -0.72895924270E+03  0.72895924270E+03  0.00000000000E+00 0. -1.
         25    2    1    2    0    0  0.15358550012E+03 -0.52696669370E+02 -0.20727757224E+03  0.29150871831E+03  0.12509155082E+03 0.  0.
          5    1    3    3  502    0  0.70479741961E+02 -0.70308292639E+02 -0.47235141402E+02  0.11026912997E+03  0.41800000000E+01 0. -1.
         -5    1    3    3    0  502  0.83105758160E+02  0.17611623269E+02 -0.16004243084E+03  0.18123958834E+03  0.41800000000E+01 0. -1.
        -11    1    1    2    0    0 -0.71677653125E+01  0.21177718942E+02 -0.15715198224E+02  0.27328375260E+02  0.00000000000E+00 0.  1.
         11    1    1    2    0    0 -0.14641773481E+03  0.31518950428E+02 -0.44580117351E+03  0.47028744785E+03  0.00000000000E+00 0. -1.
</event>
<event>
 7    1  0.2714042E-009  0.1342019E+03  0.7561462E-02  0.1221351E+00
          1   -1    0    0  501    0  0.00000000000E+00  0.00000000000E+00  0.49557161532E+03  0.49557161532E+03  0.00000000000E+00 0. -1.
         -1   -1    0    0    0  501 -0.00000000000E+00 -0.00000000000E+00 -0.45016095555E+02  0.45016095555E+02  0.00000000000E+00 0.  1.
         25    2    1    2    0    0 -0.94661657816E+02 -0.41303932752E+02  0.23121020229E+03  0.28244132499E+03  0.12509236625E+03 0.  0.
          5    1    3    3  502    0 -0.17789773282E+02 -0.70888837465E+02  0.69642718729E+02  0.10104100149E+03  0.41800000000E+01 0.  1.
         -5    1    3    3    0  502 -0.76871884535E+02  0.29584904713E+02  0.16156748356E+03  0.18140032349E+03  0.41800000000E+01 0.  1.
        -11    1    1    2    0    0  0.61616795251E+02  0.23785578992E+01  0.18887445561E+03  0.19868529633E+03  0.00000000000E+00 0. -1.
         11    1    1    2    0    0  0.33044862565E+02  0.38925374853E+02  0.30470861865E+02  0.59461089564E+02  0.00000000000E+00 0.  1.
</event>
<event>
 7    1  0.2714042E-009  0.9390063E+02  0.7561462E-02  0.1293672E+00
          1   -1    0    0  501    0  0.00000000000E+00  0.00000000000E+00  0.92338819003E+02  0.92338819003E+02  0.00000000000E+00 0. -1.
         -1   -1    0    0    0  501 -0.00000000000E+00 -0.00000000000E+00 -0.38290358299E+03  0.38290358299E+03  0.00000000000E+00 0.  1.
         25    2    1    2    0    0  0.44698607051E+02 -0.38910023240E+02 -0.33048300587E+03  0.35830048847E+03  0.12509303533E+03 0.  0.
          5    1    3    3  502    0  0.12876175819E+02  0.38413056631E+02 -0.19365763391E+03  0.19789418989E+03  0.41800000000E+01 0. -1.
         -5    1    3    3    0  502  0.31822431232E+02 -0.77323079871E+02 -0.13682537196E+03  0.16040629857E+03  0.41800000000E+01 0. -1.
        -11    1    1    2    0    0 -0.10287576724E+02  0.23491407653E+02  0.66190199627E+02  0.70984667323E+02  0.00000000000E+00 0. -1.
         11    1    1    2    0    0 -0.34411030327E+02  0.15418615587E+02 -0.26271957751E+02  0.45957246206E+02  0.00000000000E+00 0.  1.
</event>
<event>
 7    1  0.2714042E-009  0.1454611E+03  0.7561462E-02  0.1206164E+00
          1   -1    0    0  501    0  0.00000000000E+00  0.00000000000E+00  0.52960780752E+02  0.52960780752E+02  0.00000000000E+00 0. -1.
         -1   -1    0    0    0  501 -0.00000000000E+00 -0.00000000000E+00 -0.69754792090E+03  0.69754792090E+03  0.00000000000E+00 0.  1.
         25    2    1    2    0    0  0.99487601706E+02 -0.83065815353E+02 -0.16109442984E+03  0.24165124992E+03  0.12508476601E+03 0.  0.
          5    1    3    3  502    0  0.73320780066E+01 -0.26839205806E+02  0.17347676890E+02  0.33053239322E+02  0.41800000000E+01 0.  1.
         -5    1    3    3    0  502  0.92155523700E+02 -0.56226609547E+02 -0.17844210673E+03  0.20859801060E+03  0.41800000000E+01 0.  1.
        -11    1    1    2    0    0 -0.81411027920E+02  0.13061899096E+02 -0.20088058576E+03  0.21714368149E+03  0.00000000000E+00 0. -1.
         11    1    1    2    0    0 -0.18076573786E+02  0.70003916258E+02 -0.28261212455E+03  0.29171377025E+03  0.00000000000E+00 0.  1.
</event>
<event>
 7    1  0.2714042E-009  0.8091992E+02  0.7561462E-02  0.1326461E+00
          1   -1    0    0  501    0  0.00000000000E+00  0.00000000000E+00  0.10694397350E+03  0.10694397350E+03  0.00000000000E+00 0. -1.
         -1   -1    0    0    0  501 -0.00000000000E+00 -0.00000000000E+00 -0.13295999401E+03  0.13295999401E+03  0.00000000000E+00 0.  1.
         25    2    1    2    0    0  0.29405811014E+02 -0.31308513655E+02 -0.40417330866E+02  0.13829486959E+03  0.12508791138E+03 0.  0.
          5    1    3    3  502    0  0.16568583380E+02 -0.42768822635E+02 -0.81469174447E+02  0.93586264643E+02  0.41800000000E+01 0. -1.
         -5    1    3    3    0  502  0.12837227634E+02  0.11460308980E+02  0.41051843581E+02  0.44708604951E+02  0.41800000000E+01 0. -1.
        -11    1    1    2    0    0 -0.61171094822E+02  0.20039701362E+02 -0.13975510593E+01  0.64385135096E+02  0.00000000000E+00 0.  1.
         11    1    1    2    0    0  0.31765283808E+02  0.11268812294E+02  0.15798861409E+02  0.37223962816E+02  0.00000000000E+00 0. -1.
</event>
<event>
 7    1  0.2714042E-009  0.8870011E+02  0.7561462E-02  0.1306030E+00
          2   -1    0    0  501    0  0.00000000000E+00  0.00000000000E+00  0.40608395105E+03  0.40608395105E+03  0.00000000000E+00 0. -1.
         -2   -1    0    0    0  501 -0.00000000000E+00 -0.00000000000E+00 -0.50626993773E+02  0.50626993773E+02  0.00000000000E+00 0.  1.
         25    2    1    2    0    0  0.41857697789E+02  0.30925566663E+02  0.31445751120E+03  0.34240255467E+03  0.12509006978E+03 0.  0.
          5    1    3    3  502    0  0.75447167542E+02  0.23714887802E+02  0.28841404101E+03  0.29908995711E+03  0.41800000000E+01 0.  1.
         -5    1    3    3    0  502 -0.33589469753E+02  0.72106788614E+01  0.26043470195E+02  0.43312597564E+02  0.41800000000E+01 0.  1.
        -11    1    1    2    0    0 -0.13244791141E+02 -0.32340349207E+02  0.67034723153E+02  0.75597465482E+02  0.00000000000E+00 0. -1.
         11    1    1    2    0    0 -0.28612906648E+02  0.14147825439E+01 -0.26035277074E+02  0.38710924671E+02  0.00000000000E+00 0.  1.
</event>
<event>
 7    1  0.2714042E-009  0.3030447E+03  0.7561462E-02  0.1083728E+00
         -2   -1    0    0    0  501 -0.00000000000E+00  0.00000000000E+00  0.11071892170E+03  0.11071892170E+03  0.00000000000E+00 0.  1.
          2   -1    0    0  501    0  0.00000000000E+00 -0.00000000000E+00 -0.94735060453E+03  0.94735060453E+03  0.00000000000E+00 0. -1.
         25    2    1    2    0    0 -0.15205849207E+03  0.23891508803E+03 -0.61123009886E+03  0.68516531939E+03  0.12508827621E+03 0.  0.
          5    1    3    3  502    0 -0.92536120277E+02  0.23093625509E+03 -0.47492883236E+03  0.53616168800E+03  0.41800000000E+01 0. -1.
         -5    1    3    3    0  502 -0.59522371791E+02  0.79788329395E+01 -0.13630126650E+03  0.14900363139E+03  0.41800000000E+01 0. -1.
        -11    1    1    2    0    0  0.14832832453E+03 -0.16042291213E+03 -0.16497415817E+03  0.27377595851E+03  0.00000000000E+00 0. -1.
         11    1    1    2    0    0  0.37301675342E+01 -0.78492175902E+02 -0.60427425801E+02  0.99128248328E+02  0.00000000000E+00 0.  1.
</event>
<event>
 7    1  0.2714042E-009  0.1257338E+03  0.7561462E-02  0.1233927E+00
          1   -1    0    0  501    0  0.00000000000E+00  0.00000000000E+00  0.82534410213E+03  0.82534410213E+03  0.00000000000E+00 0. -1.
         -1   -1    0    0    0  501 -0.00000000000E+00 -0.00000000000E+00 -0.24031062004E+02  0.24031062004E+02  0.00000000000E+00 0.  1.
         25    2    1    2    0    0 -0.42484511520E+01  0.87217568887E+02  0.49071111947E+03  0.51387744854E+03  0.12509066989E+03 0.  0.
          5    1    3    3  502    0  0.24710594659E+02 -0.22845217694E+02  0.66530192037E+02  0.74674335032E+02  0.41800000000E+01 0. -1.
         -5    1    3    3    0  502 -0.28959045811E+02  0.11006278658E+03  0.42418092743E+03  0.43920311351E+03  0.41800000000E+01 0. -1.
        -11    1    1    2    0    0  0.22402774118E+02 -0.81670849288E+02  0.30372001987E+03  0.31530598215E+03  0.00000000000E+00 0. -1.
         11    1    1    2    0    0 -0.18154322966E+02 -0.55467195994E+01  0.68819007859E+01  0.20191733434E+02  0.00000000000E+00 0.  1.
</event>
<event>
 7    1  0.2714042E-009  0.1181717E+03  0.7561462E-02  0.1246144E+00
         -2   -1    0    0    0  501 -0.00000000000E+00  0.00000000000E+00  0.26919581272E+02  0.26919581272E+02  0.00000000000E+00 0. -1.
          2   -1    0    0  501    0  0.00000000000E+00 -0.00000000000E+00 -0.65195789306E+03  0.65195789306E+03  0.00000000000E+00 0.  1.
         25    2    1    2    0    0  0.35494945146E+02  0.54388309755E+02 -0.44518108956E+03  0.46696111248E+03  0.12509395950E+03 0.  0.
          5    1    3    3  502    0 -0.22762113476E+02  0.64205461324E+02 -0.33489154678E+03  0.34177518281E+03  0.41800000000E+01 0. -1.
         -5    1    3    3    0  502  0.58257058622E+02 -0.98171515698E+01 -0.11028954277E+03  0.12518592968E+03  0.41800000000E+01 0. -1.
        -11    1    1    2    0    0  0.25046298204E+02 -0.39087177416E+02 -0.52547823470E+02  0.70117032478E+02  0.00000000000E+00 0.  1.
         11    1    1    2    0    0 -0.60541243350E+02 -0.15301132339E+02 -0.12730939876E+03  0.14179932937E+03  0.00000000000E+00 0. -1.
</event>
<event>
 7    1  0.2714042E-009  0.1706887E+03  0.7561462E-02  0.1177132E+00
          1   -1    0    0  501    0  0.00000000000E+00  0.00000000000E+00  0.25734801082E+03  0.25734801082E+03  0.00000000000E+00 0. -1.
         -1   -1    0    0    0  501 -0.00000000000E+00 -0.00000000000E+00 -0.25568768129E+03  0.25568768129E+03  0.00000000000E+00 0.  1.
         25    2    1    2    0    0  0.49677765999E+02 -0.14305599211E+03 -0.17500354220E+03  0.26307201096E+03  0.12509095033E+03 0.  0.
          5    1    3    3  502    0  0.38965971947E+02 -0.77506966324E+01  0.19780120863E+01  0.39997564924E+02  0.41800000000E+01 0.  1.
         -5    1    3    3    0  502  0.10711794053E+02 -0.13530529547E+03 -0.17698155429E+03  0.22307444603E+03  0.41800000000E+01 0. -1.
        -11    1    1    2    0    0 -0.13549039074E+02  0.12409734212E+03  0.89130558072E+02  0.15338834103E+03  0.00000000000E+00 0.  1.
         11    1    1    2    0    0 -0.36128726925E+02  0.18958649983E+02  0.87533313664E+02  0.96575340120E+02  0.00000000000E+00 0. -1.
</event>
<event>
 7    1  0.2714042E-009  0.1066556E+03  0.7561462E-02  0.1266892E+00
         -2   -1    0    0    0  501 -0.00000000000E+00  0.00000000000E+00  0.46860076233E+02  0.46860076233E+02  0.00000000000E+00 0.  1.
          2   -1    0    0  501    0  0.00000000000E+00 -0.00000000000E+00 -0.44361285685E+03  0.44361285685E+03  0.00000000000E+00 0. -1.
         25    2    1    2    0    0 -0.90281433409E+02  0.50041945335E+02 -0.25827240864E+03  0.30497081879E+03  0.12509048619E+03 0.  0.
          5    1    3    3  502    0 -0.43157508745E+02  0.31923931353E+01 -0.57942992449E+01  0.43861238454E+02  0.41800000000E+01 0.  1.
         -5    1    3    3    0  502 -0.47123924665E+02  0.46849552200E+02 -0.25247810940E+03  0.26110958033E+03  0.41800000000E+01 0.  1.
        -11    1    1    2    0    0  0.27607106783E+02 -0.13984958833E+02 -0.97709770201E+02  0.10249356376E+03  0.00000000000E+00 0. -1.
         11    1    1    2    0    0  0.62674326626E+02 -0.36056986503E+02 -0.40770601773E+02  0.83008550539E+02  0.00000000000E+00 0.  1.
</event>
<event>
 7    1  0.2714042E-009  0.1466367E+03  0.7561462E-02  0.1204668E+00
         -2   -1    0    0    0  501 -0.00000000000E+00  0.00000000000E+00  0.43142848007E+02  0.43142848007E+02  0.00000000000E+00 0. -1.
          2   -1    0    0  501    0  0.00000000000E+00 -0.00000000000E+00 -0.64530922556E+03  0.64530922556E+03  0.00000000000E+00 0.  1.
         25    2    1    2    0    0  0.64549107135E+02  0.10618495861E+03 -0.28674340163E+03  0.33661522835E+03  0.12508477491E+03 0.  0.
          5    1    3    3  502    0 -0.15001649955E+02  0.24738932236E+02 -0.17362691783E+03  0.17607056331E+03  0.41800000000E+01 0.  1.
         -5    1    3    3    0  502  0.79550757090E+02  0.81446026372E+02 -0.11311648380E+03  0.16054466504E+03  0.41800000000E+01 0.  1.
        -11    1    1    2    0    0  0.17829756900E+02 -0.42178983251E+02 -0.14460373337E+03  0.15168126636E+03  0.00000000000E+00 0. -1.
         11    1    1    2    0    0 -0.82378864035E+02 -0.64005975357E+02 -0.17081924255E+03  0.20015557885E+03  0.00000000000E+00 0.  1.
</event>
<event>
 7    1  0.2714042E-009  0.1314306E+03  0.7561462E-02  0.1225348E+00
         -1   -1    0    0    0  501 -0.00000000000E+00  0.00000000000E+00  0.24555408029E+03  0.24555408029E+03  0.00000000000E+00 0.  1.
          1   -1    0    0  501    0  0.00000000000E+00 -0.00000000000E+00 -0.88828721397E+02  0.88828721397E+02  0.00000000000E+00 0. -1.
         25    2    1    2    0    0  0.74900704616E+02  0.42427805364E+02  0.27345409051E+02  0.15429665864E+03  0.12509777476E+03 0.  0.
          5    1    3    3  502    0  0.95610979307E+02 -0.10202052622E+01  0.40957056798E+02  0.10410308874E+03  0.41800000000E+01 0. -1.
         -5    1    3    3    0  502 -0.20710274691E+02  0.43448010627E+02 -0.13611647747E+02  0.50193569903E+02  0.41800000000E+01 0. -1.
        -11    1    1    2    0    0 -0.69251738781E+02  0.65292800188E+01  0.10271855925E+03  0.12405457362E+03  0.00000000000E+00 0. -1.
         11    1    1    2    0    0 -0.56489658342E+01 -0.48957085383E+02  0.26661390595E+02  0.56031569429E+02  0.00000000000E+00 0.  1.
</event>
<event>
 7    1  0.2714042E-009  0.1114855E+03  0.7561462E-02  0.1257843E+00
          2   -1    0    0  501    0  0.00000000000E+00  0.00000000000E+00  0.98397970831E+03  0.98397970831E+03  0.00000000000E+00 0. -1.
         -2   -1    0    0    0  501 -0.00000000000E+00 -0.00000000000E+00 -0.12784797649E+02  0.12784797649E+02  0.00000000000E+00 0.  1.
         25    2    1    2    0    0  0.29287215718E+02  0.10394304552E+02  0.51367396074E+03  0.52959933709E+03  0.12509491330E+03 0.  0.
          5    1    3    3  502    0 -0.48465882447E+02  0.14828414321E+02  0.19556685116E+03  0.20207100065E+03  0.41800000000E+01 0.  1.
         -5    1    3    3    0  502  0.77753098164E+02 -0.44341097697E+01  0.31810710958E+03  0.32752833644E+03  0.41800000000E+01 0.  1.
        -11    1    1    2    0    0  0.31067607694E+02  0.58670855515E+01  0.13628769085E+03  0.13990694628E+03  0.00000000000E+00 0.  1.
         11    1    1    2    0    0 -0.60354823412E+02 -0.16261390103E+02  0.32123325907E+03  0.32725822259E+03  0.00000000000E+00 0. -1.
</event>
<event>
 7    1  0.2714042E-009  0.1097291E+03  0.7561462E-02  0.1261072E+00
          2   -1    0    0  501    0  0.00000000000E+00  0.00000000000E+00  0.42255501358E+02  0.42255501358E+02  0.00000000000E+00 0. -1.
         -2   -1    0    0    0  501 -0.00000000000E+00 -0.00000000000E+00 -0.76278084493E+03  0.76278084493E+03  0.00000000000E+00 0.  1.
         25    2    1    2    0    0  0.73492413535E+02 -0.13736473381E+02 -0.65260330756E+03  0.66867635239E+03  0.12508861526E+03 0.  0.
          5    1    3    3  502    0  0.89235200979E+02  0.11078972733E+02 -0.26368354693E+03  0.27862546554E+03  0.41800000000E+01 0. -1.
         -5    1    3    3    0  502 -0.15742787444E+02 -0.24815446114E+02 -0.38891976063E+03  0.39005088685E+03  0.41800000000E+01 0. -1.
        -11    1    1    2    0    0 -0.85726011831E+02  0.75761166931E+01 -0.22549829734E+02  0.88965394787E+02  0.00000000000E+00 0. -1.
         11    1    1    2    0    0  0.12233598296E+02  0.61603566881E+01 -0.45372206285E+02  0.47394599112E+02  0.00000000000E+00 0.  1.
</event>
<event>
 7    1  0.2714042E-009  0.1541182E+03  0.7561462E-02  0.1195502E+00
         -2   -1    0    0    0  501 -0.00000000000E+00  0.00000000000E+00  0.50130917845E+03  0.50130917845E+03  0.00000000000E+00 0.  1.
          2   -1    0    0  501    0  0.00000000000E+00 -0.00000000000E+00 -0.54188043975E+02  0.54188043975E+02  0.00000000000E+00 0. -1.
         25    2    1    2    0    0  0.11823243446E+03  0.14716044623E+02  0.28945919206E+03  0.33709402649E+03  0.12510111231E+03 0.  0.
          5    1    3    3  502    0  0.79457819727E+02  0.66354285353E+02  0.13946630785E+03  0.17373761748E+03  0.41800000000E+01 0. -1.
         -5    1    3    3    0  502  0.38774614733E+02 -0.51638240730E+02  0.14999288420E+03  0.16335640901E+03  0.41800000000E+01 0. -1.
        -11    1    1    2    0    0  0.10190760722E+02 -0.43500645742E+01  0.47845166623E+02  0.49111451160E+02  0.00000000000E+00 0.  1.
         11    1    1    2    0    0 -0.12842319518E+03 -0.10365980049E+02  0.10981677580E+03  0.16929174478E+03  0.00000000000E+00 0. -1.
</event>
<event>
 7    1  0.2714042E-009  0.1477707E+03  0.7561462E-02  0.1203239E+00
          1   -1    0    0  501    0  0.00000000000E+00  0.00000000000E+00  0.68755913211E+02  0.68755913211E+02  0.00000000000E+00 0. -1.
         -1   -1    0    0    0  501 -0.00000000000E+00 -0.00000000000E+00 -0.44162318837E+03  0.44162318837E+03  0.00000000000E+00 0.  1.
         25    2    1    2    0    0  0.64919422893E+02  0.10128999811E+03 -0.29116703838E+03  0.33896984108E+03  0.12509242077E+03 0.  0.
          5    1    3    3  502    0  0.74584867756E+02  0.12612087097E+03 -0.24654718897E+03  0.28683159760E+03  0.41800000000E+01 0.  1.
         -5    1    3    3    0  502 -0.96654448633E+01 -0.24830872860E+02 -0.44619849408E+02  0.52138243474E+02  0.41800000000E+01 0.  1.
        -11    1    1    2    0    0 -0.35956259049E+02 -0.37629779623E+02 -0.86881881045E+02  0.10127839914E+03  0.00000000000E+00 0.  1.
         11    1    1    2    0    0 -0.28963163843E+02 -0.63660218491E+02  0.51816442626E+01  0.70130861362E+02  0.00000000000E+00 0. -1.
</event>
<event>
 7    1  0.2714042E-009  0.1429973E+03  0.7561462E-02  0.1209352E+00
          1   -1    0    0  501    0  0.00000000000E+00  0.00000000000E+00  0.49436891504E+02  0.49436891504E+02  0.00000000000E+00 0. -1.
         -1   -1    0    0    0  501 -0.00000000000E+00 -0.00000000000E+00 -0.44931858271E+03  0.44931858271E+03  0.00000000000E+00 0.  1.
         25    2    1    2    0    0  0.83700119515E+02 -0.49049107800E+02 -0.26873257178E+03  0.31189111334E+03  0.12508935391E+03 0.  0.
          5    1    3    3  502    0  0.36501571578E+02  0.41881262032E+02 -0.98457076840E+02  0.11312680150E+03  0.41800000000E+01 0.  1.
         -5    1    3    3    0  502  0.47198547937E+02 -0.90930369832E+02 -0.17027549494E+03  0.19876431184E+03  0.41800000000E+01 0.  1.
        -11    1    1    2    0    0 -0.43627420293E+02 -0.19936453584E+02 -0.25040739437E+02  0.54109635136E+02  0.00000000000E+00 0. -1.
         11    1    1    2    0    0 -0.40072699221E+02  0.68985561384E+02 -0.10610837999E+03  0.13275472574E+03  0.00000000000E+00 0.  1.
</event>
<event>
 7    1  0.2714042E-009  0.1371472E+03  0.7561462E-02  0.1217220E+00
          1   -1    0    0  501    0  0.00000000000E+00  0.00000000000E+00  0.20622754770E+03  0.20622754770E+03  0.00000000000E+00 0. -1.
         -1   -1    0    0    0  501 -0.00000000000E+00 -0.00000000000E+00 -0.11607717105E+03  0.11607717105E+03  0.00000000000E+00 0.  1.
         25    2    1    2    0    0  0.99377666848E+02  0.40824354118E+02  0.36740630144E+02  0.16893712709E+03  0.12508928991E+03 0.  0.
          5    1    3    3  502    0  0.85885231972E+02  0.74141662068E+02  0.57447629792E+02  0.12724370984E+03  0.41800000000E+01 0.  1.
         -5    1    3    3    0  502  0.13492434876E+02 -0.33317307950E+02 -0.20706999648E+02  0.41693417254E+02  0.41800000000E+01 0.  1.
        -11    1    1    2    0    0  0.10996325978E+01  0.11315759241E+02  0.37340061798E+02  0.39032496899E+02  0.00000000000E+00 0. -1.
         11    1    1    2    0    0 -0.10047729945E+03 -0.52140113359E+02  0.16069684705E+02  0.11433509475E+03  0.00000000000E+00 0.  1.
</event>
<event>
 7    1  0.2714042E-009  0.2984610E+03  0.7561462E-02  0.1086012E+00
         -2   -1    0    0    0  501 -0.00000000000E+00  0.00000000000E+00  0.26761953693E+03  0.26761953693E+03  0.00000000000E+00 0.  1.
          2   -1    0    0  501    0  0.00000000000E+00 -0.00000000000E+00 -0.43306375000E+03  0.43306375000E+03  0.00000000000E+00 0. -1.
         25    2    1    2    0    0 -0.13889670616E+03  0.24752639289E+03  0.73639063282E+02  0.31879731484E+03  0.12508959249E+03 0.  0.
          5    1    3    3  502    0 -0.56773103699E+02  0.11954839969E+02 -0.15955885095E+01  0.58190392721E+02  0.41800000000E+01 0.  1.
         -5    1    3    3    0  502 -0.82123602456E+02  0.23557155292E+03  0.75234651791E+02  0.26060692212E+03  0.41800000000E+01 0.  1.
        -11    1    1    2    0    0  0.66654545993E+02 -0.17324332927E+03 -0.10786476517E+03  0.21468788322E+03  0.00000000000E+00 0.  1.
         11    1    1    2    0    0  0.72242160162E+02 -0.74283063620E+02 -0.13121851117E+03  0.16719808886E+03  0.00000000000E+00 0. -1.
</event>
<event>
 7    1  0.2714042E-009  0.1235958E+03  0.7561462E-02  0.1237280E+00
         -2   -1    0    0    0  501 -0.00000000000E+00  0.00000000000E+00  0.10213234832E+03  0.10213234832E+03  0.00000000000E+00 0.  1.
          2   -1    0    0  501    0  0.00000000000E+00 -0.00000000000E+00 -0.26737182115E+03  0.26737182115E+03  0.00000000000E+00 0. -1.
         25    2    1    2    0    0  0.81794362692E+02 -0.23725361135E+02 -0.18727745317E+03  0.24077650571E+03  0.12508905111E+03 0.  0.
          5    1    3    3  502    0  0.10819187222E+03 -0.13355436024E+02 -0.18114719915E+03  0.21146070331E+03  0.41800000000E+01 0.  1.
         -5    1    3    3    0  502 -0.26397509524E+02 -0.10369925110E+02 -0.61302540171E+01  0.29315802397E+02  0.41800000000E+01 0.  1.
        -11    1    1    2    0    0 -0.33881813338E+02 -0.24220504635E+02  0.40896836928E+02  0.58370895064E+02  0.00000000000E+00 0.  1.
         11    1    1    2    0    0 -0.47912549355E+02  0.47945865769E+02 -0.18858856586E+02  0.70356768699E+02  0.00000000000E+00 0. -1.
</event>
<event>
 7    1  0.2714042E-009  0.1185850E+03  0.7561462E-02  0.1245450E+00
          3   -1    0    0  501    0  0.00000000000E+00  0.00000000000E+00  0.12992308921E+03  0.12992308921E+03  0.00000000000E+00 0. -1.
         -3   -1    0    0    0  501 -0.00000000000E+00 -0.00000000000E+00 -0.17118269145E+03  0.17118269145E+03  0.00000000000E+00 0.  1.
         25    2    1    2    0    0  0.69220625309E+01 -0.10071674961E+03 -0.15821062491E+02  0.16152439096E+03  0.12509214305E+03 0.  0.
          5    1    3    3  502    0  0.13197838720E+02 -0.42251069767E+01  0.44962374534E+02  0.47234754149E+02  0.41800000000E+01 0. -1.
         -5    1    3    3    0  502 -0.62757761893E+01 -0.96491642634E+02 -0.60783437025E+02  0.11428963681E+03  0.41800000000E+01 0. -1.
        -11    1    1    2    0    0 -0.26442156419E+02  0.34060549840E+01  0.17021628304E+02  0.31631071381E+02  0.00000000000E+00 0. -1.
         11    1    1    2    0    0  0.19520093888E+02  0.97310694626E+02 -0.42460168060E+02  0.10795031832E+03  0.00000000000E+00 0.  1.
</event>
<event>
 7    1  0.2714042E-009  0.1270410E+03  0.7561462E-02  0.1231914E+00
         -3   -1    0    0    0  501 -0.00000000000E+00  0.00000000000E+00  0.55916846977E+03  0.55916846977E+03  0.00000000000E+00 0.  1.
          3   -1    0    0  501    0  0.00000000000E+00 -0.00000000000E+00 -0.69575339676E+02  0.69575339676E+02  0.00000000000E+00 0. -1.
         25    2    1    2    0    0 -0.12059842263E+02 -0.93687911931E+02  0.47094127873E+03  0.49634383059E+03  0.12509454632E+03 0.  0.
          5    1    3    3  502    0  0.37725591076E+02 -0.74907234665E+02  0.15844895460E+03  0.17932612091E+03  0.41800000000E+01 0. -1.
         -5    1    3    3    0  502 -0.49785433339E+02 -0.18780677267E+02  0.31249232413E+03  0.31701770968E+03  0.41800000000E+01 0. -1.
        -11    1    1    2    0    0 -0.28724111034E+02  0.42233077251E+02  0.38328245153E+02  0.63857354669E+02  0.00000000000E+00 0.  1.
         11    1    1    2    0    0  0.40783953297E+02  0.51454834681E+02 -0.19676393784E+02  0.68542624190E+02  0.00000000000E+00 0. -1.
</event>
<event>
 7    1  0.2714042E-009  0.6429816E+02  0.7561462E-02  0.1380631E+00
         -2   -1    0    0    0  501 -0.00000000000E+00  0.00000000000E+00  0.58560437192E+02  0.58560437192E+02  0.00000000000E+00 0.  1.
          2   -1    0    0  501    0  0.00000000000E+00 -0.00000000000E+00 -0.29338178375E+03  0.29338178375E+03  0.00000000000E+00 0. -1.
         25    2    1    2    0    0  0.26526748265E+02 -0.21370287574E+02 -0.22677841555E+03  0.26121978609E+03  0.12508784641E+03 0.  0.
          5    1    3    3  502    0  0.26100330400E+01  0.29362408827E+01 -0.22679191369E+03  0.22686444917E+03  0.41800000000E+01 0. -1.
         -5    1    3    3    0  502  0.23916715225E+02 -0.24306528456E+02  0.13498132219E-01  0.34355336921E+02  0.41800000000E+01 0. -1.
        -11    1    1    2    0    0 -0.34868299756E+01 -0.31049619641E+02 -0.11657470971E+02  0.33348665529E+02  0.00000000000E+00 0. -1.
         11    1    1    2    0    0 -0.23039918289E+02  0.52419907215E+02  0.36145399665E+01  0.57373769323E+02  0.00000000000E+00 0.  1.
</event>
<event>
 7    1  0.2714042E-009  0.1137704E+03  0.7561462E-02  0.1253743E+00
          1   -1    0    0  501    0  0.00000000000E+00  0.00000000000E+00  0.61242984891E+03  0.61242984891E+03  0.00000000000E+00 0. -1.
         -1   -1    0    0    0  501 -0.00000000000E+00 -0.00000000000E+00 -0.34074874497E+02  0.34074874497E+02  0.00000000000E+00 0.  1.
         25    2    1    2    0    0  0.47053942503E+02  0.34977834342E+02  0.14739996815E+03  0.20202602129E+03  0.12510092033E+03 0.  0.
          5    1    3    3  502    0  0.78823496318E+02 -0.77699488100E+01  0.11448554977E+03  0.13927644877E+03  0.41800000000E+01 0. -1.
         -5    1    3    3    0  502 -0.31769553816E+02  0.42747783152E+02  0.32914418382E+02  0.62749572520E+02  0.41800000000E+01 0. -1.
        -11    1    1    2    0    0 -0.23169203682E+01  0.22132961436E+02  0.31975929004E+02  0.38957619763E+02  0.00000000000E+00 0.  1.
         11    1    1    2    0    0 -0.44737022135E+02 -0.57110795778E+02  0.39897907725E+03  0.40552108235E+03  0.00000000000E+00 0. -1.
</event>
<event>
 7    1  0.2714042E-009  0.1134388E+03  0.7561462E-02  0.1254331E+00
         -1   -1    0    0    0  501 -0.00000000000E+00  0.00000000000E+00  0.11440986684E+02  0.11440986684E+02  0.00000000000E+00 0.  1.
          1   -1    0    0  501    0  0.00000000000E+00 -0.00000000000E+00 -0.11661604935E+04  0.11661604935E+04  0.00000000000E+00 0. -1.
         25    2    1    2    0    0  0.14037503711E+01 -0.40554961533E+02 -0.68883157445E+03  0.70127272871E+03  0.12509127329E+03 0.  0.
          5    1    3    3  502    0 -0.59752496451E+02 -0.34411851991E+02 -0.32476703487E+03  0.33203258233E+03  0.41800000000E+01 0.  1.
         -5    1    3    3    0  502  0.61156246822E+02 -0.61431095421E+01 -0.36406453957E+03  0.36924014637E+03  0.41800000000E+01 0.  1.
        -11    1    1    2    0    0 -0.34630644660E+02 -0.96840456705E+01 -0.12136100229E+03  0.12657628201E+03  0.00000000000E+00 0.  1.
         11    1    1    2    0    0  0.33226894289E+02  0.50239007204E+02 -0.34452693003E+03  0.34975246942E+03  0.00000000000E+00 0. -1.
</event>
<event>
 7    1  0.2714042E-009  0.1256098E+03  0.7561462E-02  0.1234119E+00
          1   -1    0    0  501    0  0.00000000000E+00  0.00000000000E+00  0.14344120319E+03  0.14344120319E+03  0.00000000000E+00 0. -1.
         -1   -1    0    0    0  501 -0.00000000000E+00 -0.00000000000E+00 -0.13658168018E+03  0.13658168018E+03  0.00000000000E+00 0.  1.
         25    2    1    2    0    0 -0.61078529262E+02  0.56580744412E+02  0.33836318905E+02  0.15402183705E+03  0.12508342190E+03 0.  0.
          5    1    3    3  502    0 -0.31920728455E+02  0.95310104484E+02  0.31053935476E+02  0.10528422593E+03  0.41800000000E+01 0.  1.
         -5    1    3    3    0  502 -0.29157800807E+02 -0.38729360072E+02  0.27823834297E+01  0.48737611113E+02  0.41800000000E+01 0.  1.
        -11    1    1    2    0    0  0.28237148872E+02  0.81381285143E+01  0.23475950853E+02  0.37612311556E+02  0.00000000000E+00 0. -1.
         11    1    1    2    0    0  0.32841380390E+02 -0.64718872927E+02 -0.50452746748E+02  0.88388734765E+02  0.00000000000E+00 0.  1.
</event>
<event>
 7    1  0.2714042E-009  0.1070087E+03  0.7561462E-02  0.1266212E+00
          2   -1    0    0  501    0  0.00000000000E+00  0.00000000000E+00  0.39529299247E+03  0.39529299247E+03  0.00000000000E+00 0.  1.
         -2   -1    0    0    0  501 -0.00000000000E+00 -0.00000000000E+00 -0.71810029301E+02  0.71810029301E+02  0.00000000000E+00 0. -1.
         25    2    1    2    0    0 -0.26791471396E+01 -0.73401991781E+02  0.26569563776E+02  0.14747636477E+03  0.12509319014E+03 0.  0.
          5    1    3    3  502    0  0.23774639975E+02 -0.94581169993E+02  0.46304646436E+02  0.10803899252E+03  0.41800000000E+01 0.  1.
         -5    1    3    3    0  502 -0.26453787115E+02  0.21179178212E+02 -0.19735082660E+02  0.39437372251E+02  0.41800000000E+01 0.  1.
        -11    1    1    2    0    0  0.18762926042E+02  0.25012773302E+02  0.17976557264E+02  0.36067198851E+02  0.00000000000E+00 0. -1.
         11    1    1    2    0    0 -0.16083778902E+02  0.48389218479E+02  0.27893684213E+03  0.28355945815E+03  0.00000000000E+00 0.  1.
</event>
<event>
 7    1  0.2714042E-009  0.1341285E+03  0.7561462E-02  0.1221455E+00
          2   -1    0    0  501    0  0.00000000000E+00  0.00000000000E+00  0.51891977836E+03  0.51891977836E+03  0.00000000000E+00 0. -1.
         -2   -1    0    0    0  501 -0.00000000000E+00 -0.00000000000E+00 -0.51769919683E+02  0.51769919683E+02  0.00000000000E+00 0.  1.
         25    2    1    2    0    0  0.28218246360E+01 -0.10129538117E+03  0.35638132970E+03  0.39105507293E+03  0.12509077089E+03 0.  0.
          5    1    3    3  502    0  0.26717527921E+02 -0.46351301110E+01  0.78238745950E+01  0.28530617642E+02  0.41800000000E+01 0.  1.
         -5    1    3    3    0  502 -0.23895703285E+02 -0.96660251058E+02  0.34855745510E+03  0.36252445528E+03  0.41800000000E+01 0.  1.
        -11    1    1    2    0    0  0.20211996884E+02 -0.13351965435E+02  0.15066036974E+02  0.28526921830E+02  0.00000000000E+00 0. -1.
         11    1    1    2    0    0 -0.23033821520E+02  0.11464734660E+03  0.95702492007E+02  0.15110770329E+03  0.00000000000E+00 0.  1.
</event>
<event>
 7    1  0.2714042E-009  0.1103161E+03  0.7561462E-02  0.1259986E+00
          1   -1    0    0  501    0  0.00000000000E+00  0.00000000000E+00  0.95285594183E+03  0.95285594183E+03  0.00000000000E+00 0. -1.
         -1   -1    0    0    0  501 -0.00000000000E+00 -0.00000000000E+00 -0.13579359381E+02  0.13579359381E+02  0.00000000000E+00 0.  1.
         25    2    1    2    0    0  0.27193069016E+02  0.38319121415E+01  0.45384010623E+03  0.47156412041E+03  0.12509089128E+03 0.  0.
          5    1    3    3  502    0 -0.20253259628E+02  0.52780953192E+02  0.25806304924E+03  0.26421588394E+03  0.41800000000E+01 0. -1.
         -5    1    3    3    0  502  0.47446328644E+02 -0.48949041051E+02  0.19577705699E+03  0.20734823647E+03  0.41800000000E+01 0. -1.
        -11    1    1    2    0    0 -0.69079531551E+01 -0.47234714416E+02  0.21646952727E+03  0.22167068886E+03  0.00000000000E+00 0. -1.
         11    1    1    2    0    0 -0.20285115861E+02  0.43402802275E+02  0.26896694895E+03  0.27320049194E+03  0.00000000000E+00 0.  1.
</event>
<event>
 7    1  0.2714042E-009  0.1232839E+03  0.7561462E-02  0.1237776E+00
          2   -1    0    0  501    0  0.00000000000E+00  0.00000000000E+00  0.90473578597E+03  0.90473578597E+03  0.00000000000E+00 0. -1.
         -2   -1    0    0    0  501 -0.00000000000E+00 -0.00000000000E+00 -0.22548211032E+02  0.22548211032E+02  0.00000000000E+00 0.  1.
         25    2    1    2    0    0  0.61124669173E+02  0.68300140691E+02  0.50465537586E+03  0.52794469176E+03  0.12508962698E+03 0.  0.
          5    1    3    3  502    0 -0.21756786768E+02 -0.22683075209E+02  0.92321195734E+02  0.97614318894E+02  0.41800000000E+01 0. -1.
         -5    1    3    3    0  502  0.82881455941E+02  0.90983215900E+02  0.41233418012E+03  0.43033037287E+03  0.41800000000E+01 0. -1.
        -11    1    1    2    0    0 -0.38887441456E+02 -0.45766449059E+02  0.35605204563E+03  0.36108151456E+03  0.00000000000E+00 0. -1.
         11    1    1    2    0    0 -0.22237227716E+02 -0.22533691632E+02  0.21480153445E+02  0.38257790672E+02  0.00000000000E+00 0.  1.
</event>
<event>
 7    1  0.2714042E-009  0.2261858E+03  0.7561462E-02  0.1129354E+00
          1   -1    0    0  501    0  0.00000000000E+00  0.00000000000E+00  0.61646040428E+03  0.61646040428E+03  0.00000000000E+00 0. -1.
         -1   -1    0    0    0  501 -0.00000000000E+00 -0.00000000000E+00 -0.88042820575E+02  0.88042820575E+02  0.00000000000E+00 0.  1.
         25    2    1    2    0    0 -0.18389521984E+03 -0.81007745557E+02  0.34056794484E+03  0.41474619983E+03  0.12509267965E+03 0.  0.
          5    1    3    3  502    0 -0.35335487404E+02  0.29978415025E+02  0.10554196195E+03  0.11534244739E+03  0.41800000000E+01 0.  1.
         -5    1    3    3    0  502 -0.14855973244E+03 -0.11098616058E+03  0.23502598289E+03  0.29940375244E+03  0.41800000000E+01 0.  1.
        -11    1    1    2    0    0  0.16037786178E+03  0.10096585559E+03  0.15652134948E+03  0.24579278954E+03  0.00000000000E+00 0. -1.
         11    1    1    2    0    0  0.23517358059E+02 -0.19958110034E+02  0.31328289383E+02  0.43964235486E+02  0.00000000000E+00 0.  1.
</event>
<event>
 7    1  0.2714042E-009  0.1997886E+03  0.7561462E-02  0.1149917E+00
          3   -1    0    0  501    0  0.00000000000E+00  0.00000000000E+00  0.10167415248E+03  0.10167415248E+03  0.00000000000E+00 0. -1.
         -3   -1    0    0    0  501 -0.00000000000E+00 -0.00000000000E+00 -0.73995644490E+03  0.73995644490E+03  0.00000000000E+00 0.  1.
         25    2    1    2    0    0 -0.18151413548E+03 -0.55634724808E+02 -0.73548745002E+02  0.23895707938E+03  0.12509382043E+03 0.  0.
          5    1    3    3  502    0 -0.63327640959E+02 -0.64518652945E+02  0.13960846484E+02  0.91571962531E+02  0.41800000000E+01 0.  1.
         -5    1    3    3    0  502 -0.11818649452E+03  0.88839281367E+01 -0.87509591486E+02  0.14738511685E+03  0.41800000000E+01 0.  1.
        -11    1    1    2    0    0  0.55352221602E+02  0.24519888969E+02 -0.77124336358E+02  0.98047216432E+02  0.00000000000E+00 0. -1.
         11    1    1    2    0    0  0.12616191388E+03  0.31114835839E+02 -0.48760921106E+03  0.50462630157E+03  0.00000000000E+00 0.  1.
</event>
<event>
 7    1  0.2753055E-009  0.1377041E+03  0.7561462E-02  0.1216452E+00
          3   -1    0    0  501    0  0.00000000000E+00  0.00000000000E+00  0.34644386096E+02  0.34644386096E+02  0.00000000000E+00 0. -1.
         -3   -1    0    0    0  501 -0.00000000000E+00 -0.00000000000E+00 -0.90641319714E+03  0.90641319714E+03  0.00000000000E+00 0.  1.
         25    2    1    2    0    0 -0.10436894023E+03  0.85758318672E+02 -0.36695561173E+03  0.41054979924E+03  0.12508937513E+03 0.  0.
          5    1    3    3  502    0 -0.96441055717E+02  0.70203767321E+02 -0.37298059962E+03  0.39161389948E+03  0.41800000000E+01 0. -1.
         -5    1    3    3    0  502 -0.79278845139E+01  0.15554551351E+02  0.60249878914E+01  0.18935899759E+02  0.41800000000E+01 0. -1.
        -11    1    1    2    0    0  0.63761562769E+02 -0.33845741978E+02 -0.40166990045E+03  0.40810510909E+03  0.00000000000E+00 0.  1.
         11    1    1    2    0    0  0.40607377461E+02 -0.51912576694E+02 -0.10314329886E+03  0.12240267490E+03  0.00000000000E+00 0. -1.
</event>
<event>
 7    1  0.2714042E-009  0.9671008E+02  0.7561462E-02  0.1287370E+00
          1   -1    0    0  501    0  0.00000000000E+00  0.00000000000E+00  0.35035063349E+03  0.35035063349E+03  0.00000000000E+00 0. -1.
         -1   -1    0    0    0  501 -0.00000000000E+00 -0.00000000000E+00 -0.45919011012E+02  0.45919011012E+02  0.00000000000E+00 0.  1.
         25    2    1    2    0    0 -0.56202977917E+02 -0.32516988349E+02  0.16698498849E+03  0.21851266064E+03  0.12509063602E+03 0.  0.
          5    1    3    3  502    0 -0.71599575887E+02 -0.26714738117E+02  0.32815894143E+02  0.83273836277E+02  0.41800000000E+01 0.  1.
         -5    1    3    3    0  502  0.15396597970E+02 -0.58022502322E+01  0.13416909435E+03  0.13523882436E+03  0.41800000000E+01 0.  1.
        -11    1    1    2    0    0  0.20115909082E+02  0.54197136870E+02  0.11796587086E+03  0.13136942616E+03  0.00000000000E+00 0. -1.
         11    1    1    2    0    0  0.36087068836E+02 -0.21680148521E+02  0.19480763124E+02  0.46387557696E+02  0.00000000000E+00 0.  1.
</event>
<event>
 7    1  0.2714042E-009  0.1693020E+03  0.7561462E-02  0.1178578E+00
         -3   -1    0    0    0  501 -0.00000000000E+00  0.00000000000E+00  0.79355696619E+02  0.79355696619E+02  0.00000000000E+00 0.  1.
          3   -1    0    0  501    0  0.00000000000E+00 -0.00000000000E+00 -0.37514815933E+03  0.37514815933E+03  0.00000000000E+00 0. -1.
         25    2    1    2    0    0  0.16664823695E+02  0.13578646563E+03 -0.15073658350E+03  0.23892434612E+03  0.12509054708E+03 0.  0.
          5    1    3    3  502    0  0.62045918088E+02  0.12333116489E+03 -0.11143138678E+03  0.17746745770E+03  0.41800000000E+01 0.  1.
         -5    1    3    3    0  502 -0.45381094393E+02  0.12455300735E+02 -0.39305196718E+02  0.61456888416E+02  0.41800000000E+01 0.  1.
        -11    1    1    2    0    0 -0.39961864291E+02 -0.48230780323E+02 -0.89703190135E+02  0.10940667753E+03  0.00000000000E+00 0. -1.
         11    1    1    2    0    0  0.23297040596E+02 -0.87555685303E+02 -0.55352689077E+02  0.10617283229E+03  0.00000000000E+00 0.  1.
</event>
<event>
 7    1  0.2714042E-009  0.1130718E+03  0.7561462E-02  0.1254985E+00
          4   -1    0    0  501    0  0.00000000000E+00  0.00000000000E+00  0.81801459786E+02  0.81801459786E+02  0.00000000000E+00 0. -1.
         -4   -1    0    0    0  501 -0.00000000000E+00 -0.00000000000E+00 -0.22187214708E+03  0.22187214708E+03  0.00000000000E+00 0.  1.
         25    2    1    2    0    0 -0.24381112309E+02 -0.74437740157E+02 -0.72626769987E+02  0.16448903434E+03  0.12508628583E+03 0.  0.
          5    1    3    3  502    0  0.37353014691E+02 -0.30444939111E+02 -0.74175146027E+02  0.88552621147E+02  0.41800000000E+01 0.  1.
         -5    1    3    3    0  502 -0.61734127000E+02 -0.43992801046E+02  0.15483760401E+01  0.75936413193E+02  0.41800000000E+01 0.  1.
        -11    1    1    2    0    0  0.19360814546E+02  0.86577812559E+02 -0.81126129005E+02  0.12021650292E+03  0.00000000000E+00 0.  1.
         11    1    1    2    0    0  0.50202977628E+01 -0.12140072402E+02  0.13682211697E+02  0.18968069603E+02  0.00000000000E+00 0. -1.
</event>
<event>
 7    1  0.2714042E-009  0.1036311E+03  0.7561462E-02  0.1272840E+00
          2   -1    0    0  501    0  0.00000000000E+00  0.00000000000E+00  0.10420339854E+03  0.10420339854E+03  0.00000000000E+00 0. -1.
         -2   -1    0    0    0  501 -0.00000000000E+00 -0.00000000000E+00 -0.12326312508E+03  0.12326312508E+03  0.00000000000E+00 0.  1.
         25    2    1    2    0    0 -0.22600980110E+02  0.11077839321E+02 -0.35795511400E+02  0.13252297601E+03  0.12508995846E+03 0.  0.
          5    1    3    3  502    0  0.46210357991E+02  0.26407154651E+01  0.12262330437E+02  0.48064620165E+02  0.41800000000E+01 0.  1.
         -5    1    3    3    0  502 -0.68811338101E+02  0.84371238562E+01 -0.48057841836E+02  0.84458355846E+02  0.41800000000E+01 0.  1.
        -11    1    1    2    0    0 -0.22323473567E+02 -0.34176100116E+02  0.17522384656E+02  0.44422711030E+02  0.00000000000E+00 0.  1.
         11    1    1    2    0    0  0.44924453677E+02  0.23098260795E+02 -0.78659979823E+00  0.50520836584E+02  0.00000000000E+00 0. -1.
</event>
<event>
 7    1  0.2714042E-009  0.6956841E+02  0.7561462E-02  0.1361567E+00
         -3   -1    0    0    0  501 -0.00000000000E+00  0.00000000000E+00  0.25945343438E+03  0.25945343438E+03  0.00000000000E+00 0.  1.
          3   -1    0    0  501    0  0.00000000000E+00 -0.00000000000E+00 -0.45401041951E+02  0.45401041951E+02  0.00000000000E+00 0. -1.
         25    2    1    2    0    0 -0.37683133978E+01 -0.10322210802E+02  0.11605302020E+03  0.17098724424E+03  0.12509031127E+03 0.  0.
          5    1    3    3  502    0  0.27025887099E+02 -0.24907907129E+02  0.12907533453E+03  0.13427105718E+03  0.41800000000E+01 0. -1.
         -5    1    3    3    0  502 -0.30794200497E+02  0.14585696328E+02 -0.13022314333E+02  0.36716187059E+02  0.41800000000E+01 0. -1.
        -11    1    1    2    0    0  0.31766959155E+01  0.39002164406E+02  0.87181022636E+01  0.40090716287E+02  0.00000000000E+00 0. -1.
         11    1    1    2    0    0  0.59161748231E+00 -0.28679953605E+02  0.89281269966E+02  0.93776515806E+02  0.00000000000E+00 0.  1.
</event>
<event>
 7    1  0.3185320E-009  0.1192205E+03  0.7561462E-02  0.1244389E+00
          2   -1    0    0  501    0  0.00000000000E+00  0.00000000000E+00  0.61786956123E+03  0.61786956123E+03  0.00000000000E+00 0.  1.
         -2   -1    0    0    0  501 -0.00000000000E+00 -0.00000000000E+00 -0.25143376527E+02  0.25143376527E+02  0.00000000000E+00 0. -1.
         25    2    1    2    0    0 -0.55857555436E+02  0.10966781600E+02  0.38821784530E+03  0.41182613285E+03  0.12508929409E+03 0.  0.
          5    1    3    3  502    0  0.12823699806E+02 -0.41813129270E+02  0.75965654089E+02  0.87755558555E+02  0.41800000000E+01 0. -1.
         -5    1    3    3    0  502 -0.68681255242E+02  0.52779910869E+02  0.31225219121E+03  0.32407057430E+03  0.41800000000E+01 0. -1.
        -11    1    1    2    0    0  0.96779834202E+01 -0.47766893222E+02  0.95030779707E+02  0.10679975910E+03  0.00000000000E+00 0. -1.
         11    1    1    2    0    0  0.46179572016E+02  0.36800111622E+02  0.10947755970E+03  0.12438704581E+03  0.00000000000E+00 0.  1.
</event>
<event>
 7    1  0.2714042E-009  0.1289681E+03  0.7561462E-02  0.1228995E+00
         -1   -1    0    0    0  501 -0.00000000000E+00  0.00000000000E+00  0.84006587610E+03  0.84006587610E+03  0.00000000000E+00 0.  1.
          1   -1    0    0  501    0  0.00000000000E+00 -0.00000000000E+00 -0.22105418283E+02  0.22105418283E+02  0.00000000000E+00 0. -1.
         25    2    1    2    0    0 -0.72056210949E+02  0.15457276381E+02  0.56816988665E+03  0.58642610276E+03  0.12509008341E+03 0.  0.
          5    1    3    3  502    0 -0.16170481256E+02 -0.51570710307E+02  0.28404573798E+03  0.28917205309E+03  0.41800000000E+01 0. -1.
         -5    1    3    3    0  502 -0.55885729693E+02  0.67027986688E+02  0.28412414867E+03  0.29725404966E+03  0.41800000000E+01 0. -1.
        -11    1    1    2    0    0  0.50028347299E+02  0.35165573632E+02  0.11939660174E+03  0.13414544945E+03  0.00000000000E+00 0.  1.
         11    1    1    2    0    0  0.22027863650E+02 -0.50622850013E+02  0.13039396943E+03  0.14159974218E+03  0.00000000000E+00 0. -1.
</event>
<event>
 7    1  0.2714042E-009  0.6293726E+02  0.7561462E-02  0.1385903E+00
          2   -1    0    0  501    0  0.00000000000E+00  0.00000000000E+00  0.64531635955E+02  0.64531635955E+02  0.00000000000E+00 0. -1.
         -2   -1    0    0    0  501 -0.00000000000E+00 -0.00000000000E+00 -0.19850017933E+03  0.19850017933E+03  0.00000000000E+00 0.  1.
         25    2    1    2    0    0  0.22468584768E+02 -0.20790752488E+01 -0.50399264075E+02  0.13673484629E+03  0.12508865862E+03 0.  0.
          5    1    3    3  502    0  0.23928879915E+02 -0.15133092449E+02 -0.90191141854E+02  0.94623021775E+02  0.41800000000E+01 0.  1.
         -5    1    3    3    0  502 -0.14602951466E+01  0.13054017200E+02  0.39791877778E+02  0.42111824517E+02  0.41800000000E+01 0.  1.
        -11    1    1    2    0    0 -0.26311113440E+02  0.38618483453E+02 -0.75324726177E+02  0.88642407054E+02  0.00000000000E+00 0.  1.
         11    1    1    2    0    0  0.38425286719E+01 -0.36539408204E+02 -0.82445531214E+01  0.37654561937E+02  0.00000000000E+00 0. -1.
</event>
<event>
 7    1  0.2714042E-009  0.1326532E+03  0.7561462E-02  0.1223571E+00
         -1   -1    0    0    0  501 -0.00000000000E+00  0.00000000000E+00  0.15179672710E+04  0.15179672710E+04  0.00000000000E+00 0.  1.
          1   -1    0    0  501    0  0.00000000000E+00 -0.00000000000E+00 -0.22603536681E+02  0.22603536681E+02  0.00000000000E+00 0. -1.
         25    2    1    2    0    0 -0.94744792961E+02 -0.76768758990E+02  0.11502762781E+04  0.11634660096E+04  0.12509045321E+03 0.  0.
          5    1    3    3  502    0 -0.57333140469E+02 -0.40351262123E+02  0.10286050712E+04  0.10310000864E+04  0.41800000000E+01 0. -1.
         -5    1    3    3    0  502 -0.37411652493E+02 -0.36417496867E+02  0.12167120690E+03  0.13246592320E+03  0.41800000000E+01 0. -1.
        -11    1    1    2    0    0  0.77027958589E+02  0.15050167204E+02  0.25260492588E+03  0.26451665829E+03  0.00000000000E+00 0.  1.
         11    1    1    2    0    0  0.17716834373E+02  0.61718591786E+02  0.92482530330E+02  0.11258813973E+03  0.00000000000E+00 0. -1.
</event>
<event>
 7    1  0.2714042E-009  0.1155968E+03  0.7561462E-02  0.1250543E+00
         -1   -1    0    0    0  501 -0.00000000000E+00  0.00000000000E+00  0.30491694010E+02  0.30491694010E+02  0.00000000000E+00 0.  1.
          1   -1    0    0  501    0  0.00000000000E+00 -0.00000000000E+00 -0.45757653174E+03  0.45757653174E+03  0.00000000000E+00 0. -1.
         25    2    1    2    0    0  0.72708683314E+01  0.24377840989E+02 -0.26266945020E+03  0.29204216070E+03  0.12508492674E+03 0.  0.
          5    1    3    3  502    0  0.71323194705E+01 -0.49687241673E+02 -0.76042162933E+02  0.91211703797E+02  0.41800000000E+01 0. -1.
         -5    1    3    3    0  502  0.13854886090E+00  0.74065082662E+02 -0.18662728727E+03  0.20083045690E+03  0.41800000000E+01 0. -1.
        -11    1    1    2    0    0 -0.26587328694E+02  0.35140901744E+02 -0.72173156088E+02  0.84562009686E+02  0.00000000000E+00 0.  1.
         11    1    1    2    0    0  0.19316460362E+02 -0.59518742733E+02 -0.92242231436E+02  0.11146405536E+03  0.00000000000E+00 0. -1.
</event>
<event>
 7    1  0.2714042E-009  0.1440978E+03  0.7561462E-02  0.1207919E+00
         -2   -1    0    0    0  501 -0.00000000000E+00  0.00000000000E+00  0.14838091993E+02  0.14838091993E+02  0.00000000000E+00 0.  1.
          2   -1    0    0  501    0  0.00000000000E+00 -0.00000000000E+00 -0.19617621936E+04  0.19617621936E+04  0.00000000000E+00 0. -1.
         25    2    1    2    0    0 -0.11724211249E+03  0.38498127354E+02 -0.12817396241E+04  0.12937279114E+04  0.12509047100E+03 0.  0.
          5    1    3    3  502    0 -0.93282047637E+02  0.43823303680E+01 -0.39158944165E+03  0.40259223595E+03  0.41800000000E+01 0. -1.
         -5    1    3    3    0  502 -0.23960064857E+02  0.34115796986E+02 -0.89015018250E+03  0.89113567548E+03  0.41800000000E+01 0. -1.
        -11    1    1    2    0    0  0.77702936909E+01 -0.42568311453E+02 -0.23555419261E+03  0.23949575416E+03  0.00000000000E+00 0. -1.
         11    1    1    2    0    0  0.10947181880E+03  0.40701840989E+01 -0.42963028482E+03  0.44337661998E+03  0.00000000000E+00 0.  1.
</event>
<event>
 7    1  0.2714042E-009  0.1094347E+03  0.7561462E-02  0.1261620E+00
         -2   -1    0    0    0  501 -0.00000000000E+00  0.00000000000E+00  0.28341607179E+03  0.28341607179E+03  0.00000000000E+00 0.  1.
          2   -1    0    0  501    0  0.00000000000E+00 -0.00000000000E+00 -0.76787602600E+02  0.76787602600E+02  0.00000000000E+00 0. -1.
         25    2    1    2    0    0  0.66781880740E+02  0.61232884846E+02  0.16624181741E+03  0.22692293238E+03  0.12509352343E+03 0.  0.
          5    1    3    3  502    0  0.52688332242E+02  0.58750840983E+02  0.18604606517E+03  0.20213444149E+03  0.41800000000E+01 0.  1.
         -5    1    3    3    0  502  0.14093548498E+02  0.24820438623E+01 -0.19804247767E+02  0.24788490890E+02  0.41800000000E+01 0.  1.
        -11    1    1    2    0    0  0.19786130137E+02 -0.16736947489E+01  0.15772403733E+02  0.25358645852E+02  0.00000000000E+00 0. -1.
         11    1    1    2    0    0 -0.86568010878E+02 -0.59559190097E+02  0.24614248054E+02  0.10792209616E+03  0.00000000000E+00 0.  1.
</event>
<event>
 7    1  0.2714042E-009  0.9486969E+02  0.7561462E-02  0.1291470E+00
         -3   -1    0    0    0  501 -0.00000000000E+00  0.00000000000E+00  0.12841953168E+03  0.12841953168E+03  0.00000000000E+00 0.  1.
          3   -1    0    0  501    0  0.00000000000E+00 -0.00000000000E+00 -0.15791955511E+03  0.15791955511E+03  0.00000000000E+00 0. -1.
         25    2    1    2    0    0 -0.12653941660E+02 -0.52836589257E+02  0.59050082743E+02  0.14861112950E+03  0.12508608290E+03 0.  0.
          5    1    3    3  502    0  0.15255858724E+02 -0.53958549055E+02  0.90371297878E+02  0.10643641351E+03  0.41800000000E+01 0.  1.
         -5    1    3    3    0  502 -0.27909800384E+02  0.11219597978E+01 -0.31321215135E+02  0.42174715989E+02  0.41800000000E+01 0.  1.
        -11    1    1    2    0    0 -0.37980437410E+02  0.34809185602E+02 -0.47806204905E+02  0.70282474739E+02  0.00000000000E+00 0.  1.
         11    1    1    2    0    0  0.50634379070E+02  0.18027403655E+02 -0.40743901259E+02  0.67445482548E+02  0.00000000000E+00 0. -1.
</event>
<event>
 7    1  0.2714042E-009  0.9654729E+02  0.7561462E-02  0.1287729E+00
          2   -1    0    0  501    0  0.00000000000E+00  0.00000000000E+00  0.23141847540E+03  0.23141847540E+03  0.00000000000E+00 0.  1.
         -2   -1    0    0    0  501 -0.00000000000E+00 -0.00000000000E+00 -0.89556335688E+02  0.89556335688E+02  0.00000000000E+00 0. -1.
         25    2    1    2    0    0  0.97228352240E+01 -0.69843362646E+02  0.72679410439E+01  0.14378096051E+03  0.12509001882E+03 0.  0.
          5    1    3    3  502    0  0.18286382572E+02 -0.75065485065E+02 -0.45597750060E+02  0.89810055373E+02  0.41800000000E+01 0. -1.
         -5    1    3    3    0  502 -0.85635473484E+01  0.52221224192E+01  0.52865691104E+02  0.53970905140E+02  0.41800000000E+01 0. -1.
        -11    1    1    2    0    0 -0.36340045307E+02  0.69278719856E+02  0.61839242898E+02  0.99720769552E+02  0.00000000000E+00 0. -1.
         11    1    1    2    0    0  0.26617210083E+02  0.56464278993E+00  0.72754955770E+02  0.77473081023E+02  0.00000000000E+00 0.  1.
</event>
<event>
 7    1  0.2714042E-009  0.8037745E+02  0.7561462E-02  0.1327984E+00
         -1   -1    0    0    0  501 -0.00000000000E+00  0.00000000000E+00  0.17072547483E+03  0.17072547483E+03  0.00000000000E+00 0.  1.
          1   -1    0    0  501    0  0.00000000000E+00 -0.00000000000E+00 -0.76400055919E+02  0.76400055919E+02  0.00000000000E+00 0. -1.
         25    2    1    2    0    0 -0.27961911080E+02  0.24253537834E+02  0.67623832491E+02  0.14693837897E+03  0.12509117445E+03 0.  0.
          5    1    3    3  502    0 -0.28068220866E+02 -0.96936788309E+01 -0.30651505933E+02  0.42880994016E+02  0.41800000000E+01 0. -1.
         -5    1    3    3    0  502  0.10630978570E+00  0.33947216665E+02  0.98275338424E+02  0.10405738495E+03  0.41800000000E+01 0. -1.
        -11    1    1    2    0    0  0.37790226087E+02  0.25668299636E+02  0.12617850752E+02  0.47393807101E+02  0.00000000000E+00 0. -1.
         11    1    1    2    0    0 -0.98283150067E+01 -0.49921837470E+02  0.14083735672E+02  0.52793344682E+02  0.00000000000E+00 0.  1.
</event>
<event>
 7    1  0.2714042E-009  0.1764214E+03  0.7561462E-02  0.1171312E+00
          2   -1    0    0  501    0  0.00000000000E+00  0.00000000000E+00  0.12310835343E+04  0.12310835343E+04  0.00000000000E+00 0. -1.
         -2   -1    0    0    0  501 -0.00000000000E+00 -0.00000000000E+00 -0.31761768013E+02  0.31761768013E+02  0.00000000000E+00 0.  1.
         25    2    1    2    0    0 -0.79868174384E+01  0.16476750432E+03  0.58929000149E+03  0.62459751461E+03  0.12508888705E+03 0.  0.
          5    1    3    3  502    0  0.39194931334E+02  0.52829670217E+02  0.95301023930E+02  0.11587482151E+03  0.41800000000E+01 0. -1.
         -5    1    3    3    0  502 -0.47181748773E+02  0.11193783410E+03  0.49398897756E+03  0.50872269310E+03  0.41800000000E+01 0. -1.
        -11    1    1    2    0    0  0.11080232228E+02 -0.13490772900E+03  0.58073405104E+03  0.59630101872E+03  0.00000000000E+00 0.  1.
         11    1    1    2    0    0 -0.30934147895E+01 -0.29859775315E+02  0.29297713752E+02  0.41946768982E+02  0.00000000000E+00 0. -1.
</event>
<event>
 7    1  0.2714042E-009  0.1413135E+03  0.7561462E-02  0.1211572E+00
         -2   -1    0    0    0  501 -0.00000000000E+00  0.00000000000E+00  0.14233386547E+02  0.14233386547E+02  0.00000000000E+00 0.  1.
          2   -1    0    0  501    0  0.00000000000E+00 -0.00000000000E+00 -0.22609962705E+04  0.22609962705E+04  0.00000000000E+00 0. -1.
         25    2    1    2    0    0  0.74285763255E+02 -0.88831986054E+02 -0.17145924405E+04  0.17230448183E+04  0.12508681953E+03 0.  0.
          5    1    3    3  502    0  0.17343485860E+02  0.26853413376E+02 -0.16691906695E+03  0.17000396943E+03  0.41800000000E+01 0. -1.
         -5    1    3    3    0  502  0.56942277395E+02 -0.11568539943E+03 -0.15476733736E+04  0.15530408489E+04  0.41800000000E+01 0. -1.
        -11    1    1    2    0    0 -0.37153461640E+02  0.17733087728E+02 -0.57117468258E+02  0.70407721823E+02  0.00000000000E+00 0.  1.
         11    1    1    2    0    0 -0.37132301616E+02  0.71098898327E+02 -0.47505297520E+03  0.48177711695E+03  0.00000000000E+00 0. -1.
</event>
<event>
 7    1  0.3956843E-009  0.1480050E+03  0.7561462E-02  0.1202946E+00
         -1   -1    0    0    0  501 -0.00000000000E+00  0.00000000000E+00  0.80070869276E+02  0.80070869276E+02  0.00000000000E+00 0.  1.
          1   -1    0    0  501    0  0.00000000000E+00 -0.00000000000E+00 -0.46871790474E+03  0.46871790474E+03  0.00000000000E+00 0. -1.
         25    2    1    2    0    0  0.62794767225E+02  0.11400071988E+03 -0.71457003608E+02  0.19414690362E+03  0.12509024701E+03 0.  0.
          5    1    3    3  502    0  0.64134692378E+02  0.22280122960E+02  0.13153931326E+02  0.69283193884E+02  0.41800000000E+01 0. -1.
         -5    1    3    3    0  502 -0.13399251530E+01  0.91720596920E+02 -0.84610934934E+02  0.12486370974E+03  0.41800000000E+01 0. -1.
        -11    1    1    2    0    0 -0.23749230298E+02 -0.82925581611E+02 -0.10125631688E+03  0.13301699040E+03  0.00000000000E+00 0.  1.
         11    1    1    2    0    0 -0.39045536926E+02 -0.31075138269E+02 -0.21593371497E+03  0.22162488000E+03  0.00000000000E+00 0. -1.
</event>
<event>
 7    1  0.2714042E-009  0.1724816E+03  0.7561462E-02  0.1175284E+00
          3   -1    0    0  501    0  0.00000000000E+00  0.00000000000E+00  0.26748442412E+02  0.26748442412E+02  0.00000000000E+00 0. -1.
         -3   -1    0    0    0  501 -0.00000000000E+00 -0.00000000000E+00 -0.11943953174E+04  0.11943953174E+04  0.00000000000E+00 0.  1.
         25    2    1    2    0    0  0.39348550079E+02  0.13546811873E+03 -0.57660311025E+03  0.60664485110E+03  0.12508760542E+03 0.  0.
          5    1    3    3  502    0  0.58741001141E+02  0.23455552788E+02 -0.11586435919E+03  0.13207077762E+03  0.41800000000E+01 0.  1.
         -5    1    3    3    0  502 -0.19392451062E+02  0.11201256594E+03 -0.46073875106E+03  0.47457407348E+03  0.41800000000E+01 0.  1.
        -11    1    1    2    0    0 -0.68684982458E+02 -0.10544560900E+03 -0.42577759836E+03  0.44398532243E+03  0.00000000000E+00 0. -1.
         11    1    1    2    0    0  0.29336432380E+02 -0.30022509727E+02 -0.16526616638E+03  0.17051358628E+03  0.00000000000E+00 0.  1.
</event>
<event>
 7    1  0.6360268E-009  0.1246573E+03  0.7561462E-02  0.1235606E+00
         -1   -1    0    0    0  501 -0.00000000000E+00  0.00000000000E+00  0.11784854490E+03  0.11784854490E+03  0.00000000000E+00 0.  1.
          1   -1    0    0  501    0  0.00000000000E+00 -0.00000000000E+00 -0.23376331812E+03  0.23376331812E+03  0.00000000000E+00 0. -1.
         25    2    1    2    0    0 -0.12400501672E+03  0.94050522000E+01 -0.76904967821E+02  0.19242070791E+03  0.12508259503E+03 0.  0.
          5    1    3    3  502    0 -0.59910112267E+02  0.12799187278E+00 -0.10558389189E+03  0.12146879665E+03  0.41800000000E+01 0. -1.
         -5    1    3    3    0  502 -0.64094904450E+02  0.92770603272E+01  0.28678924071E+02  0.70951911254E+02  0.41800000000E+01 0. -1.
        -11    1    1    2    0    0  0.52435066150E+02 -0.39678341981E+01 -0.64323093936E+02  0.83082129750E+02  0.00000000000E+00 0. -1.
         11    1    1    2    0    0  0.71569950567E+02 -0.54372180019E+01  0.25313288537E+02  0.76109025354E+02  0.00000000000E+00 0.  1.
</event>
<event>
 7    1  0.2714042E-009  0.1875028E+03  0.7561462E-02  0.1160733E+00
         -1   -1    0    0    0  501 -0.00000000000E+00  0.00000000000E+00  0.88351400467E+02  0.88351400467E+02  0.00000000000E+00 0.  1.
          1   -1    0    0  501    0  0.00000000000E+00 -0.00000000000E+00 -0.46561670814E+03  0.46561670814E+03  0.00000000000E+00 0. -1.
         25    2    1    2    0    0 -0.13744374845E+03  0.88814802813E+02 -0.12838134590E+03  0.24270970908E+03  0.12508948685E+03 0.  0.
          5    1    3    3  502    0 -0.12915093701E+03  0.10802864555E+03 -0.73388332699E+02  0.18372118159E+03  0.41800000000E+01 0.  1.
         -5    1    3    3    0  502 -0.82928114379E+01 -0.19213842733E+02 -0.54993013203E+02  0.58988527489E+02  0.41800000000E+01 0.  1.
        -11    1    1    2    0    0  0.47445298011E+01 -0.45356584244E+02 -0.44408933721E+02  0.63654408265E+02  0.00000000000E+00 0.  1.
         11    1    1    2    0    0  0.13269921865E+03 -0.43458218569E+02 -0.20447502805E+03  0.24760399126E+03  0.00000000000E+00 0. -1.
</event>
<event>
 7    1  0.2714042E-009  0.1575693E+03  0.7561462E-02  0.1191469E+00
          2   -1    0    0  501    0  0.00000000000E+00  0.00000000000E+00  0.99138303901E+03  0.99138303901E+03  0.00000000000E+00 0. -1.
         -2   -1    0    0    0  501 -0.00000000000E+00 -0.00000000000E+00 -0.42514211347E+02  0.42514211347E+02  0.00000000000E+00 0.  1.
         25    2    1    2    0    0 -0.13031746293E+03 -0.13492644780E+02  0.78226226756E+03  0.80296053457E+03  0.12508665881E+03 0.  0.
          5    1    3    3  502    0 -0.89689886893E+02 -0.53939225317E+02  0.31009427586E+03  0.32730665767E+03  0.41800000000E+01 0.  1.
         -5    1    3    3    0  502 -0.40627576034E+02  0.40446580537E+02  0.47216799171E+03  0.47565387690E+03  0.41800000000E+01 0.  1.
        -11    1    1    2    0    0  0.13733106401E+03 -0.42282398185E+00  0.16585991024E+03  0.21533580694E+03  0.00000000000E+00 0.  1.
         11    1    1    2    0    0 -0.70136010876E+01  0.13915468762E+02  0.74664985904E+00  0.15600908854E+02  0.00000000000E+00 0. -1.
</event>
<event>
 7    1  0.2714042E-009  0.8005697E+02  0.7561462E-02  0.1328890E+00
         -2   -1    0    0    0  501 -0.00000000000E+00  0.00000000000E+00  0.81279346269E+02  0.81279346269E+02  0.00000000000E+00 0. -1.
          2   -1    0    0  501    0  0.00000000000E+00 -0.00000000000E+00 -0.17265807356E+03  0.17265807356E+03  0.00000000000E+00 0.  1.
         25    2    1    2    0    0 -0.13025525021E+01  0.25756304187E+02 -0.57007070038E+01  0.12784875070E+03  0.12509085157E+03 0.  0.
          5    1    3    3  502    0 -0.47209346211E+01 -0.27131775384E+02 -0.50929641929E+02  0.58049300480E+02  0.41800000000E+01 0. -1.
         -5    1    3    3    0  502  0.34183821190E+01  0.52888079571E+02  0.45228934925E+02  0.69799450223E+02  0.41800000000E+01 0. -1.
        -11    1    1    2    0    0  0.35200532042E+02 -0.28209633141E+02 -0.79699982498E+02  0.91580282093E+02  0.00000000000E+00 0.  1.
         11    1    1    2    0    0 -0.33897979540E+02  0.24533289546E+01 -0.59780377888E+01  0.34508387033E+02  0.00000000000E+00 0. -1.
</event>
<event>
 7    1  0.2714042E-009  0.3551813E+03  0.7561462E-02  0.1060508E+00
          1   -1    0    0  501    0  0.00000000000E+00  0.00000000000E+00  0.17233692867E+04  0.17233692867E+04  0.00000000000E+00 0. -1.
         -1   -1    0    0    0  501 -0.00000000000E+00 -0.00000000000E+00 -0.75849864364E+02  0.75849864364E+02  0.00000000000E+00 0.  1.
         25    2    1    2    0    0 -0.76424377094E+02  0.33593847100E+03  0.87033240917E+03  0.94436273364E+03  0.12508848284E+03 0.  0.
          5    1    3    3  502    0 -0.10632315013E+03  0.30138159870E+03  0.73575013591E+03  0.80217280880E+03  0.41800000000E+01 0.  1.
         -5    1    3    3    0  502  0.29898773032E+02  0.34556872299E+02  0.13458227326E+03  0.14218992485E+03  0.41800000000E+01 0.  1.
        -11    1    1    2    0    0  0.41595125619E+02 -0.21601831751E+03  0.38677482569E+03  0.44495936193E+03  0.00000000000E+00 0. -1.
         11    1    1    2    0    0  0.34829251475E+02 -0.11992015349E+03  0.39041218748E+03  0.40989705549E+03  0.00000000000E+00 0.  1.
</event>
<event>
 7    1  0.2714042E-009  0.1082808E+03  0.7561462E-02  0.1263787E+00
         -4   -1    0    0    0  501 -0.00000000000E+00  0.00000000000E+00  0.56247173831E+03  0.56247173831E+03  0.00000000000E+00 0. -1.
          4   -1    0    0  501    0  0.00000000000E+00 -0.00000000000E+00 -0.22502413864E+02  0.22502413864E+02  0.00000000000E+00 0.  1.
         25    2    1    2    0    0 -0.59889198618E+01 -0.34234880236E+01  0.24087451647E+03  0.27150650809E+03  0.12509062242E+03 0.  0.
          5    1    3    3  502    0 -0.54172398665E+02  0.31748750922E+02  0.96141569122E+02  0.11490563814E+03  0.41800000000E+01 0.  1.
         -5    1    3    3    0  502  0.48183478803E+02 -0.35172238946E+02  0.14473294734E+03  0.15660086995E+03  0.41800000000E+01 0.  1.
        -11    1    1    2    0    0 -0.42319176370E+02  0.13622942021E+02  0.14196671601E+03  0.14876506879E+03  0.00000000000E+00 0.  1.
         11    1    1    2    0    0  0.48308096231E+02 -0.10199453998E+02  0.15712809197E+03  0.16470257530E+03  0.00000000000E+00 0. -1.
</event>
<event>
 7    1  0.2714042E-009  0.1669730E+03  0.7561462E-02  0.1181042E+00
         -1   -1    0    0    0  501 -0.00000000000E+00  0.00000000000E+00  0.42543641025E+02  0.42543641025E+02  0.00000000000E+00 0.  1.
          1   -1    0    0  501    0  0.00000000000E+00 -0.00000000000E+00 -0.83773381077E+03  0.83773381077E+03  0.00000000000E+00 0. -1.
         25    2    1    2    0    0 -0.13260456172E+03 -0.76196373356E+02 -0.40717166331E+03  0.45257892903E+03  0.12509622893E+03 0.  0.
          5    1    3    3  502    0 -0.95341876439E+02 -0.32284339116E+02 -0.10724284282E+03  0.14714228383E+03  0.41800000000E+01 0. -1.
         -5    1    3    3    0  502 -0.37262685279E+02 -0.43912034240E+02 -0.29992882050E+03  0.30543664520E+03  0.41800000000E+01 0. -1.
        -11    1    1    2    0    0  0.43205320596E+02  0.74404968221E+02 -0.23773539739E+03  0.25282586536E+03  0.00000000000E+00 0. -1.
         11    1    1    2    0    0  0.89399241121E+02  0.17914051346E+01 -0.15028310905E+03  0.17487265741E+03  0.00000000000E+00 0.  1.
</event>
<event>
 7    1  0.2714042E-009  0.1058745E+03  0.7561462E-02  0.1268406E+00
         -2   -1    0    0    0  501 -0.00000000000E+00  0.00000000000E+00  0.54993787492E+03  0.54993787492E+03  0.00000000000E+00 0. -1.
          2   -1    0    0  501    0  0.00000000000E+00 -0.00000000000E+00 -0.50442621702E+02  0.50442621702E+02  0.00000000000E+00 0.  1.
         25    2    1    2    0    0 -0.64439857236E+02 -0.14460468573E+02  0.73345769767E+02  0.15933741821E+03  0.12508881064E+03 0.  0.
          5    1    3    3  502    0 -0.28969263595E+02  0.30245261495E+02 -0.22488504768E+02  0.47720009669E+02  0.41800000000E+01 0.  1.
         -5    1    3    3    0  502 -0.35470593641E+02 -0.44705730067E+02  0.95834274536E+02  0.11161740854E+03  0.41800000000E+01 0.  1.
        -11    1    1    2    0    0  0.41943843275E+02  0.53136752838E+02  0.28705418547E+03  0.29492864542E+03  0.00000000000E+00 0. -1.
         11    1    1    2    0    0  0.22496013961E+02 -0.38676284266E+02  0.13909529797E+03  0.14611443299E+03  0.00000000000E+00 0.  1.
</event>
<event>
 7    1  0.2714042E-009  0.1371798E+03  0.7561462E-02  0.1217175E+00
          2   -1    0    0  501    0  0.00000000000E+00  0.00000000000E+00  0.80865505144E+03  0.80865505144E+03  0.00000000000E+00 0. -1.
         -2   -1    0    0    0  501 -0.00000000000E+00 -0.00000000000E+00 -0.28509994836E+02  0.28509994836E+02  0.00000000000E+00 0.  1.
         25    2    1    2    0    0  0.65938208864E+02  0.52028070215E+02  0.59847842044E+03  0.61715349633E+03  0.12508897161E+03 0.  0.
          5    1    3    3  502    0 -0.37487365281E+02  0.11849315642E+02  0.14742688065E+03  0.15263638614E+03  0.41800000000E+01 0.  1.
         -5    1    3    3    0  502  0.10342557414E+03  0.40178754573E+02  0.45105153979E+03  0.46451711019E+03  0.41800000000E+01 0.  1.
        -11    1    1    2    0    0 -0.25163208028E+02 -0.73512034084E+02  0.10629995012E+03  0.13166960769E+03  0.00000000000E+00 0.  1.
         11    1    1    2    0    0 -0.40775000836E+02  0.21483963869E+02  0.75366686039E+02  0.88341942254E+02  0.00000000000E+00 0. -1.
</event>
<event>
 7    1  0.2714042E-009  0.2089258E+03  0.7561462E-02  0.1142419E+00
         -2   -1    0    0    0  501 -0.00000000000E+00  0.00000000000E+00  0.47993004103E+02  0.47993004103E+02  0.00000000000E+00 0.  1.
          2   -1    0    0  501    0  0.00000000000E+00 -0.00000000000E+00 -0.12119729093E+04  0.12119729093E+04  0.00000000000E+00 0. -1.
         25    2    1    2    0    0 -0.13203148263E+03 -0.13349301086E+03 -0.32627950736E+03  0.39668424915E+03  0.12508948895E+03 0.  0.
          5    1    3    3  502    0 -0.36132427459E+01  0.17436840814E+02 -0.71942639605E+02  0.74231494219E+02  0.41800000000E+01 0. -1.
         -5    1    3    3    0  502 -0.12841823988E+03 -0.15092985168E+03 -0.25433686776E+03  0.32245275493E+03  0.41800000000E+01 0. -1.
        -11    1    1    2    0    0  0.91983471528E+02  0.13248501190E+03 -0.74561379628E+03  0.76285855217E+03  0.00000000000E+00 0. -1.
         11    1    1    2    0    0  0.40048011100E+02  0.10079989614E+01 -0.92086601568E+02  0.10042311210E+03  0.00000000000E+00 0.  1.
</event>
<event>
 7    1  0.2816096E-009  0.1396648E+03  0.7561462E-02  0.1213781E+00
          3   -1    0    0  501    0  0.00000000000E+00  0.00000000000E+00  0.28111894737E+03  0.28111894737E+03  0.00000000000E+00 0. -1.
         -3   -1    0    0    0  501 -0.00000000000E+00 -0.00000000000E+00 -0.97965425677E+02  0.97965425677E+02  0.00000000000E+00 0.  1.
         25    2    1    2    0    0  0.38422809516E+02  0.11682491885E+03  0.71932465402E+02  0.18959285848E+03  0.12508716343E+03 0.  0.
          5    1    3    3  502    0  0.31435774016E+02  0.12906988058E+03  0.18519497153E+02  0.13419272013E+03  0.41800000000E+01 0.  1.
         -5    1    3    3    0  502  0.69870355002E+01 -0.12244961731E+02  0.53412968248E+02  0.55400138357E+02  0.41800000000E+01 0.  1.
        -11    1    1    2    0    0 -0.43993474389E+02 -0.58860387760E+02  0.10869605664E+03  0.13120519717E+03  0.00000000000E+00 0. -1.
         11    1    1    2    0    0  0.55706648736E+01 -0.57964531087E+02  0.25249996456E+01  0.58286317386E+02  0.00000000000E+00 0.  1.
</event>
<event>
 7    1  0.2714042E-009  0.4041464E+03  0.7561462E-02  0.1042353E+00
         -1   -1    0    0    0  501 -0.00000000000E+00  0.00000000000E+00  0.15906339014E+03  0.15906339014E+03  0.00000000000E+00 0.  1.
          1   -1    0    0  501    0  0.00000000000E+00 -0.00000000000E+00 -0.17321471221E+04  0.17321471221E+04  0.00000000000E+00 0. -1.
         25    2    1    2    0    0 -0.34101834123E+03 -0.18823750534E+03 -0.13938165065E+04  0.14526163804E+04  0.12507208863E+03 0.  0.
          5    1    3    3  502    0  0.77668726822E+01 -0.19943196731E+02 -0.77098943011E+02  0.80123497306E+02  0.41800000000E+01 0.  1.
         -5    1    3    3    0  502 -0.34878521391E+03 -0.16829430861E+03 -0.13167175635E+04  0.13724928831E+04  0.41800000000E+01 0.  1.
        -11    1    1    2    0    0  0.11466468198E+03  0.18215626662E+02 -0.67014418596E+02  0.13405495384E+03  0.00000000000E+00 0. -1.
         11    1    1    2    0    0  0.22635365925E+03  0.17002187867E+03 -0.11225280685E+03  0.30453917799E+03  0.00000000000E+00 0.  1.
</event>
<event>
 7    1  0.2714042E-009  0.9069807E+02  0.7561462E-02  0.1301170E+00
          1   -1    0    0  501    0  0.00000000000E+00  0.00000000000E+00  0.21335121060E+03  0.21335121060E+03  0.00000000000E+00 0. -1.
         -1   -1    0    0    0  501 -0.00000000000E+00 -0.00000000000E+00 -0.64298677536E+02  0.64298677536E+02  0.00000000000E+00 0.  1.
         25    2    1    2    0    0 -0.27158021206E+02 -0.34216299438E+02  0.87290678971E+02  0.15866734220E+03  0.12508936639E+03 0.  0.
          5    1    3    3  502    0 -0.22163750345E+02  0.18687555930E+02  0.99721226605E+02  0.10393388289E+03  0.41800000000E+01 0. -1.
         -5    1    3    3    0  502 -0.49942708618E+01 -0.52903855368E+02 -0.12430547634E+02  0.54733459316E+02  0.41800000000E+01 0. -1.
        -11    1    1    2    0    0  0.46628225263E+02 -0.12429374950E+02  0.16116044995E+02  0.50876395893E+02  0.00000000000E+00 0.  1.
         11    1    1    2    0    0 -0.19470204056E+02  0.46645674388E+02  0.45645809099E+02  0.68106150041E+02  0.00000000000E+00 0. -1.
</event>
<event>
 7    1  0.2714042E-009  0.2240501E+03  0.7561462E-02  0.1130899E+00
         -2   -1    0    0    0  501 -0.00000000000E+00  0.00000000000E+00  0.13461374689E+03  0.13461374689E+03  0.00000000000E+00 0.  1.
          2   -1    0    0  501    0  0.00000000000E+00 -0.00000000000E+00 -0.42512436864E+03  0.42512436864E+03  0.00000000000E+00 0. -1.
         25    2    1    2    0    0 -0.13579837008E+03  0.15459058996E+03 -0.21309713911E+03  0.32155455674E+03  0.12508994541E+03 0.  0.
          5    1    3    3  502    0 -0.12740746293E+03  0.17223673707E+03 -0.21217382726E+03  0.30155158858E+03  0.41800000000E+01 0. -1.
         -5    1    3    3    0  502 -0.83909071577E+01 -0.17646147101E+02 -0.92331185464E+00  0.20002968160E+02  0.41800000000E+01 0. -1.
        -11    1    1    2    0    0  0.10858565478E+03 -0.81267159415E+02 -0.84264486353E+02  0.15967372759E+03  0.00000000000E+00 0. -1.
         11    1    1    2    0    0  0.27212715304E+02 -0.73323430550E+02  0.68510037171E+01  0.78509831191E+02  0.00000000000E+00 0.  1.
</event>
<event>
 7    1  0.3199637E-009  0.2988863E+03  0.7561462E-02  0.1085799E+00
         -2   -1    0    0    0  501 -0.00000000000E+00  0.00000000000E+00  0.19131262860E+03  0.19131262860E+03  0.00000000000E+00 0.  1.
          2   -1    0    0  501    0  0.00000000000E+00 -0.00000000000E+00 -0.52183326494E+03  0.52183326494E+03  0.00000000000E+00 0. -1.
         25    2    1    2    0    0 -0.26317778159E+03 -0.12341572190E+03 -0.23366637821E+03  0.39337151448E+03  0.12508871636E+03 0.  0.
          5    1    3    3  502    0 -0.39033652913E+02 -0.61124131223E+02 -0.15222342960E+02  0.74222487176E+02  0.41800000000E+01 0. -1.
         -5    1    3    3    0  502 -0.22414412868E+03 -0.62291590679E+02 -0.21844403525E+03  0.31914902730E+03  0.41800000000E+01 0. -1.
        -11    1    1    2    0    0  0.91602294730E+02  0.26324931377E+02 -0.75283831019E+02  0.12145631982E+03  0.00000000000E+00 0.  1.
         11    1    1    2    0    0  0.17157548686E+03  0.97090790524E+02 -0.21570427106E+02  0.19831805924E+03  0.00000000000E+00 0. -1.
</event>
<event>
 7    1  0.2714042E-009  0.1199052E+03  0.7561462E-02  0.1243254E+00
          1   -1    0    0  501    0  0.00000000000E+00  0.00000000000E+00  0.75313604210E+03  0.75313604210E+03  0.00000000000E+00 0. -1.
         -1   -1    0    0    0  501 -0.00000000000E+00 -0.00000000000E+00 -0.28322856484E+02  0.28322856484E+02  0.00000000000E+00 0.  1.
         25    2    1    2    0    0  0.60233174801E+02  0.76667502582E+02  0.36487997782E+03  0.39785819277E+03  0.12509117490E+03 0.  0.
          5    1    3    3  502    0 -0.78513775334E-02  0.48403447259E+02  0.31557849826E+02  0.57933272425E+02  0.41800000000E+01 0. -1.
         -5    1    3    3    0  502  0.60241026178E+02  0.28264055322E+02  0.33332212799E+03  0.33992492034E+03  0.41800000000E+01 0. -1.
        -11    1    1    2    0    0 -0.42717297532E+02  0.31533280063E+01  0.19353807947E+03  0.19822133889E+03  0.00000000000E+00 0. -1.
         11    1    1    2    0    0 -0.17515877269E+02 -0.79820830588E+02  0.16639512832E+03  0.18537936693E+03  0.00000000000E+00 0.  1.
</event>
<event>
 7    1  0.2714042E-009  0.1058505E+03  0.7561462E-02  0.1268453E+00
         -1   -1    0    0    0  501 -0.00000000000E+00  0.00000000000E+00  0.32197768071E+02  0.32197768071E+02  0.00000000000E+00 0.  1.
          1   -1    0    0  501    0  0.00000000000E+00 -0.00000000000E+00 -0.64225523432E+03  0.64225523432E+03  0.00000000000E+00 0. -1.
         25    2    1    2    0    0  0.89395436965E+02  0.12942665411E+02 -0.40586915819E+03  0.43421237020E+03  0.12510616344E+03 0.  0.
          5    1    3    3  502    0 -0.44592375386E+01  0.20961771942E+02 -0.25745593298E+03  0.25838016664E+03  0.41800000000E+01 0.  1.
         -5    1    3    3    0  502  0.93854674503E+02 -0.80191065310E+01 -0.14841322520E+03  0.17583220357E+03  0.41800000000E+01 0.  1.
        -11    1    1    2    0    0 -0.59099119881E+02 -0.23347554389E+02 -0.45006885882E+02  0.77868055347E+02  0.00000000000E+00 0.  1.
         11    1    1    2    0    0 -0.30296317084E+02  0.10404888978E+02 -0.15918142218E+03  0.16237257685E+03  0.00000000000E+00 0. -1.
</event>
<event>
 7    1  0.2714042E-009  0.1096543E+03  0.7561462E-02  0.1261211E+00
         -1   -1    0    0    0  501 -0.00000000000E+00  0.00000000000E+00  0.43347385286E+02  0.43347385286E+02  0.00000000000E+00 0.  1.
          1   -1    0    0  501    0  0.00000000000E+00 -0.00000000000E+00 -0.41276763493E+03  0.41276763493E+03  0.00000000000E+00 0. -1.
         25    2    1    2    0    0  0.15564559613E+02  0.73023350909E+02 -0.25320125191E+03  0.29211939911E+03  0.12509278185E+03 0.  0.
          5    1    3    3  502    0 -0.44210622928E+02  0.16689432965E+01 -0.41430001337E+02  0.60755921212E+02  0.41800000000E+01 0.  1.
         -5    1    3    3    0  502  0.59775182541E+02  0.71354407612E+02 -0.21177125057E+03  0.23136347789E+03  0.41800000000E+01 0.  1.
        -11    1    1    2    0    0  0.45549283505E+01 -0.53379027958E+02 -0.10488845509E+02  0.54590144515E+02  0.00000000000E+00 0.  1.
         11    1    1    2    0    0 -0.20119487963E+02 -0.19644322950E+02 -0.10573015223E+03  0.10940547660E+03  0.00000000000E+00 0. -1.
</event>
<event>
 7    1  0.2714042E-009  0.2189902E+03  0.7561462E-02  0.1134638E+00
         -1   -1    0    0    0  501 -0.00000000000E+00  0.00000000000E+00  0.14664199665E+03  0.14664199665E+03  0.00000000000E+00 0.  1.
          1   -1    0    0  501    0  0.00000000000E+00 -0.00000000000E+00 -0.46297681650E+03  0.46297681650E+03  0.00000000000E+00 0. -1.
         25    2    1    2    0    0  0.18233582589E+03 -0.65635956727E+02 -0.30890590981E+01  0.23067449399E+03  0.12508696045E+03 0.  0.
          5    1    3    3  502    0  0.49785637294E+02  0.36084115560E+02 -0.13946888437E+02  0.63187508050E+02  0.41800000000E+01 0. -1.
         -5    1    3    3    0  502  0.13255018860E+03 -0.10172007229E+03  0.10857829338E+02  0.16748698594E+03  0.41800000000E+01 0. -1.
        -11    1    1    2    0    0 -0.43024989925E+02  0.54535543440E+02 -0.71345732366E+02  0.99576547355E+02  0.00000000000E+00 0.  1.
         11    1    1    2    0    0 -0.13931083596E+03  0.11100413287E+02 -0.24190002838E+03  0.27936777180E+03  0.00000000000E+00 0. -1.
</event>
<event>
 7    1  0.2714042E-009  0.1257902E+03  0.7561462E-02  0.1233839E+00
          1   -1    0    0  501    0  0.00000000000E+00  0.00000000000E+00  0.18929330963E+03  0.18929330963E+03  0.00000000000E+00 0. -1.
         -1   -1    0    0    0  501 -0.00000000000E+00 -0.00000000000E+00 -0.92872300217E+02  0.92872300217E+02  0.00000000000E+00 0.  1.
         25    2    1    2    0    0 -0.21351744267E+02 -0.59999022078E+02  0.77622961526E+02  0.16040424578E+03  0.12509363803E+03 0.  0.
          5    1    3    3  502    0 -0.68796064989E+02 -0.72519797669E+01  0.38253285775E+02  0.79159813296E+02  0.41800000000E+01 0.  1.
         -5    1    3    3    0  502  0.47444320722E+02 -0.52747042311E+02  0.39369675750E+02  0.81244432487E+02  0.41800000000E+01 0.  1.
        -11    1    1    2    0    0 -0.27905836015E+02 -0.63059837125E+01  0.26248858697E+02  0.38826584928E+02  0.00000000000E+00 0. -1.
         11    1    1    2    0    0  0.49257580281E+02  0.66305005790E+02 -0.74508108137E+01  0.82934779133E+02  0.00000000000E+00 0.  1.
</event>
<event>
 7    1  0.4842489E-009  0.1583683E+03  0.7561462E-02  0.1190551E+00
         -3   -1    0    0    0  501 -0.00000000000E+00  0.00000000000E+00  0.43655008150E+02  0.43655008150E+02  0.00000000000E+00 0.  1.
          3   -1    0    0  501    0  0.00000000000E+00 -0.00000000000E+00 -0.64333979777E+03  0.64333979777E+03  0.00000000000E+00 0. -1.
         25    2    1    2    0    0  0.11431796474E+03 -0.48311538649E+02 -0.26039364057E+03  0.31441467778E+03  0.12509652163E+03 0.  0.
          5    1    3    3  502    0  0.10533494268E+02 -0.67703654900E+02 -0.80596189974E+02  0.10586764202E+03  0.41800000000E+01 0.  1.
         -5    1    3    3    0  502  0.10378447047E+03  0.19392116250E+02 -0.17979745059E+03  0.20854703576E+03  0.41800000000E+01 0.  1.
        -11    1    1    2    0    0 -0.10894799089E+03  0.16528905900E+02 -0.31008646411E+03  0.32908431241E+03  0.00000000000E+00 0. -1.
         11    1    1    2    0    0 -0.53699738497E+01  0.31782632750E+02 -0.29204684948E+02  0.43495815737E+02  0.00000000000E+00 0.  1.
</event>
<event>
 7    1  0.2714042E-009  0.1518372E+03  0.7561462E-02  0.1198234E+00
          1   -1    0    0  501    0  0.00000000000E+00  0.00000000000E+00  0.40832444539E+03  0.40832444539E+03  0.00000000000E+00 0. -1.
         -1   -1    0    0    0  501 -0.00000000000E+00 -0.00000000000E+00 -0.67213791252E+02  0.67213791252E+02  0.00000000000E+00 0.  1.
         25    2    1    2    0    0  0.10551103535E+03 -0.40261912300E+02  0.10453799594E+03  0.19831781771E+03  0.12509262195E+03 0.  0.
          5    1    3    3  502    0  0.50552571068E+02 -0.81568322603E+02  0.80626932549E+02  0.12540784802E+03  0.41800000000E+01 0. -1.
         -5    1    3    3    0  502  0.54958464278E+02  0.41306410303E+02  0.23911063387E+02  0.72909969690E+02  0.41800000000E+01 0. -1.
        -11    1    1    2    0    0  0.13271145028E+02  0.85958890519E+01  0.80772674481E+01  0.17755417438E+02  0.00000000000E+00 0.  1.
         11    1    1    2    0    0 -0.11878218037E+03  0.31666023248E+02  0.22849539076E+03  0.25946500149E+03  0.00000000000E+00 0. -1.
</event>
<event>
 7    1  0.2714042E-009  0.9956842E+02  0.7561462E-02  0.1281206E+00
          2   -1    0    0  501    0  0.00000000000E+00  0.00000000000E+00  0.74195267662E+02  0.74195267662E+02  0.00000000000E+00 0. -1.
         -2   -1    0    0    0  501 -0.00000000000E+00 -0.00000000000E+00 -0.19368168737E+03  0.19368168737E+03  0.00000000000E+00 0.  1.
         25    2    1    2    0    0  0.18007640429E+02 -0.27186789893E+02 -0.22443053543E+02  0.13120452674E+03  0.12509012961E+03 0.  0.
          5    1    3    3  502    0 -0.43778012137E+02  0.20467216356E+02  0.40997890218E+01  0.48679584653E+02  0.41800000000E+01 0. -1.
         -5    1    3    3    0  502  0.61785652566E+02 -0.47654006249E+02 -0.26542842565E+02  0.82524942084E+02  0.41800000000E+01 0. -1.
        -11    1    1    2    0    0  0.24595130876E+02  0.97389688102E+01  0.29235895239E+01  0.26614194558E+02  0.00000000000E+00 0. -1.
         11    1    1    2    0    0 -0.42602771304E+02  0.17447821083E+02 -0.99966955686E+02  0.11005823373E+03  0.00000000000E+00 0.  1.
</event>
<event>
 7    1  0.2714042E-009  0.1050895E+03  0.7561462E-02  0.1269943E+00
         -1   -1    0    0    0  501 -0.00000000000E+00  0.00000000000E+00  0.47755264355E+02  0.47755264355E+02  0.00000000000E+00 0.  1.
          1   -1    0    0  501    0  0.00000000000E+00 -0.00000000000E+00 -0.32605682610E+03  0.32605682610E+03  0.00000000000E+00 0. -1.
         25    2    1    2    0    0  0.52606746104E+02  0.20814777120E+02 -0.20861075347E+03  0.24973259261E+03  0.12508875515E+03 0.  0.
          5    1    3    3  502    0  0.35376103197E+02 -0.38261447075E+02 -0.16784763686E+03  0.17580019514E+03  0.41800000000E+01 0.  1.
         -5    1    3    3    0  502  0.17230642907E+02  0.59076224195E+02 -0.40763116610E+02  0.73932397472E+02  0.41800000000E+01 0.  1.
        -11    1    1    2    0    0  0.57935057457E+01 -0.35528004309E+02 -0.48149033106E+02  0.60117661199E+02  0.00000000000E+00 0.  1.
         11    1    1    2    0    0 -0.58400251849E+02  0.14713227189E+02 -0.21541775171E+02  0.63961836652E+02  0.00000000000E+00 0. -1.
</event>
<event>
 7    1  0.2714042E-009  0.8261305E+02  0.7561462E-02  0.1321795E+00
          1   -1    0    0  501    0  0.00000000000E+00  0.00000000000E+00  0.22229880247E+02  0.22229880247E+02  0.00000000000E+00 0. -1.
         -1   -1    0    0    0  501 -0.00000000000E+00 -0.00000000000E+00 -0.57892628803E+03  0.57892628803E+03  0.00000000000E+00 0.  1.
         25    2    1    2    0    0  0.89255459558E-02 -0.98561759492E+01 -0.40294009053E+03  0.42202585979E+03  0.12509182821E+03 0.  0.
          5    1    3    3  502    0  0.38042461069E+02  0.38066634148E+02 -0.10753448999E+03  0.12032221914E+03  0.41800000000E+01 0. -1.
         -5    1    3    3    0  502 -0.38033535523E+02 -0.47922810097E+02 -0.29540560054E+03  0.30170364065E+03  0.41800000000E+01 0. -1.
        -11    1    1    2    0    0 -0.23181132254E+02  0.12936989935E+02 -0.15347347106E+03  0.15575248608E+03  0.00000000000E+00 0.  1.
         11    1    1    2    0    0  0.23172206708E+02 -0.30808139860E+01 -0.28284618866E+00  0.23377822407E+02  0.00000000000E+00 0. -1.
</event>
<event>
 7    1  0.2714042E-009  0.1099971E+03  0.7561462E-02  0.1260575E+00
          2   -1    0    0  501    0  0.00000000000E+00  0.00000000000E+00  0.52908830769E+03  0.52908830769E+03  0.00000000000E+00 0. -1.
         -2   -1    0    0    0  501 -0.00000000000E+00 -0.00000000000E+00 -0.27150862044E+02  0.27150862044E+02  0.00000000000E+00 0.  1.
         25    2    1    2    0    0  0.13583283359E+01 -0.43249854095E+02  0.33761748154E+03  0.36263773512E+03  0.12509263831E+03 0.  0.
          5    1    3    3  502    0 -0.16526222314E+02  0.41437760491E+02  0.13584665575E+03  0.14304541341E+03  0.41800000000E+01 0. -1.
         -5    1    3    3    0  502  0.17884550650E+02 -0.84687614586E+02  0.20177082579E+03  0.21959232172E+03  0.41800000000E+01 0. -1.
        -11    1    1    2    0    0 -0.33126539165E+02  0.45952301794E+02  0.52182093533E+02  0.77019169840E+02  0.00000000000E+00 0.  1.
         11    1    1    2    0    0  0.31768210829E+02 -0.27024476987E+01  0.11213787057E+03  0.11658226477E+03  0.00000000000E+00 0. -1.
</event>
<event>
 7    1  0.2714042E-009  0.1004061E+03  0.7561462E-02  0.1279444E+00
          1   -1    0    0  501    0  0.00000000000E+00  0.00000000000E+00  0.33833398828E+02  0.33833398828E+02  0.00000000000E+00 0. -1.
         -1   -1    0    0    0  501 -0.00000000000E+00 -0.00000000000E+00 -0.35094608379E+03  0.35094608379E+03  0.00000000000E+00 0.  1.
         25    2    1    2    0    0 -0.16564309589E+02  0.13443384269E+02 -0.16418692062E+03  0.20750688670E+03  0.12508661877E+03 0.  0.
          5    1    3    3  502    0  0.33806958338E+02 -0.29956514752E+02 -0.21850244086E+02  0.50350856743E+02  0.41800000000E+01 0.  1.
         -5    1    3    3    0  502 -0.50371267926E+02  0.43399899021E+02 -0.14233667653E+03  0.15715602996E+03  0.41800000000E+01 0.  1.
        -11    1    1    2    0    0  0.88375131985E+00 -0.49501277085E+02 -0.73095314411E+02  0.88284100711E+02  0.00000000000E+00 0.  1.
         11    1    1    2    0    0  0.15680558269E+02  0.36057892816E+02 -0.79830449936E+02  0.88988495206E+02  0.00000000000E+00 0. -1.
</event>
<event>
 7    1  0.2714042E-009  0.8317771E+02  0.7561462E-02  0.1320268E+00
          1   -1    0    0  501    0  0.00000000000E+00  0.00000000000E+00  0.79726576716E+02  0.79726576716E+02  0.00000000000E+00 0. -1.
         -1   -1    0    0    0  501 -0.00000000000E+00 -0.00000000000E+00 -0.19264034025E+03  0.19264034025E+03  0.00000000000E+00 0.  1.
         25    2    1    2    0    0  0.51012525078E+02 -0.13264414459E+02 -0.32053197238E+02  0.13947535185E+03  0.12509094257E+03 0.  0.
          5    1    3    3  502    0  0.64737110045E+02 -0.31215437841E+02 -0.66540856381E+02  0.98032927858E+02  0.41800000000E+01 0. -1.
         -5    1    3    3    0  502 -0.13724584967E+02  0.17951023382E+02  0.34487659142E+02  0.41442423989E+02  0.41800000000E+01 0. -1.
        -11    1    1    2    0    0 -0.42094297782E+02  0.30496873811E+02 -0.95401944039E+02  0.10864400648E+03  0.00000000000E+00 0.  1.
         11    1    1    2    0    0 -0.89182272964E+01 -0.17232459352E+02  0.14541377740E+02  0.24247558640E+02  0.00000000000E+00 0. -1.
</event>
<event>
 7    1  0.2714042E-009  0.1522726E+03  0.7561462E-02  0.1197708E+00
          3   -1    0    0  501    0  0.00000000000E+00  0.00000000000E+00  0.46665897792E+02  0.46665897792E+02  0.00000000000E+00 0.  1.
         -3   -1    0    0    0  501 -0.00000000000E+00 -0.00000000000E+00 -0.65530784294E+03  0.65530784294E+03  0.00000000000E+00 0. -1.
         25    2    1    2    0    0 -0.41225695359E+02 -0.11761569604E+03 -0.21028630411E+03  0.27459143253E+03  0.12508842957E+03 0.  0.
          5    1    3    3  502    0 -0.30627326891E+02 -0.13881281953E+03 -0.20573065347E+03  0.25009919272E+03  0.41800000000E+01 0.  1.
         -5    1    3    3    0  502 -0.10598368468E+02  0.21197123492E+02 -0.45556506374E+01  0.24492239817E+02  0.41800000000E+01 0.  1.
        -11    1    1    2    0    0  0.55775835601E+02  0.76656771594E+02 -0.16746883657E+03  0.19243964168E+03  0.00000000000E+00 0.  1.
         11    1    1    2    0    0 -0.14550140241E+02  0.40958924447E+02 -0.23088680447E+03  0.23494266652E+03  0.00000000000E+00 0. -1.
</event>
<event>
 7    1  0.2714042E-009  0.1181073E+03  0.7561462E-02  0.1246252E+00
          1   -1    0    0  501    0  0.00000000000E+00  0.00000000000E+00  0.12186238751E+03  0.12186238751E+03  0.00000000000E+00 0. -1.
         -1   -1    0    0    0  501 -0.00000000000E+00 -0.00000000000E+00 -0.16554116029E+03  0.16554116029E+03  0.00000000000E+00 0.  1.
         25    2    1    2    0    0  0.88284107025E+02 -0.17199021000E+02 -0.47332840948E+02  0.16117716519E+03  0.12509113026E+03 0.  0.
          5    1    3    3  502    0  0.97502292693E+02 -0.35810070339E+02 -0.73644119189E+02  0.12739696586E+03  0.41800000000E+01 0.  1.
         -5    1    3    3    0  502 -0.92181856673E+01  0.18611049339E+02  0.26311278241E+02  0.33780199336E+02  0.41800000000E+01 0.  1.
        -11    1    1    2    0    0 -0.31830060560E+02 -0.25096922589E+02 -0.27634498641E+02  0.49057861693E+02  0.00000000000E+00 0.  1.
         11    1    1    2    0    0 -0.56454046465E+02  0.42295943589E+02  0.31288566811E+02  0.77168520911E+02  0.00000000000E+00 0. -1.
</event>
<event>
 7    1  0.2714042E-009  0.1011870E+03  0.7561462E-02  0.1277819E+00
         -2   -1    0    0    0  501 -0.00000000000E+00  0.00000000000E+00  0.32448424895E+02  0.32448424895E+02  0.00000000000E+00 0.  1.
          2   -1    0    0  501    0  0.00000000000E+00 -0.00000000000E+00 -0.42687638321E+03  0.42687638321E+03  0.00000000000E+00 0. -1.
         25    2    1    2    0    0 -0.25143441593E+02 -0.34117080947E+02 -0.20186892628E+03  0.24123587877E+03  0.12509003932E+03 0.  0.
          5    1    3    3  502    0 -0.48991719064E+02  0.15437859657E+02 -0.16977389862E+03  0.17742368810E+03  0.41800000000E+01 0. -1.
         -5    1    3    3    0  502  0.23848277471E+02 -0.49554940604E+02 -0.32095027668E+02  0.63812190666E+02  0.41800000000E+01 0. -1.
        -11    1    1    2    0    0 -0.31763243395E+02  0.64628895844E+01 -0.32155203439E+02  0.45657745028E+02  0.00000000000E+00 0.  1.
         11    1    1    2    0    0  0.56906684988E+02  0.27654191363E+02 -0.16040382859E+03  0.17243118431E+03  0.00000000000E+00 0. -1.
</event>
<event>
 7    1  0.2714042E-009  0.1621061E+03  0.7561462E-02  0.1186339E+00
          2   -1    0    0  501    0  0.00000000000E+00  0.00000000000E+00  0.71277654492E+03  0.71277654492E+03  0.00000000000E+00 0. -1.
         -2   -1    0    0    0  501 -0.00000000000E+00 -0.00000000000E+00 -0.61020815533E+02  0.61020815533E+02  0.00000000000E+00 0.  1.
         25    2    1    2    0    0  0.78054668104E+02 -0.10228298348E+03  0.56811372652E+03  0.59578044564E+03  0.12508714251E+03 0.  0.
          5    1    3    3  502    0  0.91392605991E+02 -0.26721641035E+02  0.22848779423E+03  0.24756978621E+03  0.41800000000E+01 0.  1.
         -5    1    3    3    0  502 -0.13337937887E+02 -0.75561342441E+02  0.33962593229E+03  0.34821065944E+03  0.41800000000E+01 0.  1.
        -11    1    1    2    0    0 -0.91124925206E+02  0.63328472255E+02  0.39700062941E+02  0.11785729672E+03  0.00000000000E+00 0.  1.
         11    1    1    2    0    0  0.13070257102E+02  0.38954511220E+02  0.43941939925E+02  0.60159618096E+02  0.00000000000E+00 0. -1.
</event>
<event>
 7    1  0.2714042E-009  0.8906662E+02  0.7561462E-02  0.1305128E+00
          1   -1    0    0  501    0  0.00000000000E+00  0.00000000000E+00  0.55753780295E+03  0.55753780295E+03  0.00000000000E+00 0. -1.
         -1   -1    0    0    0  501 -0.00000000000E+00 -0.00000000000E+00 -0.21929322849E+02  0.21929322849E+02  0.00000000000E+00 0.  1.
         25    2    1    2    0    0  0.22486713846E+02 -0.54338710072E+01  0.30255054188E+03  0.32820574159E+03  0.12508796571E+03 0.  0.
          5    1    3    3  502    0  0.14747530114E+02 -0.51873238670E+02  0.25676559851E+03  0.26240115761E+03  0.41800000000E+01 0. -1.
         -5    1    3    3    0  502  0.77391837316E+01  0.46439367662E+02  0.45784943368E+02  0.65804583981E+02  0.41800000000E+01 0. -1.
        -11    1    1    2    0    0  0.23948732932E+02  0.16448963812E+02  0.26706860397E+02  0.39463484537E+02  0.00000000000E+00 0.  1.
         11    1    1    2    0    0 -0.46435446778E+02 -0.11015092804E+02  0.20635107782E+03  0.21179789967E+03  0.00000000000E+00 0. -1.
</event>
<event>
 7    1  0.2714042E-009  0.1618105E+03  0.7561462E-02  0.1186668E+00
          1   -1    0    0  501    0  0.00000000000E+00  0.00000000000E+00  0.10054299069E+03  0.10054299069E+03  0.00000000000E+00 0. -1.
         -1   -1    0    0    0  501 -0.00000000000E+00 -0.00000000000E+00 -0.37155540841E+03  0.37155540841E+03  0.00000000000E+00 0.  1.
         25    2    1    2    0    0 -0.19845618173E+01 -0.13655901119E+03 -0.25002458841E+03  0.31114616490E+03  0.12508932449E+03 0.  0.
          5    1    3    3  502    0 -0.11550778966E+02  0.21717741808E+02 -0.21323847408E+02  0.32821634210E+02  0.41800000000E+01 0.  1.
         -5    1    3    3    0  502  0.95662171484E+01 -0.15827675300E+03 -0.22870074100E+03  0.27832453069E+03  0.41800000000E+01 0.  1.
        -11    1    1    2    0    0 -0.13594490789E+02  0.88236021554E+02 -0.50152623255E+02  0.10239966454E+03  0.00000000000E+00 0.  1.
         11    1    1    2    0    0  0.15579052606E+02  0.48322989638E+02  0.29164793943E+02  0.58552569657E+02  0.00000000000E+00 0. -1.
</event>
<event>
 7    1  0.2714042E-009  0.1200266E+03  0.7561462E-02  0.1243053E+00
         -2   -1    0    0    0  501 -0.00000000000E+00  0.00000000000E+00  0.45690627524E+02  0.45690627524E+02  0.00000000000E+00 0.  1.
          2   -1    0    0  501    0  0.00000000000E+00 -0.00000000000E+00 -0.57090642127E+03  0.57090642127E+03  0.00000000000E+00 0. -1.
         25    2    1    2    0    0 -0.60923341459E+02  0.92101869753E+02 -0.36864641848E+03  0.40464962669E+03  0.12508689210E+03 0.  0.
          5    1    3    3  502    0 -0.64647398513E+02  0.54492466773E+02 -0.90518662912E+02  0.12393472397E+03  0.41800000000E+01 0.  1.
         -5    1    3    3    0  502  0.37240570542E+01  0.37609402979E+02 -0.27812775557E+03  0.28071490272E+03  0.41800000000E+01 0.  1.
        -11    1    1    2    0    0  0.64168448931E+02 -0.69698573770E+02 -0.16289628688E+03  0.18844277992E+03  0.00000000000E+00 0. -1.
         11    1    1    2    0    0 -0.32451074718E+01 -0.22403295982E+02  0.63269116198E+01  0.23504642180E+02  0.00000000000E+00 0.  1.
</event>
<event>
 7    1  0.2714042E-009  0.1049886E+03  0.7561462E-02  0.1270142E+00
         -1   -1    0    0    0  501 -0.00000000000E+00  0.00000000000E+00  0.68570937774E+02  0.68570937774E+02  0.00000000000E+00 0.  1.
          1   -1    0    0  501    0  0.00000000000E+00 -0.00000000000E+00 -0.17883151651E+03  0.17883151651E+03  0.00000000000E+00 0. -1.
         25    2    1    2    0    0 -0.62924882969E+01 -0.10035372140E+02 -0.45622588256E+02  0.13367702254E+03  0.12509125347E+03 0.  0.
          5    1    3    3  502    0  0.30222608433E+01  0.54497099207E+02 -0.40591591203E+02  0.68148496381E+02  0.41800000000E+01 0.  1.
         -5    1    3    3    0  502 -0.93147491402E+01 -0.64532471347E+02 -0.50309970532E+01  0.65528526163E+02  0.41800000000E+01 0.  1.
        -11    1    1    2    0    0  0.30639942162E+00  0.49743550441E+02 -0.19816792197E+02  0.53546427930E+02  0.00000000000E+00 0.  1.
         11    1    1    2    0    0  0.59860888753E+01 -0.39708178301E+02 -0.44821198286E+02  0.60179003812E+02  0.00000000000E+00 0. -1.
</event>
<event>
 7    1  0.2714042E-009  0.1774333E+03  0.7561462E-02  0.1170310E+00
          1   -1    0    0  501    0  0.00000000000E+00  0.00000000000E+00  0.96419206781E+02  0.96419206781E+02  0.00000000000E+00 0. -1.
         -1   -1    0    0    0  501 -0.00000000000E+00 -0.00000000000E+00 -0.36653743287E+03  0.36653743287E+03  0.00000000000E+00 0.  1.
         25    2    1    2    0    0 -0.15181841047E+03  0.77667165356E+01 -0.16467102935E+03  0.25665837215E+03  0.12509124847E+03 0.  0.
          5    1    3    3  502    0  0.21146560573E+02 -0.70743116174E+01 -0.25409303713E+02  0.34063587952E+02  0.41800000000E+01 0.  1.
         -5    1    3    3    0  502 -0.17296497104E+03  0.14841028153E+02 -0.13926172564E+03  0.22259478419E+03  0.41800000000E+01 0.  1.
        -11    1    1    2    0    0  0.46117030099E+02 -0.23339336700E+02 -0.81972983188E+02  0.96907559434E+02  0.00000000000E+00 0.  1.
         11    1    1    2    0    0  0.10570138037E+03  0.15572620164E+02 -0.23474213555E+02  0.10939070807E+03  0.00000000000E+00 0. -1.
</event>
<event>
 7    1  0.2714042E-009  0.8903262E+02  0.7561462E-02  0.1305211E+00
          2   -1    0    0  501    0  0.00000000000E+00  0.00000000000E+00  0.20262803393E+03  0.20262803393E+03  0.00000000000E+00 0. -1.
         -2   -1    0    0    0  501 -0.00000000000E+00 -0.00000000000E+00 -0.86459157950E+02  0.86459157950E+02  0.00000000000E+00 0.  1.
         25    2    1    2    0    0  0.64785093741E+02  0.27749700932E+00  0.11237480116E+03  0.18019858514E+03  0.12508496621E+03 0.  0.
          5    1    3    3  502    0  0.55608800031E+02  0.21807259948E+02 -0.53319985594E+01  0.60114872004E+02  0.41800000000E+01 0. -1.
         -5    1    3    3    0  502  0.91762937101E+01 -0.21529762939E+02  0.11770679972E+03  0.12008371313E+03  0.41800000000E+01 0. -1.
        -11    1    1    2    0    0  0.14299298023E+02  0.50117347134E+01  0.22804697331E+02  0.27379584167E+02  0.00000000000E+00 0. -1.
         11    1    1    2    0    0 -0.79084391765E+02 -0.52892317227E+01 -0.19010622516E+02  0.81509022577E+02  0.00000000000E+00 0.  1.
</event>
<event>
 7    1  0.2714042E-009  0.7828625E+02  0.7561462E-02  0.1333986E+00
         -1   -1    0    0    0  501 -0.00000000000E+00  0.00000000000E+00  0.16874788476E+02  0.16874788476E+02  0.00000000000E+00 0.  1.
          1   -1    0    0  501    0  0.00000000000E+00 -0.00000000000E+00 -0.86576558521E+03  0.86576558521E+03  0.00000000000E+00 0. -1.
         25    2    1    2    0    0  0.22525473002E+02 -0.81606294917E+01 -0.64319694684E+03  0.65568472745E+03  0.12508459766E+03 0.  0.
          5    1    3    3  502    0 -0.22840357178E+02  0.26906669801E+02 -0.50165596423E+03  0.50291334208E+03  0.41800000000E+01 0. -1.
         -5    1    3    3    0  502  0.45365830180E+02 -0.35067299293E+02 -0.14154098262E+03  0.15277138537E+03  0.41800000000E+01 0. -1.
        -11    1    1    2    0    0 -0.65515457938E+01  0.33199865236E+02 -0.19071054316E+03  0.19368961014E+03  0.00000000000E+00 0. -1.
         11    1    1    2    0    0 -0.15973927208E+02 -0.25039235745E+02 -0.14983306731E+02  0.33266036098E+02  0.00000000000E+00 0.  1.
</event>
<event>
 7    1  0.2714042E-009  0.3160996E+03  0.7561462E-02  0.1077459E+00
          2   -1    0    0  501    0  0.00000000000E+00  0.00000000000E+00  0.41664367835E+04  0.41664367835E+04  0.00000000000E+00 0. -1.
         -2   -1    0    0    0  501 -0.00000000000E+00 -0.00000000000E+00 -0.32829586390E+02  0.32829586390E+02  0.00000000000E+00 0.  1.
         25    2    1    2    0    0 -0.51759515989E+02 -0.29711494725E+03  0.31303266973E+04  0.31473085005E+04  0.12509686709E+03 0.  0.
          5    1    3    3  502    0 -0.68541533032E+02 -0.30091413604E+03  0.29377107590E+04  0.29538803691E+04  0.41800000000E+01 0. -1.
         -5    1    3    3    0  502  0.16782017043E+02  0.37991887928E+01  0.19261593821E+03  0.19342813132E+03  0.41800000000E+01 0. -1.
        -11    1    1    2    0    0  0.27429103361E+01  0.16345267415E+03  0.66782559936E+03  0.68754296695E+03  0.00000000000E+00 0.  1.
         11    1    1    2    0    0  0.49016605653E+02  0.13366227310E+03  0.33545490046E+03  0.36441490244E+03  0.00000000000E+00 0. -1.
</event>
<event>
 7    1  0.2714042E-009  0.1354831E+03  0.7561462E-02  0.1219539E+00
          2   -1    0    0  501    0  0.00000000000E+00  0.00000000000E+00  0.88055826875E+02  0.88055826875E+02  0.00000000000E+00 0. -1.
         -2   -1    0    0    0  501 -0.00000000000E+00 -0.00000000000E+00 -0.34595661297E+03  0.34595661297E+03  0.00000000000E+00 0.  1.
         25    2    1    2    0    0  0.52531943050E+02  0.78525981939E+02 -0.23882734474E+02  0.15856659199E+03  0.12508814576E+03 0.  0.
          5    1    3    3  502    0  0.93109023778E+02  0.61118541052E+02 -0.24906184700E+02  0.11420401396E+03  0.41800000000E+01 0. -1.
         -5    1    3    3    0  502 -0.40577080728E+02  0.17407440887E+02  0.10234502263E+01  0.44362578025E+02  0.41800000000E+01 0. -1.
        -11    1    1    2    0    0 -0.37501071998E+02 -0.89175020753E+02 -0.23772577228E+03  0.25665552309E+03  0.00000000000E+00 0.  1.
         11    1    1    2    0    0 -0.15030871052E+02  0.10649038814E+02  0.37077206593E+01  0.18790324764E+02  0.00000000000E+00 0. -1.
</event>
<event>
 7    1  0.2714042E-009  0.1247477E+03  0.7561462E-02  0.1235464E+00
         -1   -1    0    0    0  501 -0.00000000000E+00  0.00000000000E+00  0.88626183118E+02  0.88626183118E+02  0.00000000000E+00 0.  1.
          1   -1    0    0  501    0  0.00000000000E+00 -0.00000000000E+00 -0.19920942396E+03  0.19920942396E+03  0.00000000000E+00 0. -1.
         25    2    1    2    0    0  0.88021066234E+01 -0.67641365774E+02 -0.26864671218E+02  0.14498993209E+03  0.12509012113E+03 0.  0.
          5    1    3    3  502    0 -0.15492979772E+02 -0.10005492999E+03 -0.24180019513E+02  0.10417853512E+03  0.41800000000E+01 0. -1.
         -5    1    3    3    0  502  0.24295086396E+02  0.32413564213E+02 -0.26846517058E+01  0.40811396971E+02  0.41800000000E+01 0. -1.
        -11    1    1    2    0    0 -0.23119082246E+02  0.83166435461E+02 -0.41801071917E+02  0.95908693894E+02  0.00000000000E+00 0.  1.
         11    1    1    2    0    0  0.14316975622E+02 -0.15525069687E+02 -0.41917497706E+02  0.46936981089E+02  0.00000000000E+00 0. -1.
</event>
<event>
 7    1  0.2714042E-009  0.1197225E+03  0.7561462E-02  0.1243556E+00
          1   -1    0    0  501    0  0.00000000000E+00  0.00000000000E+00  0.35929228103E+03  0.35929228103E+03  0.00000000000E+00 0. -1.
         -1   -1    0    0    0  501 -0.00000000000E+00 -0.00000000000E+00 -0.48888504174E+02  0.48888504174E+02  0.00000000000E+00 0.  1.
         25    2    1    2    0    0 -0.68337103157E+02 -0.33545074634E+02  0.17845797173E+03  0.23084784341E+03  0.12509295517E+03 0.  0.
          5    1    3    3  502    0 -0.79885898914E+02 -0.67408434183E+02  0.10093717355E+03  0.14536656854E+03  0.41800000000E+01 0. -1.
         -5    1    3    3    0  502  0.11548795756E+02  0.33863359549E+02  0.77520798187E+02  0.85481274879E+02  0.41800000000E+01 0. -1.
        -11    1    1    2    0    0 -0.54668880916E+01 -0.11229770403E+02 -0.65758380226E+01  0.14115107311E+02  0.00000000000E+00 0.  1.
         11    1    1    2    0    0  0.73803991249E+02  0.44774845037E+02  0.13852164315E+03  0.16321783448E+03  0.00000000000E+00 0. -1.
</event>
<event>
 7    1  0.2714042E-009  0.1440941E+03  0.7561462E-02  0.1207924E+00
          3   -1    0    0  501    0  0.00000000000E+00  0.00000000000E+00  0.19050699119E+02  0.19050699119E+02  0.00000000000E+00 0. -1.
         -3   -1    0    0    0  501 -0.00000000000E+00 -0.00000000000E+00 -0.13787130622E+04  0.13787130622E+04  0.00000000000E+00 0.  1.
         25    2    1    2    0    0 -0.77592820856E+02 -0.83231015616E+02 -0.90179872461E+03  0.91751619890E+03  0.12508792000E+03 0.  0.
          5    1    3    3  502    0 -0.87272298984E+02 -0.10014970847E+03 -0.86922110901E+03  0.87932316416E+03  0.41800000000E+01 0. -1.
         -5    1    3    3    0  502  0.96794781281E+01  0.16918692854E+02 -0.32577615598E+02  0.38193034741E+02  0.41800000000E+01 0. -1.
        -11    1    1    2    0    0  0.70605887368E+02  0.22338433384E+02 -0.33321066677E+03  0.34134080533E+03  0.00000000000E+00 0.  1.
         11    1    1    2    0    0  0.69869334880E+01  0.60892582232E+02 -0.12465297173E+03  0.13890675711E+03  0.00000000000E+00 0. -1.
</event>
<event>
 7    1  0.2714042E-009  0.1463023E+03  0.7561462E-02  0.1205092E+00
          1   -1    0    0  501    0  0.00000000000E+00  0.00000000000E+00  0.91313424659E+03  0.91313424659E+03  0.00000000000E+00 0. -1.
         -1   -1    0    0    0  501 -0.00000000000E+00 -0.00000000000E+00 -0.30609157040E+02  0.30609157040E+02  0.00000000000E+00 0.  1.
         25    2    1    2    0    0 -0.10878939125E+02  0.11311136458E+03  0.63249301816E+03  0.65468135255E+03  0.12509085997E+03 0.  0.
          5    1    3    3  502    0 -0.57814296955E+02  0.62719404513E+02  0.21182233770E+03  0.22839087500E+03  0.41800000000E+01 0.  1.
         -5    1    3    3    0  502  0.46935357830E+02  0.50391960069E+02  0.42067068046E+03  0.42629047755E+03  0.41800000000E+01 0.  1.
        -11    1    1    2    0    0  0.42932971563E+02 -0.41312894042E+02  0.15286636564E+03  0.16406742823E+03  0.00000000000E+00 0. -1.
         11    1    1    2    0    0 -0.32054032439E+02 -0.71798470540E+02  0.97165705755E+02  0.12499462285E+03  0.00000000000E+00 0.  1.
</event>
<event>
 7    1  0.2714042E-009  0.1292706E+03  0.7561462E-02  0.1228542E+00
         -2   -1    0    0    0  501 -0.00000000000E+00  0.00000000000E+00  0.22040114849E+02  0.22040114849E+02  0.00000000000E+00 0.  1.
          2   -1    0    0  501    0  0.00000000000E+00 -0.00000000000E+00 -0.15404488905E+04  0.15404488905E+04  0.00000000000E+00 0. -1.
         25    2    1    2    0    0  0.17819268203E+01 -0.88569065671E+02 -0.12830053058E+04  0.12921296579E+04  0.12509509722E+03 0.  0.
          5    1    3    3  502    0 -0.80851680429E+01  0.18831397392E+02 -0.62348847638E+03  0.62383919727E+03  0.41800000000E+01 0. -1.
         -5    1    3    3    0  502  0.98670948632E+01 -0.10740046306E+03 -0.65951682945E+03  0.66829046062E+03  0.41800000000E+01 0. -1.
        -11    1    1    2    0    0 -0.40439337218E+02  0.92939605666E+01 -0.49470439712E+02  0.64568119865E+02  0.00000000000E+00 0. -1.
         11    1    1    2    0    0  0.38657410397E+02  0.79275105105E+02 -0.18593303006E+03  0.20579122755E+03  0.00000000000E+00 0.  1.
</event>
<event>
 7    1  0.2714042E-009  0.9257873E+02  0.7561462E-02  0.1296724E+00
         -2   -1    0    0    0  501 -0.00000000000E+00  0.00000000000E+00  0.43270467843E+02  0.43270467843E+02  0.00000000000E+00 0.  1.
          2   -1    0    0  501    0  0.00000000000E+00 -0.00000000000E+00 -0.40947676604E+03  0.40947676604E+03  0.00000000000E+00 0. -1.
         25    2    1    2    0    0  0.38561869009E+02  0.15341592820E+02 -0.31294089861E+03  0.33956127994E+03  0.12508986609E+03 0.  0.
          5    1    3    3  502    0 -0.37200211341E+02  0.35335997448E+02 -0.15262014510E+03  0.16106790347E+03  0.41800000000E+01 0.  1.
         -5    1    3    3    0  502  0.75762080349E+02 -0.19994404628E+02 -0.16032075351E+03  0.17849337647E+03  0.41800000000E+01 0.  1.
        -11    1    1    2    0    0  0.41908329026E+01 -0.11555791829E+02 -0.67002847069E+02  0.68121075451E+02  0.00000000000E+00 0. -1.
         11    1    1    2    0    0 -0.42752701911E+02 -0.37858009903E+01  0.13737447486E+02  0.45064878490E+02  0.00000000000E+00 0.  1.
</event>
<event>
 7    1  0.2714042E-009  0.2214275E+03  0.7561462E-02  0.1132823E+00
          2   -1    0    0  501    0  0.00000000000E+00  0.00000000000E+00  0.50873577472E+03  0.50873577472E+03  0.00000000000E+00 0.  1.
         -2   -1    0    0    0  501 -0.00000000000E+00 -0.00000000000E+00 -0.10941547694E+03  0.10941547694E+03  0.00000000000E+00 0. -1.
         25    2    1    2    0    0  0.20032816908E+03  0.29872927779E+02  0.19401005247E+03  0.30709750303E+03  0.12508080894E+03 0.  0.
          5    1    3    3  502    0  0.10045042560E+03 -0.13601130457E+02  0.16599925013E+03  0.19454691515E+03  0.41800000000E+01 0. -1.
         -5    1    3    3    0  502  0.99877743485E+02  0.43474058236E+02  0.28010802343E+02  0.11255058787E+03  0.41800000000E+01 0. -1.
        -11    1    1    2    0    0 -0.15480377040E+03  0.29485413472E+02  0.15401687168E+03  0.22035152303E+03  0.00000000000E+00 0.  1.
         11    1    1    2    0    0 -0.45524398679E+02 -0.59358341252E+02  0.51293373628E+02  0.90702225603E+02  0.00000000000E+00 0. -1.
</event>
<event>
 7    1  0.2714042E-009  0.6823538E+02  0.7561462E-02  0.1366199E+00
          1   -1    0    0  501    0  0.00000000000E+00  0.00000000000E+00  0.60423592378E+03  0.60423592378E+03  0.00000000000E+00 0. -1.
         -1   -1    0    0    0  501 -0.00000000000E+00 -0.00000000000E+00 -0.21629167407E+02  0.21629167407E+02  0.00000000000E+00 0.  1.
         25    2    1    2    0    0 -0.89913999182E+00 -0.16998874725E+02  0.42406567822E+03  0.44245390875E+03  0.12507594386E+03 0.  0.
          5    1    3    3  502    0  0.13779406618E+02 -0.23781260756E+02  0.42482661399E+03  0.42573529894E+03  0.41800000000E+01 0. -1.
         -5    1    3    3    0  502 -0.14678546610E+02  0.67823860312E+01 -0.76093576933E+00  0.16718609813E+02  0.41800000000E+01 0. -1.
        -11    1    1    2    0    0  0.15548089958E+02  0.51867479661E+02  0.86615974245E+02  0.10214844856E+03  0.00000000000E+00 0.  1.
         11    1    1    2    0    0 -0.14648949966E+02 -0.34868604936E+02  0.71925103912E+02  0.81262733882E+02  0.00000000000E+00 0. -1.
</event>
<event>
 7    1  0.2714042E-009  0.1224606E+03  0.7561462E-02  0.1239092E+00
          2   -1    0    0  501    0  0.00000000000E+00  0.00000000000E+00  0.11979239360E+04  0.11979239360E+04  0.00000000000E+00 0.  1.
         -2   -1    0    0    0  501 -0.00000000000E+00 -0.00000000000E+00 -0.23211631031E+02  0.23211631031E+02  0.00000000000E+00 0. -1.
         25    2    1    2    0    0 -0.83960409294E+02 -0.88304861591E+02  0.74919106425E+03  0.76927212198E+03  0.12508096576E+03 0.  0.
          5    1    3    3  502    0 -0.70149762999E+02 -0.79632074699E+02  0.74416089773E+03  0.75170151702E+03  0.41800000000E+01 0. -1.
         -5    1    3    3    0  502 -0.13810646295E+02 -0.86727868926E+01  0.50301665147E+01  0.17570604962E+02  0.41800000000E+01 0. -1.
        -11    1    1    2    0    0  0.47127800024E+02  0.47570223563E+02  0.36089551962E+03  0.36705521627E+03  0.00000000000E+00 0.  1.
         11    1    1    2    0    0  0.36832609270E+02  0.40734638028E+02  0.64625721060E+02  0.84808228749E+02  0.00000000000E+00 0. -1.
</event>
<event>
 7    1  0.2714042E-009  0.1105485E+03  0.7561462E-02  0.1259557E+00
         -1   -1    0    0    0  501 -0.00000000000E+00  0.00000000000E+00  0.95595896448E+02  0.95595896448E+02  0.00000000000E+00 0.  1.
          1   -1    0    0  501    0  0.00000000000E+00 -0.00000000000E+00 -0.21832683356E+03  0.21832683356E+03  0.00000000000E+00 0. -1.
         25    2    1    2    0    0 -0.23844496701E+02 -0.48357482328E+02  0.18475066663E+02  0.13746325167E+03  0.12509121212E+03 0.  0.
          5    1    3    3  502    0  0.11550024688E+02  0.32243691589E+02  0.33466271152E+02  0.48067893883E+02  0.41800000000E+01 0.  1.
         -5    1    3    3    0  502 -0.35394521389E+02 -0.80601173917E+02 -0.14991204489E+02  0.89395357783E+02  0.41800000000E+01 0.  1.
        -11    1    1    2    0    0 -0.92968195890E+01 -0.20243734796E+02 -0.93162724749E+01  0.24146067708E+02  0.00000000000E+00 0.  1.
         11    1    1    2    0    0  0.33141316290E+02  0.68601217124E+02 -0.13188973130E+03  0.15231341064E+03  0.00000000000E+00 0. -1.
</event>
<event>
 7    1  0.2714042E-009  0.9273059E+02  0.7561462E-02  0.1296371E+00
         -1   -1    0    0    0  501 -0.00000000000E+00  0.00000000000E+00  0.45737647158E+03  0.45737647158E+03  0.00000000000E+00 0.  1.
          1   -1    0    0  501    0  0.00000000000E+00 -0.00000000000E+00 -0.55019875430E+02  0.55019875430E+02  0.00000000000E+00 0. -1.
         25    2    1    2    0    0 -0.57431783000E+02  0.49221550299E+01  0.48416789050E+02  0.14599335942E+03  0.12508892126E+03 0.  0.
          5    1    3    3  502    0  0.25849281445E+02  0.80921966072E+01  0.55854625781E+02  0.62216401521E+02  0.41800000000E+01 0. -1.
         -5    1    3    3    0  502 -0.83281064446E+02 -0.31700415773E+01 -0.74378367309E+01  0.83776957894E+02  0.41800000000E+01 0. -1.
        -11    1    1    2    0    0  0.51895427394E+02 -0.22215199351E+02  0.33658329254E+03  0.34128428514E+03  0.00000000000E+00 0.  1.
         11    1    1    2    0    0  0.55363556066E+01  0.17293044321E+02  0.17356514559E+02  0.25118702453E+02  0.00000000000E+00 0. -1.
</event>
<event>
 7    1  0.2714042E-009  0.1239902E+03  0.7561462E-02  0.1236656E+00
          2   -1    0    0  501    0  0.00000000000E+00  0.00000000000E+00  0.73453340139E+03  0.73453340139E+03  0.00000000000E+00 0. -1.
         -2   -1    0    0    0  501 -0.00000000000E+00 -0.00000000000E+00 -0.21410610660E+02  0.21410610660E+02  0.00000000000E+00 0.  1.
         25    2    1    2    0    0  0.28929064922E+02  0.64932838690E+02  0.46228729765E+03  0.48415675973E+03  0.12508020662E+03 0.  0.
          5    1    3    3  502    0 -0.49117488768E+02  0.33241967193E+02  0.19882135943E+03  0.20752099039E+03  0.41800000000E+01 0.  1.
         -5    1    3    3    0  502  0.78046553690E+02  0.31690871498E+02  0.26346593822E+03  0.27663576934E+03  0.41800000000E+01 0.  1.
        -11    1    1    2    0    0 -0.51004869459E+02 -0.64336412583E+02  0.18665525161E+03  0.20391383878E+03  0.00000000000E+00 0. -1.
         11    1    1    2    0    0  0.22075804537E+02 -0.59642610696E+00  0.64180241478E+02  0.67873413545E+02  0.00000000000E+00 0.  1.
</event>
<event>
 7    1  0.2714042E-009  0.1337666E+03  0.7561462E-02  0.1221971E+00
         -3   -1    0    0    0  501 -0.00000000000E+00  0.00000000000E+00  0.17970739154E+03  0.17970739154E+03  0.00000000000E+00 0.  1.
          3   -1    0    0  501    0  0.00000000000E+00 -0.00000000000E+00 -0.10390077917E+03  0.10390077917E+03  0.00000000000E+00 0. -1.
         25    2    1    2    0    0  0.70113453463E+02  0.43126568702E+02  0.35988875416E+02  0.15400870054E+03  0.12509070071E+03 0.  0.
          5    1    3    3  502    0  0.52900638263E+02  0.86572158900E+02  0.15127795887E+02  0.10266225613E+03  0.41800000000E+01 0.  1.
         -5    1    3    3    0  502  0.17212815199E+02 -0.43445590198E+02  0.20861079529E+02  0.51346444413E+02  0.41800000000E+01 0.  1.
        -11    1    1    2    0    0 -0.26330332242E+02 -0.65000329703E+02  0.39838756407E+02  0.80656405632E+02  0.00000000000E+00 0. -1.
         11    1    1    2    0    0 -0.43783121220E+02  0.21873761000E+02 -0.21019454320E-01  0.48943064533E+02  0.00000000000E+00 0.  1.
</event>
<event>
 7    1  0.2714042E-009  0.7909937E+02  0.7561462E-02  0.1331627E+00
         -1   -1    0    0    0  501 -0.00000000000E+00  0.00000000000E+00  0.48289472046E+03  0.48289472046E+03  0.00000000000E+00 0.  1.
          1   -1    0    0  501    0  0.00000000000E+00 -0.00000000000E+00 -0.30194090705E+02  0.30194090705E+02  0.00000000000E+00 0. -1.
         25    2    1    2    0    0 -0.54747546169E+02 -0.53078239970E+01  0.25808394611E+03  0.29202740061E+03  0.12508881909E+03 0.  0.
          5    1    3    3  502    0 -0.46834191345E+02 -0.20199623647E+02  0.26744138288E+03  0.27229365022E+03  0.41800000000E+01 0. -1.
         -5    1    3    3    0  502 -0.79133548237E+01  0.14891799650E+02 -0.93574367732E+01  0.19733750387E+02  0.41800000000E+01 0. -1.
        -11    1    1    2    0    0  0.46504884362E+02  0.35401934525E+02  0.17427332965E+03  0.18381293389E+03  0.00000000000E+00 0.  1.
         11    1    1    2    0    0  0.82426618069E+01 -0.30094110528E+02  0.20343354001E+02  0.37248476669E+02  0.00000000000E+00 0. -1.
</event>
<event>
 7    1  0.2714042E-009  0.1153399E+03  0.7561462E-02  0.1250989E+00
         -2   -1    0    0    0  501 -0.00000000000E+00  0.00000000000E+00  0.30583571236E+03  0.30583571236E+03  0.00000000000E+00 0.  1.
          2   -1    0    0  501    0  0.00000000000E+00 -0.00000000000E+00 -0.12273443611E+03  0.12273443611E+03  0.00000000000E+00 0. -1.
         25    2    1    2    0    0 -0.90014393260E+02 -0.34433251338E+02  0.23765186277E+03  0.28533047601E+03  0.12508730101E+03 0.  0.
          5    1    3    3  502    0 -0.66593155595E+02 -0.36886525859E+02  0.24786353530E+03  0.25932425396E+03  0.41800000000E+01 0.  1.
         -5    1    3    3    0  502 -0.23421237665E+02  0.24532745214E+01 -0.10211672529E+02  0.26006222054E+02  0.41800000000E+01 0.  1.
        -11    1    1    2    0    0 -0.17781140087E+02  0.81915123314E+01  0.74016938282E-01  0.19577418000E+02  0.00000000000E+00 0.  1.
         11    1    1    2    0    0  0.10779553335E+03  0.26241739006E+02 -0.54624603457E+02  0.12366225446E+03  0.00000000000E+00 0. -1.
</event>
<event>
 7    1  0.2714042E-009  0.2356893E+03  0.7561462E-02  0.1122698E+00
          1   -1    0    0  501    0  0.00000000000E+00  0.00000000000E+00  0.74370251474E+03  0.74370251474E+03  0.00000000000E+00 0. -1.
         -1   -1    0    0    0  501 -0.00000000000E+00 -0.00000000000E+00 -0.11696248358E+03  0.11696248358E+03  0.00000000000E+00 0.  1.
         25    2    1    2    0    0  0.15505369462E+03 -0.15665050054E+03  0.56251850542E+03  0.61697323699E+03  0.12509148127E+03 0.  0.
          5    1    3    3  502    0  0.16262170698E+03 -0.16827120086E+03  0.55037234746E+03  0.59807040545E+03  0.41800000000E+01 0. -1.
         -5    1    3    3    0  502 -0.75680123640E+01  0.11620700322E+02  0.12146157955E+02  0.18902831539E+02  0.41800000000E+01 0. -1.
        -11    1    1    2    0    0 -0.89454891283E+02  0.11269327345E+03  0.77798587596E+02  0.16356824779E+03  0.00000000000E+00 0.  1.
         11    1    1    2    0    0 -0.65598803334E+02  0.43957227098E+02 -0.13577061862E+02  0.80123513538E+02  0.00000000000E+00 0. -1.
</event>
<event>
 7    1  0.2714042E-009  0.2312408E+03  0.7561462E-02  0.1125769E+00
         -3   -1    0    0    0  501 -0.00000000000E+00  0.00000000000E+00  0.10568399435E+04  0.10568399435E+04  0.00000000000E+00 0.  1.
          3   -1    0    0  501    0  0.00000000000E+00 -0.00000000000E+00 -0.82743805986E+02  0.82743805986E+02  0.00000000000E+00 0. -1.
         25    2    1    2    0    0 -0.16136690974E+03 -0.12878921220E+03  0.14805521806E+03  0.28318453275E+03  0.12508873353E+03 0.  0.
          5    1    3    3  502    0 -0.17910843065E+03 -0.94828883602E+02  0.12799047249E+03  0.23973189304E+03  0.41800000000E+01 0.  1.
         -5    1    3    3    0  502  0.17741520907E+02 -0.33960328597E+02  0.20064745568E+02  0.43452639704E+02  0.41800000000E+01 0.  1.
        -11    1    1    2    0    0  0.13514882990E+03  0.13827403530E+03  0.76863195171E+03  0.79257806698E+03  0.00000000000E+00 0.  1.
         11    1    1    2    0    0  0.26218079843E+02 -0.94848230983E+01  0.57408967767E+02  0.63821149785E+02  0.00000000000E+00 0. -1.
</event>
<event>
 7    1  0.2714042E-009  0.1255266E+03  0.7561462E-02  0.1234249E+00
         -1   -1    0    0    0  501 -0.00000000000E+00  0.00000000000E+00  0.29400477882E+02  0.29400477882E+02  0.00000000000E+00 0.  1.
          1   -1    0    0  501    0  0.00000000000E+00 -0.00000000000E+00 -0.87889052689E+03  0.87889052689E+03  0.00000000000E+00 0. -1.
         25    2    1    2    0    0  0.10926476361E+03 -0.39924175487E+02 -0.56652964428E+03  0.59172309375E+03  0.12509058108E+03 0.  0.
          5    1    3    3  502    0  0.54372866454E+02 -0.53906254536E+01 -0.48197619745E+03  0.48508143106E+03  0.41800000000E+01 0. -1.
         -5    1    3    3    0  502  0.54891897156E+02 -0.34533550033E+02 -0.84553446837E+02  0.10664166270E+03  0.41800000000E+01 0. -1.
        -11    1    1    2    0    0 -0.97441307645E+01  0.29660179654E+02 -0.25363450548E+02  0.40224109253E+02  0.00000000000E+00 0.  1.
         11    1    1    2    0    0 -0.99520632846E+02  0.10263995832E+02 -0.25759695418E+03  0.27634380177E+03  0.00000000000E+00 0. -1.
</event>
<event>
 7    1  0.2714042E-009  0.4402008E+02  0.7561462E-02  0.1480553E+00
         -2   -1    0    0    0  501 -0.00000000000E+00  0.00000000000E+00  0.29098961133E+02  0.29098961133E+02  0.00000000000E+00 0.  1.
          2   -1    0    0  501    0  0.00000000000E+00 -0.00000000000E+00 -0.38236715678E+03  0.38236715678E+03  0.00000000000E+00 0. -1.
         25    2    1    2    0    0 -0.32025481872E+02 -0.33587018088E+01 -0.22472592378E+03  0.25920271087E+03  0.12508953648E+03 0.  0.
          5    1    3    3  502    0 -0.38043900937E+02 -0.47313075843E+01 -0.23953687576E+03  0.24262133237E+03  0.41800000000E+01 0.  1.
         -5    1    3    3    0  502  0.60184190649E+01  0.13726057755E+01  0.14810951979E+02  0.16581378506E+02  0.41800000000E+01 0.  1.
        -11    1    1    2    0    0  0.25817902490E+02  0.14246569232E+02 -0.13498706810E+03  0.13817032017E+03  0.00000000000E+00 0. -1.
         11    1    1    2    0    0  0.62075793817E+01 -0.10887867423E+02  0.64447962353E+01  0.14093086863E+02  0.00000000000E+00 0.  1.
</event>
<event>
 7    1  0.2714042E-009  0.1131224E+03  0.7561462E-02  0.1254895E+00
         -2   -1    0    0    0  501 -0.00000000000E+00  0.00000000000E+00  0.25562993730E+03  0.25562993730E+03  0.00000000000E+00 0.  1.
          2   -1    0    0  501    0  0.00000000000E+00 -0.00000000000E+00 -0.71016916170E+02  0.71016916170E+02  0.00000000000E+00 0. -1.
         25    2    1    2    0    0 -0.51950173464E+02  0.59800246642E+02  0.83270742600E+02  0.16986425023E+03  0.12507980217E+03 0.  0.
          5    1    3    3  502    0 -0.15944080743E+02  0.90074879690E+02  0.25124781385E+02  0.94954856124E+02  0.41800000000E+01 0. -1.
         -5    1    3    3    0  502 -0.36006092721E+02 -0.30274633047E+02  0.58145961216E+02  0.74909394103E+02  0.41800000000E+01 0. -1.
        -11    1    1    2    0    0  0.16799649335E+02  0.14126939407E+01  0.81829071553E+02  0.83547716146E+02  0.00000000000E+00 0.  1.
         11    1    1    2    0    0  0.35150524128E+02 -0.61212940583E+02  0.19513206972E+02  0.73234887094E+02  0.00000000000E+00 0. -1.
</event>
<event>
 7    1  0.2714042E-009  0.2726549E+03  0.7561462E-02  0.1099770E+00
          2   -1    0    0  501    0  0.00000000000E+00  0.00000000000E+00  0.67622631592E+03  0.67622631592E+03  0.00000000000E+00 0. -1.
         -2   -1    0    0    0  501 -0.00000000000E+00 -0.00000000000E+00 -0.15429860114E+03  0.15429860114E+03  0.00000000000E+00 0.  1.
         25    2    1    2    0    0  0.22823777536E+03 -0.12245124497E+03  0.47008737029E+03  0.55110478151E+03  0.12509018749E+03 0.  0.
          5    1    3    3  502    0  0.11683009405E+03 -0.11888846421E+03  0.34709080980E+03  0.38506264483E+03  0.41800000000E+01 0. -1.
         -5    1    3    3    0  502  0.11140768131E+03 -0.35627807581E+01  0.12299656049E+03  0.16604213668E+03  0.41800000000E+01 0. -1.
        -11    1    1    2    0    0 -0.95843785935E+02  0.88261671919E+02 -0.71771222840E+01  0.13049009586E+03  0.00000000000E+00 0.  1.
         11    1    1    2    0    0 -0.13239398942E+03  0.34189573050E+02  0.59017466777E+02  0.14893003970E+03  0.00000000000E+00 0. -1.
</event>
<event>
 7    1  0.2714042E-009  0.1398055E+03  0.7561462E-02  0.1213591E+00
          2   -1    0    0  501    0  0.00000000000E+00  0.00000000000E+00  0.38646131799E+03  0.38646131799E+03  0.00000000000E+00 0. -1.
         -2   -1    0    0    0  501 -0.00000000000E+00 -0.00000000000E+00 -0.56644805078E+02  0.56644805078E+02  0.00000000000E+00 0.  1.
         25    2    1    2    0    0  0.14561606119E+02  0.94813118284E+02  0.16363194131E+03  0.22721057750E+03  0.12509063330E+03 0.  0.
          5    1    3    3  502    0  0.51862521097E+02  0.87605641236E+01  0.10219697880E+03  0.11501375333E+03  0.41800000000E+01 0. -1.
         -5    1    3    3    0  502 -0.37300914978E+02  0.86052554160E+02  0.61434962509E+02  0.11219682417E+03  0.41800000000E+01 0. -1.
        -11    1    1    2    0    0  0.45714067671E+01 -0.10903192995E+03  0.15500479482E+03  0.18956620459E+03  0.00000000000E+00 0. -1.
         11    1    1    2    0    0 -0.19133012886E+02  0.14218811666E+02  0.11179776790E+02  0.26329340979E+02  0.00000000000E+00 0.  1.
</event>
<event>
 7    1  0.2714042E-009  0.1172934E+03  0.7561462E-02  0.1247630E+00
         -2   -1    0    0    0  501 -0.00000000000E+00  0.00000000000E+00  0.25904789403E+02  0.25904789403E+02  0.00000000000E+00 0.  1.
          2   -1    0    0  501    0  0.00000000000E+00 -0.00000000000E+00 -0.64862451438E+03  0.64862451438E+03  0.00000000000E+00 0. -1.
         25    2    1    2    0    0 -0.39421933952E+02  0.50153187613E+02 -0.24459011561E+03  0.28203139418E+03  0.12509177248E+03 0.  0.
          5    1    3    3  502    0 -0.51698322169E+02 -0.29176779205E+02 -0.92133283134E+02  0.10968142605E+03  0.41800000000E+01 0.  1.
         -5    1    3    3    0  502  0.12276388217E+02  0.79329966818E+02 -0.15245683248E+03  0.17234996812E+03  0.41800000000E+01 0.  1.
        -11    1    1    2    0    0  0.88238977796E+01  0.17967018388E+02 -0.27555404215E+02  0.34058408994E+02  0.00000000000E+00 0.  1.
         11    1    1    2    0    0  0.30598036173E+02 -0.68120206001E+02 -0.35057420515E+03  0.35843950061E+03  0.00000000000E+00 0. -1.
</event>
<event>
 7    1  0.2714042E-009  0.1001431E+03  0.7561462E-02  0.1279995E+00
         -2   -1    0    0    0  501 -0.00000000000E+00  0.00000000000E+00  0.55518469845E+02  0.55518469845E+02  0.00000000000E+00 0. -1.
          2   -1    0    0  501    0  0.00000000000E+00 -0.00000000000E+00 -0.22681117936E+03  0.22681117936E+03  0.00000000000E+00 0.  1.
         25    2    1    2    0    0 -0.16172024653E+02 -0.19499731271E+02 -0.76036268764E+02  0.14856360361E+03  0.12509139159E+03 0.  0.
          5    1    3    3  502    0 -0.52080604221E+02  0.29795495262E+02 -0.14595233879E+02  0.61892278403E+02  0.41800000000E+01 0.  1.
         -5    1    3    3    0  502  0.35908579569E+02 -0.49295226534E+02 -0.61441034886E+02  0.86671325209E+02  0.41800000000E+01 0.  1.
        -11    1    1    2    0    0  0.31164460009E+02  0.41799239671E+02 -0.93230284392E+02  0.10681893995E+03  0.00000000000E+00 0.  1.
         11    1    1    2    0    0 -0.14992435356E+02 -0.22299508400E+02 -0.20261563589E+01  0.26947105640E+02  0.00000000000E+00 0. -1.
</event>
<event>
 7    1  0.2714042E-009  0.8876041E+02  0.7561462E-02  0.1305882E+00
          1   -1    0    0  501    0  0.00000000000E+00  0.00000000000E+00  0.49377168814E+03  0.49377168814E+03  0.00000000000E+00 0. -1.
         -1   -1    0    0    0  501 -0.00000000000E+00 -0.00000000000E+00 -0.22779573995E+02  0.22779573995E+02  0.00000000000E+00 0.  1.
         25    2    1    2    0    0 -0.16532096271E+02  0.19629851417E+02  0.29283254302E+03  0.31946369676E+03  0.12509002366E+03 0.  0.
          5    1    3    3  502    0  0.30062120087E+02  0.34750051033E+02  0.37542919291E+02  0.59483109366E+02  0.41800000000E+01 0. -1.
         -5    1    3    3    0  502 -0.46594216359E+02 -0.15120199616E+02  0.25528962373E+03  0.25998058739E+03  0.41800000000E+01 0. -1.
        -11    1    1    2    0    0  0.44939695456E+02  0.42047847437E+01  0.75832607443E+02  0.88248743867E+02  0.00000000000E+00 0.  1.
         11    1    1    2    0    0 -0.28407599185E+02 -0.23834636161E+02  0.10232696368E+03  0.10883882151E+03  0.00000000000E+00 0. -1.
</event>
<event>
 7    1  0.2714042E-009  0.1437392E+03  0.7561462E-02  0.1208384E+00
         -2   -1    0    0    0  501 -0.00000000000E+00  0.00000000000E+00  0.24072999691E+02  0.24072999691E+02  0.00000000000E+00 0.  1.
          2   -1    0    0  501    0  0.00000000000E+00 -0.00000000000E+00 -0.92073409152E+03  0.92073409152E+03  0.00000000000E+00 0. -1.
         25    2    1    2    0    0 -0.41075815121E+02  0.92057655585E+02 -0.44391465310E+03  0.47209096555E+03  0.12509127062E+03 0.  0.
          5    1    3    3  502    0  0.60300180691E+01  0.10446299551E+03 -0.36052346795E+03  0.37542445564E+03  0.41800000000E+01 0. -1.
         -5    1    3    3    0  502 -0.47105833190E+02 -0.12405339926E+02 -0.83391185148E+02  0.96666509918E+02  0.41800000000E+01 0. -1.
        -11    1    1    2    0    0  0.44378907418E+02 -0.27133627676E+01 -0.19153595446E+03  0.19662876598E+03  0.00000000000E+00 0. -1.
         11    1    1    2    0    0 -0.33030922964E+01 -0.89344292818E+02 -0.26121048428E+03  0.27608735968E+03  0.00000000000E+00 0.  1.
</event>
<event>
 7    1  0.2714042E-009  0.1200770E+03  0.7561462E-02  0.1242970E+00
         -2   -1    0    0    0  501 -0.00000000000E+00  0.00000000000E+00  0.41356035627E+02  0.41356035627E+02  0.00000000000E+00 0.  1.
          2   -1    0    0  501    0  0.00000000000E+00 -0.00000000000E+00 -0.45683750742E+03  0.45683750742E+03  0.00000000000E+00 0. -1.
         25    2    1    2    0    0  0.84454339014E+02 -0.11260566789E+02 -0.27082500569E+03  0.31023869906E+03  0.12507010413E+03 0.  0.
          5    1    3    3  502    0  0.64157467780E+01 -0.37429560369E+02 -0.19347388153E+03  0.19720991108E+03  0.41800000000E+01 0. -1.
         -5    1    3    3    0  502  0.78038592236E+02  0.26168993580E+02 -0.77351124162E+02  0.11302878798E+03  0.41800000000E+01 0. -1.
        -11    1    1    2    0    0 -0.80172624531E+02 -0.24254717003E+02 -0.10877507948E+03  0.13728786886E+03  0.00000000000E+00 0.  1.
         11    1    1    2    0    0 -0.42817144832E+01  0.35515283792E+02 -0.35881386623E+02  0.50666975119E+02  0.00000000000E+00 0. -1.
</event>
<event>
 7    1  0.2714042E-009  0.2350116E+03  0.7561462E-02  0.1123161E+00
         -1   -1    0    0    0  501 -0.00000000000E+00  0.00000000000E+00  0.91339398033E+02  0.91339398033E+02  0.00000000000E+00 0.  1.
          1   -1    0    0  501    0  0.00000000000E+00 -0.00000000000E+00 -0.70013721410E+03  0.70013721410E+03  0.00000000000E+00 0. -1.
         25    2    1    2    0    0 -0.67376553165E+02 -0.20700400171E+03 -0.43522196833E+03  0.50244818857E+03  0.12508302780E+03 0.  0.
          5    1    3    3  502    0 -0.30124060350E+02  0.90548291588E+01 -0.58452265316E+02  0.66510064379E+02  0.41800000000E+01 0.  1.
         -5    1    3    3    0  502 -0.37252492815E+02 -0.21605883087E+03 -0.37676970301E+03  0.43593812419E+03  0.41800000000E+01 0.  1.
        -11    1    1    2    0    0  0.25426221571E+02  0.11662091671E+03 -0.47826437607E+02  0.12858576551E+03  0.00000000000E+00 0.  1.
         11    1    1    2    0    0  0.41950331594E+02  0.90383085003E+02 -0.12574941014E+03  0.16044265806E+03  0.00000000000E+00 0. -1.
</event>
<event>
 7    1  0.2714042E-009  0.1118498E+03  0.7561462E-02  0.1257182E+00
          1   -1    0    0  501    0  0.00000000000E+00  0.00000000000E+00  0.11525468789E+03  0.11525468789E+03  0.00000000000E+00 0. -1.
         -1   -1    0    0    0  501 -0.00000000000E+00 -0.00000000000E+00 -0.11335495782E+03  0.11335495782E+03  0.00000000000E+00 0.  1.
         25    2    1    2    0    0  0.13660539614E+02  0.35081956801E+02 -0.11660045762E+01  0.13063648217E+03  0.12508867604E+03 0.  0.
          5    1    3    3  502    0  0.29398503243E+02  0.78206647845E+02  0.65019284609E+01  0.83906491012E+02  0.41800000000E+01 0.  1.
         -5    1    3    3    0  502 -0.15737963630E+02 -0.43124691044E+02 -0.76679330371E+01  0.46729991161E+02  0.41800000000E+01 0.  1.
        -11    1    1    2    0    0 -0.42629043955E+02 -0.46252702891E+02  0.15077465204E+02  0.64682902457E+02  0.00000000000E+00 0. -1.
         11    1    1    2    0    0  0.28968504341E+02  0.11170746090E+02 -0.12011730551E+02  0.33290261080E+02  0.00000000000E+00 0.  1.
</event>
<event>
 7    1  0.2714042E-009  0.2403288E+03  0.7561462E-02  0.1119574E+00
          1   -1    0    0  501    0  0.00000000000E+00  0.00000000000E+00  0.38601746086E+03  0.38601746086E+03  0.00000000000E+00 0. -1.
         -1   -1    0    0    0  501 -0.00000000000E+00 -0.00000000000E+00 -0.18342800126E+03  0.18342800126E+03  0.00000000000E+00 0.  1.
         25    2    1    2    0    0 -0.13040689628E+03  0.19054076777E+03  0.18465971866E+03  0.32102744852E+03  0.12509064004E+03 0.  0.
          5    1    3    3  502    0 -0.30188303195E+01  0.66671261484E+02  0.10896448950E+03  0.12784718541E+03  0.41800000000E+01 0. -1.
         -5    1    3    3    0  502 -0.12738806596E+03  0.12386950629E+03  0.75695229157E+02  0.19318026311E+03  0.41800000000E+01 0. -1.
        -11    1    1    2    0    0  0.22162597094E+02 -0.72888056872E+02 -0.29443938324E+02  0.81674935253E+02  0.00000000000E+00 0.  1.
         11    1    1    2    0    0  0.10824429919E+03 -0.11765271090E+03  0.47373679267E+02  0.16674307835E+03  0.00000000000E+00 0. -1.
</event>
<event>
 7    1  0.2714042E-009  0.1894895E+03  0.7561462E-02  0.1158923E+00
         -2   -1    0    0    0  501 -0.00000000000E+00  0.00000000000E+00  0.15583180271E+03  0.15583180271E+03  0.00000000000E+00 0.  1.
          2   -1    0    0  501    0  0.00000000000E+00 -0.00000000000E+00 -0.24119336230E+03  0.24119336230E+03  0.00000000000E+00 0. -1.
         25    2    1    2    0    0  0.10379584528E+03 -0.12117379367E+03 -0.66365399192E+02  0.21331639636E+03  0.12507139151E+03 0.  0.
          5    1    3    3  502    0  0.69896626428E+02 -0.14058409997E+03 -0.30231917408E+02  0.15994020377E+03  0.41800000000E+01 0.  1.
         -5    1    3    3    0  502  0.33899218850E+02  0.19410306300E+02 -0.36133481784E+02  0.53376192587E+02  0.41800000000E+01 0.  1.
        -11    1    1    2    0    0 -0.62241810178E+02  0.12626383708E+03 -0.17032583954E+02  0.14179812553E+03  0.00000000000E+00 0.  1.
         11    1    1    2    0    0 -0.41554035100E+02 -0.50900434039E+01 -0.19635764435E+01  0.41910643128E+02  0.00000000000E+00 0. -1.
</event>
<event>
 7    1  0.2714042E-009  0.2021979E+03  0.7561462E-02  0.1147898E+00
          2   -1    0    0  501    0  0.00000000000E+00  0.00000000000E+00  0.10169593635E+03  0.10169593635E+03  0.00000000000E+00 0. -1.
         -2   -1    0    0    0  501 -0.00000000000E+00 -0.00000000000E+00 -0.48767931987E+03  0.48767931987E+03  0.00000000000E+00 0.  1.
         25    2    1    2    0    0 -0.15723466535E+03  0.81229660346E+02 -0.94903339810E+02  0.23658707246E+03  0.12508317729E+03 0.  0.
          5    1    3    3  502    0 -0.16113616778E+03  0.28919538554E+02 -0.77372539005E+02  0.18112202094E+03  0.41800000000E+01 0.  1.
         -5    1    3    3    0  502  0.39015024322E+01  0.52310121792E+02 -0.17530800806E+02  0.55465051519E+02  0.41800000000E+01 0.  1.
        -11    1    1    2    0    0  0.56197328312E+02 -0.64583575301E+02 -0.19236404666E+03  0.21055427888E+03  0.00000000000E+00 0.  1.
         11    1    1    2    0    0  0.10103733704E+03 -0.16646085045E+02 -0.98715997052E+02  0.14223390488E+03  0.00000000000E+00 0. -1.
</event>
<event>
 7    1  0.2714042E-009  0.1563875E+03  0.7561462E-02  0.1192837E+00
         -2   -1    0    0    0  501 -0.00000000000E+00  0.00000000000E+00  0.33465597619E+03  0.33465597619E+03  0.00000000000E+00 0.  1.
          2   -1    0    0  501    0  0.00000000000E+00 -0.00000000000E+00 -0.87955850313E+02  0.87955850313E+02  0.00000000000E+00 0. -1.
         25    2    1    2    0    0 -0.12392949334E+03 -0.24957526838E+02  0.80525292948E+02  0.19522698819E+03  0.12509139318E+03 0.  0.
          5    1    3    3  502    0  0.51240039547E+01  0.24713558867E+02  0.46004795865E+02  0.52639614844E+02  0.41800000000E+01 0.  1.
         -5    1    3    3    0  502 -0.12905349729E+03 -0.49671085705E+02  0.34520497084E+02  0.14258737334E+03  0.41800000000E+01 0.  1.
        -11    1    1    2    0    0 -0.20319647029E+01 -0.16203506233E+02  0.44801870438E+02  0.47685323628E+02  0.00000000000E+00 0.  1.
         11    1    1    2    0    0  0.12596145804E+03  0.41161033071E+02  0.12137296249E+03  0.17969951469E+03  0.00000000000E+00 0. -1.
</event>
<event>
 7    1  0.2714042E-009  0.1401279E+03  0.7561462E-02  0.1213157E+00
          2   -1    0    0  501    0  0.00000000000E+00  0.00000000000E+00  0.23151346746E+03  0.23151346746E+03  0.00000000000E+00 0. -1.
         -2   -1    0    0    0  501 -0.00000000000E+00 -0.00000000000E+00 -0.11026489704E+03  0.11026489704E+03  0.00000000000E+00 0.  1.
         25    2    1    2    0    0 -0.10361432797E+03 -0.14823201359E+02  0.11875398412E+03  0.20175670806E+03  0.12509038430E+03 0.  0.
          5    1    3    3  502    0 -0.10550365698E+03 -0.43494289189E+02  0.12776037816E+03  0.17135624137E+03  0.41800000000E+01 0.  1.
         -5    1    3    3    0  502  0.18893290180E+01  0.28671087830E+02 -0.90063940346E+01  0.30400466691E+02  0.41800000000E+01 0.  1.
        -11    1    1    2    0    0  0.11702909612E+03 -0.66279970393E-02 -0.82524554475E+01  0.11731970168E+03  0.00000000000E+00 0.  1.
         11    1    1    2    0    0 -0.13414768153E+02  0.14829829356E+02  0.10747041747E+02  0.22701954753E+02  0.00000000000E+00 0. -1.
</event>
<event>
 7    1  0.2714042E-009  0.1052857E+03  0.7561462E-02  0.1269558E+00
         -1   -1    0    0    0  501 -0.00000000000E+00  0.00000000000E+00  0.39773291655E+02  0.39773291655E+02  0.00000000000E+00 0.  1.
          1   -1    0    0  501    0  0.00000000000E+00 -0.00000000000E+00 -0.38025315843E+03  0.38025315843E+03  0.00000000000E+00 0. -1.
         25    2    1    2    0    0  0.37506661056E+02  0.26929486461E+02 -0.25430275100E+03  0.28714345858E+03  0.12509808062E+03 0.  0.
          5    1    3    3  502    0  0.71038141315E+02  0.47846263368E+02 -0.21400743206E+03  0.23054790352E+03  0.41800000000E+01 0. -1.
         -5    1    3    3    0  502 -0.33531480258E+02 -0.20916776907E+02 -0.40295318944E+02  0.56595555067E+02  0.41800000000E+01 0. -1.
        -11    1    1    2    0    0 -0.34301701393E+02 -0.50634418638E+02 -0.23020666609E+02  0.65348314136E+02  0.00000000000E+00 0.  1.
         11    1    1    2    0    0 -0.32049596632E+01  0.23704932177E+02 -0.63156449161E+02  0.67534677363E+02  0.00000000000E+00 0. -1.
</event>
<event>
 7    1  0.2714042E-009  0.1329240E+03  0.7561462E-02  0.1223180E+00
         -1   -1    0    0    0  501 -0.00000000000E+00  0.00000000000E+00  0.43020033763E+02  0.43020033763E+02  0.00000000000E+00 0.  1.
          1   -1    0    0  501    0  0.00000000000E+00 -0.00000000000E+00 -0.51415505018E+03  0.51415505018E+03  0.00000000000E+00 0. -1.
         25    2    1    2    0    0 -0.70078692079E+02 -0.74685633716E+02 -0.25440753326E+03  0.30142922144E+03  0.12508963024E+03 0.  0.
          5    1    3    3  502    0 -0.86361529765E+01  0.30392447275E+02 -0.21036130703E+02  0.38187369438E+02  0.41800000000E+01 0. -1.
         -5    1    3    3    0  502 -0.61442539103E+02 -0.10507808099E+03 -0.23337140255E+03  0.26324185200E+03  0.41800000000E+01 0. -1.
        -11    1    1    2    0    0  0.69472161892E+02  0.45623959966E+02 -0.21008525478E+03  0.22592861987E+03  0.00000000000E+00 0. -1.
         11    1    1    2    0    0  0.60653018698E+00  0.29061673750E+02 -0.66422283746E+01  0.29817242626E+02  0.00000000000E+00 0.  1.
</event>
<event>
 7    1  0.2714042E-009  0.1186368E+03  0.7561462E-02  0.1245363E+00
         -2   -1    0    0    0  501 -0.00000000000E+00  0.00000000000E+00  0.10124404871E+03  0.10124404871E+03  0.00000000000E+00 0.  1.
          2   -1    0    0  501    0  0.00000000000E+00 -0.00000000000E+00 -0.14582278024E+03  0.14582278024E+03  0.00000000000E+00 0. -1.
         25    2    1    2    0    0 -0.52552891419E+02  0.13036484348E+02 -0.30633026566E+02  0.13970371190E+03  0.12508792300E+03 0.  0.
          5    1    3    3  502    0 -0.56374190107E+02 -0.46131521502E+02 -0.33305270452E+02  0.80205236900E+02  0.41800000000E+01 0.  1.
         -5    1    3    3    0  502  0.38212986883E+01  0.59168005850E+02  0.26722438852E+01  0.59498475000E+02  0.41800000000E+01 0.  1.
        -11    1    1    2    0    0 -0.86553458964E+00  0.33810365065E+02  0.40667673189E+01  0.34065063223E+02  0.00000000000E+00 0.  1.
         11    1    1    2    0    0  0.53418426008E+02 -0.46846849413E+02 -0.18012472285E+02  0.73298053828E+02  0.00000000000E+00 0. -1.
</event>
<event>
 7    1  0.2714042E-009  0.9277796E+02  0.7561462E-02  0.1296261E+00
         -1   -1    0    0    0  501 -0.00000000000E+00  0.00000000000E+00  0.11815506670E+03  0.11815506670E+03  0.00000000000E+00 0.  1.
          1   -1    0    0  501    0  0.00000000000E+00 -0.00000000000E+00 -0.14504568256E+03  0.14504568256E+03  0.00000000000E+00 0. -1.
         25    2    1    2    0    0 -0.10072180616E+02 -0.36054661822E+02  0.47987565932E+02  0.13910390378E+03  0.12508278100E+03 0.  0.
          5    1    3    3  502    0  0.17164938671E+02  0.31804634967E+02  0.54550310295E+02  0.65569647538E+02  0.41800000000E+01 0.  1.
         -5    1    3    3    0  502 -0.27237119287E+02 -0.67859296788E+02 -0.65627443631E+01  0.73534256243E+02  0.41800000000E+01 0.  1.
        -11    1    1    2    0    0 -0.24552665565E+02 -0.18160724635E+01 -0.68005935524E+02  0.72325229153E+02  0.00000000000E+00 0. -1.
         11    1    1    2    0    0  0.34624846182E+02  0.37870734285E+02 -0.68722462654E+01  0.51771616327E+02  0.00000000000E+00 0.  1.
</event>
<event>
 7    1  0.2714042E-009  0.4120862E+02  0.7561462E-02  0.1499501E+00
          2   -1    0    0  501    0  0.00000000000E+00  0.00000000000E+00  0.33340887705E+02  0.33340887705E+02  0.00000000000E+00 0. -1.
         -2   -1    0    0    0  501 -0.00000000000E+00 -0.00000000000E+00 -0.39953348542E+03  0.39953348542E+03  0.00000000000E+00 0.  1.
         25    2    1    2    0    0 -0.18069249888E+02 -0.16098880599E+02 -0.26531853186E+03  0.29432760952E+03  0.12509654923E+03 0.  0.
          5    1    3    3  502    0 -0.73420822223E+01 -0.22150401952E+02  0.45552339336E+01  0.24140609648E+02  0.41800000000E+01 0. -1.
         -5    1    3    3    0  502 -0.10727167666E+02  0.60515213530E+01 -0.26987376579E+03  0.27018699987E+03  0.41800000000E+01 0. -1.
        -11    1    1    2    0    0  0.27984438193E+02  0.20665367186E+02 -0.11531277603E+03  0.12044593185E+03  0.00000000000E+00 0.  1.
         11    1    1    2    0    0 -0.99151883050E+01 -0.45664865871E+01  0.14438710175E+02  0.18100831760E+02  0.00000000000E+00 0. -1.
</event>
<event>
 7    1  0.2714042E-009  0.6617195E+02  0.7561462E-02  0.1373617E+00
          1   -1    0    0  501    0  0.00000000000E+00  0.00000000000E+00  0.18310970252E+03  0.18310970252E+03  0.00000000000E+00 0. -1.
         -1   -1    0    0    0  501 -0.00000000000E+00 -0.00000000000E+00 -0.70276752979E+02  0.70276752979E+02  0.00000000000E+00 0.  1.
         25    2    1    2    0    0 -0.31389480739E+02 -0.47121590680E+01  0.61050098603E+02  0.14275249851E+03  0.12507460713E+03 0.  0.
          5    1    3    3  502    0 -0.25743974032E+02 -0.14546589813E+02 -0.34963516680E+02  0.45981250231E+02  0.41800000000E+01 0. -1.
         -5    1    3    3    0  502 -0.56455067068E+01  0.98344307451E+01  0.96013615283E+02  0.96771248281E+02  0.41800000000E+01 0. -1.
        -11    1    1    2    0    0  0.59372161576E+02  0.13834731649E+02  0.13664699233E+02  0.62475414165E+02  0.00000000000E+00 0.  1.
         11    1    1    2    0    0 -0.27982680837E+02 -0.91225725806E+01  0.38118151701E+02  0.48158542818E+02  0.00000000000E+00 0. -1.
</event>
<event>
 7    1  0.2714042E-009  0.1282236E+03  0.7561462E-02  0.1230116E+00
          2   -1    0    0  501    0  0.00000000000E+00  0.00000000000E+00  0.53836041238E+03  0.53836041238E+03  0.00000000000E+00 0. -1.
         -2   -1    0    0    0  501 -0.00000000000E+00 -0.00000000000E+00 -0.31734294886E+02  0.31734294886E+02  0.00000000000E+00 0.  1.
         25    2    1    2    0    0 -0.30762569651E+02  0.65449448099E+02  0.30440125291E+03  0.33695336542E+03  0.12508989467E+03 0.  0.
          5    1    3    3  502    0  0.47125923245E+02  0.26456357545E+02  0.15187127453E+03  0.16125491597E+03  0.41800000000E+01 0.  1.
         -5    1    3    3    0  502 -0.77888492896E+02  0.38993090554E+02  0.15252997838E+03  0.17569844945E+03  0.41800000000E+01 0.  1.
        -11    1    1    2    0    0 -0.24638895591E+02 -0.52718375107E+02  0.11739317050E+03  0.13102464932E+03  0.00000000000E+00 0. -1.
         11    1    1    2    0    0  0.55401465242E+02 -0.12731072992E+02  0.84831694092E+02  0.10211669253E+03  0.00000000000E+00 0.  1.
</event>
<event>
 7    1  0.2714042E-009  0.9373458E+02  0.7561462E-02  0.1294052E+00
         -1   -1    0    0    0  501 -0.00000000000E+00  0.00000000000E+00  0.29328576196E+03  0.29328576196E+03  0.00000000000E+00 0.  1.
          1   -1    0    0  501    0  0.00000000000E+00 -0.00000000000E+00 -0.38852857741E+02  0.38852857741E+02  0.00000000000E+00 0. -1.
         25    2    1    2    0    0 -0.16592119321E+02  0.12693939974E+02  0.13881325361E+03  0.18802449934E+03  0.12509060092E+03 0.  0.
          5    1    3    3  502    0 -0.16273130359E+02 -0.45221420953E+02  0.13788916742E+02  0.50173681444E+02  0.41800000000E+01 0. -1.
         -5    1    3    3    0  502 -0.31898896197E+00  0.57915360927E+02  0.12502433687E+03  0.13785081789E+03  0.41800000000E+01 0. -1.
        -11    1    1    2    0    0 -0.23882733737E+02 -0.28961696538E+02  0.77789931603E+02  0.86373828767E+02  0.00000000000E+00 0.  1.
         11    1    1    2    0    0  0.40474853057E+02  0.16267756564E+02  0.37829719013E+02  0.57740291602E+02  0.00000000000E+00 0. -1.
</event>
<event>
 7    1  0.2714042E-009  0.1376737E+03  0.7561462E-02  0.1216494E+00
          1   -1    0    0  501    0  0.00000000000E+00  0.00000000000E+00  0.42628131128E+03  0.42628131128E+03  0.00000000000E+00 0. -1.
         -1   -1    0    0    0  501 -0.00000000000E+00 -0.00000000000E+00 -0.74477270542E+02  0.74477270542E+02  0.00000000000E+00 0.  1.
         25    2    1    2    0    0  0.12989016680E+03  0.56234784919E+01  0.26074374254E+03  0.31707608271E+03  0.12508742549E+03 0.  0.
          5    1    3    3  502    0  0.80397984499E+02  0.31715246744E+02  0.24344473049E+03  0.25836505567E+03  0.41800000000E+01 0.  1.
         -5    1    3    3    0  502  0.49492182299E+02 -0.26091768252E+02  0.17299012051E+02  0.58711027049E+02  0.41800000000E+01 0.  1.
        -11    1    1    2    0    0 -0.60181517664E+02 -0.15914291683E+02 -0.73109210563E+01  0.62677981100E+02  0.00000000000E+00 0.  1.
         11    1    1    2    0    0 -0.69708649134E+02  0.10290813191E+02  0.98371219259E+02  0.12100451801E+03  0.00000000000E+00 0. -1.
</event>
<event>
 7    1  0.2714042E-009  0.1241363E+03  0.7561462E-02  0.1236425E+00
          1   -1    0    0  501    0  0.00000000000E+00  0.00000000000E+00  0.35520514075E+03  0.35520514075E+03  0.00000000000E+00 0. -1.
         -1   -1    0    0    0  501 -0.00000000000E+00 -0.00000000000E+00 -0.62781795580E+02  0.62781795580E+02  0.00000000000E+00 0.  1.
         25    2    1    2    0    0 -0.74593013834E+02 -0.21245041794E+02  0.62985649322E+02  0.16010208586E+03  0.12510002543E+03 0.  0.
          5    1    3    3  502    0 -0.10727365800E+03  0.87882027245E+00  0.42775194007E+02  0.11556642959E+03  0.41800000000E+01 0.  1.
         -5    1    3    3    0  502  0.32680644163E+02 -0.22123862067E+02  0.20210455316E+02  0.44535656274E+02  0.41800000000E+01 0.  1.
        -11    1    1    2    0    0  0.17468753669E+02 -0.23064747049E+02  0.13961942390E+03  0.14258584586E+03  0.00000000000E+00 0. -1.
         11    1    1    2    0    0  0.57124260165E+02  0.44309788843E+02  0.89818271948E+02  0.11529900460E+03  0.00000000000E+00 0.  1.
</event>
<event>
 7    1  0.2714042E-009  0.1291557E+03  0.7561462E-02  0.1228714E+00
         -1   -1    0    0    0  501 -0.00000000000E+00  0.00000000000E+00  0.50196565954E+03  0.50196565954E+03  0.00000000000E+00 0.  1.
          1   -1    0    0  501    0  0.00000000000E+00 -0.00000000000E+00 -0.60513718213E+02  0.60513718213E+02  0.00000000000E+00 0. -1.
         25    2    1    2    0    0  0.97958237194E+01  0.10154167582E+03  0.37752736068E+03  0.41058752233E+03  0.12509410592E+03 0.  0.
          5    1    3    3  502    0  0.35832856359E+02 -0.12829585833E+02  0.14694213157E+03  0.15184878760E+03  0.41800000000E+01 0.  1.
         -5    1    3    3    0  502 -0.26037032639E+02  0.11437126165E+03  0.23058522911E+03  0.25873873472E+03  0.41800000000E+01 0.  1.
        -11    1    1    2    0    0 -0.14499214761E+01 -0.70238897791E+02 -0.10206208133E+02  0.70991349611E+02  0.00000000000E+00 0. -1.
         11    1    1    2    0    0 -0.83459022433E+01 -0.31302778025E+02  0.74130788776E+02  0.80900505813E+02  0.00000000000E+00 0.  1.
</event>
<event>
 7    1  0.2714042E-009  0.1789276E+03  0.7561462E-02  0.1168845E+00
          2   -1    0    0  501    0  0.00000000000E+00  0.00000000000E+00  0.15282448982E+04  0.15282448982E+04  0.00000000000E+00 0. -1.
         -2   -1    0    0    0  501 -0.00000000000E+00 -0.00000000000E+00 -0.23097343417E+02  0.23097343417E+02  0.00000000000E+00 0.  1.
         25    2    1    2    0    0  0.88613455093E+02 -0.11071478030E+03  0.10247761745E+04  0.10420761615E+04  0.12508561678E+03 0.  0.
          5    1    3    3  502    0  0.10731168065E+03 -0.38358378213E+02  0.59467725032E+03  0.60551273020E+03  0.41800000000E+01 0.  1.
         -5    1    3    3    0  502 -0.18698225560E+02 -0.72356402084E+02  0.43009892415E+03  0.43656343127E+03  0.41800000000E+01 0.  1.
        -11    1    1    2    0    0  0.21301954090E+01  0.69105854377E+02  0.20660698940E+03  0.21786832012E+03  0.00000000000E+00 0.  1.
         11    1    1    2    0    0 -0.90743650502E+02  0.41608925919E+02  0.27376439090E+03  0.29139776002E+03  0.00000000000E+00 0. -1.
</event>
<event>
 7    1  0.2830759E-009  0.1078248E+03  0.7561462E-02  0.1264652E+00
         -4   -1    0    0    0  501 -0.00000000000E+00  0.00000000000E+00  0.47546073910E+02  0.47546073910E+02  0.00000000000E+00 0.  1.
          4   -1    0    0  501    0  0.00000000000E+00 -0.00000000000E+00 -0.31729696962E+03  0.31729696962E+03  0.00000000000E+00 0. -1.
         25    2    1    2    0    0  0.82540410187E+01  0.51884909711E+02 -0.11906756547E+03  0.18051183104E+03  0.12508902011E+03 0.  0.
          5    1    3    3  502    0 -0.55784916370E+02  0.40202955184E+02 -0.47499859892E+02  0.83677617018E+02  0.41800000000E+01 0. -1.
         -5    1    3    3    0  502  0.64038957389E+02  0.11681954527E+02 -0.71567705574E+02  0.96834214026E+02  0.41800000000E+01 0. -1.
        -11    1    1    2    0    0  0.24416282791E+02 -0.39808602519E+02 -0.23142107730E+02  0.52119447906E+02  0.00000000000E+00 0.  1.
         11    1    1    2    0    0 -0.32670323809E+02 -0.12076307193E+02 -0.12754122252E+03  0.13221176459E+03  0.00000000000E+00 0. -1.
</event>
<event>
 7    1  0.2714042E-009  0.1084598E+03  0.7561462E-02  0.1263449E+00
          2   -1    0    0  501    0  0.00000000000E+00  0.00000000000E+00  0.15153346381E+03  0.15153346381E+03  0.00000000000E+00 0. -1.
         -2   -1    0    0    0  501 -0.00000000000E+00 -0.00000000000E+00 -0.11477095286E+03  0.11477095286E+03  0.00000000000E+00 0.  1.
         25    2    1    2    0    0  0.23167530955E+02  0.42458330446E+02 -0.41225007150E+02  0.14030333270E+03  0.12508429013E+03 0.  0.
          5    1    3    3  502    0  0.69580298128E+02 -0.16171743354E+01 -0.17250846393E+02  0.71826855991E+02  0.41800000000E+01 0.  1.
         -5    1    3    3    0  502 -0.46412767172E+02  0.44075504781E+02 -0.23974160757E+02  0.68476476708E+02  0.41800000000E+01 0.  1.
        -11    1    1    2    0    0  0.10760747226E+02  0.13712282019E+02 -0.68653739434E+01  0.18733758790E+02  0.00000000000E+00 0.  1.
         11    1    1    2    0    0 -0.33928278181E+02 -0.56170612465E+02  0.84852892039E+02  0.10726732519E+03  0.00000000000E+00 0. -1.
</event>
<event>
 7    1  0.2714042E-009  0.9545248E+02  0.7561462E-02  0.1290160E+00
         -1   -1    0    0    0  501 -0.00000000000E+00  0.00000000000E+00  0.10939571587E+03  0.10939571587E+03  0.00000000000E+00 0.  1.
          1   -1    0    0  501    0  0.00000000000E+00 -0.00000000000E+00 -0.15315661008E+03  0.15315661008E+03  0.00000000000E+00 0. -1.
         25    2    1    2    0    0 -0.26064124516E+02 -0.34220158478E+01  0.40755313668E+02  0.13416173604E+03  0.12508927630E+03 0.  0.
          5    1    3    3  502    0  0.63775930287E+01  0.50586686908E+02  0.48565126641E+02  0.70538858162E+02  0.41800000000E+01 0.  1.
         -5    1    3    3    0  502 -0.32441717544E+02 -0.54008702756E+02 -0.78098129723E+01  0.63622877877E+02  0.41800000000E+01 0.  1.
        -11    1    1    2    0    0  0.19651614757E+01 -0.32931051671E+02 -0.77480536961E+02  0.84211339092E+02  0.00000000000E+00 0. -1.
         11    1    1    2    0    0  0.24098963040E+02  0.36353067518E+02 -0.70356709106E+01  0.44179250817E+02  0.00000000000E+00 0.  1.
</event>
<event>
 7    1  0.2714042E-009  0.5738325E+02  0.7561462E-02  0.1409153E+00
          2   -1    0    0  501    0  0.00000000000E+00  0.00000000000E+00  0.37183149364E+03  0.37183149364E+03  0.00000000000E+00 0. -1.
         -2   -1    0    0    0  501 -0.00000000000E+00 -0.00000000000E+00 -0.38116675157E+02  0.38116675157E+02  0.00000000000E+00 0.  1.
         25    2    1    2    0    0  0.38546057689E+02  0.75362130831E+01  0.13700040992E+03  0.18962929795E+03  0.12509022843E+03 0.  0.
          5    1    3    3  502    0  0.38967157477E+02  0.11112252126E+02 -0.10466848857E+02  0.42058873429E+02  0.41800000000E+01 0. -1.
         -5    1    3    3    0  502 -0.42109978782E+00 -0.35760390431E+01  0.14746725878E+03  0.14757042452E+03  0.41800000000E+01 0. -1.
        -11    1    1    2    0    0 -0.41409181753E+02 -0.26612776978E+02  0.19481264190E+03  0.20093512803E+03  0.00000000000E+00 0. -1.
         11    1    1    2    0    0  0.28631240647E+01  0.19076563895E+02  0.19017666637E+01  0.19383742825E+02  0.00000000000E+00 0.  1.
</event>
<event>
 7    1  0.2714042E-009  0.1651170E+03  0.7561462E-02  0.1183038E+00
         -1   -1    0    0    0  501 -0.00000000000E+00  0.00000000000E+00  0.12235976766E+03  0.12235976766E+03  0.00000000000E+00 0.  1.
          1   -1    0    0  501    0  0.00000000000E+00 -0.00000000000E+00 -0.27993155477E+03  0.27993155477E+03  0.00000000000E+00 0. -1.
         25    2    1    2    0    0  0.13470096524E+03  0.11529344583E+02 -0.14643530785E+03  0.23530398611E+03  0.12508953063E+03 0.  0.
          5    1    3    3  502    0  0.85377488792E+02 -0.49874778609E+02 -0.11137087875E+03  0.14898910755E+03  0.41800000000E+01 0. -1.
         -5    1    3    3    0  502  0.49323476445E+02  0.61404123193E+02 -0.35064429099E+02  0.86314878566E+02  0.41800000000E+01 0. -1.
        -11    1    1    2    0    0 -0.47692086521E+02 -0.38511230565E+02 -0.37863993690E+02  0.72050898777E+02  0.00000000000E+00 0. -1.
         11    1    1    2    0    0 -0.87008878716E+02  0.26981885982E+02  0.26727514428E+02  0.94936437547E+02  0.00000000000E+00 0.  1.
</event>
<event>
 7    1  0.2714042E-009  0.1195339E+03  0.7561462E-02  0.1243868E+00
          1   -1    0    0  501    0  0.00000000000E+00  0.00000000000E+00  0.60608863451E+02  0.60608863451E+02  0.00000000000E+00 0. -1.
         -1   -1    0    0    0  501 -0.00000000000E+00 -0.00000000000E+00 -0.37286348569E+03  0.37286348569E+03  0.00000000000E+00 0.  1.
         25    2    1    2    0    0  0.93251359178E+02  0.20263398478E+02 -0.10940752950E+03  0.19163466745E+03  0.12508963567E+03 0.  0.
          5    1    3    3  502    0 -0.17641405260E+02  0.20618235158E+02 -0.67749263093E+02  0.73101066000E+02  0.41800000000E+01 0. -1.
         -5    1    3    3    0  502  0.11089276444E+03 -0.35483667963E+00 -0.41658266405E+02  0.11853360145E+03  0.41800000000E+01 0. -1.
        -11    1    1    2    0    0 -0.46753906981E+02 -0.26475483050E+02 -0.27567277916E+02  0.60389020794E+02  0.00000000000E+00 0. -1.
         11    1    1    2    0    0 -0.46497452197E+02  0.62120845711E+01 -0.17527981482E+03  0.18144866089E+03  0.00000000000E+00 0.  1.
</event>
<event>
 7    1  0.2714042E-009  0.1550401E+03  0.7561462E-02  0.1194413E+00
          1   -1    0    0  501    0  0.00000000000E+00  0.00000000000E+00  0.91338999182E+03  0.91338999182E+03  0.00000000000E+00 0. -1.
         -1   -1    0    0    0  501 -0.00000000000E+00 -0.00000000000E+00 -0.33112027711E+02  0.33112027711E+02  0.00000000000E+00 0.  1.
         25    2    1    2    0    0 -0.76595850925E+02  0.10665631550E+03  0.56322076785E+03  0.59169864824E+03  0.12508862047E+03 0.  0.
          5    1    3    3  502    0 -0.45493577547E+02 -0.18733757038E+02  0.20526490800E+03  0.21112028350E+03  0.41800000000E+01 0. -1.
         -5    1    3    3    0  502 -0.31102273379E+02  0.12539007254E+03  0.35795585986E+03  0.38057836474E+03  0.41800000000E+01 0. -1.
        -11    1    1    2    0    0  0.16372980412E+02 -0.18798116011E+02  0.54826892323E+01  0.25524567270E+02  0.00000000000E+00 0.  1.
         11    1    1    2    0    0  0.60222870514E+02 -0.87858199492E+02  0.31157450702E+03  0.32927880402E+03  0.00000000000E+00 0. -1.
</event>
<event>
 7    1  0.2714042E-009  0.1215573E+03  0.7561462E-02  0.1240550E+00
         -1   -1    0    0    0  501 -0.00000000000E+00  0.00000000000E+00  0.37723888440E+03  0.37723888440E+03  0.00000000000E+00 0.  1.
          1   -1    0    0  501    0  0.00000000000E+00 -0.00000000000E+00 -0.43970319414E+02  0.43970319414E+02  0.00000000000E+00 0. -1.
         25    2    1    2    0    0 -0.12040731515E+02 -0.66258141340E+02  0.20809292431E+03  0.25196052374E+03  0.12508525040E+03 0.  0.
          5    1    3    3  502    0 -0.15106964986E+02  0.35579818506E+02  0.72946346588E+02  0.82660666320E+02  0.41800000000E+01 0.  1.
         -5    1    3    3    0  502  0.30662334710E+01 -0.10183795985E+03  0.13514657772E+03  0.16929985742E+03  0.41800000000E+01 0.  1.
        -11    1    1    2    0    0 -0.31452393156E+02  0.14426590753E+02  0.81954651185E+02  0.88960353005E+02  0.00000000000E+00 0.  1.
         11    1    1    2    0    0  0.43493124671E+02  0.51831550587E+02  0.43220989485E+02  0.80288327059E+02  0.00000000000E+00 0. -1.
</event>
<event>
 7    1  0.2714042E-009  0.1177609E+03  0.7561462E-02  0.1246837E+00
          2   -1    0    0  501    0  0.00000000000E+00  0.00000000000E+00  0.26688935290E+03  0.26688935290E+03  0.00000000000E+00 0. -1.
         -2   -1    0    0    0  501 -0.00000000000E+00 -0.00000000000E+00 -0.76978919600E+02  0.76978919600E+02  0.00000000000E+00 0.  1.
         25    2    1    2    0    0 -0.24760369789E+02  0.41217027312E+02  0.19924671955E+03  0.24011581220E+03  0.12507769091E+03 0.  0.
          5    1    3    3  502    0  0.50333664885E+02  0.27128427102E+02  0.91020259898E+02  0.10757132280E+03  0.41800000000E+01 0.  1.
         -5    1    3    3    0  502 -0.75094034674E+02  0.14088600210E+02  0.10822645965E+03  0.13254448939E+03  0.41800000000E+01 0.  1.
        -11    1    1    2    0    0 -0.74573309526E+01  0.26045169436E+02  0.56674170335E+01  0.27678190904E+02  0.00000000000E+00 0.  1.
         11    1    1    2    0    0  0.32217700742E+02 -0.67262196749E+02 -0.15003703284E+02  0.76074269400E+02  0.00000000000E+00 0. -1.
</event>
<event>
 7    1  0.2714042E-009  0.1446388E+03  0.7561462E-02  0.1207220E+00
          4   -1    0    0  501    0  0.00000000000E+00  0.00000000000E+00  0.48872067094E+02  0.48872067094E+02  0.00000000000E+00 0. -1.
         -4   -1    0    0    0  501 -0.00000000000E+00 -0.00000000000E+00 -0.44430166318E+03  0.44430166318E+03  0.00000000000E+00 0.  1.
         25    2    1    2    0    0 -0.43554601766E+02 -0.88245430342E+02 -0.23690690824E+03  0.28540656523E+03  0.12509102682E+03 0.  0.
          5    1    3    3  502    0  0.41604960254E+02 -0.23530708940E+02 -0.10566783938E+03  0.11605098733E+03  0.41800000000E+01 0.  1.
         -5    1    3    3    0  502 -0.85159562019E+02 -0.64714721402E+02 -0.13123906886E+03  0.16935557789E+03  0.41800000000E+01 0.  1.
        -11    1    1    2    0    0  0.23969924257E+02  0.10547964345E+03 -0.12988109126E+03  0.16902547239E+03  0.00000000000E+00 0.  1.
         11    1    1    2    0    0  0.19584677509E+02 -0.17234213108E+02 -0.28641596586E+02  0.38741692652E+02  0.00000000000E+00 0. -1.
</event>
<event>
 7    1  0.2714042E-009  0.1098061E+03  0.7561462E-02  0.1260929E+00
         -1   -1    0    0    0  501 -0.00000000000E+00  0.00000000000E+00  0.26970089443E+03  0.26970089443E+03  0.00000000000E+00 0.  1.
          1   -1    0    0  501    0  0.00000000000E+00 -0.00000000000E+00 -0.51371595759E+02  0.51371595759E+02  0.00000000000E+00 0. -1.
         25    2    1    2    0    0  0.30671100501E+02 -0.14287445631E+02  0.85328647769E+02  0.15515902718E+03  0.12509395699E+03 0.  0.
          5    1    3    3  502    0 -0.11894483767E+02 -0.57956837772E+02  0.70743014767E+02  0.92317497404E+02  0.41800000000E+01 0.  1.
         -5    1    3    3    0  502  0.42565584268E+02  0.43669392141E+02  0.14585633002E+02  0.62841529772E+02  0.41800000000E+01 0.  1.
        -11    1    1    2    0    0 -0.58990845568E+02 -0.12379047116E+02  0.82132098285E+02  0.10187660299E+03  0.00000000000E+00 0. -1.
         11    1    1    2    0    0  0.28319745067E+02  0.26666492746E+02  0.50868552617E+02  0.64036860022E+02  0.00000000000E+00 0.  1.
</event>
<event>
 7    1  0.2714042E-009  0.2552649E+03  0.7561462E-02  0.1110022E+00
         -2   -1    0    0    0  501 -0.00000000000E+00  0.00000000000E+00  0.41084498545E+02  0.41084498545E+02  0.00000000000E+00 0.  1.
          2   -1    0    0  501    0  0.00000000000E+00 -0.00000000000E+00 -0.16355689739E+04  0.16355689739E+04  0.00000000000E+00 0. -1.
         25    2    1    2    0    0  0.22834796628E+03 -0.47434451125E+02 -0.92298040345E+03  0.96017313370E+03  0.12508717227E+03 0.  0.
          5    1    3    3  502    0  0.21292843118E+03  0.11682065829E+01 -0.76682095824E+03  0.79584655299E+03  0.41800000000E+01 0. -1.
         -5    1    3    3    0  502  0.15419535100E+02 -0.48602657708E+02 -0.15615944521E+03  0.16432658071E+03  0.41800000000E+01 0. -1.
        -11    1    1    2    0    0 -0.11619212779E+03  0.64586633562E+02 -0.42076515369E+03  0.44126563242E+03  0.00000000000E+00 0. -1.
         11    1    1    2    0    0 -0.11215583849E+03 -0.17152182437E+02 -0.25073891820E+03  0.27521470631E+03  0.00000000000E+00 0.  1.
</event>
<event>
 7    1  0.2714042E-009  0.1089191E+03  0.7561462E-02  0.1262585E+00
          2   -1    0    0  501    0  0.00000000000E+00  0.00000000000E+00  0.63795744250E+03  0.63795744250E+03  0.00000000000E+00 0.  1.
         -2   -1    0    0    0  501 -0.00000000000E+00 -0.00000000000E+00 -0.19648138750E+02  0.19648138750E+02  0.00000000000E+00 0. -1.
         25    2    1    2    0    0  0.22600876944E+02  0.92021327352E+01  0.40085991604E+03  0.42063213047E+03  0.12508892041E+03 0.  0.
          5    1    3    3  502    0 -0.32562880861E+02  0.49222687698E+02  0.18562403463E+03  0.19482548300E+03  0.41800000000E+01 0.  1.
         -5    1    3    3    0  502  0.55163757805E+02 -0.40020554962E+02  0.21523588141E+03  0.22580664747E+03  0.41800000000E+01 0.  1.
        -11    1    1    2    0    0  0.24679532064E+02 -0.29908133436E+02  0.12750907287E+03  0.13327467656E+03  0.00000000000E+00 0. -1.
         11    1    1    2    0    0 -0.47280409008E+02  0.20706000701E+02  0.89940314836E+02  0.10369877422E+03  0.00000000000E+00 0.  1.
</event>
<event>
 7    1  0.2791709E-009  0.1259005E+03  0.7561462E-02  0.1233669E+00
         -3   -1    0    0    0  501 -0.00000000000E+00  0.00000000000E+00  0.13057903775E+02  0.13057903775E+02  0.00000000000E+00 0.  1.
          3   -1    0    0  501    0  0.00000000000E+00 -0.00000000000E+00 -0.15258012652E+04  0.15258012652E+04  0.00000000000E+00 0. -1.
         25    2    1    2    0    0 -0.27328990054E+02 -0.80960014625E+02 -0.99169243156E+03  0.10031959918E+04  0.12508765543E+03 0.  0.
          5    1    3    3  502    0  0.13924640761E+02 -0.91302687000E+02 -0.85487141425E+03  0.85985619936E+03  0.41800000000E+01 0. -1.
         -5    1    3    3    0  502 -0.41253630815E+02  0.10342672375E+02 -0.13682101732E+03  0.14333979247E+03  0.41800000000E+01 0. -1.
        -11    1    1    2    0    0  0.36688043490E+02  0.16212810527E+01 -0.88841149483E+02  0.96132153460E+02  0.00000000000E+00 0.  1.
         11    1    1    2    0    0 -0.93590534353E+01  0.79338733572E+02 -0.43220978039E+03  0.43953102369E+03  0.00000000000E+00 0. -1.
</event>
<event>
 7    1  0.2714042E-009  0.1877327E+03  0.7561462E-02  0.1160522E+00
         -2   -1    0    0    0  501 -0.00000000000E+00  0.00000000000E+00  0.45595623744E+02  0.45595623744E+02  0.00000000000E+00 0. -1.
          2   -1    0    0  501    0  0.00000000000E+00 -0.00000000000E+00 -0.78899282233E+03  0.78899282233E+03  0.00000000000E+00 0.  1.
         25    2    1    2    0    0 -0.10000281312E+03  0.11728174474E+03 -0.35151656645E+03  0.40369425727E+03  0.12509830766E+03 0.  0.
          5    1    3    3  502    0  0.13932029475E+02 -0.16240604265E+02 -0.53979365009E+02  0.58216002259E+02  0.41800000000E+01 0. -1.
         -5    1    3    3    0  502 -0.11393484260E+03  0.13352234901E+03 -0.29753720144E+03  0.34547825501E+03  0.41800000000E+01 0. -1.
        -11    1    1    2    0    0  0.52888169093E+02 -0.11974913857E+03 -0.30779802740E+03  0.33447965602E+03  0.00000000000E+00 0.  1.
         11    1    1    2    0    0  0.47114644028E+02  0.24673938228E+01 -0.84082604728E+02  0.96414532784E+02  0.00000000000E+00 0. -1.
</event>
<event>
 7    1  0.2714042E-009  0.1047272E+03  0.7561462E-02  0.1270658E+00
         -2   -1    0    0    0  501 -0.00000000000E+00  0.00000000000E+00  0.56724882925E+03  0.56724882925E+03  0.00000000000E+00 0.  1.
          2   -1    0    0  501    0  0.00000000000E+00 -0.00000000000E+00 -0.24300594204E+02  0.24300594204E+02  0.00000000000E+00 0. -1.
         25    2    1    2    0    0  0.31941877217E+02 -0.10196097906E+02  0.22958866845E+03  0.26359172076E+03  0.12508155196E+03 0.  0.
          5    1    3    3  502    0  0.54149649715E+02 -0.46538393951E+02  0.76901241271E+02  0.10502037890E+03  0.41800000000E+01 0.  1.
         -5    1    3    3    0  502 -0.22207772498E+02  0.36342296045E+02  0.15268742718E+03  0.15857134186E+03  0.41800000000E+01 0.  1.
        -11    1    1    2    0    0  0.22535878525E+02  0.29691771509E+02  0.15310929682E+03  0.15758148333E+03  0.00000000000E+00 0.  1.
         11    1    1    2    0    0 -0.54477755742E+02 -0.19495673603E+02  0.16025026978E+03  0.17037621936E+03  0.00000000000E+00 0. -1.
</event>
<event>
 7    1  0.2714042E-009  0.1144252E+03  0.7561462E-02  0.1252588E+00
          1   -1    0    0  501    0  0.00000000000E+00  0.00000000000E+00  0.26121856303E+03  0.26121856303E+03  0.00000000000E+00 0. -1.
         -1   -1    0    0    0  501 -0.00000000000E+00 -0.00000000000E+00 -0.70395273132E+02  0.70395273132E+02  0.00000000000E+00 0.  1.
         25    2    1    2    0    0  0.69775902748E+01 -0.79658942426E+02  0.11024482248E+03  0.18492061974E+03  0.12508989107E+03 0.  0.
          5    1    3    3  502    0  0.57080624472E+02 -0.23695129967E+02  0.85786814469E+02  0.10581354739E+03  0.41800000000E+01 0.  1.
         -5    1    3    3    0  502 -0.50103034197E+02 -0.55963812459E+02  0.24458008008E+02  0.79107072354E+02  0.41800000000E+01 0.  1.
        -11    1    1    2    0    0 -0.25631376175E+02  0.55665393725E+02  0.76341644215E+00  0.61287733747E+02  0.00000000000E+00 0.  1.
         11    1    1    2    0    0  0.18653785900E+02  0.23993548701E+02  0.79815050978E+02  0.85405482672E+02  0.00000000000E+00 0. -1.
</event>
<event>
 7    1  0.2714042E-009  0.1385373E+03  0.7561462E-02  0.1215311E+00
         -2   -1    0    0    0  501 -0.00000000000E+00  0.00000000000E+00  0.38126475858E+03  0.38126475858E+03  0.00000000000E+00 0.  1.
          2   -1    0    0  501    0  0.00000000000E+00 -0.00000000000E+00 -0.65572632220E+02  0.65572632220E+02  0.00000000000E+00 0. -1.
         25    2    1    2    0    0 -0.70781756420E+02  0.85088932109E+02  0.21208731976E+03  0.26996115892E+03  0.12509121758E+03 0.  0.
          5    1    3    3  502    0 -0.30390945914E+02  0.11294807634E+03  0.13727624360E+03  0.18039710918E+03  0.41800000000E+01 0.  1.
         -5    1    3    3    0  502 -0.40390810506E+02 -0.27859144233E+02  0.74811076161E+02  0.89564049747E+02  0.41800000000E+01 0.  1.
        -11    1    1    2    0    0  0.30787060186E+02 -0.33224136122E+02  0.10172609223E+03  0.11135476701E+03  0.00000000000E+00 0.  1.
         11    1    1    2    0    0  0.39994696234E+02 -0.51864795987E+02  0.18787143665E+01  0.65521464859E+02  0.00000000000E+00 0. -1.
</event>
<event>
 7    1  0.2714042E-009  0.1132692E+03  0.7561462E-02  0.1254633E+00
          1   -1    0    0  501    0  0.00000000000E+00  0.00000000000E+00  0.68001009176E+03  0.68001009176E+03  0.00000000000E+00 0. -1.
         -1   -1    0    0    0  501 -0.00000000000E+00 -0.00000000000E+00 -0.20612682226E+02  0.20612682226E+02  0.00000000000E+00 0.  1.
         25    2    1    2    0    0  0.36821423002E+02 -0.12465520995E+02  0.29810029246E+03  0.32561040363E+03  0.12508854536E+03 0.  0.
          5    1    3    3  502    0  0.69684681678E+02 -0.43761764933E+02  0.22335762021E+03  0.23806962392E+03  0.41800000000E+01 0. -1.
         -5    1    3    3    0  502 -0.32863258676E+02  0.31296243938E+02  0.74742672253E+02  0.87540779702E+02  0.41800000000E+01 0. -1.
        -11    1    1    2    0    0  0.11743116495E+02  0.40725124746E+02  0.19243573687E+03  0.19704808904E+03  0.00000000000E+00 0.  1.
         11    1    1    2    0    0 -0.48564539497E+02 -0.28259603751E+02  0.16886138020E+03  0.17796428132E+03  0.00000000000E+00 0. -1.
</event>
<event>
 7    1  0.2714042E-009  0.9758296E+02  0.7561462E-02  0.1285462E+00
         -1   -1    0    0    0  501 -0.00000000000E+00  0.00000000000E+00  0.11193078186E+03  0.11193078186E+03  0.00000000000E+00 0.  1.
          1   -1    0    0  501    0  0.00000000000E+00 -0.00000000000E+00 -0.14731929882E+03  0.14731929882E+03  0.00000000000E+00 0. -1.
         25    2    1    2    0    0  0.47180182712E+02 -0.36362891967E+02  0.16429008483E+02  0.13951954113E+03  0.12509020939E+03 0.  0.
          5    1    3    3  502    0 -0.16086799571E+02  0.27957978076E+02 -0.24143514805E+02  0.40506979221E+02  0.41800000000E+01 0.  1.
         -5    1    3    3    0  502  0.63266982282E+02 -0.64320870043E+02  0.40572523288E+02  0.99012561911E+02  0.41800000000E+01 0.  1.
        -11    1    1    2    0    0 -0.41148450955E+02  0.62609318362E+01 -0.71876552878E+02  0.83058010674E+02  0.00000000000E+00 0. -1.
         11    1    1    2    0    0 -0.60317317570E+01  0.30101960131E+02  0.20059027436E+02  0.36672528866E+02  0.00000000000E+00 0.  1.
</event>
<event>
 7    1  0.2714042E-009  0.3421706E+03  0.7561462E-02  0.1065875E+00
         -2   -1    0    0    0  501 -0.00000000000E+00  0.00000000000E+00  0.52014237500E+02  0.52014237500E+02  0.00000000000E+00 0.  1.
          2   -1    0    0  501    0  0.00000000000E+00 -0.00000000000E+00 -0.22839627100E+04  0.22839627100E+04  0.00000000000E+00 0. -1.
         25    2    1    2    0    0 -0.18245504583E+03 -0.26887596255E+03 -0.12344303103E+04  0.12825948192E+04  0.12508857843E+03 0.  0.
          5    1    3    3  502    0  0.15009109927E+02 -0.47573861571E+02 -0.14002198300E+03  0.14870162679E+03  0.41800000000E+01 0.  1.
         -5    1    3    3    0  502 -0.19746415575E+03 -0.22130210098E+03 -0.10944083273E+04  0.11338931925E+04  0.41800000000E+01 0.  1.
        -11    1    1    2    0    0  0.16283924928E+03  0.16453790611E+03 -0.71710570843E+03  0.75354491619E+03  0.00000000000E+00 0.  1.
         11    1    1    2    0    0  0.19615796546E+02  0.10433805643E+03 -0.28041245384E+03  0.29983721210E+03  0.00000000000E+00 0. -1.
</event>
<event>
 7    1  0.2714042E-009  0.1387489E+03  0.7561462E-02  0.1215022E+00
          2   -1    0    0  501    0  0.00000000000E+00  0.00000000000E+00  0.37214268037E+03  0.37214268037E+03  0.00000000000E+00 0. -1.
         -2   -1    0    0    0  501 -0.00000000000E+00 -0.00000000000E+00 -0.63233635060E+02  0.63233635060E+02  0.00000000000E+00 0.  1.
         25    2    1    2    0    0  0.37023815407E+02  0.10020386986E+03  0.19128334022E+03  0.25228703617E+03  0.12509138233E+03 0.  0.
          5    1    3    3  502    0 -0.18725108379E+02  0.10324811718E+03  0.98857154110E+02  0.14422556189E+03  0.41800000000E+01 0.  1.
         -5    1    3    3    0  502  0.55748923787E+02 -0.30442473180E+01  0.92426186112E+02  0.10806147428E+03  0.41800000000E+01 0.  1.
        -11    1    1    2    0    0 -0.24032480459E+02 -0.10066555254E+03  0.51317499699E+02  0.11551882686E+03  0.00000000000E+00 0.  1.
         11    1    1    2    0    0 -0.12991334949E+02  0.46168267872E+00  0.66308205391E+02  0.67570452394E+02  0.00000000000E+00 0. -1.
</event>
<event>
 7    1  0.2714042E-009  0.1002374E+03  0.7561462E-02  0.1279798E+00
         -2   -1    0    0    0  501 -0.00000000000E+00  0.00000000000E+00  0.15321394908E+02  0.15321394908E+02  0.00000000000E+00 0.  1.
          2   -1    0    0  501    0  0.00000000000E+00 -0.00000000000E+00 -0.10195542942E+04  0.10195542942E+04  0.00000000000E+00 0. -1.
         25    2    1    2    0    0 -0.44905365480E+02  0.26979503072E+02 -0.70204911378E+03  0.71502793400E+03  0.12509037857E+03 0.  0.
          5    1    3    3  502    0  0.15244783281E+02  0.46094740160E+02 -0.11948175953E+03  0.12903678448E+03  0.41800000000E+01 0.  1.
         -5    1    3    3    0  502 -0.60150148761E+02 -0.19115237088E+02 -0.58256735425E+03  0.58599114953E+03  0.41800000000E+01 0.  1.
        -11    1    1    2    0    0 -0.59259575745E+01 -0.36328161824E+02 -0.48138560738E+02  0.60598459920E+02  0.00000000000E+00 0.  1.
         11    1    1    2    0    0  0.50831323055E+02  0.93486587521E+01 -0.25404522479E+03  0.25924929520E+03  0.00000000000E+00 0. -1.
</event>
<event>
 7    1  0.2714042E-009  0.9890778E+02  0.7561462E-02  0.1282610E+00
         -3   -1    0    0    0  501 -0.00000000000E+00  0.00000000000E+00  0.22669448075E+03  0.22669448075E+03  0.00000000000E+00 0.  1.
          3   -1    0    0  501    0  0.00000000000E+00 -0.00000000000E+00 -0.58095871549E+02  0.58095871549E+02  0.00000000000E+00 0. -1.
         25    2    1    2    0    0 -0.23696117105E+02  0.10271609198E+02  0.89204545307E+02  0.15579699369E+03  0.12509292713E+03 0.  0.
          5    1    3    3  502    0  0.42850903884E+02 -0.20397635903E+02  0.11701816361E+02  0.49057806924E+02  0.41800000000E+01 0.  1.
         -5    1    3    3    0  502 -0.66547020989E+02  0.30669245101E+02  0.77502728946E+02  0.10673918677E+03  0.41800000000E+01 0.  1.
        -11    1    1    2    0    0 -0.26028253997E+02 -0.69767124266E+01 -0.82420753197E+01  0.28179359964E+02  0.00000000000E+00 0. -1.
         11    1    1    2    0    0  0.49724371102E+02 -0.32948967711E+01  0.87636139214E+02  0.10081399864E+03  0.00000000000E+00 0.  1.
</event>
<event>
 7    1  0.2714042E-009  0.2243193E+03  0.7561462E-02  0.1130703E+00
          2   -1    0    0  501    0  0.00000000000E+00  0.00000000000E+00  0.34348881095E+03  0.34348881095E+03  0.00000000000E+00 0.  1.
         -2   -1    0    0    0  501 -0.00000000000E+00 -0.00000000000E+00 -0.16971435443E+03  0.16971435443E+03  0.00000000000E+00 0. -1.
         25    2    1    2    0    0 -0.36254232480E+02  0.19995240293E+03  0.14123275068E+03  0.27728812914E+03  0.12508670547E+03 0.  0.
          5    1    3    3  502    0 -0.73079559102E+02  0.10398615247E+03  0.40883775537E+02  0.13357655995E+03  0.41800000000E+01 0.  1.
         -5    1    3    3    0  502  0.36825326621E+02  0.95966250460E+02  0.10034897515E+03  0.14371156920E+03  0.41800000000E+01 0.  1.
        -11    1    1    2    0    0  0.54394994560E+02 -0.76771202277E+02  0.55599313859E+02  0.10928822733E+03  0.00000000000E+00 0.  1.
         11    1    1    2    0    0 -0.18140762080E+02 -0.12318120066E+03 -0.23057608023E+02  0.12662680890E+03  0.00000000000E+00 0. -1.
</event>
<event>
 7    1  0.2714042E-009  0.1247089E+03  0.7561462E-02  0.1235525E+00
         -2   -1    0    0    0  501 -0.00000000000E+00  0.00000000000E+00  0.76974847533E+02  0.76974847533E+02  0.00000000000E+00 0.  1.
          2   -1    0    0  501    0  0.00000000000E+00 -0.00000000000E+00 -0.31417172689E+03  0.31417172689E+03  0.00000000000E+00 0. -1.
         25    2    1    2    0    0  0.55104548195E+02 -0.31986394240E+02 -0.24340063646E+03  0.28097951201E+03  0.12508387463E+03 0.  0.
          5    1    3    3  502    0  0.30995450535E+02 -0.80218439784E+02 -0.14224689299E+03  0.16627497406E+03  0.41800000000E+01 0.  1.
         -5    1    3    3    0  502  0.24109097660E+02  0.48232045544E+02 -0.10115374347E+03  0.11470453794E+03  0.41800000000E+01 0.  1.
        -11    1    1    2    0    0 -0.75037167391E+02  0.42976228540E+02  0.10148700590E+02  0.87066232451E+02  0.00000000000E+00 0.  1.
         11    1    1    2    0    0  0.19932619195E+02 -0.10989834300E+02 -0.39449434920E+01  0.23100829965E+02  0.00000000000E+00 0. -1.
</event>
<event>
 7    1  0.2714042E-009  0.8338029E+02  0.7561462E-02  0.1319723E+00
         -1   -1    0    0    0  501 -0.00000000000E+00  0.00000000000E+00  0.70678365890E+02  0.70678365890E+02  0.00000000000E+00 0.  1.
          1   -1    0    0  501    0  0.00000000000E+00 -0.00000000000E+00 -0.18598311366E+03  0.18598311366E+03  0.00000000000E+00 0. -1.
         25    2    1    2    0    0 -0.21172210465E+02 -0.22386271174E+02 -0.27883826510E+02  0.13181263529E+03  0.12509058880E+03 0.  0.
          5    1    3    3  502    0 -0.65503283845E+02 -0.20041429173E+01 -0.45367111384E+02  0.79814434651E+02  0.41800000000E+01 0.  1.
         -5    1    3    3    0  502  0.44331073381E+02 -0.20382128256E+02  0.17483284874E+02  0.51998200635E+02  0.41800000000E+01 0.  1.
        -11    1    1    2    0    0  0.14416739548E+02 -0.10953147401E+02  0.10677706342E+02  0.21019686722E+02  0.00000000000E+00 0.  1.
         11    1    1    2    0    0  0.67554709172E+01  0.33339418574E+02 -0.98098627605E+02  0.10382915754E+03  0.00000000000E+00 0. -1.
</event>
<event>
 7    1  0.2714042E-009  0.1159497E+03  0.7561462E-02  0.1249932E+00
         -2   -1    0    0    0  501 -0.00000000000E+00  0.00000000000E+00  0.15397303784E+03  0.15397303784E+03  0.00000000000E+00 0.  1.
          2   -1    0    0  501    0  0.00000000000E+00 -0.00000000000E+00 -0.10587519954E+03  0.10587519954E+03  0.00000000000E+00 0. -1.
         25    2    1    2    0    0  0.48630222227E+02 -0.21322951641E+02 -0.14353992487E+02  0.13664809079E+03  0.12508835612E+03 0.  0.
          5    1    3    3  502    0  0.31223918602E+02 -0.68549363898E+02 -0.33618890601E+02  0.82593284164E+02  0.41800000000E+01 0.  1.
         -5    1    3    3    0  502  0.17406303626E+02  0.47226412257E+02  0.19264898114E+02  0.54054806631E+02  0.41800000000E+01 0.  1.
        -11    1    1    2    0    0  0.66756103253E+01 -0.29860097426E+02  0.21892129870E+02  0.37622527052E+02  0.00000000000E+00 0.  1.
         11    1    1    2    0    0 -0.55305832553E+02  0.51183049068E+02  0.40559700920E+02  0.85577619533E+02  0.00000000000E+00 0. -1.
</event>
<event>
 7    1  0.2714042E-009  0.1874878E+03  0.7561462E-02  0.1160747E+00
         -1   -1    0    0    0  501 -0.00000000000E+00  0.00000000000E+00  0.56645021190E+02  0.56645021190E+02  0.00000000000E+00 0.  1.
          1   -1    0    0  501    0  0.00000000000E+00 -0.00000000000E+00 -0.77336251325E+03  0.77336251325E+03  0.00000000000E+00 0. -1.
         25    2    1    2    0    0 -0.89288784238E+02 -0.12981949014E+03 -0.53763669573E+03  0.57404452274E+03  0.12509320716E+03 0.  0.
          5    1    3    3  502    0 -0.24150229267E+02 -0.13171357773E+03 -0.32265654497E+03  0.34936573750E+03  0.41800000000E+01 0. -1.
         -5    1    3    3    0  502 -0.65138554972E+02  0.18940875899E+01 -0.21498015077E+03  0.22467878523E+03  0.41800000000E+01 0. -1.
        -11    1    1    2    0    0  0.29511242542E+02  0.10817084889E+03 -0.14662017729E+03  0.18457877011E+03  0.00000000000E+00 0.  1.
         11    1    1    2    0    0  0.59777541697E+02  0.21648641247E+02 -0.32460619039E+02  0.71384241591E+02  0.00000000000E+00 0. -1.
</event>
<event>
 7    1  0.2714042E-009  0.1246987E+03  0.7561462E-02  0.1235541E+00
          1   -1    0    0  501    0  0.00000000000E+00  0.00000000000E+00  0.66844138496E+02  0.66844138496E+02  0.00000000000E+00 0. -1.
         -1   -1    0    0    0  501 -0.00000000000E+00 -0.00000000000E+00 -0.38137036030E+03  0.38137036030E+03  0.00000000000E+00 0.  1.
         25    2    1    2    0    0  0.18689860858E+02 -0.73517392224E+02 -0.43962570221E+02  0.15275633596E+03  0.12509065807E+03 0.  0.
          5    1    3    3  502    0  0.28359333790E+02 -0.10058768767E+03 -0.57417563667E+01  0.10475005914E+03  0.41800000000E+01 0.  1.
         -5    1    3    3    0  502 -0.96694729317E+01  0.27070295447E+02 -0.38220813855E+02  0.48006276820E+02  0.41800000000E+01 0.  1.
        -11    1    1    2    0    0  0.35065721084E+02  0.22618576751E+02 -0.67900966438E+02  0.79697842208E+02  0.00000000000E+00 0. -1.
         11    1    1    2    0    0 -0.53755581942E+02  0.50898815473E+02 -0.20266268514E+03  0.21576032063E+03  0.00000000000E+00 0.  1.
</event>
<event>
 7    1  0.2714042E-009  0.8723829E+02  0.7561462E-02  0.1309681E+00
         -2   -1    0    0    0  501 -0.00000000000E+00  0.00000000000E+00  0.23400028456E+02  0.23400028456E+02  0.00000000000E+00 0. -1.
          2   -1    0    0  501    0  0.00000000000E+00 -0.00000000000E+00 -0.52460859749E+03  0.52460859749E+03  0.00000000000E+00 0.  1.
         25    2    1    2    0    0  0.11639603840E+02  0.16142566546E+02 -0.25953122022E+03  0.28879139411E+03  0.12509177516E+03 0.  0.
          5    1    3    3  502    0 -0.25456178035E+02  0.44455161162E+02 -0.42303142480E+02  0.66568060042E+02  0.41800000000E+01 0. -1.
         -5    1    3    3    0  502  0.37095781875E+02 -0.28312594617E+02 -0.21722807774E+03  0.22222333407E+03  0.41800000000E+01 0. -1.
        -11    1    1    2    0    0  0.28235611468E+02  0.83313862166E+01 -0.17677169381E+03  0.17920628751E+03  0.00000000000E+00 0.  1.
         11    1    1    2    0    0 -0.39875215308E+02 -0.24473952763E+02 -0.64905655007E+02  0.80010944324E+02  0.00000000000E+00 0. -1.
</event>
<event>
 7    1  0.2714042E-009  0.9937215E+02  0.7561462E-02  0.1281622E+00
         -2   -1    0    0    0  501 -0.00000000000E+00  0.00000000000E+00  0.55746620398E+03  0.55746620398E+03  0.00000000000E+00 0.  1.
          2   -1    0    0  501    0  0.00000000000E+00 -0.00000000000E+00 -0.39219326348E+02  0.39219326348E+02  0.00000000000E+00 0. -1.
         25    2    1    2    0    0 -0.57928610794E+02  0.12065994848E+02  0.44363361745E+03  0.46471516300E+03  0.12509230196E+03 0.  0.
          5    1    3    3  502    0  0.17422393871E+02 -0.16239257578E+02  0.14752351036E+02  0.28325916684E+02  0.41800000000E+01 0. -1.
         -5    1    3    3    0  502 -0.75351004665E+02  0.28305252425E+02  0.42888126641E+03  0.43638924631E+03  0.41800000000E+01 0. -1.
        -11    1    1    2    0    0  0.57415402186E+02  0.20819254591E+02  0.77821508269E+02  0.98925006541E+02  0.00000000000E+00 0.  1.
         11    1    1    2    0    0  0.51320860803E+00 -0.32885249439E+02 -0.32082480884E+01  0.33045360787E+02  0.00000000000E+00 0. -1.
</event>
<event>
 7    1  0.2714042E-009  0.8308987E+02  0.7561462E-02  0.1320505E+00
         -4   -1    0    0    0  501 -0.00000000000E+00  0.00000000000E+00  0.24663618702E+03  0.24663618702E+03  0.00000000000E+00 0. -1.
          4   -1    0    0  501    0  0.00000000000E+00 -0.00000000000E+00 -0.50705975483E+02  0.50705975483E+02  0.00000000000E+00 0.  1.
         25    2    1    2    0    0 -0.16215233839E+02  0.12068601597E+02  0.13469989889E+03  0.18493139855E+03  0.12508786694E+03 0.  0.
          5    1    3    3  502    0  0.49839370296E+02  0.29333635818E+01  0.94490972479E+02  0.10695131478E+03  0.41800000000E+01 0.  1.
         -5    1    3    3    0  502 -0.66054604135E+02  0.91352380151E+01  0.40208926410E+02  0.77980083766E+02  0.41800000000E+01 0.  1.
        -11    1    1    2    0    0  0.10509366084E+02  0.16811948576E+02 -0.18686205118E+02  0.27244497648E+02  0.00000000000E+00 0.  1.
         11    1    1    2    0    0  0.57058677547E+01 -0.28880550173E+02  0.79916517765E+02  0.85166266308E+02  0.00000000000E+00 0. -1.
</event>
<event>
 7    1  0.2714042E-009  0.9720766E+02  0.7561462E-02  0.1286280E+00
         -1   -1    0    0    0  501 -0.00000000000E+00  0.00000000000E+00  0.54953902420E+02  0.54953902420E+02  0.00000000000E+00 0.  1.
          1   -1    0    0  501    0  0.00000000000E+00 -0.00000000000E+00 -0.24498402738E+03  0.24498402738E+03  0.00000000000E+00 0. -1.
         25    2    1    2    0    0  0.33082491286E+02 -0.18580905988E+02 -0.13428794368E+03  0.18740941386E+03  0.12509730328E+03 0.  0.
          5    1    3    3  502    0 -0.80072533253E-01  0.52206305302E+02 -0.50845058872E+02  0.72994500729E+02  0.41800000000E+01 0.  1.
         -5    1    3    3    0  502  0.33162563819E+02 -0.70787211290E+02 -0.83442884807E+02  0.11441491313E+03  0.41800000000E+01 0.  1.
        -11    1    1    2    0    0 -0.14117470608E+02  0.35588192626E+02 -0.72533857558E+02  0.82018186538E+02  0.00000000000E+00 0. -1.
         11    1    1    2    0    0 -0.18965020678E+02 -0.17007286638E+02  0.16791676278E+02  0.30510329404E+02  0.00000000000E+00 0.  1.
</event>
<event>
 7    1  0.2714042E-009  0.1537934E+03  0.7561462E-02  0.1195888E+00
         -2   -1    0    0    0  501 -0.00000000000E+00  0.00000000000E+00  0.20942500317E+02  0.20942500317E+02  0.00000000000E+00 0.  1.
          2   -1    0    0  501    0  0.00000000000E+00 -0.00000000000E+00 -0.11601187394E+04  0.11601187394E+04  0.00000000000E+00 0. -1.
         25    2    1    2    0    0 -0.23654029373E-02 -0.11077709491E+03 -0.61412955501E+03  0.63645305522E+03  0.12508323787E+03 0.  0.
          5    1    3    3  502    0  0.61748660122E+02 -0.46770152984E+02 -0.26217348360E+03  0.27340949534E+03  0.41800000000E+01 0.  1.
         -5    1    3    3    0  502 -0.61751025525E+02 -0.64006941931E+02 -0.35195607141E+03  0.36304355988E+03  0.41800000000E+01 0.  1.
        -11    1    1    2    0    0 -0.42361133965E+02  0.38736450799E+02 -0.27622546321E+03  0.28212671765E+03  0.00000000000E+00 0. -1.
         11    1    1    2    0    0  0.42363499368E+02  0.72040644116E+02 -0.24882122088E+03  0.26248146686E+03  0.00000000000E+00 0.  1.
</event>
<event>
 7    1  0.2714042E-009  0.1152575E+03  0.7561462E-02  0.1251132E+00
         -1   -1    0    0    0  501 -0.00000000000E+00  0.00000000000E+00  0.40286287992E+02  0.40286287992E+02  0.00000000000E+00 0.  1.
          1   -1    0    0  501    0  0.00000000000E+00 -0.00000000000E+00 -0.55649374602E+03  0.55649374602E+03  0.00000000000E+00 0. -1.
         25    2    1    2    0    0  0.97933837798E+02  0.18911106745E+02 -0.26043549514E+03  0.30565233543E+03  0.12509211199E+03 0.  0.
          5    1    3    3  502    0  0.20173290440E+02  0.41406304119E+02 -0.17328193737E+02  0.49388079191E+02  0.41800000000E+01 0. -1.
         -5    1    3    3    0  502  0.77760547358E+02 -0.22495197374E+02 -0.24310730140E+03  0.25626425624E+03  0.41800000000E+01 0. -1.
        -11    1    1    2    0    0 -0.64020659189E+02 -0.25047324980E+02 -0.56749359244E+02  0.89143160513E+02  0.00000000000E+00 0.  1.
         11    1    1    2    0    0 -0.33913178609E+02  0.61362182349E+01 -0.19902260364E+03  0.20198453807E+03  0.00000000000E+00 0. -1.
</event>
<event>
 7    1  0.2714042E-009  0.1769683E+03  0.7561462E-02  0.1170770E+00
          3   -1    0    0  501    0  0.00000000000E+00  0.00000000000E+00  0.29028699980E+03  0.29028699980E+03  0.00000000000E+00 0. -1.
         -3   -1    0    0    0  501 -0.00000000000E+00 -0.00000000000E+00 -0.22138455882E+03  0.22138455882E+03  0.00000000000E+00 0.  1.
         25    2    1    2    0    0 -0.11755520631E+03 -0.76429606901E+02  0.21745691553E+03  0.28739450871E+03  0.12508949670E+03 0.  0.
          5    1    3    3  502    0 -0.89231923353E+02 -0.11086937388E+03  0.17586012028E+03  0.22627109518E+03  0.41800000000E+01 0. -1.
         -5    1    3    3    0  502 -0.28323282954E+02  0.34439766975E+02  0.41596795245E+02  0.61123413527E+02  0.41800000000E+01 0. -1.
        -11    1    1    2    0    0 -0.14800903934E+02  0.14218030601E+02 -0.28176582102E+02  0.34858842929E+02  0.00000000000E+00 0. -1.
         11    1    1    2    0    0  0.13235611024E+03  0.62211576300E+02 -0.12037789245E+03  0.18941820698E+03  0.00000000000E+00 0.  1.
</event>
<event>
 7    1  0.2714042E-009  0.9083032E+02  0.7561462E-02  0.1300853E+00
         -2   -1    0    0    0  501 -0.00000000000E+00  0.00000000000E+00  0.67730793288E+02  0.67730793288E+02  0.00000000000E+00 0.  1.
          2   -1    0    0  501    0  0.00000000000E+00 -0.00000000000E+00 -0.20524666785E+03  0.20524666785E+03  0.00000000000E+00 0. -1.
         25    2    1    2    0    0  0.18852594953E+02  0.16374489587E+02 -0.11755534224E+03  0.17346529618E+03  0.12508959287E+03 0.  0.
          5    1    3    3  502    0 -0.12000507253E+02  0.57249803723E+02 -0.17851497040E+02  0.61300086030E+02  0.41800000000E+01 0.  1.
         -5    1    3    3    0  502  0.30853102206E+02 -0.40875314136E+02 -0.99703845196E+02  0.11216521015E+03  0.41800000000E+01 0.  1.
        -11    1    1    2    0    0 -0.41297584632E+02 -0.24198748999E+02  0.20909262369E+02  0.52232817293E+02  0.00000000000E+00 0.  1.
         11    1    1    2    0    0  0.22444989680E+02  0.78242594112E+01 -0.40869794696E+02  0.47279347664E+02  0.00000000000E+00 0. -1.
</event>
<event>
 7    1  0.2714042E-009  0.1214332E+03  0.7561462E-02  0.1240751E+00
         -2   -1    0    0    0  501 -0.00000000000E+00  0.00000000000E+00  0.34492882915E+02  0.34492882915E+02  0.00000000000E+00 0.  1.
          2   -1    0    0  501    0  0.00000000000E+00 -0.00000000000E+00 -0.10405519548E+04  0.10405519548E+04  0.00000000000E+00 0. -1.
         25    2    1    2    0    0  0.91245341055E+02  0.15712716363E+02 -0.88345039644E+03  0.89705374809E+03  0.12509285458E+03 0.  0.
          5    1    3    3  502    0  0.95950767920E+02 -0.24077332402E+02 -0.77615345145E+03  0.78244355732E+03  0.41800000000E+01 0.  1.
         -5    1    3    3    0  502 -0.47054268647E+01  0.39790048765E+02 -0.10729694500E+03  0.11461019077E+03  0.41800000000E+01 0.  1.
        -11    1    1    2    0    0 -0.56620643506E+02  0.13566319312E+02 -0.11902827495E+03  0.13250536793E+03  0.00000000000E+00 0. -1.
         11    1    1    2    0    0 -0.34624697549E+02 -0.29279035676E+02 -0.35804004844E+01  0.45485721695E+02  0.00000000000E+00 0.  1.
</event>
<event>
 7    1  0.2714042E-009  0.1133409E+03  0.7561462E-02  0.1254505E+00
         -2   -1    0    0    0  501 -0.00000000000E+00  0.00000000000E+00  0.39717902960E+03  0.39717902960E+03  0.00000000000E+00 0.  1.
          2   -1    0    0  501    0  0.00000000000E+00 -0.00000000000E+00 -0.36497686229E+02  0.36497686229E+02  0.00000000000E+00 0. -1.
         25    2    1    2    0    0 -0.25260219405E+02  0.42391993941E+02  0.16841957613E+03  0.21551701414E+03  0.12508904799E+03 0.  0.
          5    1    3    3  502    0 -0.38089290067E+02 -0.31501252797E+02  0.29837063298E+02  0.57886489718E+02  0.41800000000E+01 0. -1.
         -5    1    3    3    0  502  0.12829070662E+02  0.73893246737E+02  0.13858251283E+03  0.15763052443E+03  0.41800000000E+01 0. -1.
        -11    1    1    2    0    0  0.28374808268E+02  0.22981910685E+02  0.84941526776E+02  0.92457346566E+02  0.00000000000E+00 0.  1.
         11    1    1    2    0    0 -0.31145888635E+01 -0.65373904625E+02  0.10732024047E+03  0.12570235512E+03  0.00000000000E+00 0. -1.
</event>
<event>
 7    1  0.2714042E-009  0.8350116E+02  0.7561462E-02  0.1319399E+00
          1   -1    0    0  501    0  0.00000000000E+00  0.00000000000E+00  0.25200137996E+02  0.25200137996E+02  0.00000000000E+00 0. -1.
         -1   -1    0    0    0  501 -0.00000000000E+00 -0.00000000000E+00 -0.65501860866E+03  0.65501860866E+03  0.00000000000E+00 0.  1.
         25    2    1    2    0    0  0.49198883589E+02  0.32910594860E+02 -0.26235473684E+03  0.29661453051E+03  0.12508610780E+03 0.  0.
          5    1    3    3  502    0 -0.29697417506E+01  0.37096804604E+01  0.13188851375E+02  0.14628714768E+02  0.41800000000E+01 0. -1.
         -5    1    3    3    0  502  0.52168625339E+02  0.29200914400E+02 -0.27554358821E+03  0.28198581574E+03  0.41800000000E+01 0. -1.
        -11    1    1    2    0    0 -0.30509725812E+01 -0.51062044993E+02 -0.26350081706E+03  0.26842004669E+03  0.00000000000E+00 0.  1.
         11    1    1    2    0    0 -0.46147911008E+02  0.18151450132E+02 -0.10396291676E+03  0.11518416946E+03  0.00000000000E+00 0. -1.
</event>
<event>
 7    1  0.2714042E-009  0.1020201E+03  0.7561462E-02  0.1276104E+00
         -1   -1    0    0    0  501 -0.00000000000E+00  0.00000000000E+00  0.43098674792E+02  0.43098674792E+02  0.00000000000E+00 0.  1.
          1   -1    0    0  501    0  0.00000000000E+00 -0.00000000000E+00 -0.66418905048E+03  0.66418905048E+03  0.00000000000E+00 0. -1.
         25    2    1    2    0    0 -0.55643708904E+02  0.28829736822E+02 -0.57196224652E+03  0.58882588837E+03  0.12509092417E+03 0.  0.
          5    1    3    3  502    0 -0.90513124447E+02 -0.33150250181E+00 -0.31219334689E+03  0.32507675068E+03  0.41800000000E+01 0.  1.
         -5    1    3    3    0  502  0.34869415543E+02  0.29161239324E+02 -0.25976889963E+03  0.26374913769E+03  0.41800000000E+01 0.  1.
        -11    1    1    2    0    0  0.52270774913E+02 -0.16220514062E+02 -0.73009986998E+02  0.91245806413E+02  0.00000000000E+00 0. -1.
         11    1    1    2    0    0  0.33729339905E+01 -0.12609222760E+02  0.23881857826E+02  0.27216030488E+02  0.00000000000E+00 0.  1.
</event>
<event>
 7    1  0.2714042E-009  0.1036190E+03  0.7561462E-02  0.1272865E+00
          2   -1    0    0  501    0  0.00000000000E+00  0.00000000000E+00  0.88957862157E+02  0.88957862157E+02  0.00000000000E+00 0. -1.
         -2   -1    0    0    0  501 -0.00000000000E+00 -0.00000000000E+00 -0.16971656849E+03  0.16971656849E+03  0.00000000000E+00 0.  1.
         25    2    1    2    0    0  0.39083747474E+02  0.21676522040E+02 -0.66738414066E+01  0.13300206944E+03  0.12509036490E+03 0.  0.
          5    1    3    3  502    0  0.38050997547E+02  0.66939814153E+02 -0.28954189566E+02  0.82368893562E+02  0.41800000000E+01 0.  1.
         -5    1    3    3    0  502  0.10327499265E+01 -0.45263292113E+02  0.22280348160E+02  0.50633175877E+02  0.41800000000E+01 0.  1.
        -11    1    1    2    0    0 -0.74757740521E+01  0.26224054224E+02  0.52367124132E+01  0.27767091575E+02  0.00000000000E+00 0.  1.
         11    1    1    2    0    0 -0.31607973421E+02 -0.47900576264E+02 -0.79321577342E+02  0.97905269635E+02  0.00000000000E+00 0. -1.
</event>
<event>
 7    1  0.2714042E-009  0.1022365E+03  0.7561462E-02  0.1275662E+00
         -1   -1    0    0    0  501 -0.00000000000E+00  0.00000000000E+00  0.96582048510E+02  0.96582048510E+02  0.00000000000E+00 0.  1.
          1   -1    0    0  501    0  0.00000000000E+00 -0.00000000000E+00 -0.20946674092E+03  0.20946674092E+03  0.00000000000E+00 0. -1.
         25    2    1    2    0    0 -0.80620277777E+02 -0.99838337106E+01 -0.10696680787E+03  0.18354190217E+03  0.12508567361E+03 0.  0.
          5    1    3    3  502    0 -0.50187430344E+02 -0.21790690675E+02  0.15265251995E+02  0.56957112665E+02  0.41800000000E+01 0.  1.
         -5    1    3    3    0  502 -0.30432847432E+02  0.11806856964E+02 -0.12223205987E+03  0.12658478951E+03  0.41800000000E+01 0.  1.
        -11    1    1    2    0    0  0.23797296999E+02 -0.36298473401E+02 -0.20147168055E+02  0.47851843186E+02  0.00000000000E+00 0. -1.
         11    1    1    2    0    0  0.56822980778E+02  0.46282307111E+02  0.14229283520E+02  0.74655044073E+02  0.00000000000E+00 0.  1.
</event>
<event>
 7    1  0.2714042E-009  0.1074045E+03  0.7561462E-02  0.1265453E+00
          2   -1    0    0  501    0  0.00000000000E+00  0.00000000000E+00  0.14551513210E+04  0.14551513210E+04  0.00000000000E+00 0. -1.
         -2   -1    0    0    0  501 -0.00000000000E+00 -0.00000000000E+00 -0.29768798237E+02  0.29768798237E+02  0.00000000000E+00 0.  1.
         25    2    1    2    0    0  0.89826674445E+02 -0.47946688254E+02  0.12501186254E+04  0.12604806858E+04  0.12508902962E+03 0.  0.
          5    1    3    3  502    0  0.22608800248E+02  0.90799286883E+01  0.39152312258E+02  0.46303119860E+02  0.41800000000E+01 0. -1.
         -5    1    3    3    0  502  0.67217874197E+02 -0.57026616942E+02  0.12109663131E+04  0.12141775659E+04  0.41800000000E+01 0. -1.
        -11    1    1    2    0    0 -0.35800453276E+02  0.18024819087E+02  0.15921996454E+01  0.40113609381E+02  0.00000000000E+00 0.  1.
         11    1    1    2    0    0 -0.54026221170E+02  0.29921869167E+02  0.17367169772E+03  0.18432582406E+03  0.00000000000E+00 0. -1.
</event>
<event>
 7    1  0.2714042E-009  0.1272476E+03  0.7561462E-02  0.1231598E+00
         -2   -1    0    0    0  501 -0.00000000000E+00  0.00000000000E+00  0.76872837150E+02  0.76872837150E+02  0.00000000000E+00 0.  1.
          2   -1    0    0  501    0  0.00000000000E+00 -0.00000000000E+00 -0.25775134322E+03  0.25775134322E+03  0.00000000000E+00 0. -1.
         25    2    1    2    0    0 -0.27787501115E+02 -0.84832541996E+02 -0.63616181562E+02  0.16633077298E+03  0.12510076772E+03 0.  0.
          5    1    3    3  502    0 -0.61346732034E+02 -0.12290392869E+01 -0.12814582580E+02  0.62822113905E+02  0.41800000000E+01 0.  1.
         -5    1    3    3    0  502  0.33559230919E+02 -0.83603502709E+02 -0.50801598982E+02  0.10350865908E+03  0.41800000000E+01 0.  1.
        -11    1    1    2    0    0  0.36621775294E+02  0.30201793631E+02 -0.11369123775E+02  0.48811471394E+02  0.00000000000E+00 0.  1.
         11    1    1    2    0    0 -0.88342741791E+01  0.54630748364E+02 -0.10589320074E+03  0.11948193600E+03  0.00000000000E+00 0. -1.
</event>
<event>
 7    1  0.2714042E-009  0.1027203E+03  0.7561462E-02  0.1274677E+00
          1   -1    0    0  501    0  0.00000000000E+00  0.00000000000E+00  0.61632759359E+03  0.61632759359E+03  0.00000000000E+00 0. -1.
         -1   -1    0    0    0  501 -0.00000000000E+00 -0.00000000000E+00 -0.38069482855E+02  0.38069482855E+02  0.00000000000E+00 0.  1.
         25    2    1    2    0    0  0.35806545522E+02 -0.69625904467E+02  0.15367178792E+03  0.21305352090E+03  0.12508760567E+03 0.  0.
          5    1    3    3  502    0  0.11936291088E+02 -0.56243768292E+02  0.17095850985E+03  0.18041652088E+03  0.41800000000E+01 0. -1.
         -5    1    3    3    0  502  0.23870254435E+02 -0.13382136175E+02 -0.17286721929E+02  0.32637000022E+02  0.41800000000E+01 0. -1.
        -11    1    1    2    0    0  0.30806576663E+02  0.16779556443E+02  0.13982386111E+03  0.14415724337E+03  0.00000000000E+00 0. -1.
         11    1    1    2    0    0 -0.66613122185E+02  0.52846348024E+02  0.28476246170E+03  0.29718631217E+03  0.00000000000E+00 0.  1.
</event>
<event>
 7    1  0.2714042E-009  0.1274590E+03  0.7561462E-02  0.1231276E+00
          1   -1    0    0  501    0  0.00000000000E+00  0.00000000000E+00  0.35699618588E+03  0.35699618588E+03  0.00000000000E+00 0. -1.
         -1   -1    0    0    0  501 -0.00000000000E+00 -0.00000000000E+00 -0.55099456202E+02  0.55099456202E+02  0.00000000000E+00 0.  1.
         25    2    1    2    0    0  0.21904583881E+02 -0.85496495598E+02  0.17365551493E+03  0.23150123739E+03  0.12508846267E+03 0.  0.
          5    1    3    3  502    0 -0.39142692377E+02 -0.77793052826E+02  0.74250795876E+02  0.11451883043E+03  0.41800000000E+01 0. -1.
         -5    1    3    3    0  502  0.61047276258E+02 -0.77034427726E+01  0.99404719049E+02  0.11698240696E+03  0.41800000000E+01 0. -1.
        -11    1    1    2    0    0 -0.24341618955E+02  0.41705221050E+01  0.84877783195E+02  0.88397656916E+02  0.00000000000E+00 0. -1.
         11    1    1    2    0    0  0.24370350742E+01  0.81325973493E+02  0.43363431562E+02  0.92196747781E+02  0.00000000000E+00 0.  1.
</event>
<event>
 7    1  0.2714042E-009  0.8186779E+02  0.7561462E-02  0.1323833E+00
          1   -1    0    0  501    0  0.00000000000E+00  0.00000000000E+00  0.47448621576E+02  0.47448621576E+02  0.00000000000E+00 0. -1.
         -1   -1    0    0    0  501 -0.00000000000E+00 -0.00000000000E+00 -0.20172901620E+03  0.20172901620E+03  0.00000000000E+00 0.  1.
         25    2    1    2    0    0 -0.15348834343E+02 -0.58264334886E+01 -0.77919416086E+02  0.14828512505E+03  0.12509000306E+03 0.  0.
          5    1    3    3  502    0 -0.23483504589E+02  0.45048388719E+02 -0.81872509847E+02  0.96443831231E+02  0.41800000000E+01 0.  1.
         -5    1    3    3    0  502  0.81346702454E+01 -0.50874822207E+02  0.39530937614E+01  0.51841293820E+02  0.41800000000E+01 0.  1.
        -11    1    1    2    0    0  0.10947463551E+02 -0.26382351673E+02 -0.55057606967E+02  0.62025926216E+02  0.00000000000E+00 0. -1.
         11    1    1    2    0    0  0.44013707923E+01  0.32208785162E+02 -0.21303371569E+02  0.38866586507E+02  0.00000000000E+00 0.  1.
</event>
<event>
 7    1  0.2714042E-009  0.7351522E+02  0.7561462E-02  0.1348532E+00
          1   -1    0    0  501    0  0.00000000000E+00  0.00000000000E+00  0.12322490982E+03  0.12322490982E+03  0.00000000000E+00 0. -1.
         -1   -1    0    0    0  501 -0.00000000000E+00 -0.00000000000E+00 -0.19633806445E+03  0.19633806445E+03  0.00000000000E+00 0.  1.
         25    2    1    2    0    0 -0.41999914304E+02  0.48854396600E+01  0.65402703187E+02  0.14735280635E+03  0.12508987022E+03 0.  0.
          5    1    3    3  502    0 -0.22251214375E+02  0.86727103808E+01 -0.36269657109E+02  0.43626744931E+02  0.41800000000E+01 0. -1.
         -5    1    3    3    0  502 -0.19748699929E+02 -0.37872707209E+01  0.10167236030E+03  0.10372606141E+03  0.41800000000E+01 0. -1.
        -11    1    1    2    0    0 -0.30053960805E+02 -0.45587322959E+00 -0.37772322431E+02  0.48272111227E+02  0.00000000000E+00 0.  1.
         11    1    1    2    0    0  0.72053875109E+02 -0.44295664304E+01 -0.10074353539E+03  0.12393805670E+03  0.00000000000E+00 0. -1.
</event>
<event>
 7    1  0.2714042E-009  0.1972442E+03  0.7561462E-02  0.1152085E+00
          2   -1    0    0  501    0  0.00000000000E+00  0.00000000000E+00  0.32026743331E+03  0.32026743331E+03  0.00000000000E+00 0. -1.
         -2   -1    0    0    0  501 -0.00000000000E+00 -0.00000000000E+00 -0.15859539878E+03  0.15859539878E+03  0.00000000000E+00 0.  1.
         25    2    1    2    0    0 -0.10717493514E+03  0.14802928135E+03  0.47901573342E+01  0.22151695917E+03  0.12509069802E+03 0.  0.
          5    1    3    3  502    0 -0.93240552915E+02  0.16178656189E+03 -0.22001837875E+02  0.18806978914E+03  0.41800000000E+01 0. -1.
         -5    1    3    3    0  502 -0.13934382224E+02 -0.13757280539E+02  0.26791995209E+02  0.33447170031E+02  0.41800000000E+01 0. -1.
        -11    1    1    2    0    0  0.47368459833E+02 -0.32038626561E+02  0.54574262873E+01  0.57445870875E+02  0.00000000000E+00 0.  1.
         11    1    1    2    0    0  0.59806475307E+02 -0.11599065479E+03  0.15142445090E+03  0.19990000205E+03  0.00000000000E+00 0. -1.
</event>
<event>
 7    1  0.2714042E-009  0.1084064E+03  0.7561462E-02  0.1263550E+00
         -1   -1    0    0    0  501 -0.00000000000E+00  0.00000000000E+00  0.96807938998E+02  0.96807938998E+02  0.00000000000E+00 0.  1.
          1   -1    0    0  501    0  0.00000000000E+00 -0.00000000000E+00 -0.14340856828E+03  0.14340856828E+03  0.00000000000E+00 0. -1.
         25    2    1    2    0    0  0.58312396220E+01  0.34493456729E+02 -0.23758973831E+02  0.13204857784E+03  0.12509410922E+03 0.  0.
          5    1    3    3  502    0 -0.58904461905E+02  0.13457238899E+02 -0.25092390562E+01  0.60618492160E+02  0.41800000000E+01 0.  1.
         -5    1    3    3    0  502  0.64735701527E+02  0.21036217830E+02 -0.21249734775E+02  0.71430085684E+02  0.41800000000E+01 0.  1.
        -11    1    1    2    0    0  0.25489510921E+02 -0.47680780768E+02  0.16167564311E+02  0.56431924984E+02  0.00000000000E+00 0.  1.
         11    1    1    2    0    0 -0.31320750543E+02  0.13187324039E+02 -0.39009219763E+02  0.51736004449E+02  0.00000000000E+00 0. -1.
</event>
<event>
 7    1  0.2714042E-009  0.8588741E+02  0.7561462E-02  0.1313128E+00
          2   -1    0    0  501    0  0.00000000000E+00  0.00000000000E+00  0.17063511172E+03  0.17063511172E+03  0.00000000000E+00 0.  1.
         -2   -1    0    0    0  501 -0.00000000000E+00 -0.00000000000E+00 -0.96509527840E+02  0.96509527840E+02  0.00000000000E+00 0. -1.
         25    2    1    2    0    0  0.19043982200E+02 -0.36038660059E+02 -0.15923540694E+02  0.13251857853E+03  0.12508459629E+03 0.  0.
          5    1    3    3  502    0  0.20213827524E+02  0.20147192480E+02  0.42488499552E+02  0.51354193423E+02  0.41800000000E+01 0.  1.
         -5    1    3    3    0  502 -0.11698453237E+01 -0.56185852538E+02 -0.58412040246E+02  0.81164385103E+02  0.41800000000E+01 0.  1.
        -11    1    1    2    0    0  0.25360850691E+02 -0.53001977257E+01 -0.16529972195E+00  0.25909306584E+02  0.00000000000E+00 0. -1.
         11    1    1    2    0    0 -0.44404832891E+02  0.41338857784E+02  0.90214424293E+02  0.10871675445E+03  0.00000000000E+00 0.  1.
</event>
<event>
 7    1  0.2714042E-009  0.2345560E+03  0.7561462E-02  0.1123474E+00
          2   -1    0    0  501    0  0.00000000000E+00  0.00000000000E+00  0.89018864437E+03  0.89018864437E+03  0.00000000000E+00 0. -1.
         -2   -1    0    0    0  501 -0.00000000000E+00 -0.00000000000E+00 -0.67458507453E+02  0.67458507453E+02  0.00000000000E+00 0.  1.
         25    2    1    2    0    0 -0.19747496819E+03 -0.77867386838E+02  0.53212635268E+03  0.58640251063E+03  0.12509898587E+03 0.  0.
          5    1    3    3  502    0 -0.69849017638E+02  0.29084439294E+02  0.21884303694E+03  0.23159131480E+03  0.41800000000E+01 0. -1.
         -5    1    3    3    0  502 -0.12762595055E+03 -0.10695182613E+03  0.31328331574E+03  0.35481119583E+03  0.41800000000E+01 0. -1.
        -11    1    1    2    0    0  0.20360518071E+03  0.67099524055E+02  0.25278510646E+03  0.33144792319E+03  0.00000000000E+00 0.  1.
         11    1    1    2    0    0 -0.61302125195E+01  0.10767862783E+02  0.37818677774E+02  0.39796717993E+02  0.00000000000E+00 0. -1.
</event>
<event>
 7    1  0.2714042E-009  0.1166930E+03  0.7561462E-02  0.1248654E+00
         -2   -1    0    0    0  501 -0.00000000000E+00  0.00000000000E+00  0.31421678305E+02  0.31421678305E+02  0.00000000000E+00 0.  1.
          2   -1    0    0  501    0  0.00000000000E+00 -0.00000000000E+00 -0.53133011042E+03  0.53133011042E+03  0.00000000000E+00 0. -1.
         25    2    1    2    0    0 -0.39310461064E+02 -0.58875145632E+02 -0.30775280168E+03  0.33966478293E+03  0.12509509462E+03 0.  0.
          5    1    3    3  502    0 -0.37169326893E+02 -0.85586893457E+02 -0.13126065211E+03  0.16110091988E+03  0.41800000000E+01 0.  1.
         -5    1    3    3    0  502 -0.21411341710E+01  0.26711747826E+02 -0.17649214957E+03  0.17856386305E+03  0.41800000000E+01 0.  1.
        -11    1    1    2    0    0 -0.10920934730E+02  0.61595655560E+02 -0.11651122995E+03  0.13224280057E+03  0.00000000000E+00 0. -1.
         11    1    1    2    0    0  0.50231395794E+02 -0.27205099288E+01 -0.75644400482E+02  0.90844205219E+02  0.00000000000E+00 0.  1.
</event>
<event>
 7    1  0.2714042E-009  0.8554620E+02  0.7561462E-02  0.1314010E+00
         -2   -1    0    0    0  501 -0.00000000000E+00  0.00000000000E+00  0.89870219916E+02  0.89870219916E+02  0.00000000000E+00 0.  1.
          2   -1    0    0  501    0  0.00000000000E+00 -0.00000000000E+00 -0.14101674118E+03  0.14101674118E+03  0.00000000000E+00 0. -1.
         25    2    1    2    0    0 -0.72858841811E+01  0.27224112308E+01 -0.59301017539E+02  0.13865350973E+03  0.12509072487E+03 0.  0.
          5    1    3    3  502    0 -0.53175543829E+02 -0.30519424238E+00 -0.73067863392E+02  0.90466107829E+02  0.41800000000E+01 0.  1.
         -5    1    3    3    0  502  0.45889659647E+02  0.30276054732E+01  0.13766845853E+02  0.48187401903E+02  0.41800000000E+01 0.  1.
        -11    1    1    2    0    0  0.39026417832E+02  0.36579844427E+01  0.33146805021E+02  0.51333739607E+02  0.00000000000E+00 0.  1.
         11    1    1    2    0    0 -0.31740533651E+02 -0.63803956736E+01 -0.24992308747E+02  0.40899711758E+02  0.00000000000E+00 0. -1.
</event>
<event>
 7    1  0.2714042E-009  0.9665971E+02  0.7561462E-02  0.1287481E+00
          1   -1    0    0  501    0  0.00000000000E+00  0.00000000000E+00  0.29497000019E+03  0.29497000019E+03  0.00000000000E+00 0. -1.
         -1   -1    0    0    0  501 -0.00000000000E+00 -0.00000000000E+00 -0.40271187441E+02  0.40271187441E+02  0.00000000000E+00 0.  1.
         25    2    1    2    0    0 -0.12764912458E+02  0.12410189655E+01  0.15967977906E+03  0.20325093345E+03  0.12509527166E+03 0.  0.
          5    1    3    3  502    0  0.38335601224E+02 -0.38949554233E+02  0.43189159256E+02  0.69781530317E+02  0.41800000000E+01 0. -1.
         -5    1    3    3    0  502 -0.51100513682E+02  0.40190573198E+02  0.11649061980E+03  0.13346940314E+03  0.41800000000E+01 0. -1.
        -11    1    1    2    0    0  0.33059344076E+02 -0.25487883027E+02  0.12429719597E+02  0.43555141387E+02  0.00000000000E+00 0.  1.
         11    1    1    2    0    0 -0.20294431618E+02  0.24246864062E+02  0.82589314097E+02  0.88435112792E+02  0.00000000000E+00 0. -1.
</event>
<event>
 7    1  0.2714042E-009  0.1220063E+03  0.7561462E-02  0.1239823E+00
          2   -1    0    0  501    0  0.00000000000E+00  0.00000000000E+00  0.26237841455E+03  0.26237841455E+03  0.00000000000E+00 0.  1.
         -2   -1    0    0    0  501 -0.00000000000E+00 -0.00000000000E+00 -0.56947624487E+02  0.56947624487E+02  0.00000000000E+00 0. -1.
         25    2    1    2    0    0 -0.32287528051E+02  0.46934362937E+02  0.11657284404E+03  0.18022672044E+03  0.12508846430E+03 0.  0.
          5    1    3    3  502    0 -0.23701730953E+02 -0.41665018391E+02  0.36059087026E+02  0.60128828068E+02  0.41800000000E+01 0.  1.
         -5    1    3    3    0  502 -0.85857970982E+01  0.88599381328E+02  0.80513757009E+02  0.12009789237E+03  0.41800000000E+01 0.  1.
        -11    1    1    2    0    0 -0.85912499592E+01  0.23679921768E+02  0.24976827041E+02  0.35473795396E+02  0.00000000000E+00 0.  1.
         11    1    1    2    0    0  0.40878778011E+02 -0.70614284705E+02  0.63881118983E+02  0.10362552320E+03  0.00000000000E+00 0. -1.
</event>
<event>
 7    1  0.2714042E-009  0.1120922E+03  0.7561462E-02  0.1256744E+00
         -2   -1    0    0    0  501 -0.00000000000E+00  0.00000000000E+00  0.34738956756E+02  0.34738956756E+02  0.00000000000E+00 0.  1.
          2   -1    0    0  501    0  0.00000000000E+00 -0.00000000000E+00 -0.64302432947E+03  0.64302432947E+03  0.00000000000E+00 0. -1.
         25    2    1    2    0    0 -0.19214791049E+02  0.21617265547E+02 -0.55176964938E+03  0.56650943451E+03  0.12508668616E+03 0.  0.
          5    1    3    3  502    0 -0.53280960209E+02  0.57650478840E+02 -0.34154300551E+03  0.35047330204E+03  0.41800000000E+01 0.  1.
         -5    1    3    3    0  502  0.34066169159E+02 -0.36033213293E+02 -0.21022664387E+03  0.21603613247E+03  0.41800000000E+01 0.  1.
        -11    1    1    2    0    0  0.56234892641E+02 -0.15011928854E+02 -0.33190250835E+02  0.67002342562E+02  0.00000000000E+00 0. -1.
         11    1    1    2    0    0 -0.37020101592E+02 -0.66053366930E+01 -0.23325472499E+02  0.44251509149E+02  0.00000000000E+00 0.  1.
</event>
<event>
 7    1  0.2714042E-009  0.1044928E+03  0.7561462E-02  0.1271122E+00
          1   -1    0    0  501    0  0.00000000000E+00  0.00000000000E+00  0.15319027004E+03  0.15319027004E+03  0.00000000000E+00 0. -1.
         -1   -1    0    0    0  501 -0.00000000000E+00 -0.00000000000E+00 -0.88662575754E+02  0.88662575754E+02  0.00000000000E+00 0.  1.
         25    2    1    2    0    0  0.38195411043E+02  0.43322705997E+01  0.22546094106E+02  0.13280083898E+03  0.12510027370E+03 0.  0.
          5    1    3    3  502    0 -0.42988518710E+02  0.65537486086E+01  0.27002007775E+02  0.51357036379E+02  0.41800000000E+01 0.  1.
         -5    1    3    3    0  502  0.81183929753E+02 -0.22214780089E+01 -0.44559136689E+01  0.81443802597E+02  0.41800000000E+01 0.  1.
        -11    1    1    2    0    0  0.10661977401E+02  0.24869742742E+02 -0.12906411848E+02  0.29979281728E+02  0.00000000000E+00 0.  1.
         11    1    1    2    0    0 -0.48857388444E+02 -0.29202013342E+02  0.54888012025E+02  0.79072725088E+02  0.00000000000E+00 0. -1.
</event>
<event>
 7    1  0.2714042E-009  0.1182221E+03  0.7561462E-02  0.1246059E+00
         -2   -1    0    0    0  501 -0.00000000000E+00  0.00000000000E+00  0.34012708336E+03  0.34012708336E+03  0.00000000000E+00 0.  1.
          2   -1    0    0  501    0  0.00000000000E+00 -0.00000000000E+00 -0.49891837479E+02  0.49891837479E+02  0.00000000000E+00 0. -1.
         25    2    1    2    0    0  0.66925426716E+02 -0.22469051960E+02  0.19967660567E+03  0.24597173949E+03  0.12508988263E+03 0.  0.
          5    1    3    3  502    0 -0.23764969986E+02 -0.37456730578E+02  0.10442864709E+03  0.11353675703E+03  0.41800000000E+01 0.  1.
         -5    1    3    3    0  502  0.90690396702E+02  0.14987678618E+02  0.95247958587E+02  0.13243498246E+03  0.41800000000E+01 0.  1.
        -11    1    1    2    0    0 -0.10006060719E+02  0.39270502560E+02  0.63392862926E+01  0.41018046920E+02  0.00000000000E+00 0. -1.
         11    1    1    2    0    0 -0.56919365997E+02 -0.16801450600E+02  0.84219353918E+02  0.10302913443E+03  0.00000000000E+00 0.  1.
</event>
<event>
 7    1  0.2714042E-009  0.1914616E+03  0.7561462E-02  0.1157150E+00
          2   -1    0    0  501    0  0.00000000000E+00  0.00000000000E+00  0.16304121745E+03  0.16304121745E+03  0.00000000000E+00 0. -1.
         -2   -1    0    0    0  501 -0.00000000000E+00 -0.00000000000E+00 -0.26269687542E+03  0.26269687542E+03  0.00000000000E+00 0.  1.
         25    2    1    2    0    0 -0.72639475154E+02  0.15842012889E+03 -0.76962917388E+02  0.22791253342E+03  0.12508957449E+03 0.  0.
          5    1    3    3  502    0 -0.72869955275E+02  0.39906935856E+02 -0.70679852229E+02  0.10915909409E+03  0.41800000000E+01 0.  1.
         -5    1    3    3    0  502  0.23048012076E+00  0.11851319304E+03 -0.62830651587E+01  0.11875343933E+03  0.41800000000E+01 0.  1.
        -11    1    1    2    0    0  0.30305648097E+02 -0.12070673763E+03 -0.50949347536E+02  0.13447819463E+03  0.00000000000E+00 0. -1.
         11    1    1    2    0    0  0.42333827057E+02 -0.37713391261E+02  0.28256606950E+02  0.63347364823E+02  0.00000000000E+00 0.  1.
</event>
<event>
 7    1  0.2714042E-009  0.1540990E+03  0.7561462E-02  0.1195525E+00
          2   -1    0    0  501    0  0.00000000000E+00  0.00000000000E+00  0.32186366044E+03  0.32186366044E+03  0.00000000000E+00 0. -1.
         -2   -1    0    0    0  501 -0.00000000000E+00 -0.00000000000E+00 -0.10263456907E+03  0.10263456907E+03  0.00000000000E+00 0.  1.
         25    2    1    2    0    0 -0.12546168809E+03 -0.74004084208E+02  0.13112173990E+03  0.23250374636E+03  0.12509133360E+03 0.  0.
          5    1    3    3  502    0 -0.94773508818E+02 -0.39642659373E+02  0.10541557680E+02  0.10335451250E+03  0.41800000000E+01 0. -1.
         -5    1    3    3    0  502 -0.30688179267E+02 -0.34361424835E+02  0.12058018222E+03  0.12914923386E+03  0.41800000000E+01 0. -1.
        -11    1    1    2    0    0  0.91248013441E+02  0.17265592219E+02  0.16293864004E+02  0.94285686272E+02  0.00000000000E+00 0.  1.
         11    1    1    2    0    0  0.34213674644E+02  0.56738491989E+02  0.71813487470E+02  0.97708796884E+02  0.00000000000E+00 0. -1.
</event>
<event>
 7    1  0.2714042E-009  0.5288405E+02  0.7561462E-02  0.1430379E+00
          3   -1    0    0  501    0  0.00000000000E+00  0.00000000000E+00  0.41069643529E+02  0.41069643529E+02  0.00000000000E+00 0.  1.
         -3   -1    0    0    0  501 -0.00000000000E+00 -0.00000000000E+00 -0.74631489666E+03  0.74631489666E+03  0.00000000000E+00 0. -1.
         25    2    1    2    0    0 -0.22984037364E+02 -0.57922980122E+00 -0.67792225238E+03  0.68974991960E+03  0.12509104618E+03 0.  0.
          5    1    3    3  502    0 -0.13292804687E+02  0.33404011366E+02 -0.55175844470E+02  0.65987671915E+02  0.41800000000E+01 0.  1.
         -5    1    3    3    0  502 -0.96912326770E+01 -0.33983241167E+02 -0.62274640791E+03  0.62376224769E+03  0.41800000000E+01 0.  1.
        -11    1    1    2    0    0  0.10583402150E+02  0.12780044935E+02 -0.59112028882E+02  0.61396823274E+02  0.00000000000E+00 0. -1.
         11    1    1    2    0    0  0.12400635214E+02 -0.12200815133E+02  0.31789028140E+02  0.36237797307E+02  0.00000000000E+00 0.  1.
</event>
<event>
 7    1  0.2714042E-009  0.7124356E+02  0.7561462E-02  0.1355915E+00
         -3   -1    0    0    0  501 -0.00000000000E+00  0.00000000000E+00  0.11411314075E+03  0.11411314075E+03  0.00000000000E+00 0.  1.
          3   -1    0    0  501    0  0.00000000000E+00 -0.00000000000E+00 -0.12650058034E+03  0.12650058034E+03  0.00000000000E+00 0. -1.
         25    2    1    2    0    0 -0.25530661316E+02  0.44344259837E+02 -0.20103386156E+02  0.13663740491E+03  0.12508959285E+03 0.  0.
          5    1    3    3  502    0 -0.12264294374E+02 -0.17304618897E+02  0.42499311178E+02  0.47681512165E+02  0.41800000000E+01 0. -1.
         -5    1    3    3    0  502 -0.13266366941E+02  0.61648878734E+02 -0.62602697335E+02  0.88955892748E+02  0.41800000000E+01 0. -1.
        -11    1    1    2    0    0  0.26127844729E+01 -0.31082871148E+02  0.47116038061E+02  0.56505686122E+02  0.00000000000E+00 0.  1.
         11    1    1    2    0    0  0.22917876843E+02 -0.13261388689E+02 -0.39400091492E+02  0.47470630062E+02  0.00000000000E+00 0. -1.
</event>
<event>
 7    1  0.2714042E-009  0.2937920E+03  0.7561462E-02  0.1088386E+00
          2   -1    0    0  501    0  0.00000000000E+00  0.00000000000E+00  0.91177608508E+03  0.91177608508E+03  0.00000000000E+00 0. -1.
         -2   -1    0    0    0  501 -0.00000000000E+00 -0.00000000000E+00 -0.12214137092E+03  0.12214137092E+03  0.00000000000E+00 0.  1.
         25    2    1    2    0    0  0.75838078969E+02 -0.27738379103E+03  0.20062988416E+03  0.37228131584E+03  0.12509135047E+03 0.  0.
          5    1    3    3  502    0  0.59315008015E+02 -0.20271482870E+03  0.73147611707E+02  0.22356121633E+03  0.41800000000E+01 0.  1.
         -5    1    3    3    0  502  0.16523070954E+02 -0.74668962331E+02  0.12748227245E+03  0.14872009951E+03  0.41800000000E+01 0.  1.
        -11    1    1    2    0    0 -0.76817239075E+02  0.12082372972E+03  0.31603620948E+03  0.34695554122E+03  0.00000000000E+00 0. -1.
         11    1    1    2    0    0  0.97916010601E+00  0.15656006131E+03  0.27296862053E+03  0.31468059893E+03  0.00000000000E+00 0.  1.
</event>
<event>
 7    1  0.2714042E-009  0.8104099E+02  0.7561462E-02  0.1326123E+00
          1   -1    0    0  501    0  0.00000000000E+00  0.00000000000E+00  0.28442732356E+03  0.28442732356E+03  0.00000000000E+00 0. -1.
         -1   -1    0    0    0  501 -0.00000000000E+00 -0.00000000000E+00 -0.60605453723E+02  0.60605453723E+02  0.00000000000E+00 0.  1.
         25    2    1    2    0    0  0.30170989149E+02 -0.50699989582E+02  0.65403257007E+02  0.15299008706E+03  0.12509038005E+03 0.  0.
          5    1    3    3  502    0 -0.14624037191E+01  0.72392665451E+01  0.83884091598E+02  0.84312269736E+02  0.41800000000E+01 0.  1.
         -5    1    3    3    0  502  0.31633392868E+02 -0.57939256127E+02 -0.18480834591E+02  0.68677817322E+02  0.41800000000E+01 0.  1.
        -11    1    1    2    0    0 -0.19888302690E+02 -0.12453740578E+02  0.26137337394E+01  0.23610841627E+02  0.00000000000E+00 0.  1.
         11    1    1    2    0    0 -0.10282686459E+02  0.63153730159E+02  0.15580487909E+03  0.16843184859E+03  0.00000000000E+00 0. -1.
</event>
<event>
 7    1  0.2714042E-009  0.1531100E+03  0.7561462E-02  0.1196703E+00
         -1   -1    0    0    0  501 -0.00000000000E+00  0.00000000000E+00  0.13306682456E+03  0.13306682456E+03  0.00000000000E+00 0.  1.
          1   -1    0    0  501    0  0.00000000000E+00 -0.00000000000E+00 -0.24781273244E+03  0.24781273244E+03  0.00000000000E+00 0. -1.
         25    2    1    2    0    0 -0.93288375967E+02 -0.10897462521E+03 -0.84774960539E+02  0.20835469160E+03  0.12508674409E+03 0.  0.
          5    1    3    3  502    0 -0.63518872676E+02 -0.24364006739E+02 -0.96135782870E+02  0.11784656617E+03  0.41800000000E+01 0.  1.
         -5    1    3    3    0  502 -0.29769503291E+02 -0.84610618474E+02  0.11360822331E+02  0.90508125430E+02  0.41800000000E+01 0.  1.
        -11    1    1    2    0    0  0.41380938056E+02  0.76683705648E+02 -0.58613458510E+02  0.10501576198E+03  0.00000000000E+00 0. -1.
         11    1    1    2    0    0  0.51907437912E+02  0.32290919566E+02  0.28642511170E+02  0.67509103409E+02  0.00000000000E+00 0.  1.
</event>
<event>
 7    1  0.2714042E-009  0.1385638E+03  0.7561462E-02  0.1215275E+00
          1   -1    0    0  501    0  0.00000000000E+00  0.00000000000E+00  0.16664595787E+04  0.16664595787E+04  0.00000000000E+00 0. -1.
         -1   -1    0    0    0  501 -0.00000000000E+00 -0.00000000000E+00 -0.13407369597E+02  0.13407369597E+02  0.00000000000E+00 0.  1.
         25    2    1    2    0    0  0.84038972403E+01 -0.96115931993E+02  0.10695616272E+04  0.10811654731E+04  0.12509119885E+03 0.  0.
          5    1    3    3  502    0  0.55505727683E+02 -0.33537028615E+02  0.26761612954E+03  0.27539332469E+03  0.41800000000E+01 0.  1.
         -5    1    3    3    0  502 -0.47101830443E+02 -0.62578903379E+02  0.80194549762E+03  0.80577214840E+03  0.41800000000E+01 0.  1.
        -11    1    1    2    0    0  0.12528732765E+02  0.10860904023E+03  0.49370670285E+03  0.50566708535E+03  0.00000000000E+00 0.  1.
         11    1    1    2    0    0 -0.20932630006E+02 -0.12493108238E+02  0.89783879115E+02  0.93034389885E+02  0.00000000000E+00 0. -1.
</event>
<event>
 7    1  0.2714042E-009  0.3536949E+03  0.7561462E-02  0.1061109E+00
          2   -1    0    0  501    0  0.00000000000E+00  0.00000000000E+00  0.22358307749E+04  0.22358307749E+04  0.00000000000E+00 0. -1.
         -2   -1    0    0    0  501 -0.00000000000E+00 -0.00000000000E+00 -0.64665536969E+02  0.64665536969E+02  0.00000000000E+00 0.  1.
         25    2    1    2    0    0  0.19145842092E+03  0.29126417528E+03  0.14269228629E+04  0.14741938276E+04  0.12508971957E+03 0.  0.
          5    1    3    3  502    0  0.16864325221E+03  0.27732031731E+03  0.11202624121E+04  0.11663414806E+04  0.41800000000E+01 0. -1.
         -5    1    3    3    0  502  0.22815168717E+02  0.13943857977E+02  0.30666045081E+03  0.30785234706E+03  0.41800000000E+01 0. -1.
        -11    1    1    2    0    0 -0.70549091746E+02 -0.17194836624E+03  0.44412775039E+03  0.48144872382E+03  0.00000000000E+00 0.  1.
         11    1    1    2    0    0 -0.12090932918E+03 -0.11931580904E+03  0.30011462465E+03  0.34485376045E+03  0.00000000000E+00 0. -1.
</event>
<event>
 7    1  0.2714042E-009  0.9519370E+02  0.7561462E-02  0.1290740E+00
         -2   -1    0    0    0  501 -0.00000000000E+00  0.00000000000E+00  0.43907290424E+02  0.43907290424E+02  0.00000000000E+00 0.  1.
          2   -1    0    0  501    0  0.00000000000E+00 -0.00000000000E+00 -0.29678409095E+03  0.29678409095E+03  0.00000000000E+00 0. -1.
         25    2    1    2    0    0 -0.31109316859E+02  0.23640241560E+02 -0.13004102888E+03  0.18462485544E+03  0.12509603285E+03 0.  0.
          5    1    3    3  502    0 -0.78220038968E+02  0.11129697508E+02 -0.60499167334E+02  0.99598525646E+02  0.41800000000E+01 0.  1.
         -5    1    3    3    0  502  0.47110722109E+02  0.12510544052E+02 -0.69541861548E+02  0.85026329790E+02  0.41800000000E+01 0.  1.
        -11    1    1    2    0    0  0.33277443078E+02 -0.36449347333E+02 -0.13149595724E+03  0.14045330153E+03  0.00000000000E+00 0. -1.
         11    1    1    2    0    0 -0.21681262183E+01  0.12809105773E+02  0.86601855957E+01  0.15613224412E+02  0.00000000000E+00 0.  1.
</event>
<event>
 7    1  0.2714042E-009  0.1101665E+03  0.7561462E-02  0.1260262E+00
          4   -1    0    0  501    0  0.00000000000E+00  0.00000000000E+00  0.18795094174E+03  0.18795094174E+03  0.00000000000E+00 0. -1.
         -4   -1    0    0    0  501 -0.00000000000E+00 -0.00000000000E+00 -0.10679836993E+03  0.10679836993E+03  0.00000000000E+00 0.  1.
         25    2    1    2    0    0  0.94173007072E+01 -0.88240815239E+02  0.54593839654E+02  0.16279748042E+03  0.12508958900E+03 0.  0.
          5    1    3    3  502    0  0.20335260214E+02  0.16301304911E+02 -0.20608022134E+02  0.33487584655E+02  0.41800000000E+01 0. -1.
         -5    1    3    3    0  502 -0.10917959506E+02 -0.10454212015E+03  0.75201861789E+02  0.12930989576E+03  0.41800000000E+01 0. -1.
        -11    1    1    2    0    0 -0.45070500011E+01  0.44803280094E+02  0.61336680866E+02  0.76090970730E+02  0.00000000000E+00 0. -1.
         11    1    1    2    0    0 -0.49102507061E+01  0.43437535145E+02 -0.34777948712E+02  0.55860860520E+02  0.00000000000E+00 0.  1.
</event>
<event>
 7    1  0.2714042E-009  0.1611238E+03  0.7561462E-02  0.1187434E+00
          2   -1    0    0  501    0  0.00000000000E+00  0.00000000000E+00  0.38001987649E+02  0.38001987649E+02  0.00000000000E+00 0. -1.
         -2   -1    0    0    0  501 -0.00000000000E+00 -0.00000000000E+00 -0.87453797451E+03  0.87453797451E+03  0.00000000000E+00 0.  1.
         25    2    1    2    0    0  0.14352768677E+03  0.10916469798E+02 -0.50583154664E+03  0.54058416800E+03  0.12508526267E+03 0.  0.
          5    1    3    3  502    0  0.11504439642E+03  0.50119581706E+02 -0.24545930807E+03  0.27570805200E+03  0.41800000000E+01 0. -1.
         -5    1    3    3    0  502  0.28483290350E+02 -0.39203111908E+02 -0.26037223856E+03  0.26487611600E+03  0.41800000000E+01 0. -1.
        -11    1    1    2    0    0 -0.82850423688E+02  0.10916339484E+02 -0.90220429838E+02  0.12297595348E+03  0.00000000000E+00 0. -1.
         11    1    1    2    0    0 -0.60677263080E+02 -0.21832809282E+02 -0.24048401038E+03  0.24897984068E+03  0.00000000000E+00 0.  1.
</event>
<event>
 7    1  0.2714042E-009  0.1494078E+03  0.7561462E-02  0.1201203E+00
         -3   -1    0    0    0  501 -0.00000000000E+00  0.00000000000E+00  0.11535000389E+03  0.11535000389E+03  0.00000000000E+00 0.  1.
          3   -1    0    0  501    0  0.00000000000E+00 -0.00000000000E+00 -0.31182126919E+03  0.31182126919E+03  0.00000000000E+00 0. -1.
         25    2    1    2    0    0 -0.13527129506E+03  0.43360613027E+02 -0.31891918720E+02  0.19194666749E+03  0.12509181689E+03 0.  0.
          5    1    3    3  502    0 -0.11052742922E+03  0.53032246874E+02 -0.73060170031E+02  0.14277252069E+03  0.41800000000E+01 0. -1.
         -5    1    3    3    0  502 -0.24743865838E+02 -0.96716338469E+01  0.41168251311E+02  0.49174146804E+02  0.41800000000E+01 0.  1.
        -11    1    1    2    0    0  0.77509541887E+02 -0.80548432162E+00 -0.13882084287E+03  0.15899561096E+03  0.00000000000E+00 0. -1.
         11    1    1    2    0    0  0.57761753174E+02 -0.42555128705E+02 -0.25758503700E+02  0.76228994626E+02  0.00000000000E+00 0.  1.
</event>
<event>
 7    1  0.2714042E-009  0.8223249E+02  0.7561462E-02  0.1322833E+00
         -1   -1    0    0    0  501 -0.00000000000E+00  0.00000000000E+00  0.38568272884E+02  0.38568272884E+02  0.00000000000E+00 0.  1.
          1   -1    0    0  501    0  0.00000000000E+00 -0.00000000000E+00 -0.31861542353E+03  0.31861542353E+03  0.00000000000E+00 0. -1.
         25    2    1    2    0    0 -0.11754347119E+02  0.17183137372E+02 -0.17887942049E+03  0.21926926086E+03  0.12509091413E+03 0.  0.
          5    1    3    3  502    0  0.17004052366E+02 -0.46877630208E+02 -0.41832552686E+02  0.65223346089E+02  0.41800000000E+01 0.  1.
         -5    1    3    3    0  502 -0.28758399485E+02  0.64060767580E+02 -0.13704686780E+03  0.15404591477E+03  0.41800000000E+01 0.  1.
        -11    1    1    2    0    0  0.44859272961E+01 -0.29466977420E+02 -0.11454065823E+03  0.11835534922E+03  0.00000000000E+00 0. -1.
         11    1    1    2    0    0  0.72684198231E+01  0.12283840048E+02  0.13372928068E+02  0.19559086333E+02  0.00000000000E+00 0.  1.
</event>
<event>
 7    1  0.2714042E-009  0.1074125E+03  0.7561462E-02  0.1265438E+00
         -2   -1    0    0    0  501 -0.00000000000E+00  0.00000000000E+00  0.26973900577E+02  0.26973900577E+02  0.00000000000E+00 0.  1.
          2   -1    0    0  501    0  0.00000000000E+00 -0.00000000000E+00 -0.65073328417E+03  0.65073328417E+03  0.00000000000E+00 0. -1.
         25    2    1    2    0    0  0.57826312457E+02 -0.13043578119E+02 -0.47289339826E+03  0.49273726343E+03  0.12509127589E+03 0.  0.
          5    1    3    3  502    0 -0.20206484334E+02 -0.47616964281E+02 -0.20936999985E+03  0.21570569425E+03  0.41800000000E+01 0. -1.
         -5    1    3    3    0  502  0.78032796791E+02  0.34573386162E+02 -0.26352339842E+03  0.27703156918E+03  0.41800000000E+01 0. -1.
        -11    1    1    2    0    0 -0.35201364519E+02  0.32294912725E+02 -0.21766233438E+02  0.52496346254E+02  0.00000000000E+00 0.  1.
         11    1    1    2    0    0 -0.22624947938E+02 -0.19251334605E+02 -0.12909975189E+03  0.13247357507E+03  0.00000000000E+00 0. -1.
</event>
<event>
 7    1  0.2714042E-009  0.2081941E+03  0.7561462E-02  0.1143004E+00
          1   -1    0    0  501    0  0.00000000000E+00  0.00000000000E+00  0.59398884175E+03  0.59398884175E+03  0.00000000000E+00 0. -1.
         -1   -1    0    0    0  501 -0.00000000000E+00 -0.00000000000E+00 -0.17671425406E+03  0.17671425406E+03  0.00000000000E+00 0.  1.
         25    2    1    2    0    0 -0.11723437704E+03  0.15509556599E+03 -0.66263324523E+02  0.24049288253E+03  0.12508982622E+03 0.  0.
          5    1    3    3  502    0 -0.47842214567E+02  0.97258742911E+02  0.25745915761E+02  0.11148302627E+03  0.41800000000E+01 0.  1.
         -5    1    3    3    0  502 -0.69392162468E+02  0.57836823078E+02 -0.92009240285E+02  0.12900985626E+03  0.41800000000E+01 0.  1.
        -11    1    1    2    0    0  0.13483059737E+03 -0.13556566705E+03  0.42215802766E+03  0.46343795743E+03  0.00000000000E+00 0. -1.
         11    1    1    2    0    0 -0.17596220339E+02 -0.19529898939E+02  0.61379884552E+02  0.66772255843E+02  0.00000000000E+00 0.  1.
</event>
<event>
 7    1  0.2714042E-009  0.1040285E+03  0.7561462E-02  0.1272046E+00
         -2   -1    0    0    0  501 -0.00000000000E+00  0.00000000000E+00  0.39429070596E+02  0.39429070596E+02  0.00000000000E+00 0.  1.
          2   -1    0    0  501    0  0.00000000000E+00 -0.00000000000E+00 -0.47442337239E+03  0.47442337239E+03  0.00000000000E+00 0. -1.
         25    2    1    2    0    0  0.37206160745E+02  0.54670675332E+02 -0.33299949686E+03  0.36181468105E+03  0.12509203562E+03 0.  0.
          5    1    3    3  502    0 -0.10468337006E+02 -0.16786220016E+02 -0.21420258023E+03  0.21515478391E+03  0.41800000000E+01 0.  1.
         -5    1    3    3    0  502  0.47674497751E+02  0.71456895348E+02 -0.11879691663E+03  0.14665989714E+03  0.41800000000E+01 0.  1.
        -11    1    1    2    0    0  0.18724480106E+02 -0.39763558379E+02 -0.77686209180E+02  0.89257458103E+02  0.00000000000E+00 0. -1.
         11    1    1    2    0    0 -0.55930640851E+02 -0.14907116953E+02 -0.24308595754E+02  0.62780303833E+02  0.00000000000E+00 0.  1.
</event>
<event>
 7    1  0.2714042E-009  0.9039538E+02  0.7561462E-02  0.1301897E+00
         -1   -1    0    0    0  501 -0.00000000000E+00  0.00000000000E+00  0.20863781836E+02  0.20863781836E+02  0.00000000000E+00 0.  1.
          1   -1    0    0  501    0  0.00000000000E+00 -0.00000000000E+00 -0.53543208675E+03  0.53543208675E+03  0.00000000000E+00 0. -1.
         25    2    1    2    0    0 -0.49032795365E+02  0.31140312912E+02 -0.32049203924E+03  0.34890921630E+03  0.12509420409E+03 0.  0.
          5    1    3    3  502    0  0.42289670960E+01  0.57970575251E+02 -0.68556468158E+02  0.89977405408E+02  0.41800000000E+01 0. -1.
         -5    1    3    3    0  502 -0.53261762461E+02 -0.26830262339E+02 -0.25193557108E+03  0.25893181090E+03  0.41800000000E+01 0. -1.
        -11    1    1    2    0    0  0.10819924992E+02  0.32761398732E+01 -0.68331838511E+01  0.13209703662E+02  0.00000000000E+00 0.  1.
         11    1    1    2    0    0  0.38212870373E+02 -0.34416452785E+02 -0.18724308183E+03  0.19417694863E+03  0.00000000000E+00 0. -1.
</event>
<event>
 7    1  0.2714042E-009  0.1631050E+03  0.7561462E-02  0.1185235E+00
          2   -1    0    0  501    0  0.00000000000E+00  0.00000000000E+00  0.10076895238E+04  0.10076895238E+04  0.00000000000E+00 0.  1.
         -2   -1    0    0    0  501 -0.00000000000E+00 -0.00000000000E+00 -0.29871570368E+02  0.29871570368E+02  0.00000000000E+00 0. -1.
         25    2    1    2    0    0  0.86598444065E+02 -0.95228913086E+02  0.61763464371E+03  0.64318678613E+03  0.12509537297E+03 0.  0.
          5    1    3    3  502    0  0.69259121715E+02  0.48986296062E+00  0.38162332132E+03  0.38788000423E+03  0.41800000000E+01 0.  1.
         -5    1    3    3    0  502  0.17339322350E+02 -0.95718776047E+02  0.23601132240E+03  0.25530678190E+03  0.41800000000E+01 0.  1.
        -11    1    1    2    0    0 -0.75433604556E+01 -0.19055418033E+02  0.64227163118E+02  0.67417651439E+02  0.00000000000E+00 0.  1.
         11    1    1    2    0    0 -0.79055083610E+02  0.11428433112E+03  0.29595614664E+03  0.32695665664E+03  0.00000000000E+00 0. -1.
</event>
<event>
 7    1  0.2714042E-009  0.9080579E+02  0.7561462E-02  0.1300912E+00
         -2   -1    0    0    0  501 -0.00000000000E+00  0.00000000000E+00  0.23337110393E+03  0.23337110393E+03  0.00000000000E+00 0.  1.
          2   -1    0    0  501    0  0.00000000000E+00 -0.00000000000E+00 -0.61579456477E+02  0.61579456477E+02  0.00000000000E+00 0. -1.
         25    2    1    2    0    0  0.26247057004E+02  0.33309216010E+01  0.14869423970E+03  0.19610682474E+03  0.12509159344E+03 0.  0.
          5    1    3    3  502    0  0.15479651364E+02 -0.60346170523E+02  0.83295873095E+02  0.10410069538E+03  0.41800000000E+01 0. -1.
         -5    1    3    3    0  502  0.10767405640E+02  0.63677092124E+02  0.65398366604E+02  0.92006129361E+02  0.41800000000E+01 0. -1.
        -11    1    1    2    0    0 -0.36481447710E+02  0.98308655051E+01  0.52714389371E+02  0.64856370469E+02  0.00000000000E+00 0.  1.
         11    1    1    2    0    0  0.10234390706E+02 -0.13161787106E+02 -0.29616981619E+02  0.33987365199E+02  0.00000000000E+00 0. -1.
</event>
<event>
 7    1  0.2714042E-009  0.1268292E+03  0.7561462E-02  0.1232238E+00
         -2   -1    0    0    0  501 -0.00000000000E+00  0.00000000000E+00  0.26784971428E+02  0.26784971428E+02  0.00000000000E+00 0. -1.
          2   -1    0    0  501    0  0.00000000000E+00 -0.00000000000E+00 -0.61353689723E+03  0.61353689723E+03  0.00000000000E+00 0.  1.
         25    2    1    2    0    0  0.39928534002E+02 -0.56508214563E+02 -0.33453784468E+03  0.36380073166E+03  0.12509171311E+03 0.  0.
          5    1    3    3  502    0  0.30514803682E+02 -0.96588855290E+02 -0.24586379596E+03  0.26594555603E+03  0.41800000000E+01 0.  1.
         -5    1    3    3    0  502  0.94137303197E+01  0.40080640727E+02 -0.88674048720E+02  0.97855175622E+02  0.41800000000E+01 0.  1.
        -11    1    1    2    0    0  0.26423225335E+02  0.28527635757E+02 -0.62600887575E+02  0.73694531440E+02  0.00000000000E+00 0. -1.
         11    1    1    2    0    0 -0.66351759336E+02  0.27980578806E+02 -0.18961319355E+03  0.20282660557E+03  0.00000000000E+00 0.  1.
</event>
<event>
 7    1  0.2714042E-009  0.1024823E+03  0.7561462E-02  0.1275161E+00
          1   -1    0    0  501    0  0.00000000000E+00  0.00000000000E+00  0.28440195898E+03  0.28440195898E+03  0.00000000000E+00 0. -1.
         -1   -1    0    0    0  501 -0.00000000000E+00 -0.00000000000E+00 -0.88683248135E+02  0.88683248135E+02  0.00000000000E+00 0.  1.
         25    2    1    2    0    0  0.76055774273E+00  0.25553629907E+02 -0.27752849670E+02  0.13065880060E+03  0.12509170660E+03 0.  0.
          5    1    3    3  502    0  0.99140823466E+01  0.70174646214E+02 -0.42322950806E+02  0.82652734771E+02  0.41800000000E+01 0. -1.
         -5    1    3    3    0  502 -0.91535246039E+01 -0.44621016307E+02  0.14570101137E+02  0.48006065826E+02  0.41800000000E+01 0. -1.
        -11    1    1    2    0    0 -0.42589695621E+02 -0.14025649596E+02  0.15508311363E+03  0.16143535286E+03  0.00000000000E+00 0. -1.
         11    1    1    2    0    0  0.41829137878E+02 -0.11527980310E+02  0.68388446891E+02  0.80991053666E+02  0.00000000000E+00 0.  1.
</event>
<event>
 7    1  0.2714042E-009  0.8585194E+02  0.7561462E-02  0.1313220E+00
          1   -1    0    0  501    0  0.00000000000E+00  0.00000000000E+00  0.88749711738E+02  0.88749711738E+02  0.00000000000E+00 0. -1.
         -1   -1    0    0    0  501 -0.00000000000E+00 -0.00000000000E+00 -0.15205245492E+03  0.15205245492E+03  0.00000000000E+00 0.  1.
         25    2    1    2    0    0 -0.17274052872E+01  0.11345922840E+02  0.36326591027E+01  0.12566704634E+03  0.12508915392E+03 0.  0.
          5    1    3    3  502    0 -0.38540927486E+02  0.52780360243E+02  0.18648252473E+02  0.68091109839E+02  0.41800000000E+01 0.  1.
         -5    1    3    3    0  502  0.36813522199E+02 -0.41434437402E+02 -0.15015593370E+02  0.57575936499E+02  0.41800000000E+01 0.  1.
        -11    1    1    2    0    0 -0.75171129901E+01 -0.29401963714E+02  0.12743427749E+02  0.32914698977E+02  0.00000000000E+00 0. -1.
         11    1    1    2    0    0  0.92445182773E+01  0.18056040873E+02 -0.79678830035E+02  0.82220421344E+02  0.00000000000E+00 0.  1.
</event>
<event>
 7    1  0.2714042E-009  0.1613097E+03  0.7561462E-02  0.1187226E+00
         -2   -1    0    0    0  501 -0.00000000000E+00  0.00000000000E+00  0.29054253571E+02  0.29054253571E+02  0.00000000000E+00 0.  1.
          2   -1    0    0  501    0  0.00000000000E+00 -0.00000000000E+00 -0.10390659806E+04  0.10390659806E+04  0.00000000000E+00 0. -1.
         25    2    1    2    0    0 -0.80714979336E+02  0.94944860818E+02 -0.38619660733E+03  0.42464719248E+03  0.12509190256E+03 0.  0.
          5    1    3    3  502    0 -0.96405775594E+02  0.21127605580E+02 -0.25132739671E+03  0.27004329657E+03  0.41800000000E+01 0. -1.
         -5    1    3    3    0  502  0.15690796258E+02  0.73817255238E+02 -0.13486921061E+03  0.15460389590E+03  0.41800000000E+01 0. -1.
        -11    1    1    2    0    0  0.32560428942E+02 -0.94656079872E+02 -0.51256563491E+03  0.52224848978E+03  0.00000000000E+00 0. -1.
         11    1    1    2    0    0  0.48154550394E+02 -0.28878094673E+00 -0.11124948475E+03  0.12122455187E+03  0.00000000000E+00 0.  1.
</event>
<event>
 7    1  0.2714042E-009  0.9470901E+02  0.7561462E-02  0.1291833E+00
         -2   -1    0    0    0  501 -0.00000000000E+00  0.00000000000E+00  0.46759375798E+02  0.46759375798E+02  0.00000000000E+00 0.  1.
          2   -1    0    0  501    0  0.00000000000E+00 -0.00000000000E+00 -0.32926742959E+03  0.32926742959E+03  0.00000000000E+00 0. -1.
         25    2    1    2    0    0 -0.16332316551E+02  0.25523468824E+02 -0.80413129669E+02  0.15176309603E+03  0.12509026289E+03 0.  0.
          5    1    3    3  502    0  0.43004906225E+02 -0.14264395246E+01  0.57894854772E+01  0.43617052069E+02  0.41800000000E+01 0.  1.
         -5    1    3    3    0  502 -0.59337222776E+02  0.26949908348E+02 -0.86202615146E+02  0.10814604396E+03  0.41800000000E+01 0.  1.
        -11    1    1    2    0    0  0.36514239958E+02 -0.41401633437E+02 -0.18585525988E+03  0.19388027902E+03  0.00000000000E+00 0. -1.
         11    1    1    2    0    0 -0.20181923407E+02  0.15878164614E+02 -0.16239664248E+02  0.30383430333E+02  0.00000000000E+00 0.  1.
</event>
<event>
 7    1  0.2714042E-009  0.9309874E+02  0.7561462E-02  0.1295517E+00
          2   -1    0    0  501    0  0.00000000000E+00  0.00000000000E+00  0.22550952570E+03  0.22550952570E+03  0.00000000000E+00 0. -1.
         -2   -1    0    0    0  501 -0.00000000000E+00 -0.00000000000E+00 -0.10366045484E+03  0.10366045484E+03  0.00000000000E+00 0.  1.
         25    2    1    2    0    0 -0.41466772569E+02  0.70909967171E+02 -0.91823178273E+01  0.14993479382E+03  0.12509360802E+03 0.  0.
          5    1    3    3  502    0 -0.60046385989E+01  0.15254392662E+02 -0.62652008201E+02  0.64896060834E+02  0.41800000000E+01 0. -1.
         -5    1    3    3    0  502 -0.35462133970E+02  0.55655574509E+02  0.53469690374E+02  0.85038732989E+02  0.41800000000E+01 0. -1.
        -11    1    1    2    0    0  0.56777398279E+02 -0.66030575682E+02  0.13679608214E+03  0.16216312148E+03  0.00000000000E+00 0. -1.
         11    1    1    2    0    0 -0.15310625709E+02 -0.48793914889E+01 -0.57646934440E+01  0.17072065236E+02  0.00000000000E+00 0.  1.
</event>
<event>
 7    1  0.2714042E-009  0.1056708E+03  0.7561462E-02  0.1268804E+00
          1   -1    0    0  501    0  0.00000000000E+00  0.00000000000E+00  0.56592069196E+03  0.56592069196E+03  0.00000000000E+00 0. -1.
         -1   -1    0    0    0  501 -0.00000000000E+00 -0.00000000000E+00 -0.41851811856E+02  0.41851811856E+02  0.00000000000E+00 0.  1.
         25    2    1    2    0    0  0.23079150234E+02  0.82479872928E+02  0.14728869906E+03  0.21137205647E+03  0.12509439944E+03 0.  0.
          5    1    3    3  502    0 -0.24420201095E+01  0.47838713366E+02 -0.92579470238E+01  0.48966191825E+02  0.41800000000E+01 0. -1.
         -5    1    3    3    0  502  0.25521170344E+02  0.34641159562E+02  0.15654664608E+03  0.16240586464E+03  0.41800000000E+01 0. -1.
        -11    1    1    2    0    0 -0.44190754657E+02 -0.87767871068E+02  0.33726021578E+03  0.35128403769E+03  0.00000000000E+00 0.  1.
         11    1    1    2    0    0  0.21111604422E+02  0.52879981402E+01  0.39519965271E+02  0.45116409660E+02  0.00000000000E+00 0. -1.
</event>
<event>
 7    1  0.2714042E-009  0.1340156E+03  0.7561462E-02  0.1221616E+00
         -2   -1    0    0    0  501 -0.00000000000E+00  0.00000000000E+00  0.48687614918E+02  0.48687614918E+02  0.00000000000E+00 0.  1.
          2   -1    0    0  501    0  0.00000000000E+00 -0.00000000000E+00 -0.42228203479E+03  0.42228203479E+03  0.00000000000E+00 0. -1.
         25    2    1    2    0    0 -0.66894615017E+02  0.65381928869E+02 -0.23684419944E+03  0.28371472467E+03  0.12509669877E+03 0.  0.
          5    1    3    3  502    0 -0.71821784916E+02 -0.24365571165E+01 -0.18373705222E+03  0.19733494966E+03  0.41800000000E+01 0. -1.
         -5    1    3    3    0  502  0.49271698996E+01  0.67818485985E+02 -0.53107147225E+02  0.86379775011E+02  0.41800000000E+01 0. -1.
        -11    1    1    2    0    0  0.62567642315E+02 -0.17223333527E+00 -0.66819458502E+02  0.91540043498E+02  0.00000000000E+00 0. -1.
         11    1    1    2    0    0  0.43269727016E+01 -0.65209695534E+02 -0.69930761927E+02  0.95714881539E+02  0.00000000000E+00 0.  1.
</event>
<event>
 7    1  0.2714042E-009  0.1124302E+03  0.7561462E-02  0.1256135E+00
          1   -1    0    0  501    0  0.00000000000E+00  0.00000000000E+00  0.33388404150E+02  0.33388404150E+02  0.00000000000E+00 0. -1.
         -1   -1    0    0    0  501 -0.00000000000E+00 -0.00000000000E+00 -0.50926416719E+03  0.50926416719E+03  0.00000000000E+00 0.  1.
         25    2    1    2    0    0 -0.44437951743E+02  0.19210812799E+02 -0.38732024398E+03  0.40988715014E+03  0.12508684009E+03 0.  0.
          5    1    3    3  502    0  0.24213245176E+02  0.52201343973E+02 -0.15718826284E+03  0.16744218085E+03  0.41800000000E+01 0.  1.
         -5    1    3    3    0  502 -0.68651196918E+02 -0.32990531174E+02 -0.23013198115E+03  0.24244496929E+03  0.41800000000E+01 0.  1.
        -11    1    1    2    0    0 -0.18028655437E+02 -0.21891816379E+02 -0.56351896277E+01  0.28914345978E+02  0.00000000000E+00 0. -1.
         11    1    1    2    0    0  0.62466607179E+02  0.26810035795E+01 -0.82920329433E+02  0.10385107523E+03  0.00000000000E+00 0.  1.
</event>
<event>
 7    1  0.4313147E-009  0.9818023E+02  0.7561462E-02  0.1284170E+00
          1   -1    0    0  501    0  0.00000000000E+00  0.00000000000E+00  0.46099253673E+03  0.46099253673E+03  0.00000000000E+00 0. -1.
         -1   -1    0    0    0  501 -0.00000000000E+00 -0.00000000000E+00 -0.36761779271E+02  0.36761779271E+02  0.00000000000E+00 0.  1.
         25    2    1    2    0    0 -0.50744887397E+02 -0.12143022836E+01  0.13899088517E+03  0.19375944442E+03  0.12509091900E+03 0.  0.
          5    1    3    3  502    0 -0.46886950608E+02  0.48542975842E+02  0.30323074188E+02  0.74106463072E+02  0.41800000000E+01 0. -1.
         -5    1    3    3    0  502 -0.38579367890E+01 -0.49757278125E+02  0.10866781098E+03  0.11965298135E+03  0.41800000000E+01 0. -1.
        -11    1    1    2    0    0 -0.56564518950E+01 -0.18162924780E+02  0.83844452449E+01  0.20789088644E+02  0.00000000000E+00 0.  1.
         11    1    1    2    0    0  0.56401339292E+02  0.19377227063E+02  0.27685542705E+03  0.28320578294E+03  0.00000000000E+00 0. -1.
</event>
<event>
 7    1  0.2714042E-009  0.1268677E+03  0.7561462E-02  0.1232179E+00
          1   -1    0    0  501    0  0.00000000000E+00  0.00000000000E+00  0.39169274970E+02  0.39169274970E+02  0.00000000000E+00 0. -1.
         -1   -1    0    0    0  501 -0.00000000000E+00 -0.00000000000E+00 -0.51084060377E+03  0.51084060377E+03  0.00000000000E+00 0.  1.
         25    2    1    2    0    0 -0.25474871970E+02 -0.86289195801E+02 -0.26233612967E+03  0.30423958836E+03  0.12508672104E+03 0.  0.
          5    1    3    3  502    0  0.27425528485E+01  0.17046672249E+02 -0.14188576128E+03  0.14299353931E+03  0.41800000000E+01 0.  1.
         -5    1    3    3    0  502 -0.28217424818E+02 -0.10333586805E+03 -0.12045036840E+03  0.16124604905E+03  0.41800000000E+01 0.  1.
        -11    1    1    2    0    0  0.50343427505E+02  0.13898176622E+02 -0.84653809296E+02  0.99468022171E+02  0.00000000000E+00 0.  1.
         11    1    1    2    0    0 -0.24868555535E+02  0.72391019179E+02 -0.12468138984E+03  0.14630226821E+03  0.00000000000E+00 0. -1.
</event>
<event>
 7    1  0.2714042E-009  0.1076624E+03  0.7561462E-02  0.1264961E+00
         -1   -1    0    0    0  501 -0.00000000000E+00  0.00000000000E+00  0.31755237698E+02  0.31755237698E+02  0.00000000000E+00 0.  1.
          1   -1    0    0  501    0  0.00000000000E+00 -0.00000000000E+00 -0.50734724378E+03  0.50734724378E+03  0.00000000000E+00 0. -1.
         25    2    1    2    0    0 -0.17221933857E+02  0.46525267353E+02 -0.16626791803E+03  0.21390155099E+03  0.12509059694E+03 0.  0.
          5    1    3    3  502    0 -0.10985114721E+02 -0.38487120650E+02 -0.93331988963E+02  0.10163790516E+03  0.41800000000E+01 0.  1.
         -5    1    3    3    0  502 -0.62368191367E+01  0.85012388003E+02 -0.72935929070E+02  0.11226364584E+03  0.41800000000E+01 0.  1.
        -11    1    1    2    0    0 -0.29638205741E+02 -0.14610728927E+02 -0.19285479759E+03  0.19566519771E+03  0.00000000000E+00 0. -1.
         11    1    1    2    0    0  0.46860139598E+02 -0.31914538425E+02 -0.11646929045E+03  0.12953573277E+03  0.00000000000E+00 0.  1.
</event>
<event>
 7    1  0.2714042E-009  0.1471215E+03  0.7561462E-02  0.1204055E+00
          2   -1    0    0  501    0  0.00000000000E+00  0.00000000000E+00  0.59509037429E+03  0.59509037429E+03  0.00000000000E+00 0. -1.
         -2   -1    0    0    0  501 -0.00000000000E+00 -0.00000000000E+00 -0.57347245690E+02  0.57347245690E+02  0.00000000000E+00 0.  1.
         25    2    1    2    0    0  0.74325907939E+02 -0.98773211857E+02  0.13522110287E+03  0.22183665967E+03  0.12508504682E+03 0.  0.
          5    1    3    3  502    0  0.54188689147E+02 -0.11568279220E+03  0.58384015875E+02  0.14051721657E+03  0.41800000000E+01 0.  1.
         -5    1    3    3    0  502  0.20137218792E+02  0.16909580338E+02  0.76837086998E+02  0.81319443101E+02  0.41800000000E+01 0.  1.
        -11    1    1    2    0    0  0.10455186108E+02  0.26178149057E+02  0.27728636129E+02  0.39540911297E+02  0.00000000000E+00 0.  1.
         11    1    1    2    0    0 -0.84781094047E+02  0.72595062799E+02  0.37479338960E+03  0.39106004902E+03  0.00000000000E+00 0. -1.
</event>
<event>
 7    1  0.2714042E-009  0.1109502E+03  0.7561462E-02  0.1258820E+00
         -1   -1    0    0    0  501 -0.00000000000E+00  0.00000000000E+00  0.57605524506E+03  0.57605524506E+03  0.00000000000E+00 0.  1.
          1   -1    0    0  501    0  0.00000000000E+00 -0.00000000000E+00 -0.25127030773E+02  0.25127030773E+02  0.00000000000E+00 0. -1.
         25    2    1    2    0    0  0.26553932157E+02  0.23683593349E+02  0.20759190144E+03  0.24495702504E+03  0.12507406873E+03 0.  0.
          5    1    3    3  502    0 -0.79511694818E+01  0.69157575604E+02  0.13984138587E+03  0.15626604545E+03  0.41800000000E+01 0.  1.
         -5    1    3    3    0  502  0.34505101639E+02 -0.45473982255E+02  0.67750515568E+02  0.88690979592E+02  0.41800000000E+01 0.  1.
        -11    1    1    2    0    0 -0.37105659304E+02 -0.52471082408E+02  0.23659075827E+03  0.24516368275E+03  0.00000000000E+00 0. -1.
         11    1    1    2    0    0  0.10551727147E+02  0.28787489060E+02  0.10674555458E+03  0.11106156803E+03  0.00000000000E+00 0.  1.
</event>
<event>
 7    1  0.2714042E-009  0.8135424E+02  0.7561462E-02  0.1325252E+00
         -2   -1    0    0    0  501 -0.00000000000E+00  0.00000000000E+00  0.15373756338E+03  0.15373756338E+03  0.00000000000E+00 0.  1.
          2   -1    0    0  501    0  0.00000000000E+00 -0.00000000000E+00 -0.12958507893E+03  0.12958507893E+03  0.00000000000E+00 0. -1.
         25    2    1    2    0    0 -0.78835581383E+02  0.12224004580E+02 -0.28203207656E+02  0.15102148634E+03  0.12509034029E+03 0.  0.
          5    1    3    3  502    0 -0.60546472617E+02  0.14827257021E+02 -0.76719130575E+02  0.98939477931E+02  0.41800000000E+01 0.  1.
         -5    1    3    3    0  502 -0.18289108765E+02 -0.26032524413E+01  0.48515922919E+02  0.52082008404E+02  0.41800000000E+01 0.  1.
        -11    1    1    2    0    0  0.50880993023E+02 -0.25066861688E+00  0.77589125799E+02  0.92784754826E+02  0.00000000000E+00 0.  1.
         11    1    1    2    0    0  0.27954588359E+02 -0.11973335963E+02 -0.25233433694E+02  0.39516401157E+02  0.00000000000E+00 0. -1.
</event>
<event>
 7    1  0.2714042E-009  0.1222122E+03  0.7561462E-02  0.1239492E+00
         -4   -1    0    0    0  501 -0.00000000000E+00  0.00000000000E+00  0.95822698447E+01  0.95822698447E+01  0.00000000000E+00 0.  1.
          4   -1    0    0  501    0  0.00000000000E+00 -0.00000000000E+00 -0.19838720150E+04  0.19838720150E+04  0.00000000000E+00 0. -1.
         25    2    1    2    0    0  0.29672239717E+02  0.63030245397E+02 -0.14291319445E+04  0.14362865301E+04  0.12509047997E+03 0.  0.
          5    1    3    3  502    0 -0.36969199042E+02 -0.11217261712E+02 -0.25863779704E+03  0.26154068726E+03  0.41800000000E+01 0.  1.
         -5    1    3    3    0  502  0.66641438759E+02  0.74247507109E+02 -0.11704941474E+04  0.11747458428E+04  0.41800000000E+01 0.  1.
        -11    1    1    2    0    0 -0.42540610288E+02 -0.76216274089E+02 -0.51058479833E+03  0.51799175693E+03  0.00000000000E+00 0.  1.
         11    1    1    2    0    0  0.12868370572E+02  0.13186028692E+02 -0.34573002384E+02  0.39175997852E+02  0.00000000000E+00 0. -1.
</event>
<event>
 7    1  0.2714042E-009  0.1585902E+03  0.7561462E-02  0.1190298E+00
         -1   -1    0    0    0  501 -0.00000000000E+00  0.00000000000E+00  0.18558812627E+04  0.18558812627E+04  0.00000000000E+00 0.  1.
          1   -1    0    0  501    0  0.00000000000E+00 -0.00000000000E+00 -0.16344436558E+02  0.16344436558E+02  0.00000000000E+00 0. -1.
         25    2    1    2    0    0 -0.13295287417E+03 -0.36092370763E+02  0.10940800928E+04  0.11097921181E+04  0.12509264537E+03 0.  0.
          5    1    3    3  502    0 -0.27315312218E+02  0.28205573446E+02  0.56738259549E+03  0.56875492325E+03  0.41800000000E+01 0.  1.
         -5    1    3    3    0  502 -0.10563756195E+03 -0.64297944209E+02  0.52669749735E+03  0.54103719488E+03  0.41800000000E+01 0.  1.
        -11    1    1    2    0    0  0.10670308526E+03  0.56471062062E+02  0.65573043384E+03  0.66675102634E+03  0.00000000000E+00 0. -1.
         11    1    1    2    0    0  0.26249788909E+02 -0.20378691298E+02  0.89726299408E+02  0.95682554744E+02  0.00000000000E+00 0.  1.
</event>
<event>
 7    1  0.2714042E-009  0.9531550E+02  0.7561462E-02  0.1290467E+00
         -2   -1    0    0    0  501 -0.00000000000E+00  0.00000000000E+00  0.24197250031E+03  0.24197250031E+03  0.00000000000E+00 0.  1.
          2   -1    0    0  501    0  0.00000000000E+00 -0.00000000000E+00 -0.49929421010E+02  0.49929421010E+02  0.00000000000E+00 0. -1.
         25    2    1    2    0    0  0.90893410135E+00  0.14307056259E+02  0.12680460103E+03  0.17870164685E+03  0.12509737696E+03 0.  0.
          5    1    3    3  502    0  0.66576149373E+01 -0.47655843896E+02  0.99527985847E+02  0.11062863852E+03  0.41800000000E+01 0.  1.
         -5    1    3    3    0  502 -0.57486808359E+01  0.61962900155E+02  0.27276615185E+02  0.68073008328E+02  0.41800000000E+01 0.  1.
        -11    1    1    2    0    0 -0.39661316813E+02 -0.10470162041E+02  0.47963451838E+01  0.41299506917E+02  0.00000000000E+00 0.  1.
         11    1    1    2    0    0  0.38752382711E+02 -0.38368942177E+01  0.60442133087E+02  0.71900767556E+02  0.00000000000E+00 0. -1.
</event>
<event>
 7    1  0.2714042E-009  0.5510862E+02  0.7561462E-02  0.1419586E+00
          2   -1    0    0  501    0  0.00000000000E+00  0.00000000000E+00  0.11251872174E+03  0.11251872174E+03  0.00000000000E+00 0. -1.
         -2   -1    0    0    0  501 -0.00000000000E+00 -0.00000000000E+00 -0.10912089009E+03  0.10912089009E+03  0.00000000000E+00 0.  1.
         25    2    1    2    0    0 -0.42341925557E+01  0.88235017189E+01 -0.19291998502E+02  0.12694690477E+03  0.12509017889E+03 0.  0.
          5    1    3    3  502    0 -0.12482563443E+02  0.27918004276E+02 -0.67529965730E+02  0.74249565819E+02  0.41800000000E+01 0. -1.
         -5    1    3    3    0  502  0.82483708871E+01 -0.19094502557E+02  0.48237967228E+02  0.52697338951E+02  0.41800000000E+01 0. -1.
        -11    1    1    2    0    0  0.15633053849E+02 -0.30145469895E+02  0.48577927146E+02  0.59270201060E+02  0.00000000000E+00 0. -1.
         11    1    1    2    0    0 -0.11398861294E+02  0.21321968176E+02 -0.25888096990E+02  0.35422506002E+02  0.00000000000E+00 0.  1.
</event>
<event>
 7    1  0.2714042E-009  0.1224725E+03  0.7561462E-02  0.1239073E+00
         -3   -1    0    0    0  501 -0.00000000000E+00  0.00000000000E+00  0.30116018124E+03  0.30116018124E+03  0.00000000000E+00 0.  1.
          3   -1    0    0  501    0  0.00000000000E+00 -0.00000000000E+00 -0.66576552846E+02  0.66576552846E+02  0.00000000000E+00 0. -1.
         25    2    1    2    0    0 -0.63107003800E+02 -0.50447515011E+02  0.73321805828E+02  0.16598891756E+03  0.12509511518E+03 0.  0.
          5    1    3    3  502    0 -0.60748112353E+02 -0.76455389354E+02  0.91508713851E+02  0.13389203422E+03  0.41800000000E+01 0. -1.
         -5    1    3    3    0  502 -0.23588914472E+01  0.26007874342E+02 -0.18186908024E+02  0.32096883340E+02  0.41800000000E+01 0. -1.
        -11    1    1    2    0    0 -0.18479361620E+02  0.32245322106E+02  0.58096456330E+02  0.68966990957E+02  0.00000000000E+00 0. -1.
         11    1    1    2    0    0  0.81586365421E+02  0.18202192905E+02  0.10316536624E+03  0.13278082557E+03  0.00000000000E+00 0.  1.
</event>
<event>
 7    1  0.2773293E-009  0.9836106E+02  0.7561462E-02  0.1283781E+00
          2   -1    0    0  501    0  0.00000000000E+00  0.00000000000E+00  0.35252595941E+03  0.35252595941E+03  0.00000000000E+00 0.  1.
         -2   -1    0    0    0  501 -0.00000000000E+00 -0.00000000000E+00 -0.70498588339E+02  0.70498588339E+02  0.00000000000E+00 0. -1.
         25    2    1    2    0    0 -0.87227721089E+01 -0.25129368340E+02  0.28654769011E+01  0.12791972463E+03  0.12509065946E+03 0.  0.
          5    1    3    3  502    0 -0.45757562515E+02  0.24012032750E+02  0.30701964460E+02  0.60252927446E+02  0.41800000000E+01 0.  1.
         -5    1    3    3    0  502  0.37034790406E+02 -0.49141401090E+02 -0.27836487559E+02  0.67666797184E+02  0.41800000000E+01 0.  1.
        -11    1    1    2    0    0 -0.31434421552E+02  0.29116680759E+02  0.21558679841E+03  0.21980348406E+03  0.00000000000E+00 0.  1.
         11    1    1    2    0    0  0.40157193661E+02 -0.39873124195E+01  0.63575095758E+02  0.75301339056E+02  0.00000000000E+00 0. -1.
</event>
<event>
 7    1  0.2714042E-009  0.3667131E+02  0.7561462E-02  0.1534241E+00
          2   -1    0    0  501    0  0.00000000000E+00  0.00000000000E+00  0.77738917050E+02  0.77738917050E+02  0.00000000000E+00 0. -1.
         -2   -1    0    0    0  501 -0.00000000000E+00 -0.00000000000E+00 -0.14012422967E+03  0.14012422967E+03  0.00000000000E+00 0.  1.
         25    2    1    2    0    0 -0.18229060317E+02  0.54967188227E+01 -0.32371468900E+02  0.13060522697E+03  0.12508917121E+03 0.  0.
          5    1    3    3  502    0 -0.20976401487E+02  0.37328047846E+01  0.46624139161E+02  0.51431760648E+02  0.41800000000E+01 0. -1.
         -5    1    3    3    0  502  0.27473411701E+01  0.17639140381E+01 -0.78995608061E+02  0.79173466320E+02  0.41800000000E+01 0. -1.
        -11    1    1    2    0    0  0.31065892122E+02 -0.10135228704E+02  0.18024015903E+02  0.37318596751E+02  0.00000000000E+00 0. -1.
         11    1    1    2    0    0 -0.12836831805E+02  0.46385098816E+01 -0.48037859625E+02  0.49939323003E+02  0.00000000000E+00 0.  1.
</event>
<event>
 7    1  0.2714042E-009  0.9429126E+02  0.7561462E-02  0.1292780E+00
         -2   -1    0    0    0  501 -0.00000000000E+00  0.00000000000E+00  0.92507692673E+02  0.92507692673E+02  0.00000000000E+00 0.  1.
          2   -1    0    0  501    0  0.00000000000E+00 -0.00000000000E+00 -0.13933652098E+03  0.13933652098E+03  0.00000000000E+00 0. -1.
         25    2    1    2    0    0 -0.67085903474E+01  0.13053526883E+02 -0.63564333446E+02  0.14107734166E+03  0.12508793745E+03 0.  0.
          5    1    3    3  502    0  0.37433654100E+02  0.51882602671E+02 -0.18035787303E+02  0.66602139176E+02  0.41800000000E+01 0. -1.
         -5    1    3    3    0  502 -0.44142244447E+02 -0.38829075788E+02 -0.45528546143E+02  0.74475202485E+02  0.41800000000E+01 0. -1.
        -11    1    1    2    0    0 -0.11413392049E+02 -0.35148198656E+02 -0.21713381775E+02  0.42861781752E+02  0.00000000000E+00 0. -1.
         11    1    1    2    0    0  0.18121982396E+02  0.22094671773E+02  0.38448886910E+02  0.47905090244E+02  0.00000000000E+00 0.  1.
</event>
<event>
 7    1  0.2714042E-009  0.1440898E+03  0.7561462E-02  0.1207929E+00
          2   -1    0    0  501    0  0.00000000000E+00  0.00000000000E+00  0.58619496162E+02  0.58619496162E+02  0.00000000000E+00 0. -1.
         -2   -1    0    0    0  501 -0.00000000000E+00 -0.00000000000E+00 -0.42988461895E+03  0.42988461895E+03  0.00000000000E+00 0.  1.
         25    2    1    2    0    0  0.26527342650E+02 -0.11182957332E+03 -0.17184991177E+03  0.24163860123E+03  0.12508904049E+03 0.  0.
          5    1    3    3  502    0  0.63531347678E+02 -0.63450127865E+02 -0.44256723150E+02  0.10019122121E+03  0.41800000000E+01 0.  1.
         -5    1    3    3    0  502 -0.37004005027E+02 -0.48379445458E+02 -0.12759318862E+03  0.14144738002E+03  0.41800000000E+01 0.  1.
        -11    1    1    2    0    0  0.22996221424E+02  0.12318797079E+02 -0.78037508838E+02  0.82282633325E+02  0.00000000000E+00 0.  1.
         11    1    1    2    0    0 -0.49523564074E+02  0.99510776244E+02 -0.12137770218E+03  0.16458288056E+03  0.00000000000E+00 0. -1.
</event>
<event>
 7    1  0.2714042E-009  0.8087219E+02  0.7561462E-02  0.1326594E+00
          1   -1    0    0  501    0  0.00000000000E+00  0.00000000000E+00  0.17118979316E+03  0.17118979316E+03  0.00000000000E+00 0. -1.
         -1   -1    0    0    0  501 -0.00000000000E+00 -0.00000000000E+00 -0.86012401845E+02  0.86012401845E+02  0.00000000000E+00 0.  1.
         25    2    1    2    0    0 -0.14876314554E+02 -0.34122875194E+01 -0.99009476657E+01  0.12639772749E+03  0.12508160660E+03 0.  0.
          5    1    3    3  502    0 -0.49916580114E+02 -0.24301638658E+02 -0.45648151613E+02  0.71996255163E+02  0.41800000000E+01 0.  1.
         -5    1    3    3    0  502  0.35040265560E+02  0.20889351139E+02  0.35747203947E+02  0.54401472329E+02  0.41800000000E+01 0.  1.
        -11    1    1    2    0    0 -0.11327446953E+02 -0.24368291766E+02 -0.15361733210E+01  0.26916250232E+02  0.00000000000E+00 0.  1.
         11    1    1    2    0    0  0.26203761507E+02  0.27780579286E+02  0.96614512303E+02  0.10388821728E+03  0.00000000000E+00 0. -1.
</event>
<event>
 7    1  0.2714042E-009  0.1435094E+03  0.7561462E-02  0.1208683E+00
          4   -1    0    0  501    0  0.00000000000E+00  0.00000000000E+00  0.68218630861E+03  0.68218630861E+03  0.00000000000E+00 0.  1.
         -4   -1    0    0    0  501 -0.00000000000E+00 -0.00000000000E+00 -0.30479188560E+02  0.30479188560E+02  0.00000000000E+00 0. -1.
         25    2    1    2    0    0 -0.83868034386E+02  0.44004923791E+02  0.34958984349E+03  0.38318568828E+03  0.12509169645E+03 0.  0.
          5    1    3    3  502    0  0.24307005997E+02 -0.18673171895E+02  0.54320651060E+02  0.62511786254E+02  0.41800000000E+01 0.  1.
         -5    1    3    3    0  502 -0.10817504038E+03  0.62678095685E+02  0.29526919243E+03  0.32067390202E+03  0.41800000000E+01 0.  1.
        -11    1    1    2    0    0  0.43026628380E+02  0.25762420961E+02  0.12943842878E+03  0.13881390394E+03  0.00000000000E+00 0. -1.
         11    1    1    2    0    0  0.40841406006E+02 -0.69767344751E+02  0.17267884778E+03  0.19066590495E+03  0.00000000000E+00 0.  1.
</event>
<event>
 7    1  0.2714042E-009  0.2841625E+03  0.7561462E-02  0.1093437E+00
         -2   -1    0    0    0  501 -0.00000000000E+00  0.00000000000E+00  0.16269207467E+03  0.16269207467E+03  0.00000000000E+00 0. -1.
          2   -1    0    0  501    0  0.00000000000E+00 -0.00000000000E+00 -0.51760019325E+03  0.51760019325E+03  0.00000000000E+00 0.  1.
         25    2    1    2    0    0 -0.87534593781E+02  0.25308950352E+03 -0.15473543689E+03  0.33362955711E+03  0.12509605930E+03 0.  0.
          5    1    3    3  502    0  0.23461749432E+02  0.11715360183E+03 -0.53420312995E+02  0.13094511197E+03  0.41800000000E+01 0. -1.
         -5    1    3    3    0  502 -0.11099634321E+03  0.13593590169E+03 -0.10131512389E+03  0.20268444514E+03  0.41800000000E+01 0. -1.
        -11    1    1    2    0    0  0.54009493551E+02 -0.21842196433E+03 -0.19575098987E+03  0.29823418638E+03  0.00000000000E+00 0.  1.
         11    1    1    2    0    0  0.33525100230E+02 -0.34667539187E+02 -0.44216918285E+01  0.48428524419E+02  0.00000000000E+00 0. -1.
</event>
<event>
 7    1  0.2714042E-009  0.1096862E+03  0.7561462E-02  0.1261152E+00
          1   -1    0    0  501    0  0.00000000000E+00  0.00000000000E+00  0.27149205295E+03  0.27149205295E+03  0.00000000000E+00 0. -1.
         -1   -1    0    0    0  501 -0.00000000000E+00 -0.00000000000E+00 -0.77908277193E+02  0.77908277193E+02  0.00000000000E+00 0.  1.
         25    2    1    2    0    0  0.66255728329E+02 -0.57874991882E+02  0.61959912465E+02  0.16500396262E+03  0.12509172917E+03 0.  0.
          5    1    3    3  502    0 -0.49822190512E+01 -0.35602724321E+02  0.80258709903E+02  0.88041520892E+02  0.41800000000E+01 0. -1.
         -5    1    3    3    0  502  0.71237947380E+02 -0.22272267560E+02 -0.18298797438E+02  0.76962441729E+02  0.41800000000E+01 0. -1.
        -11    1    1    2    0    0 -0.39557245194E+02  0.68973462504E+02  0.13354065050E+03  0.15541949528E+03  0.00000000000E+00 0. -1.
         11    1    1    2    0    0 -0.26698483135E+02 -0.11098470622E+02 -0.19167872059E+01  0.28976872244E+02  0.00000000000E+00 0.  1.
</event>
<event>
 7    1  0.2714042E-009  0.8646683E+02  0.7561462E-02  0.1311641E+00
          3   -1    0    0  501    0  0.00000000000E+00  0.00000000000E+00  0.47607638653E+03  0.47607638653E+03  0.00000000000E+00 0. -1.
         -3   -1    0    0    0  501 -0.00000000000E+00 -0.00000000000E+00 -0.29999150043E+02  0.29999150043E+02  0.00000000000E+00 0.  1.
         25    2    1    2    0    0  0.33568326200E+02 -0.14577288304E+02  0.27829446946E+03  0.30730150490E+03  0.12508826213E+03 0.  0.
          5    1    3    3  502    0 -0.23698218556E+02  0.55943372717E+01  0.24542690003E+01  0.24827364108E+02  0.41800000000E+01 0.  1.
         -5    1    3    3    0  502  0.57266544756E+02 -0.20171625576E+02  0.27584020046E+03  0.28247414079E+03  0.41800000000E+01 0.  1.
        -11    1    1    2    0    0 -0.58545993812E+02  0.19890060777E+02  0.16083221885E+03  0.17230859099E+03  0.00000000000E+00 0. -1.
         11    1    1    2    0    0  0.24977667613E+02 -0.53127724729E+01  0.69505481823E+01  0.26465440687E+02  0.00000000000E+00 0.  1.
</event>
<event>
 7    1  0.3379004E-009  0.1480491E+03  0.7561462E-02  0.1202891E+00
          1   -1    0    0  501    0  0.00000000000E+00  0.00000000000E+00  0.87210354938E+03  0.87210354938E+03  0.00000000000E+00 0. -1.
         -1   -1    0    0    0  501 -0.00000000000E+00 -0.00000000000E+00 -0.30429257580E+02  0.30429257580E+02  0.00000000000E+00 0.  1.
         25    2    1    2    0    0 -0.22934942550E+02  0.11565824686E+03  0.52572351335E+03  0.55311292691E+03  0.12508339526E+03 0.  0.
          5    1    3    3  502    0 -0.52247402718E+02  0.57494886749E+01  0.10839563910E+03  0.12054017872E+03  0.41800000000E+01 0. -1.
         -5    1    3    3    0  502  0.29312460169E+02  0.10990875818E+03  0.41732787425E+03  0.43257274819E+03  0.41800000000E+01 0. -1.
        -11    1    1    2    0    0 -0.17699111587E+02 -0.36396620141E+02  0.19531914498E+03  0.19946814509E+03  0.00000000000E+00 0. -1.
         11    1    1    2    0    0  0.40634054136E+02 -0.79261626715E+02  0.12063163346E+03  0.14995173496E+03  0.00000000000E+00 0.  1.
</event>
<event>
 7    1  0.2714042E-009  0.1124894E+03  0.7561462E-02  0.1256028E+00
          2   -1    0    0  501    0  0.00000000000E+00  0.00000000000E+00  0.50268767492E+03  0.50268767492E+03  0.00000000000E+00 0. -1.
         -2   -1    0    0    0  501 -0.00000000000E+00 -0.00000000000E+00 -0.46266427487E+02  0.46266427487E+02  0.00000000000E+00 0.  1.
         25    2    1    2    0    0 -0.68150289158E+02  0.76288381683E+02  0.30732245232E+03  0.34721667002E+03  0.12509175493E+03 0.  0.
          5    1    3    3  502    0 -0.31231346240E+02  0.29736962877E+02  0.27702508582E+03  0.28039267916E+03  0.41800000000E+01 0. -1.
         -5    1    3    3    0  502 -0.36918942917E+02  0.46551418806E+02  0.30297366493E+02  0.66823990867E+02  0.41800000000E+01 0. -1.
        -11    1    1    2    0    0  0.71201565059E+02 -0.32622281750E+02  0.13441507790E+03  0.15556763577E+03  0.00000000000E+00 0. -1.
         11    1    1    2    0    0 -0.30512759011E+01 -0.43666099933E+02  0.14683717221E+02  0.46169796614E+02  0.00000000000E+00 0.  1.
</event>
<event>
 7    1  0.2714042E-009  0.1081991E+03  0.7561462E-02  0.1263942E+00
         -1   -1    0    0    0  501 -0.00000000000E+00  0.00000000000E+00  0.70784715128E+03  0.70784715128E+03  0.00000000000E+00 0.  1.
          1   -1    0    0  501    0  0.00000000000E+00 -0.00000000000E+00 -0.25557108091E+02  0.25557108091E+02  0.00000000000E+00 0. -1.
         25    2    1    2    0    0 -0.17908494752E+02 -0.39873283020E+02  0.55532754089E+03  0.57091764726E+03  0.12509072465E+03 0.  0.
          5    1    3    3  502    0 -0.10644887133E+02  0.44078460958E+02  0.25170074033E+03  0.25578694146E+03  0.41800000000E+01 0. -1.
         -5    1    3    3    0  502 -0.72636076193E+01 -0.83951743978E+02  0.30362680056E+03  0.31513070579E+03  0.41800000000E+01 0. -1.
        -11    1    1    2    0    0 -0.18350934834E+02 -0.12921772024E+02  0.79940479113E+02  0.83031374807E+02  0.00000000000E+00 0.  1.
         11    1    1    2    0    0  0.36259429586E+02  0.52795055043E+02  0.47022023182E+02  0.79455237305E+02  0.00000000000E+00 0. -1.
</event>
<event>
 7    1  0.2714042E-009  0.1504171E+03  0.7561462E-02  0.1199961E+00
         -1   -1    0    0    0  501 -0.00000000000E+00  0.00000000000E+00  0.14171388490E+02  0.14171388490E+02  0.00000000000E+00 0.  1.
          1   -1    0    0  501    0  0.00000000000E+00 -0.00000000000E+00 -0.22267277937E+04  0.22267277937E+04  0.00000000000E+00 0. -1.
         25    2    1    2    0    0 -0.70463696677E+02 -0.10240909491E+03 -0.15496396778E+04  0.15596421458E+04  0.12509091389E+03 0.  0.
          5    1    3    3  502    0 -0.34377311544E+02 -0.10202939898E+03 -0.14423434140E+04  0.14463622624E+04  0.41800000000E+01 0.  1.
         -5    1    3    3    0  502 -0.36086385133E+02 -0.37969593076E+00 -0.10729626382E+03  0.11327988343E+03  0.41800000000E+01 0.  1.
        -11    1    1    2    0    0  0.92494980750E+02  0.63996203813E+02 -0.45777356879E+03  0.47138887964E+03  0.00000000000E+00 0. -1.
         11    1    1    2    0    0 -0.22031284073E+02  0.38412891093E+02 -0.20514315860E+03  0.20986815671E+03  0.00000000000E+00 0.  1.
</event>
<event>
 7    1  0.2714042E-009  0.1279002E+03  0.7561462E-02  0.1230605E+00
          2   -1    0    0  501    0  0.00000000000E+00  0.00000000000E+00  0.15492744107E+04  0.15492744107E+04  0.00000000000E+00 0.  1.
         -2   -1    0    0    0  501 -0.00000000000E+00 -0.00000000000E+00 -0.19386839675E+02  0.19386839675E+02  0.00000000000E+00 0. -1.
         25    2    1    2    0    0  0.72629753894E+02 -0.53633669810E+02  0.12596766716E+04  0.12690878205E+04  0.12508767980E+03 0.  0.
          5    1    3    3  502    0 -0.17209112226E+01 -0.70167320047E+02  0.80417258456E+03  0.80724062862E+03  0.41800000000E+01 0.  1.
         -5    1    3    3    0  502  0.74350665117E+02  0.16533650238E+02  0.45550408703E+03  0.46184719193E+03  0.41800000000E+01 0.  1.
        -11    1    1    2    0    0 -0.61642770908E+02  0.78711557944E+01  0.22812424877E+03  0.23643700890E+03  0.00000000000E+00 0.  1.
         11    1    1    2    0    0 -0.10986982986E+02  0.45762514015E+02  0.42086650683E+02  0.63136420946E+02  0.00000000000E+00 0. -1.
</event>
<event>
 7    1  0.2714042E-009  0.1018812E+03  0.7561462E-02  0.1276389E+00
          2   -1    0    0  501    0  0.00000000000E+00  0.00000000000E+00  0.54329812381E+03  0.54329812381E+03  0.00000000000E+00 0. -1.
         -2   -1    0    0    0  501 -0.00000000000E+00 -0.00000000000E+00 -0.28970771165E+02  0.28970771165E+02  0.00000000000E+00 0.  1.
         25    2    1    2    0    0 -0.31032895615E+02 -0.71453801494E+02  0.23808530410E+03  0.28000130744E+03  0.12508970293E+03 0.  0.
          5    1    3    3  502    0  0.19819185107E+02 -0.61276074965E+02  0.41690898545E+02  0.76832030319E+02  0.41800000000E+01 0. -1.
         -5    1    3    3    0  502 -0.50852080721E+02 -0.10177726529E+02  0.19639440555E+03  0.20316927712E+03  0.41800000000E+01 0. -1.
        -11    1    1    2    0    0  0.20429571245E+02  0.65817350158E+01  0.26937710944E+02  0.34443096376E+02  0.00000000000E+00 0.  1.
         11    1    1    2    0    0  0.10603324370E+02  0.64872066478E+02  0.24930433760E+03  0.25782449116E+03  0.00000000000E+00 0. -1.
</event>
<event>
 7    1  0.2714042E-009  0.1505371E+03  0.7561462E-02  0.1199815E+00
         -1   -1    0    0    0  501 -0.00000000000E+00  0.00000000000E+00  0.15454299125E+03  0.15454299125E+03  0.00000000000E+00 0.  1.
          1   -1    0    0  501    0  0.00000000000E+00 -0.00000000000E+00 -0.18794123334E+03  0.18794123334E+03  0.00000000000E+00 0. -1.
         25    2    1    2    0    0 -0.54095030888E+01  0.11647292684E+03 -0.48312314272E+02  0.17770279923E+03  0.12509596210E+03 0.  0.
          5    1    3    3  502    0 -0.35270147472E+02  0.32745638840E+02 -0.70989819940E+02  0.85867846723E+02  0.41800000000E+01 0.  1.
         -5    1    3    3    0  502  0.29860644383E+02  0.83727288004E+02  0.22677505667E+02  0.91834952512E+02  0.41800000000E+01 0.  1.
        -11    1    1    2    0    0  0.49285309748E+02 -0.12385728683E+02  0.94766879334E+01  0.51693864686E+02  0.00000000000E+00 0.  1.
         11    1    1    2    0    0 -0.43875806659E+02 -0.10408719816E+03  0.54373842414E+01  0.11308756067E+03  0.00000000000E+00 0. -1.
</event>
<event>
 7    1  0.2714042E-009  0.1058473E+03  0.7561462E-02  0.1268459E+00
         -1   -1    0    0    0  501 -0.00000000000E+00  0.00000000000E+00  0.90610115112E+02  0.90610115112E+02  0.00000000000E+00 0.  1.
          1   -1    0    0  501    0  0.00000000000E+00 -0.00000000000E+00 -0.20943092377E+03  0.20943092377E+03  0.00000000000E+00 0. -1.
         25    2    1    2    0    0 -0.40459253429E+02 -0.67745912052E+01 -0.14078019901E+03  0.19274034295E+03  0.12508768563E+03 0.  0.
          5    1    3    3  502    0  0.24444565614E+02 -0.32464750571E+02 -0.65326508013E+01  0.41372028524E+02  0.41800000000E+01 0.  1.
         -5    1    3    3    0  502 -0.64903819043E+02  0.25690159366E+02 -0.13424754820E+03  0.15136831443E+03  0.41800000000E+01 0.  1.
        -11    1    1    2    0    0  0.45042330923E+02  0.44260043575E+02 -0.90242047560E+00  0.63155185021E+02  0.00000000000E+00 0.  1.
         11    1    1    2    0    0 -0.45830774943E+01 -0.37485452370E+02  0.22861810826E+02  0.44145510904E+02  0.00000000000E+00 0. -1.
</event>
<event>
 7    1  0.2714042E-009  0.2186754E+03  0.7561462E-02  0.1134874E+00
          1   -1    0    0  501    0  0.00000000000E+00  0.00000000000E+00  0.21575236529E+03  0.21575236529E+03  0.00000000000E+00 0.  1.
         -1   -1    0    0    0  501 -0.00000000000E+00 -0.00000000000E+00 -0.36257675231E+03  0.36257675231E+03  0.00000000000E+00 0. -1.
         25    2    1    2    0    0  0.11056755698E+03  0.15964607393E+03  0.99675337103E+02  0.25157891108E+03  0.12507886352E+03 0.  0.
          5    1    3    3  502    0  0.98703648101E+02  0.44596958899E+02  0.17878113864E+02  0.10985626176E+03  0.41800000000E+01 0.  1.
         -5    1    3    3    0  502  0.11863908876E+02  0.11504911503E+03  0.81797223239E+02  0.14172264933E+03  0.41800000000E+01 0.  1.
        -11    1    1    2    0    0 -0.88118206003E+02 -0.50024137158E+02 -0.13487374488E+03  0.16869546403E+03  0.00000000000E+00 0. -1.
         11    1    1    2    0    0 -0.22449350974E+02 -0.10962193677E+03 -0.11162597924E+03  0.15805474248E+03  0.00000000000E+00 0.  1.
</event>
<event>
 7    1  0.2714042E-009  0.1621405E+03  0.7561462E-02  0.1186301E+00
          1   -1    0    0  501    0  0.00000000000E+00  0.00000000000E+00  0.84090072052E+02  0.84090072052E+02  0.00000000000E+00 0. -1.
         -1   -1    0    0    0  501 -0.00000000000E+00 -0.00000000000E+00 -0.55348461337E+03  0.55348461337E+03  0.00000000000E+00 0.  1.
         25    2    1    2    0    0  0.69522609487E+01 -0.14703652163E+03 -0.75840432695E+02  0.20752709795E+03  0.12509057729E+03 0.  0.
          5    1    3    3  502    0 -0.17376853977E+02 -0.99849115360E+01  0.27379194948E+02  0.34186930669E+02  0.41800000000E+01 0. -1.
         -5    1    3    3    0  502  0.24329114926E+02 -0.13705161009E+03 -0.10321962764E+03  0.17334016728E+03  0.41800000000E+01 0. -1.
        -11    1    1    2    0    0  0.32296962232E+02  0.46416248461E+02 -0.76697526111E+02  0.95289413904E+02  0.00000000000E+00 0. -1.
         11    1    1    2    0    0 -0.39249223181E+02  0.10062027316E+03 -0.31685658251E+03  0.33475817357E+03  0.00000000000E+00 0.  1.
</event>
<event>
 7    1  0.2714042E-009  0.1414046E+03  0.7561462E-02  0.1211451E+00
          1   -1    0    0  501    0  0.00000000000E+00  0.00000000000E+00  0.16135815311E+03  0.16135815311E+03  0.00000000000E+00 0. -1.
         -1   -1    0    0    0  501 -0.00000000000E+00 -0.00000000000E+00 -0.14215626971E+03  0.14215626971E+03  0.00000000000E+00 0.  1.
         25    2    1    2    0    0  0.89818865835E+02 -0.13180786390E+02  0.62342286051E+02  0.16665958182E+03  0.12509074224E+03 0.  0.
          5    1    3    3  502    0  0.64590996572E+02 -0.67976348422E+02  0.33473623387E+02  0.99653081466E+02  0.41800000000E+01 0. -1.
         -5    1    3    3    0  502  0.25227869262E+02  0.54795562033E+02  0.28868662664E+02  0.67006500357E+02  0.41800000000E+01 0. -1.
        -11    1    1    2    0    0 -0.36460519375E+02 -0.39318809132E+02 -0.81967761876E+01  0.54245049217E+02  0.00000000000E+00 0.  1.
         11    1    1    2    0    0 -0.53358346460E+02  0.52499595522E+02 -0.34943626470E+02  0.82609791779E+02  0.00000000000E+00 0. -1.
</event>
<event>
 7    1  0.2714042E-009  0.2573296E+03  0.7561462E-02  0.1108758E+00
          2   -1    0    0  501    0  0.00000000000E+00  0.00000000000E+00  0.11603737794E+03  0.11603737794E+03  0.00000000000E+00 0.  1.
         -2   -1    0    0    0  501 -0.00000000000E+00 -0.00000000000E+00 -0.69695449925E+03  0.69695449925E+03  0.00000000000E+00 0. -1.
         25    2    1    2    0    0  0.61329230449E+02  0.24152571066E+03 -0.42292075598E+03  0.50656155949E+03  0.12508678704E+03 0.  0.
          5    1    3    3  502    0  0.72705257892E+02  0.11999465439E+03 -0.13926557731E+03  0.19772998010E+03  0.41800000000E+01 0. -1.
         -5    1    3    3    0  502 -0.11376027443E+02  0.12153105627E+03 -0.28365517867E+03  0.30883157939E+03  0.41800000000E+01 0. -1.
        -11    1    1    2    0    0 -0.59921542510E+02 -0.16370109380E+03 -0.67176731688E+02  0.18681903717E+03  0.00000000000E+00 0.  1.
         11    1    1    2    0    0 -0.14076879392E+01 -0.77824616866E+02 -0.90819633647E+02  0.11961128054E+03  0.00000000000E+00 0. -1.
</event>
<event>
 7    1  0.2714042E-009  0.9685697E+02  0.7561462E-02  0.1287048E+00
          1   -1    0    0  501    0  0.00000000000E+00  0.00000000000E+00  0.31734462713E+03  0.31734462713E+03  0.00000000000E+00 0. -1.
         -1   -1    0    0    0  501 -0.00000000000E+00 -0.00000000000E+00 -0.63725207171E+02  0.63725207171E+02  0.00000000000E+00 0.  1.
         25    2    1    2    0    0 -0.34325338182E+02  0.38783615974E+02  0.24345755425E+03  0.27857193465E+03  0.12509334253E+03 0.  0.
          5    1    3    3  502    0 -0.22957877109E+02 -0.40718099880E+02  0.47590249978E+02  0.66838103445E+02  0.41800000000E+01 0.  1.
         -5    1    3    3    0  502 -0.11367461073E+02  0.79501715855E+02  0.19586730427E+03  0.21173383120E+03  0.41800000000E+01 0.  1.
        -11    1    1    2    0    0  0.39149595818E+02 -0.14725955169E+02 -0.32711527571E+02  0.53099798911E+02  0.00000000000E+00 0.  1.
         11    1    1    2    0    0 -0.48242576363E+01 -0.24057660805E+02  0.42873393282E+02  0.49398100740E+02  0.00000000000E+00 0. -1.
</event>
<event>
 7    1  0.2714042E-009  0.1760279E+03  0.7561462E-02  0.1171704E+00
         -1   -1    0    0    0  501 -0.00000000000E+00  0.00000000000E+00  0.27175663224E+03  0.27175663224E+03  0.00000000000E+00 0.  1.
          1   -1    0    0  501    0  0.00000000000E+00 -0.00000000000E+00 -0.19084637989E+03  0.19084637989E+03  0.00000000000E+00 0. -1.
         25    2    1    2    0    0  0.12264619942E+03  0.12452911018E+03 -0.56483546827E+02  0.22223031587E+03  0.12508530176E+03 0.  0.
          5    1    3    3  502    0  0.97088469204E+02  0.83466303015E+02  0.21968152647E+02  0.12997256142E+03  0.41800000000E+01 0.  1.
         -5    1    3    3    0  502  0.25557730212E+02  0.41062807162E+02 -0.78451699474E+02  0.92257754449E+02  0.41800000000E+01 0.  1.
        -11    1    1    2    0    0 -0.11043555989E+03 -0.10506724062E+03  0.15025995786E+03  0.21404016650E+03  0.00000000000E+00 0.  1.
         11    1    1    2    0    0 -0.12210639522E+02 -0.19461869561E+02 -0.12866158685E+02  0.26332529761E+02  0.00000000000E+00 0. -1.
</event>
<event>
 7    1  0.2714042E-009  0.1574431E+03  0.7561462E-02  0.1191614E+00
         -2   -1    0    0    0  501 -0.00000000000E+00  0.00000000000E+00  0.10406720904E+03  0.10406720904E+03  0.00000000000E+00 0.  1.
          2   -1    0    0  501    0  0.00000000000E+00 -0.00000000000E+00 -0.32340303997E+03  0.32340303997E+03  0.00000000000E+00 0. -1.
         25    2    1    2    0    0  0.11659843844E+03  0.62829565769E+02 -0.18880210136E+03  0.26236883748E+03  0.12509365780E+03 0.  0.
          5    1    3    3  502    0  0.12189027327E+03  0.74056083093E+01 -0.10202180239E+03  0.15917915164E+03  0.41800000000E+01 0. -1.
         -5    1    3    3    0  502 -0.52918348242E+01  0.55423957460E+02 -0.86780298968E+02  0.10318968585E+03  0.41800000000E+01 0. -1.
        -11    1    1    2    0    0 -0.11275356975E+02 -0.20419912167E+02  0.28744030222E+02  0.37017911357E+02  0.00000000000E+00 0.  1.
         11    1    1    2    0    0 -0.10532308147E+03 -0.42409653602E+02 -0.59277759796E+02  0.12808350017E+03  0.00000000000E+00 0. -1.
</event>
<event>
 7    1  0.2714042E-009  0.8352869E+02  0.7561462E-02  0.1319326E+00
          2   -1    0    0  501    0  0.00000000000E+00  0.00000000000E+00  0.12964205760E+03  0.12964205760E+03  0.00000000000E+00 0. -1.
         -2   -1    0    0    0  501 -0.00000000000E+00 -0.00000000000E+00 -0.13701011452E+03  0.13701011452E+03  0.00000000000E+00 0.  1.
         25    2    1    2    0    0 -0.27794536986E+02 -0.37785412119E+02  0.54115554897E+02  0.14413927501E+03  0.12508942267E+03 0.  0.
          5    1    3    3  502    0 -0.55624857415E+01  0.12240575624E+02  0.81554852330E+02  0.82761339270E+02  0.41800000000E+01 0. -1.
         -5    1    3    3    0  502 -0.22232051245E+02 -0.50025987742E+02 -0.27439297433E+02  0.61377935741E+02  0.41800000000E+01 0. -1.
        -11    1    1    2    0    0  0.34082805554E+02 -0.20286332401E+02 -0.48541052682E+02  0.62684979957E+02  0.00000000000E+00 0.  1.
         11    1    1    2    0    0 -0.62882685675E+01  0.58071744520E+02 -0.12942559139E+02  0.59827917148E+02  0.00000000000E+00 0. -1.
</event>
<event>
 7    1  0.2714042E-009  0.1763078E+03  0.7561462E-02  0.1171425E+00
          1   -1    0    0  501    0  0.00000000000E+00  0.00000000000E+00  0.24401703719E+03  0.24401703719E+03  0.00000000000E+00 0. -1.
         -1   -1    0    0    0  501 -0.00000000000E+00 -0.00000000000E+00 -0.13235199638E+03  0.13235199638E+03  0.00000000000E+00 0.  1.
         25    2    1    2    0    0  0.13521567467E+03 -0.38948360711E+02  0.32502546326E+02  0.19106136907E+03  0.12509107783E+03 0.  0.
          5    1    3    3  502    0  0.74562120557E+02  0.40708613429E+02  0.31936605148E+02  0.90852188623E+02  0.41800000000E+01 0. -1.
         -5    1    3    3    0  502  0.60653554113E+02 -0.79656974140E+02  0.56594117743E+00  0.10020918044E+03  0.41800000000E+01 0. -1.
        -11    1    1    2    0    0 -0.11969233245E+03  0.65615526361E+02  0.61053054457E+02  0.14952968670E+03  0.00000000000E+00 0. -1.
         11    1    1    2    0    0 -0.15523342218E+02 -0.26667165650E+02  0.18109440029E+02  0.35777977802E+02  0.00000000000E+00 0.  1.
</event>
<event>
 7    1  0.2714042E-009  0.9963566E+02  0.7561462E-02  0.1281064E+00
          1   -1    0    0  501    0  0.00000000000E+00  0.00000000000E+00  0.93222789531E+03  0.93222789531E+03  0.00000000000E+00 0. -1.
         -1   -1    0    0    0  501 -0.00000000000E+00 -0.00000000000E+00 -0.12904332007E+02  0.12904332007E+02  0.00000000000E+00 0.  1.
         25    2    1    2    0    0  0.39671263497E+01  0.15232886465E+01  0.57156670518E+03  0.58511042322E+03  0.12509056875E+03 0.  0.
          5    1    3    3  502    0  0.12783430167E+02  0.53160014716E+02  0.44052086403E+03  0.44392060923E+03  0.41800000000E+01 0.  1.
         -5    1    3    3    0  502 -0.88163038168E+01 -0.51636726070E+02  0.13104584115E+03  0.14118981399E+03  0.41800000000E+01 0.  1.
        -11    1    1    2    0    0 -0.34236257623E+02 -0.33468616218E+02  0.21077117742E+03  0.21614059970E+03  0.00000000000E+00 0. -1.
         11    1    1    2    0    0  0.30269131273E+02  0.31945327571E+02  0.13698568071E+03  0.14388120441E+03  0.00000000000E+00 0.  1.
</event>
<event>
 7    1  0.2714042E-009  0.1535670E+03  0.7561462E-02  0.1196157E+00
         -2   -1    0    0    0  501 -0.00000000000E+00  0.00000000000E+00  0.12926807138E+04  0.12926807138E+04  0.00000000000E+00 0.  1.
          2   -1    0    0  501    0  0.00000000000E+00 -0.00000000000E+00 -0.22969007077E+02  0.22969007077E+02  0.00000000000E+00 0. -1.
         25    2    1    2    0    0  0.70104112277E+02  0.10651355413E+03  0.82874335945E+03  0.84777476818E+03  0.12508708148E+03 0.  0.
          5    1    3    3  502    0  0.87656693123E+02  0.23938122032E+02  0.50809402315E+03  0.51617219830E+03  0.41800000000E+01 0.  1.
         -5    1    3    3    0  502 -0.17552580847E+02  0.82575432093E+02  0.32064933630E+03  0.33160256988E+03  0.41800000000E+01 0.  1.
        -11    1    1    2    0    0 -0.18466233665E+02 -0.57725408077E+02  0.82125665152E+02  0.10206786664E+03  0.00000000000E+00 0.  1.
         11    1    1    2    0    0 -0.51637878611E+02 -0.48788146048E+02  0.35884268216E+03  0.36580708610E+03  0.00000000000E+00 0. -1.
</event>
<event>
 7    1  0.2714042E-009  0.1399996E+03  0.7561462E-02  0.1213329E+00
         -3   -1    0    0    0  501 -0.00000000000E+00  0.00000000000E+00  0.31853131887E+02  0.31853131887E+02  0.00000000000E+00 0.  1.
          3   -1    0    0  501    0  0.00000000000E+00 -0.00000000000E+00 -0.65158822593E+03  0.65158822593E+03  0.00000000000E+00 0. -1.
         25    2    1    2    0    0  0.60113922497E+02 -0.70260528314E+02 -0.39026829822E+03  0.42012810684E+03  0.12509219021E+03 0.  0.
          5    1    3    3  502    0  0.40355712662E+02 -0.10397719856E+03 -0.23803037202E+03  0.26289878617E+03  0.41800000000E+01 0.  1.
         -5    1    3    3    0  502  0.19758209835E+02  0.33716670241E+02 -0.15223792619E+03  0.15722932068E+03  0.41800000000E+01 0.  1.
        -11    1    1    2    0    0  0.23673107789E+02  0.91518839903E+01 -0.41940584673E+02  0.49022297536E+02  0.00000000000E+00 0.  1.
         11    1    1    2    0    0 -0.83787030286E+02  0.61108644324E+02 -0.18752621115E+03  0.21429095343E+03  0.00000000000E+00 0. -1.
</event>
<event>
 7    1  0.2714042E-009  0.1483694E+03  0.7561462E-02  0.1202491E+00
          1   -1    0    0  501    0  0.00000000000E+00  0.00000000000E+00  0.13801742655E+04  0.13801742655E+04  0.00000000000E+00 0. -1.
         -1   -1    0    0    0  501 -0.00000000000E+00 -0.00000000000E+00 -0.20263724638E+02  0.20263724638E+02  0.00000000000E+00 0.  1.
         25    2    1    2    0    0  0.83991948527E+02  0.72524095029E+02  0.95617677238E+03  0.97068809397E+03  0.12508782498E+03 0.  0.
          5    1    3    3  502    0  0.99325198470E+02  0.13769607134E+02  0.46188792595E+03  0.47266587107E+03  0.41800000000E+01 0. -1.
         -5    1    3    3    0  502 -0.15333249943E+02  0.58754487895E+02  0.49428884643E+03  0.49802222291E+03  0.41800000000E+01 0. -1.
        -11    1    1    2    0    0 -0.45599908757E+02  0.80057449660E+01  0.67287590669E+02  0.81676578584E+02  0.00000000000E+00 0.  1.
         11    1    1    2    0    0 -0.38392039770E+02 -0.80529839995E+02  0.33644617776E+03  0.34807331753E+03  0.00000000000E+00 0. -1.
</event>
<event>
 7    1  0.2714042E-009  0.1243060E+03  0.7561462E-02  0.1236158E+00
         -3   -1    0    0    0  501 -0.00000000000E+00  0.00000000000E+00  0.11630326119E+03  0.11630326119E+03  0.00000000000E+00 0.  1.
          3   -1    0    0  501    0  0.00000000000E+00 -0.00000000000E+00 -0.21860576849E+03  0.21860576849E+03  0.00000000000E+00 0. -1.
         25    2    1    2    0    0  0.40004861283E+02  0.79462880611E+02 -0.13255288851E+03  0.20281122557E+03  0.12508951452E+03 0.  0.
          5    1    3    3  502    0  0.26174381918E+02 -0.31611389038E+02 -0.30784022227E+02  0.51473358256E+02  0.41800000000E+01 0. -1.
         -5    1    3    3    0  502  0.13830479365E+02  0.11107426965E+03 -0.10176886629E+03  0.15133786731E+03  0.41800000000E+01 0. -1.
        -11    1    1    2    0    0 -0.17961402888E+02 -0.64561940391E+01  0.49831826921E+02  0.53362022164E+02  0.00000000000E+00 0.  1.
         11    1    1    2    0    0 -0.22043458396E+02 -0.73006686572E+02 -0.19581445716E+02  0.78735781946E+02  0.00000000000E+00 0. -1.
</event>
<event>
 7    1  0.2714042E-009  0.1023247E+03  0.7561462E-02  0.1275482E+00
         -1   -1    0    0    0  501 -0.00000000000E+00  0.00000000000E+00  0.51441077136E+03  0.51441077136E+03  0.00000000000E+00 0.  1.
          1   -1    0    0  501    0  0.00000000000E+00 -0.00000000000E+00 -0.27658549599E+02  0.27658549599E+02  0.00000000000E+00 0. -1.
         25    2    1    2    0    0 -0.13916345980E+02  0.96275488727E+01  0.33927699791E+03  0.36199924433E+03  0.12509283435E+03 0.  0.
          5    1    3    3  502    0  0.35642253578E+02  0.48480662829E+02  0.12804633290E+03  0.14154179834E+03  0.41800000000E+01 0.  1.
         -5    1    3    3    0  502 -0.49558599558E+02 -0.38853113956E+02  0.21123066501E+03  0.22045744599E+03  0.41800000000E+01 0.  1.
        -11    1    1    2    0    0  0.36848519850E+02 -0.32278761638E+02  0.13805526497E+03  0.14648886665E+03  0.00000000000E+00 0.  1.
         11    1    1    2    0    0 -0.22932173870E+02  0.22651212765E+02  0.94199588934E+01  0.33581209980E+02  0.00000000000E+00 0. -1.
</event>
<event>
 7    1  0.2714042E-009  0.1422275E+03  0.7561462E-02  0.1210363E+00
         -1   -1    0    0    0  501 -0.00000000000E+00  0.00000000000E+00  0.90355573019E+02  0.90355573019E+02  0.00000000000E+00 0.  1.
          1   -1    0    0  501    0  0.00000000000E+00 -0.00000000000E+00 -0.24573900418E+03  0.24573900418E+03  0.00000000000E+00 0. -1.
         25    2    1    2    0    0 -0.16971131478E+02 -0.94648272840E+02 -0.11979764553E+03  0.19810743130E+03  0.12509501831E+03 0.  0.
          5    1    3    3  502    0 -0.68122000944E+02 -0.28869553868E+02 -0.61882526374E+02  0.96545210256E+02  0.41800000000E+01 0.  1.
         -5    1    3    3    0  502  0.51150869465E+02 -0.65778718972E+02 -0.57915119157E+02  0.10156222104E+03  0.41800000000E+01 0.  1.
        -11    1    1    2    0    0 -0.22839815913E+02  0.82039145636E+02 -0.33368051226E+01  0.85224485191E+02  0.00000000000E+00 0.  1.
         11    1    1    2    0    0  0.39810947392E+02  0.12609127203E+02 -0.32248980507E+02  0.52762660706E+02  0.00000000000E+00 0. -1.
</event>
<event>
 7    1  0.2714042E-009  0.1230711E+03  0.7561462E-02  0.1238115E+00
         -3   -1    0    0    0  501 -0.00000000000E+00  0.00000000000E+00  0.31483784109E+03  0.31483784109E+03  0.00000000000E+00 0.  1.
          3   -1    0    0  501    0  0.00000000000E+00 -0.00000000000E+00 -0.89989057065E+02  0.89989057065E+02  0.00000000000E+00 0. -1.
         25    2    1    2    0    0 -0.47631617670E+02 -0.12945439790E+01  0.24335248842E+03  0.27773972495E+03  0.12509386215E+03 0.  0.
          5    1    3    3  502    0 -0.73685134849E+02  0.29860068245E+02  0.21140135873E+03  0.22589628072E+03  0.41800000000E+01 0.  1.
         -5    1    3    3    0  502  0.26053517179E+02 -0.31154612224E+02  0.31951129694E+02  0.51843444224E+02  0.41800000000E+01 0.  1.
        -11    1    1    2    0    0 -0.15377829028E+02  0.45960352779E+02 -0.85586962228E+01  0.49214661781E+02  0.00000000000E+00 0. -1.
         11    1    1    2    0    0  0.63009446697E+02 -0.44665808800E+02 -0.99450081694E+01  0.77872511429E+02  0.00000000000E+00 0.  1.
</event>
<event>
 7    1  0.2714042E-009  0.1034852E+03  0.7561462E-02  0.1273133E+00
         -2   -1    0    0    0  501 -0.00000000000E+00  0.00000000000E+00  0.48686892451E+02  0.48686892451E+02  0.00000000000E+00 0.  1.
          2   -1    0    0  501    0  0.00000000000E+00 -0.00000000000E+00 -0.39646753989E+03  0.39646753989E+03  0.00000000000E+00 0. -1.
         25    2    1    2    0    0  0.22048373757E+02 -0.81306928560E+00 -0.56233675333E+02  0.13891040158E+03  0.12508829506E+03 0.  0.
          5    1    3    3  502    0 -0.42215141901E+02 -0.23969139950E+02 -0.50595617294E+02  0.70242627834E+02  0.41800000000E+01 0. -1.
         -5    1    3    3    0  502  0.64263515658E+02  0.23156070664E+02 -0.56380580388E+01  0.68667773750E+02  0.41800000000E+01 0. -1.
        -11    1    1    2    0    0  0.30119791994E+02  0.17750057521E+02 -0.73302006190E+02  0.81212379125E+02  0.00000000000E+00 0.  1.
         11    1    1    2    0    0 -0.52168165751E+02 -0.16936988236E+02 -0.21824496592E+03  0.22503165163E+03  0.00000000000E+00 0. -1.
</event>
<event>
 7    1  0.2714042E-009  0.1105371E+03  0.7561462E-02  0.1259579E+00
         -2   -1    0    0    0  501 -0.00000000000E+00  0.00000000000E+00  0.99359279534E+02  0.99359279534E+02  0.00000000000E+00 0.  1.
          2   -1    0    0  501    0  0.00000000000E+00 -0.00000000000E+00 -0.25678004704E+03  0.25678004704E+03  0.00000000000E+00 0. -1.
         25    2    1    2    0    0 -0.46594709929E+02  0.49310232979E+02 -0.18899567675E+03  0.23658015971E+03  0.12509292573E+03 0.  0.
          5    1    3    3  502    0  0.70422807766E+01  0.73030326827E+02 -0.60196588469E+02  0.94995389458E+02  0.41800000000E+01 0.  1.
         -5    1    3    3    0  502 -0.53636990706E+02 -0.23720093848E+02 -0.12879908828E+03  0.14158477025E+03  0.41800000000E+01 0.  1.
        -11    1    1    2    0    0  0.57621795021E+02 -0.26437239768E+02  0.55806298277E+02  0.84460297391E+02  0.00000000000E+00 0.  1.
         11    1    1    2    0    0 -0.11027085092E+02 -0.22872993211E+02 -0.24231389031E+02  0.35098869475E+02  0.00000000000E+00 0. -1.
</event>
<event>
 7    1  0.2714042E-009  0.1039481E+03  0.7561462E-02  0.1272206E+00
          1   -1    0    0  501    0  0.00000000000E+00  0.00000000000E+00  0.82084643970E+03  0.82084643970E+03  0.00000000000E+00 0. -1.
         -1   -1    0    0    0  501 -0.00000000000E+00 -0.00000000000E+00 -0.24445330330E+02  0.24445330330E+02  0.00000000000E+00 0.  1.
         25    2    1    2    0    0  0.82163021019E+02  0.23529231297E+02  0.51043406396E+03  0.53244327562E+03  0.12509405002E+03 0.  0.
          5    1    3    3  502    0  0.87703347799E+02 -0.77088284918E+01  0.48085663936E+03  0.48886796097E+03  0.41800000000E+01 0.  1.
         -5    1    3    3    0  502 -0.55403267792E+01  0.31238059788E+02  0.29577424603E+02  0.43575314644E+02  0.41800000000E+01 0.  1.
        -11    1    1    2    0    0 -0.12273375368E+02 -0.11537551867E+02 -0.13607788598E+01  0.16899780032E+02  0.00000000000E+00 0.  1.
         11    1    1    2    0    0 -0.69889645651E+02 -0.11991679429E+02  0.28732782427E+03  0.29594871438E+03  0.00000000000E+00 0. -1.
</event>
<event>
 7    1  0.2714042E-009  0.1718965E+03  0.7561462E-02  0.1175884E+00
          2   -1    0    0  501    0  0.00000000000E+00  0.00000000000E+00  0.36599344344E+03  0.36599344344E+03  0.00000000000E+00 0. -1.
         -2   -1    0    0    0  501 -0.00000000000E+00 -0.00000000000E+00 -0.16003733468E+03  0.16003733468E+03  0.00000000000E+00 0.  1.
         25    2    1    2    0    0 -0.11536946777E+03  0.11200902639E+03 -0.50979150905E+02  0.21000603335E+03  0.12509006407E+03 0.  0.
          5    1    3    3  502    0 -0.90593908586E+02  0.27863804472E+02  0.20157674401E+02  0.96992020857E+02  0.41800000000E+01 0.  1.
         -5    1    3    3    0  502 -0.24775559182E+02  0.84145221916E+02 -0.71136825307E+02  0.11301401249E+03  0.41800000000E+01 0.  1.
        -11    1    1    2    0    0  0.73607586848E+02 -0.64734164211E+02  0.74880939698E+02  0.12335211384E+03  0.00000000000E+00 0.  1.
         11    1    1    2    0    0  0.41761880921E+02 -0.47274862177E+02  0.18205431997E+03  0.19267263093E+03  0.00000000000E+00 0. -1.
</event>
<event>
 7    1  0.2714042E-009  0.8701019E+02  0.7561462E-02  0.1310258E+00
         -2   -1    0    0    0  501 -0.00000000000E+00  0.00000000000E+00  0.13500930710E+03  0.13500930710E+03  0.00000000000E+00 0. -1.
          2   -1    0    0  501    0  0.00000000000E+00 -0.00000000000E+00 -0.11382147229E+03  0.11382147229E+03  0.00000000000E+00 0.  1.
         25    2    1    2    0    0 -0.36061992768E+02  0.25653835087E+01 -0.37128978299E+02  0.13540650004E+03  0.12509720504E+03 0.  0.
          5    1    3    3  502    0  0.61174399755E+01 -0.40127056451E+02  0.25855622264E+02  0.48307238939E+02  0.41800000000E+01 0.  1.
         -5    1    3    3    0  502 -0.42179432744E+02  0.42692439960E+02 -0.62984600563E+02  0.87099261101E+02  0.41800000000E+01 0.  1.
        -11    1    1    2    0    0  0.35978103624E+02 -0.29251452519E+02 -0.30876994085E+01  0.46471553692E+02  0.00000000000E+00 0.  1.
         11    1    1    2    0    0  0.83889144190E-01  0.26686069011E+02  0.61404512515E+02  0.66952725664E+02  0.00000000000E+00 0. -1.
</event>
<event>
 7    1  0.2714042E-009  0.1075990E+03  0.7561462E-02  0.1265082E+00
          1   -1    0    0  501    0  0.00000000000E+00  0.00000000000E+00  0.41902542211E+03  0.41902542211E+03  0.00000000000E+00 0. -1.
         -1   -1    0    0    0  501 -0.00000000000E+00 -0.00000000000E+00 -0.35782929138E+02  0.35782929138E+02  0.00000000000E+00 0.  1.
         25    2    1    2    0    0 -0.23272242534E+02  0.13191297925E+02  0.30301145205E+03  0.32890086766E+03  0.12507690857E+03 0.  0.
          5    1    3    3  502    0 -0.59658265457E+02  0.42917692558E+02  0.12813001144E+03  0.14776944611E+03  0.41800000000E+01 0.  1.
         -5    1    3    3    0  502  0.36386022923E+02 -0.29726394633E+02  0.17488144061E+03  0.18113142155E+03  0.41800000000E+01 0.  1.
        -11    1    1    2    0    0 -0.35109211682E+02 -0.48909645579E+01  0.44744733026E+02  0.57084756396E+02  0.00000000000E+00 0. -1.
         11    1    1    2    0    0  0.58381454216E+02 -0.83003333676E+01  0.35486307895E+02  0.68822727194E+02  0.00000000000E+00 0.  1.
</event>
<event>
 7    1  0.2714042E-009  0.9428063E+02  0.7561462E-02  0.1292805E+00
          1   -1    0    0  501    0  0.00000000000E+00  0.00000000000E+00  0.14706035292E+04  0.14706035292E+04  0.00000000000E+00 0. -1.
         -1   -1    0    0    0  501 -0.00000000000E+00 -0.00000000000E+00 -0.13726208107E+02  0.13726208107E+02  0.00000000000E+00 0.  1.
         25    2    1    2    0    0  0.66224928052E+02  0.17261048596E+02  0.10992526958E+04  0.11084619024E+04  0.12509042643E+03 0.  0.
          5    1    3    3  502    0  0.64676712467E+02  0.11819318253E+02  0.23178882317E+03  0.24096950921E+03  0.41800000000E+01 0.  1.
         -5    1    3    3    0  502  0.15482155851E+01  0.54417303431E+01  0.86746387268E+03  0.86749239317E+03  0.41800000000E+01 0.  1.
        -11    1    1    2    0    0 -0.35053238433E+01  0.34284547050E+02  0.11059259465E+03  0.11583798795E+03  0.00000000000E+00 0.  1.
         11    1    1    2    0    0 -0.62719604208E+02 -0.51545595646E+02  0.24703203061E+03  0.26002984700E+03  0.00000000000E+00 0. -1.
</event>
<event>
 7    1  0.2714042E-009  0.1665053E+03  0.7561462E-02  0.1181542E+00
         -2   -1    0    0    0  501 -0.00000000000E+00  0.00000000000E+00  0.57119472485E+02  0.57119472485E+02  0.00000000000E+00 0.  1.
          2   -1    0    0  501    0  0.00000000000E+00 -0.00000000000E+00 -0.73497535790E+03  0.73497535790E+03  0.00000000000E+00 0. -1.
         25    2    1    2    0    0 -0.14343308564E+03  0.21068828436E+01 -0.16916104901E+03  0.25463836156E+03  0.12509094957E+03 0.  0.
          5    1    3    3  502    0 -0.83990164865E+02  0.37644098072E+02 -0.26291784824E+02  0.95813131996E+02  0.41800000000E+01 0. -1.
         -5    1    3    3    0  502 -0.59442920770E+02 -0.35537215228E+02 -0.14286926419E+03  0.15882522956E+03  0.41800000000E+01 0. -1.
        -11    1    1    2    0    0 -0.27856031642E+01  0.22971531075E+02 -0.10076601840E+03  0.10338878705E+03  0.00000000000E+00 0. -1.
         11    1    1    2    0    0  0.14621868880E+03 -0.25078413918E+02 -0.40792881801E+03  0.43406768178E+03  0.00000000000E+00 0.  1.
</event>
<event>
 7    1  0.2714042E-009  0.1687654E+03  0.7561462E-02  0.1179141E+00
          1   -1    0    0  501    0  0.00000000000E+00  0.00000000000E+00  0.11544801066E+03  0.11544801066E+03  0.00000000000E+00 0. -1.
         -1   -1    0    0    0  501 -0.00000000000E+00 -0.00000000000E+00 -0.45834024614E+03  0.45834024614E+03  0.00000000000E+00 0.  1.
         25    2    1    2    0    0 -0.12456798027E+02  0.16074977277E+03 -0.24654084167E+02  0.20555050476E+03  0.12509006708E+03 0.  0.
          5    1    3    3  502    0 -0.16694457097E+02  0.12799261578E+03  0.37983526159E+02  0.13461439467E+03  0.41800000000E+01 0.  1.
         -5    1    3    3    0  502  0.42376590706E+01  0.32757156984E+02 -0.62637610327E+02  0.70936110096E+02  0.41800000000E+01 0.  1.
        -11    1    1    2    0    0  0.13055703202E+02  0.12286047338E+01 -0.74102493164E+02  0.75253839429E+02  0.00000000000E+00 0.  1.
         11    1    1    2    0    0 -0.59890517480E+00 -0.16197837750E+03 -0.24413565815E+03  0.29298391260E+03  0.00000000000E+00 0. -1.
</event>
<event>
 7    1  0.2714042E-009  0.1053966E+03  0.7561462E-02  0.1269340E+00
         -2   -1    0    0    0  501 -0.00000000000E+00  0.00000000000E+00  0.29387506317E+03  0.29387506317E+03  0.00000000000E+00 0.  1.
          2   -1    0    0  501    0  0.00000000000E+00 -0.00000000000E+00 -0.68966979238E+02  0.68966979238E+02  0.00000000000E+00 0. -1.
         25    2    1    2    0    0  0.32841753357E+01  0.67554452910E+02  0.43266366243E+02  0.14863838571E+03  0.12508797441E+03 0.  0.
          5    1    3    3  502    0 -0.26267140586E+02  0.61484854857E+02 -0.26866567424E+02  0.72177800579E+02  0.41800000000E+01 0. -1.
         -5    1    3    3    0  502  0.29551315921E+02  0.60695980534E+01  0.70132933667E+02  0.76460585127E+02  0.41800000000E+01 0. -1.
        -11    1    1    2    0    0 -0.33525510137E+02 -0.75042589575E+02  0.12610167839E+03  0.15052236835E+03  0.00000000000E+00 0.  1.
         11    1    1    2    0    0  0.30241334801E+02  0.74881366642E+01  0.55540039298E+02  0.63681288355E+02  0.00000000000E+00 0. -1.
</event>
<event>
 7    1  0.2714042E-009  0.1007514E+03  0.7561462E-02  0.1278724E+00
          2   -1    0    0  501    0  0.00000000000E+00  0.00000000000E+00  0.71233274179E+02  0.71233274179E+02  0.00000000000E+00 0. -1.
         -2   -1    0    0    0  501 -0.00000000000E+00 -0.00000000000E+00 -0.20269784393E+03  0.20269784393E+03  0.00000000000E+00 0.  1.
         25    2    1    2    0    0 -0.40737598574E+02 -0.19848669485E+02 -0.99275318978E+02  0.16599951142E+03  0.12508687867E+03 0.  0.
          5    1    3    3  502    0 -0.74892504755E+02  0.90167547535E+01 -0.94270100670E+02  0.12080775395E+03  0.41800000000E+01 0. -1.
         -5    1    3    3    0  502  0.34154906181E+02 -0.28865424239E+02 -0.50052183088E+01  0.45191757468E+02  0.41800000000E+01 0. -1.
        -11    1    1    2    0    0  0.50997536857E+02  0.35633894445E+02 -0.51646502316E+02  0.80857185211E+02  0.00000000000E+00 0.  1.
         11    1    1    2    0    0 -0.10259938283E+02 -0.15785224960E+02  0.19457251544E+02  0.27074421476E+02  0.00000000000E+00 0. -1.
</event>
<event>
 7    1  0.2714042E-009  0.1365284E+03  0.7561462E-02  0.1218078E+00
         -2   -1    0    0    0  501 -0.00000000000E+00  0.00000000000E+00  0.43014808319E+02  0.43014808319E+02  0.00000000000E+00 0. -1.
          2   -1    0    0  501    0  0.00000000000E+00 -0.00000000000E+00 -0.44313961483E+03  0.44313961483E+03  0.00000000000E+00 0.  1.
         25    2    1    2    0    0 -0.13157777773E+02 -0.85932587834E+02 -0.21236103094E+03  0.26134700040E+03  0.12509000915E+03 0.  0.
          5    1    3    3  502    0 -0.62710965418E+02 -0.14903504896E+02 -0.10589430292E+03  0.12403973328E+03  0.41800000000E+01 0. -1.
         -5    1    3    3    0  502  0.49553187645E+02 -0.71029082938E+02 -0.10646672802E+03  0.13730726712E+03  0.41800000000E+01 0. -1.
        -11    1    1    2    0    0 -0.27167295571E+02  0.37231608863E+00 -0.27140179855E+02  0.38402993770E+02  0.00000000000E+00 0.  1.
         11    1    1    2    0    0  0.40325073344E+02  0.85560271745E+02 -0.16062359572E+03  0.18640442898E+03  0.00000000000E+00 0. -1.
</event>
<event>
 7    1  0.2714042E-009  0.1424107E+03  0.7561462E-02  0.1210121E+00
         -2   -1    0    0    0  501 -0.00000000000E+00  0.00000000000E+00  0.15283799152E+03  0.15283799152E+03  0.00000000000E+00 0.  1.
          2   -1    0    0  501    0  0.00000000000E+00 -0.00000000000E+00 -0.19268047727E+03  0.19268047727E+03  0.00000000000E+00 0. -1.
         25    2    1    2    0    0 -0.84490956868E+02  0.96888119625E+02 -0.52640363999E+02  0.18693604431E+03  0.12509215492E+03 0.  0.
          5    1    3    3  502    0 -0.73417972431E+02  0.79620362179E+02 -0.92123926908E+02  0.14224588240E+03  0.41800000000E+01 0.  1.
         -5    1    3    3    0  502 -0.11072984438E+02  0.17267757446E+02  0.39483562909E+02  0.44690161911E+02  0.41800000000E+01 0.  1.
        -11    1    1    2    0    0 -0.98048635850E+01 -0.48567511099E+02 -0.91303080512E+01  0.50381554258E+02  0.00000000000E+00 0.  1.
         11    1    1    2    0    0  0.94295820453E+02 -0.48320608526E+02  0.21928186302E+02  0.10820087023E+03  0.00000000000E+00 0. -1.
</event>
<event>
 7    1  0.2714042E-009  0.3333048E+03  0.7561462E-02  0.1069684E+00
          2   -1    0    0  501    0  0.00000000000E+00  0.00000000000E+00  0.58726442413E+02  0.58726442413E+02  0.00000000000E+00 0. -1.
         -2   -1    0    0    0  501 -0.00000000000E+00 -0.00000000000E+00 -0.19570579619E+04  0.19570579619E+04  0.00000000000E+00 0.  1.
         25    2    1    2    0    0  0.28923581687E+03  0.13356274977E+03 -0.85867867466E+03  0.92437668888E+03  0.12508729248E+03 0.  0.
          5    1    3    3  502    0  0.20037867232E+03  0.14203857912E+03 -0.70544323031E+03  0.74699008954E+03  0.41800000000E+01 0.  1.
         -5    1    3    3    0  502  0.88857144542E+02 -0.84758293562E+01 -0.15323544436E+03  0.17738659935E+03  0.41800000000E+01 0.  1.
        -11    1    1    2    0    0 -0.15449439516E+03 -0.12107043420E+03 -0.58560869311E+03  0.61762780833E+03  0.00000000000E+00 0.  1.
         11    1    1    2    0    0 -0.13474142170E+03 -0.12492315571E+02 -0.45404415174E+03  0.47377990713E+03  0.00000000000E+00 0. -1.
</event>
<event>
 7    1  0.2912542E-009  0.8335962E+02  0.7561462E-02  0.1319779E+00
         -1   -1    0    0    0  501 -0.00000000000E+00  0.00000000000E+00  0.21777773823E+03  0.21777773823E+03  0.00000000000E+00 0.  1.
          1   -1    0    0  501    0  0.00000000000E+00 -0.00000000000E+00 -0.83759661223E+02  0.83759661223E+02  0.00000000000E+00 0. -1.
         25    2    1    2    0    0 -0.23211238704E+02  0.15156651076E+02  0.15715606949E+03  0.20276280505E+03  0.12508492820E+03 0.  0.
          5    1    3    3  502    0  0.38092875365E+02  0.63599990100E+01  0.12878033770E+03  0.13451157764E+03  0.41800000000E+01 0.  1.
         -5    1    3    3    0  502 -0.61304114068E+02  0.87966520656E+01  0.28375731789E+02  0.68251227416E+02  0.41800000000E+01 0.  1.
        -11    1    1    2    0    0 -0.20177565468E+02 -0.11631084859E+01  0.25217040441E+02  0.32316963010E+02  0.00000000000E+00 0.  1.
         11    1    1    2    0    0  0.43388804171E+02 -0.13993542590E+02 -0.48355032919E+02  0.66457631392E+02  0.00000000000E+00 0. -1.
</event>
<event>
 7    1  0.2714042E-009  0.1154600E+03  0.7561462E-02  0.1250780E+00
          4   -1    0    0  501    0  0.00000000000E+00  0.00000000000E+00  0.51653991047E+02  0.51653991047E+02  0.00000000000E+00 0. -1.
         -4   -1    0    0    0  501 -0.00000000000E+00 -0.00000000000E+00 -0.49036545789E+03  0.49036545789E+03  0.00000000000E+00 0.  1.
         25    2    1    2    0    0 -0.62675233753E+02  0.13397009354E+02 -0.39883518283E+03  0.42287659316E+03  0.12508974853E+03 0.  0.
          5    1    3    3  502    0 -0.44148530466E+02  0.63854145805E+02 -0.15812691300E+03  0.17620453369E+03  0.41800000000E+01 0. -1.
         -5    1    3    3    0  502 -0.18526703286E+02 -0.50457136451E+02 -0.24070826984E+03  0.24667205947E+03  0.41800000000E+01 0. -1.
        -11    1    1    2    0    0  0.75921076237E+02  0.55752446323E+01 -0.37198604389E+01  0.76216340318E+02  0.00000000000E+00 0. -1.
         11    1    1    2    0    0 -0.13245842485E+02 -0.18972253986E+02 -0.36156423574E+02  0.42926515466E+02  0.00000000000E+00 0.  1.
</event>
<event>
 7    1  0.2714042E-009  0.1600936E+03  0.7561462E-02  0.1188591E+00
          2   -1    0    0  501    0  0.00000000000E+00  0.00000000000E+00  0.71116936557E+03  0.71116936557E+03  0.00000000000E+00 0.  1.
         -2   -1    0    0    0  501 -0.00000000000E+00 -0.00000000000E+00 -0.54975805074E+02  0.54975805074E+02  0.00000000000E+00 0. -1.
         25    2    1    2    0    0  0.13595427261E+03 -0.78071621722E+01  0.16352123846E+03  0.24684071490E+03  0.12508647842E+03 0.  0.
          5    1    3    3  502    0 -0.12448542209E+02 -0.14137824527E+01  0.70059283614E+02  0.71293341937E+02  0.41800000000E+01 0.  1.
         -5    1    3    3    0  502  0.14840281482E+03 -0.63933797194E+01  0.93461954847E+02  0.17554737296E+03  0.41800000000E+01 0.  1.
        -11    1    1    2    0    0 -0.13381065370E+03 -0.15742361947E+02  0.45746178385E+03  0.47689034031E+03  0.00000000000E+00 0.  1.
         11    1    1    2    0    0 -0.21436189081E+01  0.23549524119E+02  0.35210538186E+02  0.42414115429E+02  0.00000000000E+00 0. -1.
</event>
<event>
 7    1  0.2714042E-009  0.8236832E+02  0.7561462E-02  0.1322462E+00
         -1   -1    0    0    0  501 -0.00000000000E+00  0.00000000000E+00  0.14528495116E+03  0.14528495116E+03  0.00000000000E+00 0.  1.
          1   -1    0    0  501    0  0.00000000000E+00 -0.00000000000E+00 -0.90286788110E+02  0.90286788110E+02  0.00000000000E+00 0. -1.
         25    2    1    2    0    0 -0.29454143632E+02  0.17868773492E+02  0.27335672926E+02  0.13259550724E+03  0.12508992718E+03 0.  0.
          5    1    3    3  502    0  0.33394411518E+02 -0.10875759050E+02  0.48654387124E+02  0.60151397672E+02  0.41800000000E+01 0.  1.
         -5    1    3    3    0  502 -0.62848555151E+02  0.28744532542E+02 -0.21318714198E+02  0.72444109565E+02  0.41800000000E+01 0.  1.
        -11    1    1    2    0    0  0.66117386405E+01  0.17116780941E+02 -0.27938852234E+02  0.33425719764E+02  0.00000000000E+00 0. -1.
         11    1    1    2    0    0  0.22842404992E+02 -0.34985554433E+02  0.55601342358E+02  0.69550512269E+02  0.00000000000E+00 0.  1.
</event>
<event>
 7    1  0.2714042E-009  0.1077728E+03  0.7561462E-02  0.1264751E+00
          3   -1    0    0  501    0  0.00000000000E+00  0.00000000000E+00  0.51015889780E+03  0.51015889780E+03  0.00000000000E+00 0. -1.
         -3   -1    0    0    0  501 -0.00000000000E+00 -0.00000000000E+00 -0.32895954966E+02  0.32895954966E+02  0.00000000000E+00 0.  1.
         25    2    1    2    0    0 -0.38402868735E+01 -0.69325212738E+02  0.24139258686E+03  0.28060770350E+03  0.12509823879E+03 0.  0.
          5    1    3    3  502    0  0.18721791287E+02  0.18481905622E+02  0.14801404460E+03  0.15039187512E+03  0.41800000000E+01 0.  1.
         -5    1    3    3    0  502 -0.22562078160E+02 -0.87807118360E+02  0.93378542258E+02  0.13021582838E+03  0.41800000000E+01 0.  1.
        -11    1    1    2    0    0 -0.31972345865E+02  0.22026949084E+02  0.32602586559E+02  0.50698580221E+02  0.00000000000E+00 0.  1.
         11    1    1    2    0    0  0.35812632739E+02  0.47298263654E+02  0.20326776942E+03  0.21174856904E+03  0.00000000000E+00 0. -1.
</event>
<event>
 7    1  0.2714042E-009  0.1019930E+03  0.7561462E-02  0.1276160E+00
         -1   -1    0    0    0  501 -0.00000000000E+00  0.00000000000E+00  0.23186926638E+03  0.23186926638E+03  0.00000000000E+00 0.  1.
          1   -1    0    0  501    0  0.00000000000E+00 -0.00000000000E+00 -0.54704279729E+02  0.54704279729E+02  0.00000000000E+00 0. -1.
         25    2    1    2    0    0 -0.36258188708E+02  0.33116061432E+02  0.12094067779E+03  0.18079200964E+03  0.12509106057E+03 0.  0.
          5    1    3    3  502    0 -0.81040504445E+02  0.28268241287E+02  0.97077499503E+02  0.12964632712E+03  0.41800000000E+01 0. -1.
         -5    1    3    3    0  502  0.44782315737E+02  0.48478201445E+01  0.23863178284E+02  0.51145682523E+02  0.41800000000E+01 0. -1.
        -11    1    1    2    0    0  0.24381480616E+02  0.11277093390E+02 -0.68681706503E+01  0.27727264568E+02  0.00000000000E+00 0.  1.
         11    1    1    2    0    0  0.11876708093E+02 -0.44393154821E+02  0.63092479512E+02  0.78054271895E+02  0.00000000000E+00 0. -1.
</event>
<event>
 7    1  0.2714042E-009  0.1681846E+03  0.7561462E-02  0.1179754E+00
          1   -1    0    0  501    0  0.00000000000E+00  0.00000000000E+00  0.43237651890E+03  0.43237651890E+03  0.00000000000E+00 0. -1.
         -1   -1    0    0    0  501 -0.00000000000E+00 -0.00000000000E+00 -0.91326598841E+02  0.91326598841E+02  0.00000000000E+00 0.  1.
         25    2    1    2    0    0  0.15672223760E+03 -0.47025223713E+02  0.13997939623E+03  0.24902489827E+03  0.12508372062E+03 0.  0.
          5    1    3    3  502    0  0.89893492034E+02 -0.82477716817E+01  0.14568617651E+03  0.17143745237E+03  0.41800000000E+01 0. -1.
         -5    1    3    3    0  502  0.66828745566E+02 -0.38777452032E+02 -0.57067802839E+01  0.77587445900E+02  0.41800000000E+01 0. -1.
        -11    1    1    2    0    0 -0.13254061336E+03  0.22971819426E+02  0.19939880924E+03  0.24052983974E+03  0.00000000000E+00 0. -1.
         11    1    1    2    0    0 -0.24181624236E+02  0.24053404288E+02  0.16717145885E+01  0.34148379730E+02  0.00000000000E+00 0.  1.
</event>
<event>
 7    1  0.2714042E-009  0.5253075E+02  0.7561462E-02  0.1432151E+00
         -1   -1    0    0    0  501 -0.00000000000E+00  0.00000000000E+00  0.20409245250E+03  0.20409245250E+03  0.00000000000E+00 0.  1.
          1   -1    0    0  501    0  0.00000000000E+00 -0.00000000000E+00 -0.83447318826E+02  0.83447318826E+02  0.00000000000E+00 0. -1.
         25    2    1    2    0    0 -0.57891275715E+01 -0.22463810658E+02 -0.89274701013E+01  0.12753628085E+03  0.12509063283E+03 0.  0.
          5    1    3    3  502    0  0.50409703664E+01  0.84596330855E+01  0.54758743126E+02  0.55793988233E+02  0.41800000000E+01 0. -1.
         -5    1    3    3    0  502 -0.10830097938E+02 -0.30923443743E+02 -0.63686213227E+02  0.71742292614E+02  0.41800000000E+01 0. -1.
        -11    1    1    2    0    0 -0.19989140553E+02  0.28543980552E+02  0.12888090721E+03  0.13350884918E+03  0.00000000000E+00 0. -1.
         11    1    1    2    0    0  0.25778268125E+02 -0.60801698940E+01  0.69169656501E+00  0.26494641300E+02  0.00000000000E+00 0.  1.
</event>
<event>
 7    1  0.2714042E-009  0.1761594E+03  0.7561462E-02  0.1171573E+00
          3   -1    0    0  501    0  0.00000000000E+00  0.00000000000E+00  0.74319240097E+03  0.74319240097E+03  0.00000000000E+00 0. -1.
         -3   -1    0    0    0  501 -0.00000000000E+00 -0.00000000000E+00 -0.48649869796E+02  0.48649869796E+02  0.00000000000E+00 0.  1.
         25    2    1    2    0    0 -0.14882355470E+03 -0.46753849644E+02  0.40715766903E+03  0.45360897437E+03  0.12509740720E+03 0.  0.
          5    1    3    3  502    0 -0.13866744815E+03 -0.13963870507E+02  0.20133645836E+03  0.24490302717E+03  0.41800000000E+01 0.  1.
         -5    1    3    3    0  502 -0.10156106556E+02 -0.32789979137E+02  0.20582121067E+03  0.20870594719E+03  0.41800000000E+01 0.  1.
        -11    1    1    2    0    0  0.16043007851E+03  0.44449474565E+02  0.26621898446E+03  0.31398425688E+03  0.00000000000E+00 0. -1.
         11    1    1    2    0    0 -0.11606523808E+02  0.23043750790E+01  0.21165877689E+02  0.24249039523E+02  0.00000000000E+00 0.  1.
</event>
<event>
 7    1  0.2714042E-009  0.8698114E+02  0.7561462E-02  0.1310331E+00
         -2   -1    0    0    0  501 -0.00000000000E+00  0.00000000000E+00  0.51011215975E+02  0.51011215975E+02  0.00000000000E+00 0.  1.
          2   -1    0    0  501    0  0.00000000000E+00 -0.00000000000E+00 -0.26191135198E+03  0.26191135198E+03  0.00000000000E+00 0. -1.
         25    2    1    2    0    0  0.18547300804E+02  0.31687978999E+02 -0.78041059889E+02  0.15194019495E+03  0.12508910997E+03 0.  0.
          5    1    3    3  502    0  0.38611689384E+01 -0.41094279619E+02  0.34346760794E+01  0.41628329810E+02  0.41800000000E+01 0. -1.
         -5    1    3    3    0  502  0.14686131866E+02  0.72782258618E+02 -0.81475735968E+02  0.11031186514E+03  0.41800000000E+01 0. -1.
        -11    1    1    2    0    0 -0.29620885955E+02 -0.61204774144E+01 -0.56652634396E+01  0.30772590700E+02  0.00000000000E+00 0.  1.
         11    1    1    2    0    0  0.11073585150E+02 -0.25567501585E+02 -0.12719381267E+03  0.13020978230E+03  0.00000000000E+00 0. -1.
</event>
<event>
 7    1  0.2714042E-009  0.1329383E+03  0.7561462E-02  0.1223160E+00
         -1   -1    0    0    0  501 -0.00000000000E+00  0.00000000000E+00  0.21030170364E+02  0.21030170364E+02  0.00000000000E+00 0.  1.
          1   -1    0    0  501    0  0.00000000000E+00 -0.00000000000E+00 -0.12384349828E+04  0.12384349828E+04  0.00000000000E+00 0. -1.
         25    2    1    2    0    0 -0.11415188888E+03  0.52030559360E+01 -0.52167663438E+03  0.54850116815E+03  0.12509714259E+03 0.  0.
          5    1    3    3  502    0 -0.11183281917E+03 -0.15392682168E+02 -0.51358626884E+03  0.52586294987E+03  0.41800000000E+01 0.  1.
         -5    1    3    3    0  502 -0.23190697174E+01  0.20595738104E+02 -0.80903655346E+01  0.22638218280E+02  0.41800000000E+01 0.  1.
        -11    1    1    2    0    0 -0.34452677669E+01  0.12392657216E+02 -0.14277196645E+02  0.19216819895E+02  0.00000000000E+00 0.  1.
         11    1    1    2    0    0  0.11759715665E+03 -0.17595713152E+02 -0.68145098145E+03  0.69174716515E+03  0.00000000000E+00 0. -1.
</event>
<event>
 7    1  0.2714042E-009  0.8953822E+02  0.7561462E-02  0.1303974E+00
          2   -1    0    0  501    0  0.00000000000E+00  0.00000000000E+00  0.29653743945E+03  0.29653743945E+03  0.00000000000E+00 0. -1.
         -2   -1    0    0    0  501 -0.00000000000E+00 -0.00000000000E+00 -0.63481286233E+02  0.63481286233E+02  0.00000000000E+00 0.  1.
         25    2    1    2    0    0  0.13761807587E+01 -0.23036578084E+02  0.21484039803E+03  0.24967199456E+03  0.12508849044E+03 0.  0.
          5    1    3    3  502    0  0.54674577970E+02 -0.14204396136E+02  0.17047710496E+03  0.17964128162E+03  0.41800000000E+01 0. -1.
         -5    1    3    3    0  502 -0.53298397211E+02 -0.88321819481E+01  0.44363293063E+02  0.70030712938E+02  0.41800000000E+01 0. -1.
        -11    1    1    2    0    0  0.81092923740E+01 -0.21359785184E+02 -0.34120835330E+02  0.41063760782E+02  0.00000000000E+00 0.  1.
         11    1    1    2    0    0 -0.94854731327E+01  0.44396363268E+02  0.52336590517E+02  0.69282970339E+02  0.00000000000E+00 0. -1.
</event>
<event>
 7    1  0.2714042E-009  0.2904909E+03  0.7561462E-02  0.1090093E+00
          1   -1    0    0  501    0  0.00000000000E+00  0.00000000000E+00  0.66853883835E+03  0.66853883835E+03  0.00000000000E+00 0. -1.
         -1   -1    0    0    0  501 -0.00000000000E+00 -0.00000000000E+00 -0.12798312559E+03  0.12798312559E+03  0.00000000000E+00 0.  1.
         25    2    1    2    0    0 -0.23488573520E+03  0.13166245797E+03  0.32045554908E+03  0.43685734989E+03  0.12508506619E+03 0.  0.
          5    1    3    3  502    0 -0.18606685417E+03  0.36199564794E+02  0.20502907813E+03  0.27925915919E+03  0.41800000000E+01 0. -1.
         -5    1    3    3    0  502 -0.48818881028E+02  0.95462893172E+02  0.11542647095E+03  0.15759819070E+03  0.41800000000E+01 0. -1.
        -11    1    1    2    0    0  0.58806400614E+02  0.79815247564E+01  0.38615130596E+02  0.70802724535E+02  0.00000000000E+00 0. -1.
         11    1    1    2    0    0  0.17607933458E+03 -0.13964398272E+03  0.18148503310E+03  0.28886188952E+03  0.00000000000E+00 0.  1.
</event>
<event>
 7    1  0.2714042E-009  0.1398218E+03  0.7561462E-02  0.1213569E+00
          2   -1    0    0  501    0  0.00000000000E+00  0.00000000000E+00  0.10444717847E+03  0.10444717847E+03  0.00000000000E+00 0. -1.
         -2   -1    0    0    0  501 -0.00000000000E+00 -0.00000000000E+00 -0.29635522305E+03  0.29635522305E+03  0.00000000000E+00 0.  1.
         25    2    1    2    0    0  0.76517902966E+02  0.87048622533E+02 -0.19301982826E+03  0.25755389810E+03  0.12507959131E+03 0.  0.
          5    1    3    3  502    0  0.17072234944E+02 -0.25062574662E+02 -0.55110970787E+01  0.31103672544E+02  0.41800000000E+01 0.  1.
         -5    1    3    3    0  502  0.59445668022E+02  0.11211119719E+03 -0.18750873118E+03  0.22645022555E+03  0.41800000000E+01 0.  1.
        -11    1    1    2    0    0 -0.68784107398E+02 -0.52141607598E+02 -0.34344325229E+02  0.92895281629E+02  0.00000000000E+00 0.  1.
         11    1    1    2    0    0 -0.77337955682E+01 -0.34907014935E+02  0.35456108919E+02  0.50353221797E+02  0.00000000000E+00 0. -1.
</event>
<event>
 7    1  0.2714042E-009  0.1635461E+03  0.7561462E-02  0.1184750E+00
         -1   -1    0    0    0  501 -0.00000000000E+00  0.00000000000E+00  0.28914602571E+02  0.28914602571E+02  0.00000000000E+00 0.  1.
          1   -1    0    0  501    0  0.00000000000E+00 -0.00000000000E+00 -0.12226212663E+04  0.12226212663E+04  0.00000000000E+00 0. -1.
         25    2    1    2    0    0  0.93582612631E+00 -0.12279843309E+03 -0.93023138330E+03  0.94660335160E+03  0.12508856004E+03 0.  0.
          5    1    3    3  502    0  0.62174284406E+02 -0.69767402186E+02 -0.53800258550E+03  0.54607452463E+03  0.41800000000E+01 0.  1.
         -5    1    3    3    0  502 -0.61238458280E+02 -0.53031030900E+02 -0.39222879780E+03  0.40052882697E+03  0.41800000000E+01 0.  1.
        -11    1    1    2    0    0 -0.45087946789E+02  0.73719724410E+02 -0.13125363994E+03  0.15714655169E+03  0.00000000000E+00 0.  1.
         11    1    1    2    0    0  0.44152120663E+02  0.49078708676E+02 -0.13222164045E+03  0.14778596553E+03  0.00000000000E+00 0. -1.
</event>
<event>
 7    1  0.2714042E-009  0.1128563E+03  0.7561462E-02  0.1255370E+00
          1   -1    0    0  501    0  0.00000000000E+00  0.00000000000E+00  0.59434753275E+03  0.59434753275E+03  0.00000000000E+00 0. -1.
         -1   -1    0    0    0  501 -0.00000000000E+00 -0.00000000000E+00 -0.32451035595E+02  0.32451035595E+02  0.00000000000E+00 0.  1.
         25    2    1    2    0    0  0.63264711339E+02 -0.14781487359E+02  0.45773640293E+03  0.47894776447E+03  0.12508968965E+03 0.  0.
          5    1    3    3  502    0  0.70375564207E+02  0.42065679632E+02  0.23514793532E+03  0.24906678888E+03  0.41800000000E+01 0.  1.
         -5    1    3    3    0  502 -0.71108528682E+01 -0.56847166991E+02  0.22258846761E+03  0.22988097559E+03  0.41800000000E+01 0.  1.
        -11    1    1    2    0    0 -0.10495089230E+02  0.29565467349E+02  0.83645381924E+02  0.89335399897E+02  0.00000000000E+00 0. -1.
         11    1    1    2    0    0 -0.52769622108E+02 -0.14783979990E+02  0.20514712301E+02  0.58515403977E+02  0.00000000000E+00 0.  1.
</event>
<event>
 7    1  0.2714042E-009  0.1593643E+03  0.7561462E-02  0.1189416E+00
         -2   -1    0    0    0  501 -0.00000000000E+00  0.00000000000E+00  0.42009459409E+02  0.42009459409E+02  0.00000000000E+00 0. -1.
          2   -1    0    0  501    0  0.00000000000E+00 -0.00000000000E+00 -0.63668329263E+03  0.63668329263E+03  0.00000000000E+00 0.  1.
         25    2    1    2    0    0  0.79180336820E+02 -0.88787815530E+02 -0.37876467158E+03  0.41624726250E+03  0.12508519168E+03 0.  0.
          5    1    3    3  502    0 -0.78765789683E+01 -0.84037421261E+02 -0.20671267291E+03  0.22332024138E+03  0.41800000000E+01 0. -1.
         -5    1    3    3    0  502  0.87056915788E+02 -0.47503942687E+01 -0.17205199867E+03  0.19292702112E+03  0.41800000000E+01 0. -1.
        -11    1    1    2    0    0 -0.50301303621E+02  0.10308928553E+03 -0.18571933427E+03  0.21828718025E+03  0.00000000000E+00 0.  1.
         11    1    1    2    0    0 -0.28879033199E+02 -0.14301470003E+02 -0.30189827365E+02  0.44158309287E+02  0.00000000000E+00 0. -1.
</event>
<event>
 7    1  0.2714042E-009  0.7492262E+02  0.7561462E-02  0.1344111E+00
         -4   -1    0    0    0  501 -0.00000000000E+00  0.00000000000E+00  0.42925512159E+02  0.42925512159E+02  0.00000000000E+00 0.  1.
          4   -1    0    0  501    0  0.00000000000E+00 -0.00000000000E+00 -0.39374431912E+03  0.39374431912E+03  0.00000000000E+00 0. -1.
         25    2    1    2    0    0  0.59304112413E+02 -0.13681713085E+02 -0.26114474971E+03  0.29588406021E+03  0.12508648913E+03 0.  0.
          5    1    3    3  502    0  0.24947716190E+02  0.47020156338E+01 -0.25490621139E+03  0.25620137880E+03  0.41800000000E+01 0.  1.
         -5    1    3    3    0  502  0.34356396223E+02 -0.18383728719E+02 -0.62385383155E+01  0.39682681403E+02  0.41800000000E+01 0.  1.
        -11    1    1    2    0    0 -0.42516053735E+01 -0.19961113161E+02 -0.70624019039E+02  0.73513769133E+02  0.00000000000E+00 0.  1.
         11    1    1    2    0    0 -0.55052507039E+02  0.33642826245E+02 -0.19050038215E+02  0.67272001940E+02  0.00000000000E+00 0. -1.
</event>
<event>
 7    1  0.2714042E-009  0.9482924E+02  0.7561462E-02  0.1291561E+00
          2   -1    0    0  501    0  0.00000000000E+00  0.00000000000E+00  0.48825663718E+03  0.48825663718E+03  0.00000000000E+00 0. -1.
         -2   -1    0    0    0  501 -0.00000000000E+00 -0.00000000000E+00 -0.28783082677E+02  0.28783082677E+02  0.00000000000E+00 0.  1.
         25    2    1    2    0    0 -0.16095085674E+02 -0.29858580865E+02  0.31833255881E+03  0.34370567440E+03  0.12508951188E+03 0.  0.
          5    1    3    3  502    0  0.27536937190E+02  0.35035115537E+02  0.67977335897E+02  0.81388775799E+02  0.41800000000E+01 0. -1.
         -5    1    3    3    0  502 -0.43632022864E+02 -0.64893696402E+02  0.25035522291E+03  0.26231689860E+03  0.41800000000E+01 0. -1.
        -11    1    1    2    0    0  0.27451650696E+02  0.41866437179E+02  0.14739310110E+03  0.15566347658E+03  0.00000000000E+00 0. -1.
         11    1    1    2    0    0 -0.11356565022E+02 -0.12007856313E+02 -0.62521054109E+01  0.17670568876E+02  0.00000000000E+00 0.  1.
</event>
<event>
 7    1  0.2714042E-009  0.1665776E+03  0.7561462E-02  0.1181465E+00
         -1   -1    0    0    0  501 -0.00000000000E+00  0.00000000000E+00  0.31929726725E+02  0.31929726725E+02  0.00000000000E+00 0.  1.
          1   -1    0    0  501    0  0.00000000000E+00 -0.00000000000E+00 -0.13144427877E+04  0.13144427877E+04  0.00000000000E+00 0. -1.
         25    2    1    2    0    0 -0.31004914718E+02  0.13643482972E+03 -0.10073670049E+04  0.10247009309E+04  0.12509175730E+03 0.  0.
          5    1    3    3  502    0  0.42241229461E+02  0.76103774698E+02 -0.35965414094E+03  0.37006037275E+03  0.41800000000E+01 0. -1.
         -5    1    3    3    0  502 -0.73246144180E+02  0.60331055018E+02 -0.64771286393E+03  0.65464055812E+03  0.41800000000E+01 0. -1.
        -11    1    1    2    0    0 -0.14266850581E+02 -0.64301031004E+02 -0.55629013835E+02  0.86213414234E+02  0.00000000000E+00 0.  1.
         11    1    1    2    0    0  0.45271765299E+02 -0.72133798713E+02 -0.21951704231E+03  0.23545816935E+03  0.00000000000E+00 0. -1.
</event>
<event>
 7    1  0.2714042E-009  0.1843876E+03  0.7561462E-02  0.1163623E+00
         -1   -1    0    0    0  501 -0.00000000000E+00  0.00000000000E+00  0.25740838654E+02  0.25740838654E+02  0.00000000000E+00 0.  1.
          1   -1    0    0  501    0  0.00000000000E+00 -0.00000000000E+00 -0.15527314027E+04  0.15527314027E+04  0.00000000000E+00 0. -1.
         25    2    1    2    0    0 -0.11835467125E+03  0.11519913026E+03 -0.69906676685E+03  0.72912492099E+03  0.12510051186E+03 0.  0.
          5    1    3    3  502    0 -0.10720103347E+02  0.78223884709E+02 -0.42576913735E+03  0.43304818147E+03  0.41800000000E+01 0. -1.
         -5    1    3    3    0  502 -0.10763456791E+03  0.36975245551E+02 -0.27329762950E+03  0.29607673952E+03  0.41800000000E+01 0. -1.
        -11    1    1    2    0    0  0.34734338736E+02 -0.16052045702E+01 -0.67262734446E+02  0.75718732255E+02  0.00000000000E+00 0.  1.
         11    1    1    2    0    0  0.83620332516E+02 -0.11359392569E+03 -0.76066106274E+03  0.77362858811E+03  0.00000000000E+00 0. -1.
</event>
<event>
 7    1  0.2714042E-009  0.1492639E+03  0.7561462E-02  0.1201380E+00
         -1   -1    0    0    0  501 -0.00000000000E+00  0.00000000000E+00  0.52774047322E+02  0.52774047322E+02  0.00000000000E+00 0.  1.
          1   -1    0    0  501    0  0.00000000000E+00 -0.00000000000E+00 -0.57830761015E+03  0.57830761015E+03  0.00000000000E+00 0. -1.
         25    2    1    2    0    0  0.12575418287E+03 -0.25812464726E+02 -0.36385774312E+03  0.40560658096E+03  0.12507535108E+03 0.  0.
          5    1    3    3  502    0  0.96311221582E+02  0.26039815549E+02 -0.30804550746E+03  0.32382623498E+03  0.41800000000E+01 0.  1.
         -5    1    3    3    0  502  0.29442961289E+02 -0.51852280276E+02 -0.55812235661E+02  0.81780345981E+02  0.41800000000E+01 0.  1.
        -11    1    1    2    0    0 -0.38172802043E+02 -0.16551846249E+02 -0.61967033845E+01  0.42065729078E+02  0.00000000000E+00 0.  1.
         11    1    1    2    0    0 -0.87581380829E+02  0.42364310976E+02 -0.15547911632E+03  0.18340934743E+03  0.00000000000E+00 0. -1.
</event>
<event>
 7    1  0.2714042E-009  0.1715989E+03  0.7561462E-02  0.1176191E+00
         -1   -1    0    0    0  501 -0.00000000000E+00  0.00000000000E+00  0.31147560421E+02  0.31147560421E+02  0.00000000000E+00 0.  1.
          1   -1    0    0  501    0  0.00000000000E+00 -0.00000000000E+00 -0.11053700802E+04  0.11053700802E+04  0.00000000000E+00 0. -1.
         25    2    1    2    0    0 -0.83768480100E+02  0.11883410837E+03 -0.44326256661E+03  0.48297824994E+03  0.12509030091E+03 0.  0.
          5    1    3    3  502    0  0.23278613531E+02  0.58786761912E+02 -0.21013582825E+03  0.21948192623E+03  0.41800000000E+01 0. -1.
         -5    1    3    3    0  502 -0.10704709363E+03  0.60047346458E+02 -0.23312673836E+03  0.26349632371E+03  0.41800000000E+01 0. -1.
        -11    1    1    2    0    0  0.73165732465E+02 -0.53013507716E+02 -0.48121401707E+03  0.48962290248E+03  0.00000000000E+00 0. -1.
         11    1    1    2    0    0  0.10602747635E+02 -0.65820600654E+02 -0.14974593610E+03  0.16391648821E+03  0.00000000000E+00 0.  1.
</event>
<event>
 7    1  0.2714042E-009  0.1191787E+03  0.7561462E-02  0.1244458E+00
         -3   -1    0    0    0  501 -0.00000000000E+00  0.00000000000E+00  0.60747279219E+02  0.60747279219E+02  0.00000000000E+00 0. -1.
          3   -1    0    0  501    0  0.00000000000E+00 -0.00000000000E+00 -0.34273780749E+03  0.34273780749E+03  0.00000000000E+00 0.  1.
         25    2    1    2    0    0  0.75768259059E+02  0.21273874351E+02 -0.84632033886E+02  0.17030307942E+03  0.12508857218E+03 0.  0.
          5    1    3    3  502    0  0.51437892983E+02 -0.35568102399E+02 -0.88231109296E+02  0.10822729688E+03  0.41800000000E+01 0. -1.
         -5    1    3    3    0  502  0.24330366076E+02  0.56841976750E+02  0.35990754099E+01  0.62075782541E+02  0.41800000000E+01 0. -1.
        -11    1    1    2    0    0  0.34988546863E+01  0.22763306656E+02 -0.10148925984E+02  0.25167654096E+02  0.00000000000E+00 0.  1.
         11    1    1    2    0    0 -0.79267113745E+02 -0.44037181007E+02 -0.18720956840E+03  0.20801435319E+03  0.00000000000E+00 0. -1.
</event>
<event>
 7    1  0.2714042E-009  0.2741430E+03  0.7561462E-02  0.1098932E+00
          1   -1    0    0  501    0  0.00000000000E+00  0.00000000000E+00  0.31965129497E+03  0.31965129497E+03  0.00000000000E+00 0. -1.
         -1   -1    0    0    0  501 -0.00000000000E+00 -0.00000000000E+00 -0.28023311436E+03  0.28023311436E+03  0.00000000000E+00 0.  1.
         25    2    1    2    0    0 -0.25200285832E+03 -0.10381846278E+03 -0.39700568030E+02  0.30250398212E+03  0.12509520486E+03 0.  0.
          5    1    3    3  502    0 -0.24384719320E+03 -0.95053538680E+02 -0.68901269360E+02  0.27066859102E+03  0.41800000000E+01 0. -1.
         -5    1    3    3    0  502 -0.81556651212E+01 -0.87649241044E+01  0.29200701330E+02  0.31835391097E+02  0.41800000000E+01 0. -1.
        -11    1    1    2    0    0  0.12647787380E+03  0.66517726454E+02 -0.27779885546E+01  0.14292997486E+03  0.00000000000E+00 0.  1.
         11    1    1    2    0    0  0.12552498452E+03  0.37300736330E+02  0.81896737188E+02  0.15445045235E+03  0.00000000000E+00 0. -1.
</event>
<event>
 7    1  0.2714042E-009  0.1387330E+03  0.7561462E-02  0.1215044E+00
         -2   -1    0    0    0  501 -0.00000000000E+00  0.00000000000E+00  0.39027098145E+03  0.39027098145E+03  0.00000000000E+00 0.  1.
          2   -1    0    0  501    0  0.00000000000E+00 -0.00000000000E+00 -0.67362512605E+02  0.67362512605E+02  0.00000000000E+00 0. -1.
         25    2    1    2    0    0 -0.60721952686E+02 -0.85754388468E+02  0.90439792759E+02  0.18673096456E+03  0.12509247112E+03 0.  0.
          5    1    3    3  502    0 -0.12505109001E+02 -0.10558367948E+03  0.80663175034E+02  0.13352269968E+03  0.41800000000E+01 0. -1.
         -5    1    3    3    0  502 -0.48216843686E+02  0.19829291010E+02  0.97766177254E+01  0.53208264876E+02  0.41800000000E+01 0. -1.
        -11    1    1    2    0    0  0.35917241109E+01  0.52567436514E+02  0.17687113518E+03  0.18455252457E+03  0.00000000000E+00 0.  1.
         11    1    1    2    0    0  0.57130228575E+02  0.33186951954E+02  0.55597540903E+02  0.86350004931E+02  0.00000000000E+00 0. -1.
</event>
<event>
 7    1  0.2714042E-009  0.1897204E+03  0.7561462E-02  0.1158714E+00
          2   -1    0    0  501    0  0.00000000000E+00  0.00000000000E+00  0.31322236182E+03  0.31322236182E+03  0.00000000000E+00 0. -1.
         -2   -1    0    0    0  501 -0.00000000000E+00 -0.00000000000E+00 -0.12752305140E+03  0.12752305140E+03  0.00000000000E+00 0.  1.
         25    2    1    2    0    0  0.84301602632E+01 -0.17083879855E+03  0.72388466567E+02  0.22392998827E+03  0.12509031482E+03 0.  0.
          5    1    3    3  502    0  0.32863816832E+01  0.17257442168E+02  0.23192664361E+02  0.29393735641E+02  0.41800000000E+01 0. -1.
         -5    1    3    3    0  502  0.51437785800E+01 -0.18809624072E+03  0.49195802205E+02  0.19453625263E+03  0.41800000000E+01 0. -1.
        -11    1    1    2    0    0 -0.89630463761E+01  0.16073152189E+02 -0.81022741149E+01  0.20107940408E+02  0.00000000000E+00 0.  1.
         11    1    1    2    0    0  0.53288611288E+00  0.15476564636E+03  0.12141311796E+03  0.19670748454E+03  0.00000000000E+00 0. -1.
</event>
<event>
 7    1  0.2714042E-009  0.1127091E+03  0.7561462E-02  0.1255634E+00
         -1   -1    0    0    0  501 -0.00000000000E+00  0.00000000000E+00  0.38846809662E+03  0.38846809662E+03  0.00000000000E+00 0.  1.
          1   -1    0    0  501    0  0.00000000000E+00 -0.00000000000E+00 -0.40696541335E+02  0.40696541335E+02  0.00000000000E+00 0. -1.
         25    2    1    2    0    0 -0.87337913611E+01  0.59328062754E+02  0.27339919532E+03  0.30657851730E+03  0.12508864508E+03 0.  0.
          5    1    3    3  502    0  0.36916040548E+02 -0.15494585549E+02  0.14902419226E+03  0.15436501711E+03  0.41800000000E+01 0.  1.
         -5    1    3    3    0  502 -0.45649831909E+02  0.74822648303E+02  0.12437500306E+03  0.15221350019E+03  0.41800000000E+01 0.  1.
        -11    1    1    2    0    0 -0.16498754375E+02  0.12877040897E+02  0.17280636781E+02  0.27141250629E+02  0.00000000000E+00 0.  1.
         11    1    1    2    0    0  0.25232545736E+02 -0.72205103651E+02  0.57091723183E+02  0.95444870022E+02  0.00000000000E+00 0. -1.
</event>
<event>
 7    1  0.2714042E-009  0.2196914E+03  0.7561462E-02  0.1134113E+00
         -1   -1    0    0    0  501 -0.00000000000E+00  0.00000000000E+00  0.84520152785E+03  0.84520152785E+03  0.00000000000E+00 0.  1.
          1   -1    0    0  501    0  0.00000000000E+00 -0.00000000000E+00 -0.72873583539E+02  0.72873583539E+02  0.00000000000E+00 0. -1.
         25    2    1    2    0    0  0.11694440250E+03  0.17048568336E+03  0.24388296150E+03  0.34331875319E+03  0.12508999112E+03 0.  0.
          5    1    3    3  502    0  0.96230870033E+01  0.88809065839E+02  0.38012575558E+02  0.97170377581E+02  0.41800000000E+01 0. -1.
         -5    1    3    3    0  502  0.10732131550E+03  0.81676617517E+02  0.20587038594E+03  0.24614837561E+03  0.41800000000E+01 0. -1.
        -11    1    1    2    0    0 -0.55762216699E+02 -0.33636254308E+02  0.25206348235E+03  0.26033981937E+03  0.00000000000E+00 0.  1.
         11    1    1    2    0    0 -0.61182185800E+02 -0.13684942905E+03  0.27638150046E+03  0.31441653883E+03  0.00000000000E+00 0. -1.
</event>
<event>
 7    1  0.2714042E-009  0.7328120E+02  0.7561462E-02  0.1349278E+00
          2   -1    0    0  501    0  0.00000000000E+00  0.00000000000E+00  0.41381195913E+03  0.41381195913E+03  0.00000000000E+00 0. -1.
         -2   -1    0    0    0  501 -0.00000000000E+00 -0.00000000000E+00 -0.32567671749E+02  0.32567671749E+02  0.00000000000E+00 0.  1.
         25    2    1    2    0    0  0.39154995571E+00 -0.36027020620E+02  0.23702322119E+03  0.27041739147E+03  0.12508980255E+03 0.  0.
          5    1    3    3  502    0  0.68586629669E+00 -0.67651774496E+02  0.59943745789E+02  0.90487336486E+02  0.41800000000E+01 0.  1.
         -5    1    3    3    0  502 -0.29431634098E+00  0.31624753877E+02  0.17707947540E+03  0.17993005498E+03  0.41800000000E+01 0.  1.
        -11    1    1    2    0    0  0.12347339190E+02  0.49721518407E+01 -0.10929014617E+02  0.17222730315E+02  0.00000000000E+00 0.  1.
         11    1    1    2    0    0 -0.12738889146E+02  0.31054868779E+02  0.15515008082E+03  0.15873950910E+03  0.00000000000E+00 0. -1.
</event>
<event>
 7    1  0.2714042E-009  0.2842405E+03  0.7561462E-02  0.1093395E+00
          1   -1    0    0  501    0  0.00000000000E+00  0.00000000000E+00  0.60107694535E+03  0.60107694535E+03  0.00000000000E+00 0. -1.
         -1   -1    0    0    0  501 -0.00000000000E+00 -0.00000000000E+00 -0.19268970338E+03  0.19268970338E+03  0.00000000000E+00 0.  1.
         25    2    1    2    0    0 -0.23995096942E+03  0.11848208616E+03  0.41680686267E+03  0.51087259340E+03  0.12509345888E+03 0.  0.
          5    1    3    3  502    0 -0.19901206523E+03  0.13689821369E+03  0.38896367014E+03  0.45788331713E+03  0.41800000000E+01 0.  1.
         -5    1    3    3    0  502 -0.40938904188E+02 -0.18416127530E+02  0.27843192528E+02  0.52989276269E+02  0.41800000000E+01 0.  1.
        -11    1    1    2    0    0  0.19614506853E+03 -0.53270415338E+02  0.43898972491E+01  0.20329755596E+03  0.00000000000E+00 0.  1.
         11    1    1    2    0    0  0.43805900884E+02 -0.65211670821E+02 -0.12809517949E+02  0.79596499380E+02  0.00000000000E+00 0. -1.
</event>
<event>
 7    1  0.2714042E-009  0.1185598E+03  0.7561462E-02  0.1245492E+00
         -2   -1    0    0    0  501 -0.00000000000E+00  0.00000000000E+00  0.46859208156E+02  0.46859208156E+02  0.00000000000E+00 0.  1.
          2   -1    0    0  501    0  0.00000000000E+00 -0.00000000000E+00 -0.39167800791E+03  0.39167800791E+03  0.00000000000E+00 0. -1.
         25    2    1    2    0    0 -0.67556992622E+02 -0.44936398312E+01 -0.23838293185E+03  0.27759355869E+03  0.12509045358E+03 0.  0.
          5    1    3    3  502    0  0.25562217335E+02 -0.35501785945E+02 -0.77344149569E+02  0.88957257337E+02  0.41800000000E+01 0. -1.
         -5    1    3    3    0  502 -0.93119209957E+02  0.31008146114E+02 -0.16103878228E+03  0.18863630135E+03  0.41800000000E+01 0. -1.
        -11    1    1    2    0    0  0.79818486136E+02  0.11767630375E+02 -0.34737650382E+02  0.87841745246E+02  0.00000000000E+00 0.  1.
         11    1    1    2    0    0 -0.12261493515E+02 -0.72739905443E+01 -0.71698217524E+02  0.73101912135E+02  0.00000000000E+00 0. -1.
</event>
<event>
 7    1  0.2714042E-009  0.1085018E+03  0.7561462E-02  0.1263370E+00
          1   -1    0    0  501    0  0.00000000000E+00  0.00000000000E+00  0.40114222208E+03  0.40114222208E+03  0.00000000000E+00 0. -1.
         -1   -1    0    0    0  501 -0.00000000000E+00 -0.00000000000E+00 -0.36418155312E+02  0.36418155312E+02  0.00000000000E+00 0.  1.
         25    2    1    2    0    0 -0.32328299449E+02  0.19122249475E+02  0.27562572757E+03  0.30500744530E+03  0.12509684498E+03 0.  0.
          5    1    3    3  502    0  0.38993168780E+02 -0.14416503481E+02  0.45740695274E+02  0.61951484149E+02  0.41800000000E+01 0. -1.
         -5    1    3    3    0  502 -0.71321468229E+02  0.33538752955E+02  0.22988503229E+03  0.24305596115E+03  0.41800000000E+01 0. -1.
        -11    1    1    2    0    0  0.59952484189E+02  0.42621282323E+01  0.67603873126E+02  0.90458552714E+02  0.00000000000E+00 0. -1.
         11    1    1    2    0    0 -0.27624184740E+02 -0.23384377707E+02  0.21494466078E+02  0.42094379379E+02  0.00000000000E+00 0.  1.
</event>
<event>
 7    1  0.2714042E-009  0.1111742E+03  0.7561462E-02  0.1258411E+00
          3   -1    0    0  501    0  0.00000000000E+00  0.00000000000E+00  0.64212817683E+02  0.64212817683E+02  0.00000000000E+00 0. -1.
         -3   -1    0    0    0  501 -0.00000000000E+00 -0.00000000000E+00 -0.29586708159E+03  0.29586708159E+03  0.00000000000E+00 0.  1.
         25    2    1    2    0    0  0.15126394739E+02 -0.64047704751E+02 -0.61007263813E+02  0.15395278544E+03  0.12509459463E+03 0.  0.
          5    1    3    3  502    0  0.24697443097E+02 -0.84156650215E+02  0.11302855783E+01  0.87812615361E+02  0.41800000000E+01 0. -1.
         -5    1    3    3    0  502 -0.95710483584E+01  0.20108945464E+02 -0.62137549391E+02  0.66140170084E+02  0.41800000000E+01 0. -1.
        -11    1    1    2    0    0  0.32348730471E+02  0.54621507601E+02 -0.70325651722E+02  0.94739889940E+02  0.00000000000E+00 0. -1.
         11    1    1    2    0    0 -0.47475125210E+02  0.94261971498E+01 -0.10032134837E+03  0.11138722389E+03  0.00000000000E+00 0.  1.
</event>
<event>
 7    1  0.2714042E-009  0.1546717E+03  0.7561462E-02  0.1194847E+00
         -1   -1    0    0    0  501 -0.00000000000E+00  0.00000000000E+00  0.17412655411E+03  0.17412655411E+03  0.00000000000E+00 0.  1.
          1   -1    0    0  501    0  0.00000000000E+00 -0.00000000000E+00 -0.14443847422E+03  0.14443847422E+03  0.00000000000E+00 0. -1.
         25    2    1    2    0    0  0.14700516955E+02  0.11123319289E+03 -0.13021838735E+02  0.16853715617E+03  0.12508507634E+03 0.  0.
          5    1    3    3  502    0  0.66754254001E+02  0.35034150938E+02 -0.94259514310E+01  0.76091018652E+02  0.41800000000E+01 0.  1.
         -5    1    3    3    0  502 -0.52053737046E+02  0.76199041957E+02 -0.35958873039E+01  0.92446137513E+02  0.41800000000E+01 0.  1.
        -11    1    1    2    0    0 -0.20651008086E+02 -0.12487924792E+03  0.46189530167E+02  0.13473961331E+03  0.00000000000E+00 0.  1.
         11    1    1    2    0    0  0.59504911308E+01  0.13646055029E+02 -0.34796115432E+01  0.15288258862E+02  0.00000000000E+00 0. -1.
</event>
<event>
 7    1  0.2714042E-009  0.1629185E+03  0.7561462E-02  0.1185441E+00
          2   -1    0    0  501    0  0.00000000000E+00  0.00000000000E+00  0.47243588606E+03  0.47243588606E+03  0.00000000000E+00 0. -1.
         -2   -1    0    0    0  501 -0.00000000000E+00 -0.00000000000E+00 -0.77094543101E+02  0.77094543101E+02  0.00000000000E+00 0.  1.
         25    2    1    2    0    0  0.12614417904E+03  0.74051644155E+02  0.28527487030E+03  0.34413013585E+03  0.12509116221E+03 0.  0.
          5    1    3    3  502    0  0.76857979984E+02  0.95272824290E+02  0.12476573698E+03  0.17483712895E+03  0.41800000000E+01 0.  1.
         -5    1    3    3    0  502  0.49286199051E+02 -0.21221180135E+02  0.16050913333E+03  0.16929300690E+03  0.41800000000E+01 0.  1.
        -11    1    1    2    0    0 -0.66265854566E+02 -0.56642350018E+02  0.11330322978E+03  0.14295852957E+03  0.00000000000E+00 0. -1.
         11    1    1    2    0    0 -0.59878324470E+02 -0.17409294137E+02 -0.32367571242E+01  0.62441763751E+02  0.00000000000E+00 0.  1.
</event>
<event>
 7    1  0.2714042E-009  0.7431387E+02  0.7561462E-02  0.1346009E+00
         -2   -1    0    0    0  501 -0.00000000000E+00  0.00000000000E+00  0.60931801823E+02  0.60931801823E+02  0.00000000000E+00 0. -1.
          2   -1    0    0  501    0  0.00000000000E+00 -0.00000000000E+00 -0.19753759357E+03  0.19753759357E+03  0.00000000000E+00 0.  1.
         25    2    1    2    0    0  0.12093336263E-01  0.25386435189E+02 -0.62342662166E+02  0.14205078823E+03  0.12508935875E+03 0.  0.
          5    1    3    3  502    0 -0.19830925546E+02 -0.21541630903E+02 -0.82083610912E+02  0.87249636391E+02  0.41800000000E+01 0. -1.
         -5    1    3    3    0  502  0.19843018882E+02  0.46928066092E+02  0.19740948745E+02  0.54801151839E+02  0.41800000000E+01 0. -1.
        -11    1    1    2    0    0  0.30667380546E+02 -0.49455026613E+01 -0.73221703791E+02  0.79538444366E+02  0.00000000000E+00 0.  1.
         11    1    1    2    0    0 -0.30679473882E+02 -0.20440932528E+02 -0.10414257887E+01  0.36880162797E+02  0.00000000000E+00 0. -1.
</event>
<event>
 7    1  0.2714042E-009  0.1275020E+03  0.7561462E-02  0.1231210E+00
         -1   -1    0    0    0  501 -0.00000000000E+00  0.00000000000E+00  0.34138028151E+03  0.34138028151E+03  0.00000000000E+00 0.  1.
          1   -1    0    0  501    0  0.00000000000E+00 -0.00000000000E+00 -0.65506393307E+02  0.65506393307E+02  0.00000000000E+00 0. -1.
         25    2    1    2    0    0 -0.72746209978E+02  0.37124755140E+02  0.23498424678E+03  0.27845161622E+03  0.12508975911E+03 0.  0.
          5    1    3    3  502    0 -0.58170160658E+02 -0.34275732012E+02  0.16045636158E+03  0.17413302320E+03  0.41800000000E+01 0. -1.
         -5    1    3    3    0  502 -0.14576049320E+02  0.71400487153E+02  0.74527885197E+02  0.10431859303E+03  0.41800000000E+01 0. -1.
        -11    1    1    2    0    0  0.64391945484E+01  0.23593915109E+02 -0.84542086342E+01  0.25876817815E+02  0.00000000000E+00 0. -1.
         11    1    1    2    0    0  0.66307015430E+02 -0.60718670250E+02  0.49343850056E+02  0.10255824077E+03  0.00000000000E+00 0.  1.
</event>
<event>
 7    1  0.2714042E-009  0.7969115E+02  0.7561462E-02  0.1329930E+00
          1   -1    0    0  501    0  0.00000000000E+00  0.00000000000E+00  0.43984511241E+02  0.43984511241E+02  0.00000000000E+00 0. -1.
         -1   -1    0    0    0  501 -0.00000000000E+00 -0.00000000000E+00 -0.34615280277E+03  0.34615280277E+03  0.00000000000E+00 0.  1.
         25    2    1    2    0    0 -0.40263105177E+01  0.70872526687E+01 -0.26090956788E+03  0.28946065288E+03  0.12508887491E+03 0.  0.
          5    1    3    3  502    0  0.16183759728E+02  0.62862339824E+02 -0.15289666510E+03  0.16615790817E+03  0.41800000000E+01 0. -1.
         -5    1    3    3    0  502 -0.20210070245E+02 -0.55775087155E+02 -0.10801290278E+03  0.12330274471E+03  0.41800000000E+01 0. -1.
        -11    1    1    2    0    0  0.17799673432E+02  0.26518096614E+01 -0.67291497219E+02  0.69656342616E+02  0.00000000000E+00 0.  1.
         11    1    1    2    0    0 -0.13773362914E+02 -0.97390623301E+01  0.26032773571E+02  0.31020318516E+02  0.00000000000E+00 0. -1.
</event>
<event>
 7    1  0.2714042E-009  0.1735193E+03  0.7561462E-02  0.1174227E+00
          3   -1    0    0  501    0  0.00000000000E+00  0.00000000000E+00  0.13981846380E+03  0.13981846380E+03  0.00000000000E+00 0. -1.
         -3   -1    0    0    0  501 -0.00000000000E+00 -0.00000000000E+00 -0.29022277965E+03  0.29022277965E+03  0.00000000000E+00 0.  1.
         25    2    1    2    0    0  0.71306054885E+02  0.15126143958E+03 -0.51248344645E+02  0.21503140600E+03  0.12509011219E+03 0.  0.
          5    1    3    3  502    0  0.11858425369E+02  0.55613265841E+02  0.40313675452E+02  0.69829237560E+02  0.41800000000E+01 0.  1.
         -5    1    3    3    0  502  0.59447629516E+02  0.95648173744E+02 -0.91562020096E+02  0.14520216844E+03  0.41800000000E+01 0.  1.
        -11    1    1    2    0    0 -0.47007104267E+02 -0.35138013453E+02  0.25492506872E+01  0.58743906237E+02  0.00000000000E+00 0. -1.
         11    1    1    2    0    0 -0.24298950618E+02 -0.11612342613E+03 -0.10170522189E+03  0.15626593121E+03  0.00000000000E+00 0.  1.
</event>
<event>
 7    1  0.2714042E-009  0.1124527E+03  0.7561462E-02  0.1256094E+00
         -1   -1    0    0    0  501 -0.00000000000E+00  0.00000000000E+00  0.47401088724E+02  0.47401088724E+02  0.00000000000E+00 0.  1.
          1   -1    0    0  501    0  0.00000000000E+00 -0.00000000000E+00 -0.42807609784E+03  0.42807609784E+03  0.00000000000E+00 0. -1.
         25    2    1    2    0    0  0.27227658657E+02 -0.25702533727E+02 -0.34876635271E+03  0.37240826849E+03  0.12509190232E+03 0.  0.
          5    1    3    3  502    0  0.23659295452E+02 -0.74533796300E+02 -0.17293537323E+03  0.18983983977E+03  0.41800000000E+01 0.  1.
         -5    1    3    3    0  502  0.35683632050E+01  0.48831262573E+02 -0.17583097948E+03  0.18256842872E+03  0.41800000000E+01 0.  1.
        -11    1    1    2    0    0 -0.39341843866E+02  0.53920352162E+02 -0.16718864390E+02  0.68809196206E+02  0.00000000000E+00 0.  1.
         11    1    1    2    0    0  0.12114185208E+02 -0.28217818435E+02 -0.15189792016E+02  0.34259721861E+02  0.00000000000E+00 0. -1.
</event>
<event>
 7    1  0.2714042E-009  0.1049884E+03  0.7561462E-02  0.1270143E+00
         -1   -1    0    0    0  501 -0.00000000000E+00  0.00000000000E+00  0.19747127514E+03  0.19747127514E+03  0.00000000000E+00 0.  1.
          1   -1    0    0  501    0  0.00000000000E+00 -0.00000000000E+00 -0.98751268686E+02  0.98751268686E+02  0.00000000000E+00 0. -1.
         25    2    1    2    0    0  0.36407237352E+02 -0.49205096734E+02 -0.13556571421E+02  0.13992166214E+03  0.12509061688E+03 0.  0.
          5    1    3    3  502    0 -0.40286978520E+02 -0.21150690852E+02  0.22049061477E+02  0.50734858566E+02  0.41800000000E+01 0. -1.
         -5    1    3    3    0  502  0.76694215871E+02 -0.28054405882E+02 -0.35605632897E+02  0.89186803573E+02  0.41800000000E+01 0. -1.
        -11    1    1    2    0    0  0.90470712121E+01  0.33060570424E+02  0.10114758871E+03  0.10679740407E+03  0.00000000000E+00 0.  1.
         11    1    1    2    0    0 -0.45454308564E+02  0.16144526310E+02  0.11128989172E+02  0.49503477623E+02  0.00000000000E+00 0. -1.
</event>
<event>
 7    1  0.2714042E-009  0.1916411E+03  0.7561462E-02  0.1156989E+00
         -1   -1    0    0    0  501 -0.00000000000E+00  0.00000000000E+00  0.10396967256E+03  0.10396967256E+03  0.00000000000E+00 0.  1.
          1   -1    0    0  501    0  0.00000000000E+00 -0.00000000000E+00 -0.37927988920E+03  0.37927988920E+03  0.00000000000E+00 0. -1.
         25    2    1    2    0    0 -0.14570224914E+03  0.77405856107E+02 -0.15484049074E+03  0.25854043224E+03  0.12508703197E+03 0.  0.
          5    1    3    3  502    0 -0.14854580837E+03  0.36927177038E+02 -0.15481254974E+03  0.21774726530E+03  0.41800000000E+01 0. -1.
         -5    1    3    3    0  502  0.28435592319E+01  0.40478679069E+02 -0.27940996291E-01  0.40793166940E+02  0.41800000000E+01 0. -1.
        -11    1    1    2    0    0  0.55831348815E+02  0.17646101579E+02 -0.31277179771E+02  0.66383630405E+02  0.00000000000E+00 0.  1.
         11    1    1    2    0    0  0.89870900322E+02 -0.95051957685E+02 -0.89192546135E+02  0.15832549912E+03  0.00000000000E+00 0. -1.
</event>
<event>
 7    1  0.2714042E-009  0.1590803E+03  0.7561462E-02  0.1189739E+00
         -1   -1    0    0    0  501 -0.00000000000E+00  0.00000000000E+00  0.19739207747E+02  0.19739207747E+02  0.00000000000E+00 0.  1.
          1   -1    0    0  501    0  0.00000000000E+00 -0.00000000000E+00 -0.12991407578E+04  0.12991407578E+04  0.00000000000E+00 0. -1.
         25    2    1    2    0    0  0.28280862947E+02 -0.11200658650E+03 -0.75821761515E+03  0.77709883371E+03  0.12507342962E+03 0.  0.
          5    1    3    3  502    0 -0.41657121802E+02 -0.85776479490E+02 -0.42433811010E+03  0.43494048365E+03  0.41800000000E+01 0.  1.
         -5    1    3    3    0  502  0.69937984749E+02 -0.26230107010E+02 -0.33387950505E+03  0.34215835006E+03  0.41800000000E+01 0.  1.
        -11    1    1    2    0    0 -0.60644758702E+02  0.52725174523E+02 -0.29122679988E+03  0.30211054228E+03  0.00000000000E+00 0. -1.
         11    1    1    2    0    0  0.32363895754E+02  0.59281411978E+02 -0.22995713505E+03  0.23967058959E+03  0.00000000000E+00 0.  1.
</event>
<event>
 7    1  0.2714042E-009  0.1660127E+03  0.7561462E-02  0.1182071E+00
         -1   -1    0    0    0  501 -0.00000000000E+00  0.00000000000E+00  0.88304705032E+03  0.88304705032E+03  0.00000000000E+00 0.  1.
          1   -1    0    0  501    0  0.00000000000E+00 -0.00000000000E+00 -0.34470693271E+02  0.34470693271E+02  0.00000000000E+00 0. -1.
         25    2    1    2    0    0  0.10282539894E+03  0.81654145233E+02  0.54466807067E+03  0.57406744013E+03  0.12509858717E+03 0.  0.
          5    1    3    3  502    0  0.79115155877E+02  0.10954451493E+03  0.33610840464E+03  0.36227826420E+03  0.41800000000E+01 0.  1.
         -5    1    3    3    0  502  0.23710243059E+02 -0.27890369697E+02  0.20855966603E+03  0.21178917593E+03  0.41800000000E+01 0.  1.
        -11    1    1    2    0    0 -0.69659728607E+02 -0.10016621699E+03  0.23074593389E+03  0.26101615816E+03  0.00000000000E+00 0. -1.
         11    1    1    2    0    0 -0.33165670329E+02  0.18512071757E+02  0.73162352495E+02  0.82434145303E+02  0.00000000000E+00 0.  1.
</event>
<event>
 7    1  0.2714042E-009  0.1904866E+03  0.7561462E-02  0.1158023E+00
         -1   -1    0    0    0  501 -0.00000000000E+00  0.00000000000E+00  0.43048992519E+03  0.43048992519E+03  0.00000000000E+00 0.  1.
          1   -1    0    0  501    0  0.00000000000E+00 -0.00000000000E+00 -0.12963548706E+03  0.12963548706E+03  0.00000000000E+00 0. -1.
         25    2    1    2    0    0 -0.76782808512E+02 -0.13967813382E+03  0.31654534356E+03  0.37583798676E+03  0.12509059521E+03 0.  0.
          5    1    3    3  502    0 -0.82425886411E+02 -0.15798022858E+03  0.30449754243E+03  0.35282857753E+03  0.41800000000E+01 0. -1.
         -5    1    3    3    0  502  0.56430778985E+01  0.18302094767E+02  0.12047801128E+02  0.23009409229E+02  0.41800000000E+01 0. -1.
        -11    1    1    2    0    0  0.86995700633E+02  0.67176513543E+02 -0.15983860487E+02  0.11106943637E+03  0.00000000000E+00 0.  1.
         11    1    1    2    0    0 -0.10212892121E+02  0.72501620273E+02  0.29295506076E+00  0.73217989117E+02  0.00000000000E+00 0. -1.
</event>
<event>
 7    1  0.2714042E-009  0.1373578E+03  0.7561462E-02  0.1216929E+00
          2   -1    0    0  501    0  0.00000000000E+00  0.00000000000E+00  0.62044533577E+03  0.62044533577E+03  0.00000000000E+00 0. -1.
         -2   -1    0    0    0  501 -0.00000000000E+00 -0.00000000000E+00 -0.36749626778E+02  0.36749626778E+02  0.00000000000E+00 0.  1.
         25    2    1    2    0    0 -0.67527635498E+02  0.79156725224E+02  0.35631288623E+03  0.39170328604E+03  0.12508726033E+03 0.  0.
          5    1    3    3  502    0 -0.61905331170E+02 -0.89561180796E+00  0.66495560250E+02  0.90951657933E+02  0.41800000000E+01 0. -1.
         -5    1    3    3    0  502 -0.56223043280E+01  0.80052337032E+02  0.28981732598E+03  0.30075162811E+03  0.41800000000E+01 0. -1.
        -11    1    1    2    0    0  0.23782220013E+02  0.15252291427E+02  0.81842658995E+02  0.86582025928E+02  0.00000000000E+00 0. -1.
         11    1    1    2    0    0  0.43745415485E+02 -0.94409016651E+02  0.14554016376E+03  0.17890965057E+03  0.00000000000E+00 0.  1.
</event>
<event>
 7    1  0.2787254E-009  0.1275497E+03  0.7561462E-02  0.1231138E+00
          2   -1    0    0  501    0  0.00000000000E+00  0.00000000000E+00  0.85457360175E+03  0.85457360175E+03  0.00000000000E+00 0. -1.
         -2   -1    0    0    0  501 -0.00000000000E+00 -0.00000000000E+00 -0.25436274815E+02  0.25436274815E+02  0.00000000000E+00 0.  1.
         25    2    1    2    0    0  0.94169090548E+02 -0.87475734749E+01  0.36011029107E+03  0.39277371558E+03  0.12508969686E+03 0.  0.
          5    1    3    3  502    0 -0.21652196310E+02 -0.31610845206E+02  0.96025141934E+02  0.10347155852E+03  0.41800000000E+01 0.  1.
         -5    1    3    3    0  502  0.11582128686E+03  0.22863271731E+02  0.26408514913E+03  0.28930215706E+03  0.41800000000E+01 0.  1.
        -11    1    1    2    0    0 -0.82535498451E+01 -0.73074757547E+01  0.94519007026E+00  0.11064071187E+02  0.00000000000E+00 0.  1.
         11    1    1    2    0    0 -0.85915540703E+02  0.16055049230E+02  0.46808184580E+03  0.47617208980E+03  0.00000000000E+00 0. -1.
</event>
<event>
 7    1  0.2714042E-009  0.1088660E+03  0.7561462E-02  0.1262684E+00
          1   -1    0    0  501    0  0.00000000000E+00  0.00000000000E+00  0.55634595271E+02  0.55634595271E+02  0.00000000000E+00 0. -1.
         -1   -1    0    0    0  501 -0.00000000000E+00 -0.00000000000E+00 -0.35099253503E+03  0.35099253503E+03  0.00000000000E+00 0.  1.
         25    2    1    2    0    0  0.49229626285E+01 -0.79498011644E+02 -0.10767151302E+03  0.18326285471E+03  0.12509176545E+03 0.  0.
          5    1    3    3  502    0  0.13370759067E+02  0.60160541667E+01  0.22531003165E+02  0.27204569642E+02  0.41800000000E+01 0.  1.
         -5    1    3    3    0  502 -0.84477964389E+01 -0.85514065811E+02 -0.13020251618E+03  0.15605828506E+03  0.41800000000E+01 0.  1.
        -11    1    1    2    0    0 -0.31452270195E+02  0.83863876285E+02 -0.11433575264E+03  0.14524138314E+03  0.00000000000E+00 0.  1.
         11    1    1    2    0    0  0.26529307567E+02 -0.43658646413E+01 -0.73350674099E+02  0.78122892450E+02  0.00000000000E+00 0. -1.
</event>
<event>
 7    1  0.2714042E-009  0.1137491E+03  0.7561462E-02  0.1253780E+00
         -1   -1    0    0    0  501 -0.00000000000E+00  0.00000000000E+00  0.13318171731E+03  0.13318171731E+03  0.00000000000E+00 0.  1.
          1   -1    0    0  501    0  0.00000000000E+00 -0.00000000000E+00 -0.30146389592E+03  0.30146389592E+03  0.00000000000E+00 0. -1.
         25    2    1    2    0    0  0.12543476531E+02 -0.71303426136E+02 -0.25304792333E+03  0.29141827439E+03  0.12509932760E+03 0.  0.
          5    1    3    3  502    0 -0.52196172063E+01  0.34727648944E+02 -0.45365649111E+02  0.57521896042E+02  0.41800000000E+01 0. -1.
         -5    1    3    3    0  502  0.17763093737E+02 -0.10603107508E+03 -0.20768227422E+03  0.23389637835E+03  0.41800000000E+01 0. -1.
        -11    1    1    2    0    0 -0.22870741153E+02  0.70576707930E+02  0.10017929882E+03  0.12465967437E+03  0.00000000000E+00 0.  1.
         11    1    1    2    0    0  0.10327264623E+02  0.72671820643E+00 -0.15413554094E+02  0.18567664467E+02  0.00000000000E+00 0. -1.
</event>
<event>
 7    1  0.2714042E-009  0.2345221E+03  0.7561462E-02  0.1123497E+00
         -1   -1    0    0    0  501 -0.00000000000E+00  0.00000000000E+00  0.95253738847E+02  0.95253738847E+02  0.00000000000E+00 0.  1.
          1   -1    0    0  501    0  0.00000000000E+00 -0.00000000000E+00 -0.63276470995E+03  0.63276470995E+03  0.00000000000E+00 0. -1.
         25    2    1    2    0    0  0.13253734566E+02 -0.21764562416E+03 -0.31426517026E+03  0.40243342551E+03  0.12507911709E+03 0.  0.
          5    1    3    3  502    0  0.64800179986E+02 -0.16284962478E+03 -0.23332629320E+03  0.29185218025E+03  0.41800000000E+01 0. -1.
         -5    1    3    3    0  502 -0.51546445420E+02 -0.54795999387E+02 -0.80938877063E+02  0.11058124527E+03  0.41800000000E+01 0. -1.
        -11    1    1    2    0    0 -0.15067466830E+02  0.16075086447E+03 -0.21374988203E+03  0.26787474882E+03  0.00000000000E+00 0. -1.
         11    1    1    2    0    0  0.18137322639E+01  0.56894759694E+02 -0.94959188090E+01  0.57710274470E+02  0.00000000000E+00 0.  1.
</event>
<event>
 7    1  0.2714042E-009  0.1191862E+03  0.7561462E-02  0.1244446E+00
         -2   -1    0    0    0  501 -0.00000000000E+00  0.00000000000E+00  0.28110737361E+02  0.28110737361E+02  0.00000000000E+00 0.  1.
          2   -1    0    0  501    0  0.00000000000E+00 -0.00000000000E+00 -0.53912179848E+03  0.53912179848E+03  0.00000000000E+00 0. -1.
         25    2    1    2    0    0  0.75867762030E+01  0.59003573984E+02 -0.31153895933E+03  0.34094293387E+03  0.12508629047E+03 0.  0.
          5    1    3    3  502    0  0.28855034459E+02  0.89935882639E+02 -0.17076807870E+03  0.19519294327E+03  0.41800000000E+01 0.  1.
         -5    1    3    3    0  502 -0.21268258256E+02 -0.30932308655E+02 -0.14077088063E+03  0.14574999060E+03  0.41800000000E+01 0.  1.
        -11    1    1    2    0    0  0.33551505885E+02  0.69378949060E+00 -0.76501699626E+02  0.83538583521E+02  0.00000000000E+00 0.  1.
         11    1    1    2    0    0 -0.41138282088E+02 -0.59697363474E+02 -0.12297040217E+03  0.14275101845E+03  0.00000000000E+00 0. -1.
</event>
<event>
 7    1  0.2714042E-009  0.1355799E+03  0.7561462E-02  0.1219403E+00
         -1   -1    0    0    0  501 -0.00000000000E+00  0.00000000000E+00  0.60536874076E+03  0.60536874076E+03  0.00000000000E+00 0.  1.
          1   -1    0    0  501    0  0.00000000000E+00 -0.00000000000E+00 -0.41844204901E+02  0.41844204901E+02  0.00000000000E+00 0. -1.
         25    2    1    2    0    0  0.46068294303E+02 -0.73403784410E+02  0.14777721248E+03  0.21212375908E+03  0.12509189154E+03 0.  0.
          5    1    3    3  502    0  0.76259506373E+02 -0.16110953669E+02  0.43654149402E+02  0.89432836813E+02  0.41800000000E+01 0.  1.
         -5    1    3    3    0  502 -0.30191212070E+02 -0.57292830741E+02  0.10412306308E+03  0.12269092226E+03  0.41800000000E+01 0.  1.
        -11    1    1    2    0    0  0.29514931468E+02  0.19539731224E+02  0.12152525853E+03  0.12657535596E+03  0.00000000000E+00 0.  1.
         11    1    1    2    0    0 -0.75583225771E+02  0.53864053186E+02  0.29422206485E+03  0.30851383063E+03  0.00000000000E+00 0. -1.
</event>
<event>
 7    1  0.3012301E-009  0.1546676E+03  0.7561462E-02  0.1194852E+00
         -2   -1    0    0    0  501 -0.00000000000E+00  0.00000000000E+00  0.33952370955E+02  0.33952370955E+02  0.00000000000E+00 0.  1.
          2   -1    0    0  501    0  0.00000000000E+00 -0.00000000000E+00 -0.89608483210E+03  0.89608483210E+03  0.00000000000E+00 0. -1.
         25    2    1    2    0    0 -0.44904890296E+02  0.11934082478E+03 -0.58517834590E+03  0.61183406173E+03  0.12509412839E+03 0.  0.
          5    1    3    3  502    0  0.80326202796E+01  0.12435714534E+03 -0.43204741549E+03  0.44967951278E+03  0.41800000000E+01 0. -1.
         -5    1    3    3    0  502 -0.52937510575E+02 -0.50163205572E+01 -0.15313093041E+03  0.16215454895E+03  0.41800000000E+01 0. -1.
        -11    1    1    2    0    0  0.13986672525E+02 -0.80301685860E+02 -0.76959169607E+02  0.11210130038E+03  0.00000000000E+00 0.  1.
         11    1    1    2    0    0  0.30918217771E+02 -0.39039138920E+02 -0.19999494565E+03  0.20610184095E+03  0.00000000000E+00 0. -1.
</event>
<event>
 7    1  0.2714042E-009  0.1618260E+03  0.7561462E-02  0.1186651E+00
         -1   -1    0    0    0  501 -0.00000000000E+00  0.00000000000E+00  0.94582632602E+02  0.94582632602E+02  0.00000000000E+00 0.  1.
          1   -1    0    0  501    0  0.00000000000E+00 -0.00000000000E+00 -0.36637292642E+03  0.36637292642E+03  0.00000000000E+00 0. -1.
         25    2    1    2    0    0  0.14865182294E+03  0.28729931718E+02 -0.13708924807E+03  0.23951575191E+03  0.12510619504E+03 0.  0.
          5    1    3    3  502    0  0.42212016948E+02  0.13779778531E+02 -0.12323974000E+03  0.13106197994E+03  0.41800000000E+01 0.  1.
         -5    1    3    3    0  502  0.10643980599E+03  0.14950153186E+02 -0.13849508069E+02  0.10845377197E+03  0.41800000000E+01 0.  1.
        -11    1    1    2    0    0 -0.93300272728E+01 -0.30765310308E+02 -0.46506738895E+02  0.56536983381E+02  0.00000000000E+00 0. -1.
         11    1    1    2    0    0 -0.13932179567E+03  0.20353785902E+01 -0.88194306859E+02  0.16490282374E+03  0.00000000000E+00 0.  1.
</event>
<event>
 7    1  0.2714042E-009  0.1206965E+03  0.7561462E-02  0.1241953E+00
         -2   -1    0    0    0  501 -0.00000000000E+00  0.00000000000E+00  0.12933512177E+03  0.12933512177E+03  0.00000000000E+00 0.  1.
          2   -1    0    0  501    0  0.00000000000E+00 -0.00000000000E+00 -0.15557614886E+03  0.15557614886E+03  0.00000000000E+00 0. -1.
         25    2    1    2    0    0 -0.71848090975E+02 -0.54481124490E+02 -0.45857308912E+00  0.15420100122E+03  0.12508955746E+03 0.  0.
          5    1    3    3  502    0  0.86322369858E+01 -0.52679458226E+02 -0.37618660534E+02  0.65439107992E+02  0.41800000000E+01 0. -1.
         -5    1    3    3    0  502 -0.80480327961E+02 -0.18016662635E+01  0.37160087445E+02  0.88761893225E+02  0.41800000000E+01 0. -1.
        -11    1    1    2    0    0 -0.10101158772E+02  0.33311043741E+01  0.20876591740E+02  0.23429932726E+02  0.00000000000E+00 0.  1.
         11    1    1    2    0    0  0.81949249746E+02  0.51150020116E+02 -0.46659045738E+02  0.10728033669E+03  0.00000000000E+00 0. -1.
</event>
<event>
 7    1  0.2714042E-009  0.1194018E+03  0.7561462E-02  0.1244087E+00
         -4   -1    0    0    0  501 -0.00000000000E+00  0.00000000000E+00  0.10812839035E+03  0.10812839035E+03  0.00000000000E+00 0. -1.
          4   -1    0    0  501    0  0.00000000000E+00 -0.00000000000E+00 -0.17294296429E+03  0.17294296429E+03  0.00000000000E+00 0.  1.
         25    2    1    2    0    0 -0.83841154740E+02  0.93386397987E+01 -0.36656389653E+02  0.15526533950E+03  0.12508831011E+03 0.  0.
          5    1    3    3  502    0 -0.11485514172E+03  0.18487107282E+02 -0.18268156179E+02  0.11783324932E+03  0.41800000000E+01 0. -1.
         -5    1    3    3    0  502  0.31013986975E+02 -0.91484674838E+01 -0.18388233475E+02  0.37432090187E+02  0.41800000000E+01 0. -1.
        -11    1    1    2    0    0  0.17830128727E+02  0.10713641909E+02  0.29361759753E+02  0.35983448266E+02  0.00000000000E+00 0. -1.
         11    1    1    2    0    0  0.66011026013E+02 -0.20052281707E+02 -0.57519944044E+02  0.89822566874E+02  0.00000000000E+00 0.  1.
</event>
<event>
 7    1  0.2714042E-009  0.1109044E+03  0.7561462E-02  0.1258904E+00
          1   -1    0    0  501    0  0.00000000000E+00  0.00000000000E+00  0.34564554239E+03  0.34564554239E+03  0.00000000000E+00 0.  1.
         -1   -1    0    0    0  501 -0.00000000000E+00 -0.00000000000E+00 -0.60679996280E+02  0.60679996280E+02  0.00000000000E+00 0. -1.
         25    2    1    2    0    0 -0.67313590049E+02  0.17405722362E+02  0.24736766188E+03  0.28578397139E+03  0.12509052555E+03 0.  0.
          5    1    3    3  502    0  0.34871848796E+02  0.10778512516E+02  0.39014320907E+02  0.53589288168E+02  0.41800000000E+01 0.  1.
         -5    1    3    3    0  502 -0.10218543885E+03  0.66272098468E+01  0.20835334097E+03  0.23219468322E+03  0.41800000000E+01 0.  1.
        -11    1    1    2    0    0  0.22252470174E+02 -0.28519614295E+02  0.59178002434E+02  0.69358321783E+02  0.00000000000E+00 0.  1.
         11    1    1    2    0    0  0.45061119875E+02  0.11113891933E+02 -0.21580118201E+02  0.51183245499E+02  0.00000000000E+00 0. -1.
</event>
<event>
 7    1  0.2714042E-009  0.1454870E+03  0.7561462E-02  0.1206131E+00
         -1   -1    0    0    0  501 -0.00000000000E+00  0.00000000000E+00  0.22133792813E+02  0.22133792813E+02  0.00000000000E+00 0.  1.
          1   -1    0    0  501    0  0.00000000000E+00 -0.00000000000E+00 -0.12336752261E+04  0.12336752261E+04  0.00000000000E+00 0. -1.
         25    2    1    2    0    0  0.11502603028E+02  0.12409729265E+03 -0.65975647817E+03  0.68297743064E+03  0.12508841815E+03 0.  0.
          5    1    3    3  502    0  0.30075337003E+02  0.36298584858E+02 -0.47691192462E+03  0.47925418037E+03  0.41800000000E+01 0.  1.
         -5    1    3    3    0  502 -0.18572733974E+02  0.87798707792E+02 -0.18284455356E+03  0.20372325027E+03  0.41800000000E+01 0.  1.
        -11    1    1    2    0    0  0.20383475777E+02 -0.11993441699E+03 -0.44150398307E+03  0.45795798665E+03  0.00000000000E+00 0.  1.
         11    1    1    2    0    0 -0.31886078805E+02 -0.41628756549E+01 -0.11028097202E+03  0.11487360160E+03  0.00000000000E+00 0. -1.
</event>
<event>
 7    1  0.2714042E-009  0.1257600E+03  0.7561462E-02  0.1233886E+00
          1   -1    0    0  501    0  0.00000000000E+00  0.00000000000E+00  0.88908902752E+02  0.88908902752E+02  0.00000000000E+00 0. -1.
         -1   -1    0    0    0  501 -0.00000000000E+00 -0.00000000000E+00 -0.26158889615E+03  0.26158889615E+03  0.00000000000E+00 0.  1.
         25    2    1    2    0    0 -0.55457190184E+02  0.49704172614E+02 -0.76376626447E+01  0.14577658540E+03  0.12508586747E+03 0.  0.
          5    1    3    3  502    0  0.19802601092E+02 -0.22737216685E+02 -0.25511016763E+02  0.39716601175E+02  0.41800000000E+01 0.  1.
         -5    1    3    3    0  502 -0.75259791275E+02  0.72441389298E+02  0.17873354119E+02  0.10605998422E+03  0.41800000000E+01 0.  1.
        -11    1    1    2    0    0  0.80427423728E+02 -0.37322891815E+02 -0.14651147244E+03  0.17125180378E+03  0.00000000000E+00 0.  1.
         11    1    1    2    0    0 -0.24970233544E+02 -0.12381280799E+02 -0.18530858316E+02  0.33469409726E+02  0.00000000000E+00 0. -1.
</event>
<event>
 7    1  0.2714042E-009  0.1096319E+03  0.7561462E-02  0.1261253E+00
          2   -1    0    0  501    0  0.00000000000E+00  0.00000000000E+00  0.49427643211E+03  0.49427643211E+03  0.00000000000E+00 0. -1.
         -2   -1    0    0    0  501 -0.00000000000E+00 -0.00000000000E+00 -0.31664797700E+02  0.31664797700E+02  0.00000000000E+00 0.  1.
         25    2    1    2    0    0  0.45851978508E+02  0.64332348752E+01  0.34775110183E+03  0.37245330218E+03  0.12508734164E+03 0.  0.
          5    1    3    3  502    0  0.28324379743E+01 -0.50422621791E+02  0.22318376961E+03  0.22886443785E+03  0.41800000000E+01 0.  1.
         -5    1    3    3    0  502  0.43019540534E+02  0.56855856666E+02  0.12456733222E+03  0.14358886433E+03  0.41800000000E+01 0.  1.
        -11    1    1    2    0    0 -0.62843090252E+02 -0.28761049329E+02  0.10049656503E+03  0.12196725599E+03  0.00000000000E+00 0.  1.
         11    1    1    2    0    0  0.16991111744E+02  0.22327814453E+02  0.14363967543E+02  0.31520671632E+02  0.00000000000E+00 0. -1.
</event>
<event>
 7    1  0.2714042E-009  0.1804877E+03  0.7561462E-02  0.1167332E+00
          1   -1    0    0  501    0  0.00000000000E+00  0.00000000000E+00  0.54896436954E+03  0.54896436954E+03  0.00000000000E+00 0. -1.
         -1   -1    0    0    0  501 -0.00000000000E+00 -0.00000000000E+00 -0.96160962681E+02  0.96160962681E+02  0.00000000000E+00 0.  1.
         25    2    1    2    0    0  0.11167283584E+03  0.10514492026E+03  0.41484682470E+03  0.45964251618E+03  0.12508828159E+03 0.  0.
          5    1    3    3  502    0 -0.13089542030E+02  0.37879994528E+02  0.32245520801E+02  0.51608876250E+02  0.41800000000E+01 0. -1.
         -5    1    3    3    0  502  0.12476237787E+03  0.67264925732E+02  0.38260130390E+03  0.40803363993E+03  0.41800000000E+01 0. -1.
        -11    1    1    2    0    0 -0.12496508038E+03 -0.10813332296E+03  0.25864290388E+02  0.16726639939E+03  0.00000000000E+00 0.  1.
         11    1    1    2    0    0  0.13292244534E+02  0.29884026967E+01  0.12092291769E+02  0.18216416652E+02  0.00000000000E+00 0. -1.
</event>
<event>
 7    1  0.2714042E-009  0.9071465E+02  0.7561462E-02  0.1301130E+00
         -1   -1    0    0    0  501 -0.00000000000E+00  0.00000000000E+00  0.28966127384E+02  0.28966127384E+02  0.00000000000E+00 0.  1.
          1   -1    0    0  501    0  0.00000000000E+00 -0.00000000000E+00 -0.63248826445E+03  0.63248826445E+03  0.00000000000E+00 0. -1.
         25    2    1    2    0    0 -0.19374941415E+02  0.67943739195E+02 -0.42316024676E+03  0.44688191426E+03  0.12508841196E+03 0.  0.
          5    1    3    3  502    0 -0.26591955668E+02  0.43574168507E+02 -0.41734538172E+03  0.42047649198E+03  0.41800000000E+01 0. -1.
         -5    1    3    3    0  502  0.72170142531E+01  0.24369570688E+02 -0.58148650371E+01  0.26405422278E+02  0.41800000000E+01 0. -1.
        -11    1    1    2    0    0 -0.29937655362E+02 -0.28042485178E+02 -0.28370599026E+02  0.49875194963E+02  0.00000000000E+00 0.  1.
         11    1    1    2    0    0  0.49312596778E+02 -0.39901254018E+02 -0.15199129128E+03  0.16469728261E+03  0.00000000000E+00 0. -1.
</event>
<event>
 7    1  0.2714042E-009  0.1093226E+03  0.7561462E-02  0.1261829E+00
         -4   -1    0    0    0  501 -0.00000000000E+00  0.00000000000E+00  0.16394360921E+03  0.16394360921E+03  0.00000000000E+00 0.  1.
          4   -1    0    0  501    0  0.00000000000E+00 -0.00000000000E+00 -0.84677005571E+02  0.84677005571E+02  0.00000000000E+00 0. -1.
         25    2    1    2    0    0  0.32077241776E+02 -0.35429029813E+02  0.33009044839E+02  0.13791940460E+03  0.12509196430E+03 0.  0.
          5    1    3    3  502    0  0.32223279828E+02  0.43631800342E+02  0.18270922365E+02  0.57387914826E+02  0.41800000000E+01 0.  1.
         -5    1    3    3    0  502 -0.14603805131E+00 -0.79060830156E+02  0.14738122474E+02  0.80531489779E+02  0.41800000000E+01 0.  1.
        -11    1    1    2    0    0 -0.26381683246E+02 -0.17615830493E+02  0.47754279130E+02  0.57330461974E+02  0.00000000000E+00 0. -1.
         11    1    1    2    0    0 -0.56955585300E+01  0.53044860307E+02 -0.14967203308E+01  0.53370748202E+02  0.00000000000E+00 0.  1.
</event>
<event>
 7    1  0.2714042E-009  0.9982051E+02  0.7561462E-02  0.1280674E+00
          1   -1    0    0  501    0  0.00000000000E+00  0.00000000000E+00  0.93928876235E+02  0.93928876235E+02  0.00000000000E+00 0. -1.
         -1   -1    0    0    0  501 -0.00000000000E+00 -0.00000000000E+00 -0.13334518813E+03  0.13334518813E+03  0.00000000000E+00 0.  1.
         25    2    1    2    0    0  0.14578186550E+02 -0.21948780842E+02 -0.52299714843E+01  0.12794864332E+03  0.12509688334E+03 0.  0.
          5    1    3    3  502    0 -0.49087823500E+02 -0.24220159854E+02  0.21202898438E+02  0.58849518788E+02  0.41800000000E+01 0.  1.
         -5    1    3    3    0  502  0.63666010051E+02  0.22713790124E+01 -0.26432869922E+02  0.69099124529E+02  0.41800000000E+01 0.  1.
        -11    1    1    2    0    0 -0.15437028406E+01  0.49971052627E+02  0.40524490823E+01  0.50158862255E+02  0.00000000000E+00 0. -1.
         11    1    1    2    0    0 -0.13034483710E+02 -0.28022271785E+02 -0.38238789494E+02  0.49166558793E+02  0.00000000000E+00 0.  1.
</event>
<event>
 7    1  0.2714042E-009  0.8956578E+02  0.7561462E-02  0.1303907E+00
          1   -1    0    0  501    0  0.00000000000E+00  0.00000000000E+00  0.68801492810E+02  0.68801492810E+02  0.00000000000E+00 0. -1.
         -1   -1    0    0    0  501 -0.00000000000E+00 -0.00000000000E+00 -0.15104620052E+03  0.15104620052E+03  0.00000000000E+00 0.  1.
         25    2    1    2    0    0  0.49179677071E+01 -0.23447967954E+02 -0.95835034411E+01  0.12772453626E+03  0.12509084705E+03 0.  0.
          5    1    3    3  502    0 -0.34234934996E+02 -0.59726019519E+02  0.11986931463E+02  0.70002765000E+02  0.41800000000E+01 0. -1.
         -5    1    3    3    0  502  0.39152902703E+02  0.36278051565E+02 -0.21570434904E+02  0.57721771260E+02  0.41800000000E+01 0. -1.
        -11    1    1    2    0    0  0.20062040651E+02 -0.29517360048E+01 -0.25292815444E+02  0.32417969301E+02  0.00000000000E+00 0.  1.
         11    1    1    2    0    0 -0.24980008358E+02  0.26399703959E+02 -0.47368388825E+02  0.59705187769E+02  0.00000000000E+00 0. -1.
</event>
<event>
 7    1  0.2714042E-009  0.6205439E+02  0.7561462E-02  0.1389407E+00
         -2   -1    0    0    0  501 -0.00000000000E+00  0.00000000000E+00  0.88521222752E+02  0.88521222752E+02  0.00000000000E+00 0.  1.
          2   -1    0    0  501    0  0.00000000000E+00 -0.00000000000E+00 -0.19003791291E+03  0.19003791291E+03  0.00000000000E+00 0. -1.
         25    2    1    2    0    0 -0.92160171477E+01  0.60807010932E+02 -0.95427952280E+02  0.16892661257E+03  0.12508908349E+03 0.  0.
          5    1    3    3  502    0 -0.20997319730E+01  0.15256067406E+02 -0.11683809404E+03  0.11792272506E+03  0.41800000000E+01 0. -1.
         -5    1    3    3    0  502 -0.71162851747E+01  0.45550943526E+02  0.21410141763E+02  0.51003887509E+02  0.41800000000E+01 0. -1.
        -11    1    1    2    0    0  0.98602923878E+01 -0.46323985579E+02  0.39576907704E+02  0.61720892972E+02  0.00000000000E+00 0.  1.
         11    1    1    2    0    0 -0.64427524014E+00 -0.14483025353E+02 -0.45665645581E+02  0.47911630115E+02  0.00000000000E+00 0. -1.
</event>
<event>
 7    1  0.2714042E-009  0.1044510E+03  0.7561462E-02  0.1271205E+00
         -1   -1    0    0    0  501 -0.00000000000E+00  0.00000000000E+00  0.39083797991E+02  0.39083797991E+02  0.00000000000E+00 0.  1.
          1   -1    0    0  501    0  0.00000000000E+00 -0.00000000000E+00 -0.38370905299E+03  0.38370905299E+03  0.00000000000E+00 0. -1.
         25    2    1    2    0    0 -0.19919941588E+02 -0.18381368912E+02 -0.10624338346E+03  0.16634478651E+03  0.12509297612E+03 0.  0.
          5    1    3    3  502    0  0.28556102724E+02  0.34236355675E+02 -0.92099596615E+01  0.45715148580E+02  0.41800000000E+01 0.  1.
         -5    1    3    3    0  502 -0.48476044312E+02 -0.52617724588E+02 -0.97033423795E+02  0.12062963793E+03  0.41800000000E+01 0.  1.
        -11    1    1    2    0    0 -0.34317932417E+02 -0.23377821410E+01 -0.64051370925E+02  0.72703258718E+02  0.00000000000E+00 0.  1.
         11    1    1    2    0    0  0.54237874005E+02  0.20719151053E+02 -0.17433050061E+03  0.18374480575E+03  0.00000000000E+00 0. -1.
</event>
<event>
 7    1  0.2714042E-009  0.1655275E+03  0.7561462E-02  0.1182594E+00
         -2   -1    0    0    0  501 -0.00000000000E+00  0.00000000000E+00  0.46914773742E+03  0.46914773742E+03  0.00000000000E+00 0.  1.
          2   -1    0    0  501    0  0.00000000000E+00 -0.00000000000E+00 -0.76338411890E+02  0.76338411890E+02  0.00000000000E+00 0. -1.
         25    2    1    2    0    0  0.13199684915E+03  0.80549644822E+02  0.21809013227E+03  0.29516462687E+03  0.12508971859E+03 0.  0.
          5    1    3    3  502    0  0.86118946519E+02  0.60482200566E+02  0.22102002402E+03  0.24483033504E+03  0.41800000000E+01 0. -1.
         -5    1    3    3    0  502  0.45877902629E+02  0.20067444256E+02 -0.29298917563E+01  0.50334291833E+02  0.41800000000E+01 0. -1.
        -11    1    1    2    0    0 -0.46938695490E+02  0.13340660037E+02  0.27194281628E+02  0.55863613361E+02  0.00000000000E+00 0.  1.
         11    1    1    2    0    0 -0.85058153658E+02 -0.93890304859E+02  0.14752491163E+03  0.19445790908E+03  0.00000000000E+00 0. -1.
</event>
<event>
 7    1  0.2714042E-009  0.1508348E+03  0.7561462E-02  0.1199451E+00
         -2   -1    0    0    0  501 -0.00000000000E+00  0.00000000000E+00  0.65573836522E+03  0.65573836522E+03  0.00000000000E+00 0.  1.
          2   -1    0    0  501    0  0.00000000000E+00 -0.00000000000E+00 -0.61980888577E+02  0.61980888577E+02  0.00000000000E+00 0. -1.
         25    2    1    2    0    0  0.88005519095E+02  0.66347349590E+02  0.81361476773E+02  0.18551327842E+03  0.12509414206E+03 0.  0.
          5    1    3    3  502    0 -0.27372242965E+02  0.14498728432E+02 -0.58698902579E+01  0.31802214117E+02  0.41800000000E+01 0.  1.
         -5    1    3    3    0  502  0.11537776206E+03  0.51848621158E+02  0.87231367030E+02  0.15371106430E+03  0.41800000000E+01 0.  1.
        -11    1    1    2    0    0 -0.12341968533E+02  0.23406472879E+02  0.93982122184E+02  0.97636194365E+02  0.00000000000E+00 0.  1.
         11    1    1    2    0    0 -0.75663550563E+02 -0.89753822469E+02  0.41841387769E+03  0.43456978102E+03  0.00000000000E+00 0. -1.
</event>
<event>
 7    1  0.2714042E-009  0.1106690E+03  0.7561462E-02  0.1259336E+00
          2   -1    0    0  501    0  0.00000000000E+00  0.00000000000E+00  0.25113346659E+03  0.25113346659E+03  0.00000000000E+00 0. -1.
         -2   -1    0    0    0  501 -0.00000000000E+00 -0.00000000000E+00 -0.83640163844E+02  0.83640163844E+02  0.00000000000E+00 0.  1.
         25    2    1    2    0    0  0.89805895390E+02 -0.26788780274E+02  0.10993787421E+03  0.19109243387E+03  0.12508894636E+03 0.  0.
          5    1    3    3  502    0  0.42498885276E+01  0.38791327548E+01 -0.26312754906E+02  0.27256975147E+02  0.41800000000E+01 0.  1.
         -5    1    3    3    0  502  0.85556006863E+02 -0.30667913029E+02  0.13625062912E+03  0.16383545872E+03  0.41800000000E+01 0.  1.
        -11    1    1    2    0    0 -0.34323495138E+02 -0.28724818247E+02 -0.25413244712E+01  0.44829408114E+02  0.00000000000E+00 0.  1.
         11    1    1    2    0    0 -0.55482400253E+02  0.55513598520E+02  0.60096753009E+02  0.98851788455E+02  0.00000000000E+00 0. -1.
</event>
<event>
 7    1  0.2714042E-009  0.8496438E+02  0.7561462E-02  0.1315526E+00
          1   -1    0    0  501    0  0.00000000000E+00  0.00000000000E+00  0.98010778339E+02  0.98010778339E+02  0.00000000000E+00 0. -1.
         -1   -1    0    0    0  501 -0.00000000000E+00 -0.00000000000E+00 -0.12790494349E+03  0.12790494349E+03  0.00000000000E+00 0.  1.
         25    2    1    2    0    0 -0.58488177242E+01 -0.15539080679E+02 -0.41571326917E+02  0.13285538189E+03  0.12508679218E+03 0.  0.
          5    1    3    3  502    0 -0.27491518417E+02 -0.52450343566E+02 -0.61491789131E+02  0.85472420439E+02  0.41800000000E+01 0.  1.
         -5    1    3    3    0  502  0.21642700693E+02  0.36911262887E+02  0.19920462215E+02  0.47382961453E+02  0.41800000000E+01 0.  1.
        -11    1    1    2    0    0 -0.20337190472E+02 -0.16502332450E+02 -0.26139480365E+02  0.37002712418E+02  0.00000000000E+00 0.  1.
         11    1    1    2    0    0  0.26186008196E+02  0.32041413129E+02  0.37816642134E+02  0.56057627517E+02  0.00000000000E+00 0. -1.
</event>
<event>
 7    1  0.2714042E-009  0.1003024E+03  0.7561462E-02  0.1279661E+00
          2   -1    0    0  501    0  0.00000000000E+00  0.00000000000E+00  0.76403159632E+03  0.76403159632E+03  0.00000000000E+00 0. -1.
         -2   -1    0    0    0  501 -0.00000000000E+00 -0.00000000000E+00 -0.24226843965E+02  0.24226843965E+02  0.00000000000E+00 0.  1.
         25    2    1    2    0    0  0.43485688352E+02  0.54050634346E+02  0.27769891999E+03  0.31237271258E+03  0.12509014843E+03 0.  0.
          5    1    3    3  502    0  0.34204440710E+02 -0.32706994762E+01  0.67831120222E+01  0.35272145498E+02  0.41800000000E+01 0. -1.
         -5    1    3    3    0  502  0.92812476427E+01  0.57321333822E+02  0.27091580797E+03  0.27710056708E+03  0.41800000000E+01 0. -1.
        -11    1    1    2    0    0 -0.21920301784E+02  0.20593186089E+02  0.70513895625E+02  0.76660214060E+02  0.00000000000E+00 0.  1.
         11    1    1    2    0    0 -0.21565386569E+02 -0.74643820435E+02  0.39159193673E+03  0.39922551364E+03  0.00000000000E+00 0. -1.
</event>
<event>
 7    1  0.2714042E-009  0.1090886E+03  0.7561462E-02  0.1262267E+00
         -2   -1    0    0    0  501 -0.00000000000E+00  0.00000000000E+00  0.16510142096E+03  0.16510142096E+03  0.00000000000E+00 0. -1.
          2   -1    0    0  501    0  0.00000000000E+00 -0.00000000000E+00 -0.80027384381E+02  0.80027384381E+02  0.00000000000E+00 0.  1.
         25    2    1    2    0    0 -0.27448718037E+02  0.19441285602E+02  0.29969129367E+02  0.13295654637E+03  0.12509156166E+03 0.  0.
          5    1    3    3  502    0  0.48642570135E+02 -0.57157487652E+01  0.85163824063E+01  0.49887579442E+02  0.41800000000E+01 0.  1.
         -5    1    3    3    0  502 -0.76091288172E+02  0.25157034367E+02  0.21452746961E+02  0.83068966925E+02  0.41800000000E+01 0.  1.
        -11    1    1    2    0    0 -0.16793101140E+02 -0.37420021372E+02  0.49198903981E+02  0.64053090466E+02  0.00000000000E+00 0.  1.
         11    1    1    2    0    0  0.44241819177E+02  0.17978735770E+02  0.59060032346E+01  0.48119168511E+02  0.00000000000E+00 0. -1.
</event>
<event>
 7    1  0.2714042E-009  0.1107332E+03  0.7561462E-02  0.1259218E+00
         -2   -1    0    0    0  501 -0.00000000000E+00  0.00000000000E+00  0.31896562826E+03  0.31896562826E+03  0.00000000000E+00 0.  1.
          2   -1    0    0  501    0  0.00000000000E+00 -0.00000000000E+00 -0.45791620577E+02  0.45791620577E+02  0.00000000000E+00 0. -1.
         25    2    1    2    0    0 -0.19991585255E+02  0.46658557998E+01  0.83180314814E+02  0.15161689689E+03  0.12508910807E+03 0.  0.
          5    1    3    3  502    0 -0.10761254264E+02  0.64702146478E+02  0.46897548204E+02  0.80740477951E+02  0.41800000000E+01 0.  1.
         -5    1    3    3    0  502 -0.92303309919E+01 -0.60036290679E+02  0.36282766609E+02  0.70876418938E+02  0.41800000000E+01 0.  1.
        -11    1    1    2    0    0  0.14712150250E+02  0.43748278608E+02  0.72402715394E+02  0.85863335846E+02  0.00000000000E+00 0. -1.
         11    1    1    2    0    0  0.52794350051E+01 -0.48414134408E+02  0.11759097748E+03  0.12727701611E+03  0.00000000000E+00 0.  1.
</event>
<event>
 7    1  0.2714042E-009  0.8246968E+02  0.7561462E-02  0.1322185E+00
          4   -1    0    0  501    0  0.00000000000E+00  0.00000000000E+00  0.66586476334E+02  0.66586476334E+02  0.00000000000E+00 0.  1.
         -4   -1    0    0    0  501 -0.00000000000E+00 -0.00000000000E+00 -0.28074277146E+03  0.28074277146E+03  0.00000000000E+00 0. -1.
         25    2    1    2    0    0  0.71273202362E+02  0.30913124851E+02 -0.83613695750E+02  0.16933615413E+03  0.12509193546E+03 0.  0.
          5    1    3    3  502    0  0.32730532231E+02  0.27282682842E+02  0.27978307149E+02  0.51145777872E+02  0.41800000000E+01 0. -1.
         -5    1    3    3    0  502  0.38542670131E+02  0.36304420092E+01 -0.11159200290E+03  0.11819037626E+03  0.41800000000E+01 0. -1.
        -11    1    1    2    0    0 -0.13090817519E+02 -0.20131386995E+02  0.96069308589E+01  0.25863784838E+02  0.00000000000E+00 0.  1.
         11    1    1    2    0    0 -0.58182384844E+02 -0.10781737856E+02 -0.14014953023E+03  0.15212930882E+03  0.00000000000E+00 0. -1.
</event>
<event>
 7    1  0.2714042E-009  0.1213930E+03  0.7561462E-02  0.1240817E+00
          2   -1    0    0  501    0  0.00000000000E+00  0.00000000000E+00  0.53622227562E+03  0.53622227562E+03  0.00000000000E+00 0.  1.
         -2   -1    0    0    0  501 -0.00000000000E+00 -0.00000000000E+00 -0.31827801998E+02  0.31827801998E+02  0.00000000000E+00 0. -1.
         25    2    1    2    0    0  0.19181219009E+02  0.62277849384E+02  0.20525788228E+03  0.24904751557E+03  0.12508963621E+03 0.  0.
          5    1    3    3  502    0  0.71492210685E+02  0.25723681442E+02  0.12612813309E+03  0.14730452244E+03  0.41800000000E+01 0.  1.
         -5    1    3    3    0  502 -0.52310991675E+02  0.36554167942E+02  0.79129749186E+02  0.10174299313E+03  0.41800000000E+01 0.  1.
        -11    1    1    2    0    0  0.13746697085E+02 -0.67948532668E+02  0.25105931731E+03  0.26045490124E+03  0.00000000000E+00 0.  1.
         11    1    1    2    0    0 -0.32927916095E+02  0.56706832841E+01  0.48077274038E+02  0.58547660809E+02  0.00000000000E+00 0. -1.
</event>
<event>
 7    1  0.2714042E-009  0.1131746E+03  0.7561462E-02  0.1254802E+00
          1   -1    0    0  501    0  0.00000000000E+00  0.00000000000E+00  0.80064303706E+03  0.80064303706E+03  0.00000000000E+00 0. -1.
         -1   -1    0    0    0  501 -0.00000000000E+00 -0.00000000000E+00 -0.18394926057E+02  0.18394926057E+02  0.00000000000E+00 0.  1.
         25    2    1    2    0    0 -0.21712544625E+02 -0.47564376012E+02  0.37864074000E+03  0.40218166864E+03  0.12508988826E+03 0.  0.
          5    1    3    3  502    0  0.21463334935E+02 -0.75885195051E+02  0.17395488508E+03  0.19104191167E+03  0.41800000000E+01 0. -1.
         -5    1    3    3    0  502 -0.43175879560E+02  0.28320819039E+02  0.20468585492E+03  0.21113975697E+03  0.41800000000E+01 0. -1.
        -11    1    1    2    0    0 -0.27478585180E+02  0.48636883403E+00  0.53034714918E+02  0.59732655931E+02  0.00000000000E+00 0.  1.
         11    1    1    2    0    0  0.49191129805E+02  0.47078007178E+02  0.35057265608E+03  0.35712363854E+03  0.00000000000E+00 0. -1.
</event>
<event>
 7    1  0.2714042E-009  0.9426823E+02  0.7561462E-02  0.1292833E+00
         -1   -1    0    0    0  501 -0.00000000000E+00  0.00000000000E+00  0.43065888472E+02  0.43065888472E+02  0.00000000000E+00 0.  1.
          1   -1    0    0  501    0  0.00000000000E+00 -0.00000000000E+00 -0.28983394864E+03  0.28983394864E+03  0.00000000000E+00 0. -1.
         25    2    1    2    0    0  0.57163998462E+01  0.13863892018E+02 -0.11060533810E+03  0.16763385496E+03  0.12507071513E+03 0.  0.
          5    1    3    3  502    0  0.15571916945E+02 -0.38430993513E+02 -0.10618610493E+03  0.11407185078E+03  0.41800000000E+01 0.  1.
         -5    1    3    3    0  502 -0.98555170988E+01  0.52294885531E+02 -0.44192331652E+01  0.53562004180E+02  0.41800000000E+01 0.  1.
        -11    1    1    2    0    0  0.43298638143E+02 -0.90103017914E+01 -0.69560078772E+02  0.82429134183E+02  0.00000000000E+00 0. -1.
         11    1    1    2    0    0 -0.49015037989E+02 -0.48535902267E+01 -0.66602643301E+02  0.82836847971E+02  0.00000000000E+00 0.  1.
</event>
<event>
 7    1  0.2714042E-009  0.4758437E+02  0.7561462E-02  0.1458824E+00
          1   -1    0    0  501    0  0.00000000000E+00  0.00000000000E+00  0.21528187135E+03  0.21528187135E+03  0.00000000000E+00 0. -1.
         -1   -1    0    0    0  501 -0.00000000000E+00 -0.00000000000E+00 -0.66997033323E+02  0.66997033323E+02  0.00000000000E+00 0.  1.
         25    2    1    2    0    0 -0.17221197378E+02 -0.72644292307E+01  0.14702474171E+03  0.19394588231E+03  0.12509751803E+03 0.  0.
          5    1    3    3  502    0 -0.28463278104E+02 -0.16681996924E+02  0.16617260708E+03  0.16946756316E+03  0.41800000000E+01 0.  1.
         -5    1    3    3    0  502  0.11242080726E+02  0.94175676931E+01 -0.19147865362E+02  0.24478319147E+02  0.41800000000E+01 0.  1.
        -11    1    1    2    0    0 -0.13748070697E+02  0.75673399095E+01  0.37506441323E+02  0.40657191515E+02  0.00000000000E+00 0. -1.
         11    1    1    2    0    0  0.30969268075E+02 -0.30291067885E+00 -0.36246345013E+02  0.47675830845E+02  0.00000000000E+00 0.  1.
</event>
<event>
 7    1  0.2714042E-009  0.8513488E+02  0.7561462E-02  0.1315080E+00
          3   -1    0    0  501    0  0.00000000000E+00  0.00000000000E+00  0.13203004702E+03  0.13203004702E+03  0.00000000000E+00 0. -1.
         -3   -1    0    0    0  501 -0.00000000000E+00 -0.00000000000E+00 -0.10727033722E+03  0.10727033722E+03  0.00000000000E+00 0.  1.
         25    2    1    2    0    0 -0.40063386143E+02  0.40868557999E+01  0.37652148617E+02  0.13669710250E+03  0.12508651500E+03 0.  0.
          5    1    3    3  502    0  0.27677449338E+02 -0.27121395424E+02  0.47395844276E+02  0.61363260558E+02  0.41800000000E+01 0.  1.
         -5    1    3    3    0  502 -0.67740835482E+02  0.31208251224E+02 -0.97436956590E+01  0.75333841939E+02  0.41800000000E+01 0.  1.
        -11    1    1    2    0    0  0.44762325881E+02 -0.12918659293E+02 -0.47526589837E+02  0.66553244232E+02  0.00000000000E+00 0.  1.
         11    1    1    2    0    0 -0.46989397381E+01  0.88318034934E+01  0.34634151016E+02  0.36050037507E+02  0.00000000000E+00 0. -1.
</event>
<event>
 7    1  0.2714042E-009  0.7976397E+02  0.7561462E-02  0.1329723E+00
         -1   -1    0    0    0  501 -0.00000000000E+00  0.00000000000E+00  0.74319190477E+03  0.74319190477E+03  0.00000000000E+00 0.  1.
          1   -1    0    0  501    0  0.00000000000E+00 -0.00000000000E+00 -0.18502917992E+02  0.18502917992E+02  0.00000000000E+00 0. -1.
         25    2    1    2    0    0 -0.42983416489E+02 -0.15389925413E+02  0.41588989837E+03  0.43668728918E+03  0.12508779746E+03 0.  0.
          5    1    3    3  502    0 -0.22287216476E+02  0.10383009538E+02  0.62717819340E+01  0.25716425762E+02  0.41800000000E+01 0.  1.
         -5    1    3    3    0  502 -0.20696200013E+02 -0.25772934952E+02  0.40961811643E+03  0.41097086342E+03  0.41800000000E+01 0.  1.
        -11    1    1    2    0    0  0.70025067314E+02 -0.26263638913E+00  0.21958375473E+03  0.23047907578E+03  0.00000000000E+00 0.  1.
         11    1    1    2    0    0 -0.27041650825E+02  0.15652561802E+02  0.89215333679E+02  0.94528457799E+02  0.00000000000E+00 0. -1.
</event>
<event>
 7    1  0.2714042E-009  0.9929514E+02  0.7561462E-02  0.1281785E+00
         -2   -1    0    0    0  501 -0.00000000000E+00  0.00000000000E+00  0.47989056554E+02  0.47989056554E+02  0.00000000000E+00 0.  1.
          2   -1    0    0  501    0  0.00000000000E+00 -0.00000000000E+00 -0.30055555506E+03  0.30055555506E+03  0.00000000000E+00 0. -1.
         25    2    1    2    0    0  0.78998314764E+01 -0.26669076736E+02 -0.83428072580E+02  0.15290407687E+03  0.12508303816E+03 0.  0.
          5    1    3    3  502    0 -0.56112604154E+02  0.50860740772E+00 -0.23400378953E+02  0.60942047566E+02  0.41800000000E+01 0. -1.
         -5    1    3    3    0  502  0.64012435630E+02 -0.27177684144E+02 -0.60027693627E+02  0.91962029300E+02  0.41800000000E+01 0. -1.
        -11    1    1    2    0    0 -0.35442477115E+02  0.27862280883E+02 -0.16055842493E+03  0.16676775376E+03  0.00000000000E+00 0. -1.
         11    1    1    2    0    0  0.27542645638E+02 -0.11932041466E+01 -0.85800010034E+01  0.28872780990E+02  0.00000000000E+00 0.  1.
</event>
<event>
 7    1  0.2714042E-009  0.1163938E+03  0.7561462E-02  0.1249168E+00
          2   -1    0    0  501    0  0.00000000000E+00  0.00000000000E+00  0.26393877458E+03  0.26393877458E+03  0.00000000000E+00 0.  1.
         -2   -1    0    0    0  501 -0.00000000000E+00 -0.00000000000E+00 -0.97077519375E+02  0.97077519375E+02  0.00000000000E+00 0. -1.
         25    2    1    2    0    0 -0.77784219004E+01 -0.83725859130E+02  0.18159453097E+03  0.23599814401E+03  0.12509207394E+03 0.  0.
          5    1    3    3  502    0 -0.59147114795E+02 -0.37913569066E+02  0.46592081049E+02  0.84404468628E+02  0.41800000000E+01 0. -1.
         -5    1    3    3    0  502  0.51368692895E+02 -0.45812290065E+02  0.13500244992E+03  0.15159367538E+03  0.41800000000E+01 0. -1.
        -11    1    1    2    0    0  0.18021516967E+02  0.13589052901E+02 -0.43115504939E+02  0.48666047700E+02  0.00000000000E+00 0. -1.
         11    1    1    2    0    0 -0.10243095067E+02  0.70136806229E+02  0.28382229174E+02  0.76352102247E+02  0.00000000000E+00 0.  1.
</event>
<event>
 7    1  0.2714042E-009  0.9901174E+02  0.7561462E-02  0.1282388E+00
         -2   -1    0    0    0  501 -0.00000000000E+00  0.00000000000E+00  0.85735592888E+02  0.85735592888E+02  0.00000000000E+00 0.  1.
          2   -1    0    0  501    0  0.00000000000E+00 -0.00000000000E+00 -0.18191230368E+03  0.18191230368E+03  0.00000000000E+00 0. -1.
         25    2    1    2    0    0  0.36326097325E+02 -0.52130811631E+02 -0.41791192508E+02  0.14639468147E+03  0.12509073556E+03 0.  0.
          5    1    3    3  502    0  0.32589467795E+02 -0.74056505980E+02  0.17539049719E+02  0.82894693161E+02  0.41800000000E+01 0.  1.
         -5    1    3    3    0  502  0.37366295300E+01  0.21925694349E+02 -0.59330242226E+02  0.63499988311E+02  0.41800000000E+01 0.  1.
        -11    1    1    2    0    0  0.24860326125E+00 -0.16555360570E+02  0.10777431583E+02  0.19755880105E+02  0.00000000000E+00 0.  1.
         11    1    1    2    0    0 -0.36574700586E+02  0.68686172202E+02 -0.65162949866E+02  0.10149733499E+03  0.00000000000E+00 0. -1.
</event>
<event>
 7    1  0.3075125E-009  0.1351558E+03  0.7561462E-02  0.1220000E+00
          1   -1    0    0  501    0  0.00000000000E+00  0.00000000000E+00  0.13050432340E+04  0.13050432340E+04  0.00000000000E+00 0. -1.
         -1   -1    0    0    0  501 -0.00000000000E+00 -0.00000000000E+00 -0.18051201149E+02  0.18051201149E+02  0.00000000000E+00 0.  1.
         25    2    1    2    0    0 -0.42459579469E+02 -0.91895137590E+02  0.85654004477E+03  0.87152515880E+03  0.12509085470E+03 0.  0.
          5    1    3    3  502    0  0.10857302056E+02 -0.78850084293E+02  0.24783651793E+03  0.26033752864E+03  0.41800000000E+01 0.  1.
         -5    1    3    3    0  502 -0.53316881526E+02 -0.13045053297E+02  0.60870352684E+03  0.61118763016E+03  0.41800000000E+01 0.  1.
        -11    1    1    2    0    0  0.70661211050E+02  0.57638529998E+02  0.26401153610E+03  0.27931576769E+03  0.00000000000E+00 0.  1.
         11    1    1    2    0    0 -0.28201631580E+02  0.34256607591E+02  0.16644045194E+03  0.17225350861E+03  0.00000000000E+00 0. -1.
</event>
<event>
 7    1  0.2714042E-009  0.1347190E+03  0.7561462E-02  0.1220617E+00
          2   -1    0    0  501    0  0.00000000000E+00  0.00000000000E+00  0.22457552384E+03  0.22457552384E+03  0.00000000000E+00 0. -1.
         -2   -1    0    0    0  501 -0.00000000000E+00 -0.00000000000E+00 -0.98907513452E+02  0.98907513452E+02  0.00000000000E+00 0.  1.
         25    2    1    2    0    0  0.65619435148E+02 -0.72110683558E+02  0.10155055509E+03  0.18832543557E+03  0.12509233986E+03 0.  0.
          5    1    3    3  502    0 -0.14836039479E+02 -0.52717603876E+02 -0.28945086748E+01  0.55000949140E+02  0.41800000000E+01 0.  1.
         -5    1    3    3    0  502  0.80455474627E+02 -0.19393079682E+02  0.10444506376E+03  0.13332448643E+03  0.41800000000E+01 0.  1.
        -11    1    1    2    0    0 -0.69756013063E+02  0.11262437049E+02  0.33815239967E+01  0.70740218768E+02  0.00000000000E+00 0.  1.
         11    1    1    2    0    0  0.41365779156E+01  0.60848246509E+02  0.20735931306E+02  0.64417382958E+02  0.00000000000E+00 0. -1.
</event>
<event>
 7    1  0.2714042E-009  0.9980569E+02  0.7561462E-02  0.1280705E+00
          2   -1    0    0  501    0  0.00000000000E+00  0.00000000000E+00  0.62329554858E+03  0.62329554858E+03  0.00000000000E+00 0. -1.
         -2   -1    0    0    0  501 -0.00000000000E+00 -0.00000000000E+00 -0.23200884848E+02  0.23200884848E+02  0.00000000000E+00 0.  1.
         25    2    1    2    0    0 -0.12924589370E+02 -0.13558176903E+02  0.43517175416E+03  0.45318119712E+03  0.12509145708E+03 0.  0.
          5    1    3    3  502    0 -0.17863106470E+02  0.50073045438E+02  0.28515915655E+03  0.29010277044E+03  0.41800000000E+01 0. -1.
         -5    1    3    3    0  502  0.49385170997E+01 -0.63631222341E+02  0.15001259761E+03  0.16307842668E+03  0.41800000000E+01 0. -1.
        -11    1    1    2    0    0  0.32791727958E+02 -0.23454545550E+02  0.13715934947E+03  0.14296188400E+03  0.00000000000E+00 0. -1.
         11    1    1    2    0    0 -0.19867138588E+02  0.37012722453E+02  0.27763560105E+02  0.50353352309E+02  0.00000000000E+00 0.  1.
</event>
<event>
 7    1  0.2714042E-009  0.1011312E+03  0.7561462E-02  0.1277935E+00
         -1   -1    0    0    0  501 -0.00000000000E+00  0.00000000000E+00  0.41019666197E+02  0.41019666197E+02  0.00000000000E+00 0.  1.
          1   -1    0    0  501    0  0.00000000000E+00 -0.00000000000E+00 -0.48893758677E+03  0.48893758677E+03  0.00000000000E+00 0. -1.
         25    2    1    2    0    0  0.33218183642E+02 -0.80791090769E+02 -0.19163635762E+03  0.24495492400E+03  0.12509105946E+03 0.  0.
          5    1    3    3  502    0  0.36244639346E+00 -0.73520528013E+02 -0.29530598658E+02  0.79340582704E+02  0.41800000000E+01 0. -1.
         -5    1    3    3    0  502  0.32855737249E+02 -0.72705627563E+01 -0.16210575896E+03  0.16561434129E+03  0.41800000000E+01 0. -1.
        -11    1    1    2    0    0 -0.37994416085E+02  0.46304632911E+02 -0.23850450802E+03  0.24591074606E+03  0.00000000000E+00 0.  1.
         11    1    1    2    0    0  0.47762324430E+01  0.34486457858E+02 -0.17777054926E+02  0.39091582903E+02  0.00000000000E+00 0. -1.
</event>
<event>
 7    1  0.2714042E-009  0.2490601E+03  0.7561462E-02  0.1113900E+00
          4   -1    0    0  501    0  0.00000000000E+00  0.00000000000E+00  0.92949735534E+03  0.92949735534E+03  0.00000000000E+00 0. -1.
         -4   -1    0    0    0  501 -0.00000000000E+00 -0.00000000000E+00 -0.76450501016E+02  0.76450501016E+02  0.00000000000E+00 0.  1.
         25    2    1    2    0    0  0.15398206544E+03 -0.17253928647E+03  0.29745069992E+03  0.39699428060E+03  0.12508900067E+03 0.  0.
          5    1    3    3  502    0  0.17311228065E+02 -0.87993258999E+02  0.16842435084E+03  0.19085787016E+03  0.41800000000E+01 0.  1.
         -5    1    3    3    0  502  0.13667083738E+03 -0.84546027468E+02  0.12902634909E+03  0.20613641044E+03  0.41800000000E+01 0.  1.
        -11    1    1    2    0    0 -0.13802095991E+03  0.92937332413E+02  0.40540169545E+03  0.43822102620E+03  0.00000000000E+00 0. -1.
         11    1    1    2    0    0 -0.15961105533E+02  0.79601954054E+02  0.15019445895E+03  0.17073254955E+03  0.00000000000E+00 0.  1.
</event>
<event>
 7    1  0.2714042E-009  0.1023064E+03  0.7561462E-02  0.1275519E+00
          2   -1    0    0  501    0  0.00000000000E+00  0.00000000000E+00  0.79240398784E+03  0.79240398784E+03  0.00000000000E+00 0. -1.
         -2   -1    0    0    0  501 -0.00000000000E+00 -0.00000000000E+00 -0.19176504926E+02  0.19176504926E+02  0.00000000000E+00 0.  1.
         25    2    1    2    0    0 -0.33950613113E+02 -0.46754493802E+02  0.47504219937E+03  0.49462199774E+03  0.12508877908E+03 0.  0.
          5    1    3    3  502    0  0.29969307506E+02 -0.46058223659E+02  0.34806433088E+03  0.35240001446E+03  0.41800000000E+01 0. -1.
         -5    1    3    3    0  502 -0.63919920619E+02 -0.69627014343E+00  0.12697786848E+03  0.14222198328E+03  0.41800000000E+01 0. -1.
        -11    1    1    2    0    0 -0.17170682815E+02  0.16161692585E+01  0.82639555311E+01  0.19124259788E+02  0.00000000000E+00 0.  1.
         11    1    1    2    0    0  0.51121295928E+02  0.45138324543E+02  0.28992132802E+03  0.29783423524E+03  0.00000000000E+00 0. -1.
</event>
<event>
 7    1  0.2714042E-009  0.9932577E+02  0.7561462E-02  0.1281720E+00
          1   -1    0    0  501    0  0.00000000000E+00  0.00000000000E+00  0.10093967412E+04  0.10093967412E+04  0.00000000000E+00 0. -1.
         -1   -1    0    0    0  501 -0.00000000000E+00 -0.00000000000E+00 -0.12218216680E+02  0.12218216680E+02  0.00000000000E+00 0.  1.
         25    2    1    2    0    0  0.25233822342E+02  0.53576023613E+01  0.54834865103E+03  0.56302653444E+03  0.12508871135E+03 0.  0.
          5    1    3    3  502    0 -0.71456977708E+01  0.49419129025E+02  0.42616347028E+03  0.42909915767E+03  0.41800000000E+01 0.  1.
         -5    1    3    3    0  502  0.32379520113E+02 -0.44061526664E+02  0.12218518074E+03  0.13392737677E+03  0.41800000000E+01 0.  1.
        -11    1    1    2    0    0 -0.43852951076E+02  0.30420902474E+02  0.27620765637E+03  0.28131687128E+03  0.00000000000E+00 0. -1.
         11    1    1    2    0    0  0.18619128734E+02 -0.35778504835E+02  0.17262221707E+03  0.17727155212E+03  0.00000000000E+00 0.  1.
</event>
<event>
 7    1  0.2714042E-009  0.1751827E+03  0.7561462E-02  0.1172548E+00
         -1   -1    0    0    0  501 -0.00000000000E+00  0.00000000000E+00  0.15772439059E+03  0.15772439059E+03  0.00000000000E+00 0.  1.
          1   -1    0    0  501    0  0.00000000000E+00 -0.00000000000E+00 -0.24799711553E+03  0.24799711553E+03  0.00000000000E+00 0. -1.
         25    2    1    2    0    0 -0.14556072041E+03 -0.73940744326E+02 -0.23728915989E+02  0.20703797429E+03  0.12508598781E+03 0.  0.
          5    1    3    3  502    0 -0.11563536292E+03 -0.61971003794E+02 -0.71337634227E+02  0.14939368436E+03  0.41800000000E+01 0. -1.
         -5    1    3    3    0  502 -0.29925357486E+02 -0.11969740532E+02  0.47608718237E+02  0.57644289928E+02  0.41800000000E+01 0. -1.
        -11    1    1    2    0    0  0.47180453252E+02  0.74546128388E+02 -0.23506954988E+02  0.91300040304E+02  0.00000000000E+00 0.  1.
         11    1    1    2    0    0  0.98380267155E+02 -0.60538406147E+00 -0.43036853958E+02  0.10738349153E+03  0.00000000000E+00 0. -1.
</event>
<event>
 7    1  0.2714042E-009  0.1065425E+03  0.7561462E-02  0.1267110E+00
          2   -1    0    0  501    0  0.00000000000E+00  0.00000000000E+00  0.29754106924E+03  0.29754106924E+03  0.00000000000E+00 0. -1.
         -2   -1    0    0    0  501 -0.00000000000E+00 -0.00000000000E+00 -0.42803618820E+02  0.42803618820E+02  0.00000000000E+00 0.  1.
         25    2    1    2    0    0  0.19220874707E+02  0.53729396167E+01  0.18760787799E+03  0.22637176032E+03  0.12509655263E+03 0.  0.
          5    1    3    3  502    0  0.35784886224E+02 -0.53348159616E+02  0.80963192537E+02  0.10343643054E+03  0.41800000000E+01 0.  1.
         -5    1    3    3    0  502 -0.16564011518E+02  0.58721099233E+02  0.10664468545E+03  0.12293532978E+03  0.41800000000E+01 0.  1.
        -11    1    1    2    0    0  0.33963376521E+02  0.10810730314E+01  0.94913594709E+01  0.35281235355E+02  0.00000000000E+00 0. -1.
         11    1    1    2    0    0 -0.53184251228E+02 -0.64540126481E+01  0.57638212962E+02  0.78691692391E+02  0.00000000000E+00 0.  1.
</event>
<event>
 7    1  0.2714042E-009  0.1210070E+03  0.7561462E-02  0.1241445E+00
          1   -1    0    0  501    0  0.00000000000E+00  0.00000000000E+00  0.11586955119E+04  0.11586955119E+04  0.00000000000E+00 0. -1.
         -1   -1    0    0    0  501 -0.00000000000E+00 -0.00000000000E+00 -0.14660438449E+02  0.14660438449E+02  0.00000000000E+00 0.  1.
         25    2    1    2    0    0  0.72173271156E+02  0.67870877946E+01  0.64043722350E+03  0.65655329601E+03  0.12508935857E+03 0.  0.
          5    1    3    3  502    0  0.99902590503E+02  0.20146400999E+02  0.57669035016E+03  0.58564121903E+03  0.41800000000E+01 0.  1.
         -5    1    3    3    0  502 -0.27729319347E+02 -0.13359313204E+02  0.63746873344E+02  0.70912076982E+02  0.41800000000E+01 0.  1.
        -11    1    1    2    0    0  0.10987520999E+02 -0.21832636235E+02  0.53216376295E+02  0.58560842964E+02  0.00000000000E+00 0.  1.
         11    1    1    2    0    0 -0.83160792154E+02  0.15045548440E+02  0.45038147368E+03  0.45824181139E+03  0.00000000000E+00 0. -1.
</event>
<event>
 7    1  0.2714042E-009  0.2737377E+03  0.7561462E-02  0.1099159E+00
          2   -1    0    0  501    0  0.00000000000E+00  0.00000000000E+00  0.34876110017E+03  0.34876110017E+03  0.00000000000E+00 0. -1.
         -2   -1    0    0    0  501 -0.00000000000E+00 -0.00000000000E+00 -0.31626129064E+03  0.31626129064E+03  0.00000000000E+00 0.  1.
         25    2    1    2    0    0 -0.11583819932E+03  0.22343219453E+03 -0.17012269429E+03  0.32852152081E+03  0.12507687455E+03 0.  0.
          5    1    3    3  502    0 -0.14247085307E+03  0.19213426101E+03 -0.13787450001E+03  0.27611658476E+03  0.41800000000E+01 0. -1.
         -5    1    3    3    0  502  0.26632653741E+02  0.31297933518E+02 -0.32248194280E+02  0.52404936047E+02  0.41800000000E+01 0. -1.
        -11    1    1    2    0    0  0.15524164088E+02 -0.12647990405E+03  0.77796164532E+02  0.14929972879E+03  0.00000000000E+00 0.  1.
         11    1    1    2    0    0  0.10031403524E+03 -0.96952290479E+02  0.12482633928E+03  0.18720114122E+03  0.00000000000E+00 0. -1.
</event>
<event>
 7    1  0.2714042E-009  0.2303429E+03  0.7561462E-02  0.1126399E+00
          1   -1    0    0  501    0  0.00000000000E+00  0.00000000000E+00  0.10202450880E+03  0.10202450880E+03  0.00000000000E+00 0. -1.
         -1   -1    0    0    0  501 -0.00000000000E+00 -0.00000000000E+00 -0.59754675558E+03  0.59754675558E+03  0.00000000000E+00 0.  1.
         25    2    1    2    0    0 -0.21940906385E+03  0.30389057156E+02 -0.25197581895E+03  0.35805566336E+03  0.12509281607E+03 0.  0.
          5    1    3    3  502    0 -0.15090379442E+03  0.20074101198E+02 -0.24477023032E+03  0.28827914035E+03  0.41800000000E+01 0.  1.
         -5    1    3    3    0  502 -0.68505269427E+02  0.10314955958E+02 -0.72055886307E+01  0.69776523009E+02  0.41800000000E+01 0.  1.
        -11    1    1    2    0    0  0.10356554531E+03  0.30710399084E+02 -0.10005886386E+03  0.14724376735E+03  0.00000000000E+00 0.  1.
         11    1    1    2    0    0  0.11584351854E+03 -0.61099456241E+02 -0.14348756397E+03  0.19427183366E+03  0.00000000000E+00 0. -1.
</event>
<event>
 7    1  0.2714042E-009  0.1571553E+03  0.7561462E-02  0.1191946E+00
          1   -1    0    0  501    0  0.00000000000E+00  0.00000000000E+00  0.82826056712E+03  0.82826056712E+03  0.00000000000E+00 0. -1.
         -1   -1    0    0    0  501 -0.00000000000E+00 -0.00000000000E+00 -0.31943396251E+02  0.31943396251E+02  0.00000000000E+00 0.  1.
         25    2    1    2    0    0 -0.12102046002E+03 -0.52881055739E+01  0.46925211501E+03  0.50051948618E+03  0.12509313651E+03 0.  0.
          5    1    3    3  502    0 -0.12140189569E+03 -0.47121904951E+02  0.38320858150E+03  0.40475323783E+03  0.41800000000E+01 0.  1.
         -5    1    3    3    0  502  0.38143566740E+00  0.41833799377E+02  0.86043533508E+02  0.95766248345E+02  0.41800000000E+01 0.  1.
        -11    1    1    2    0    0  0.12818490502E+03 -0.63108077110E+01  0.24584584965E+03  0.27732900670E+03  0.00000000000E+00 0.  1.
         11    1    1    2    0    0 -0.71644450019E+01  0.11598913285E+02  0.81219206213E+02  0.82355470489E+02  0.00000000000E+00 0. -1.
</event>
<event>
 7    1  0.2714042E-009  0.6609159E+02  0.7561462E-02  0.1373912E+00
          1   -1    0    0  501    0  0.00000000000E+00  0.00000000000E+00  0.74560557262E+02  0.74560557262E+02  0.00000000000E+00 0. -1.
         -1   -1    0    0    0  501 -0.00000000000E+00 -0.00000000000E+00 -0.17663785669E+03  0.17663785669E+03  0.00000000000E+00 0.  1.
         25    2    1    2    0    0 -0.11330363085E+02  0.19921736898E+02 -0.92200884687E+02  0.15707853551E+03  0.12508960969E+03 0.  0.
          5    1    3    3  502    0 -0.17204028044E+02 -0.34152655988E+02  0.11288601252E+02  0.40090989139E+02  0.41800000000E+01 0.  1.
         -5    1    3    3    0  502  0.58736649582E+01  0.54074392886E+02 -0.10348948594E+03  0.11698754637E+03  0.41800000000E+01 0.  1.
        -11    1    1    2    0    0  0.12755667696E+02  0.53625397511E+01 -0.47104516556E+02  0.49094799836E+02  0.00000000000E+00 0.  1.
         11    1    1    2    0    0 -0.14253046105E+01 -0.25284276649E+02  0.37228101814E+02  0.45025078608E+02  0.00000000000E+00 0. -1.
</event>
<event>
 7    1  0.2714042E-009  0.1136787E+03  0.7561462E-02  0.1253905E+00
         -2   -1    0    0    0  501 -0.00000000000E+00  0.00000000000E+00  0.33826045855E+02  0.33826045855E+02  0.00000000000E+00 0.  1.
          2   -1    0    0  501    0  0.00000000000E+00 -0.00000000000E+00 -0.39961672565E+03  0.39961672565E+03  0.00000000000E+00 0. -1.
         25    2    1    2    0    0  0.16333590999E+02  0.39872336023E+02 -0.22052803563E+03  0.25716964433E+03  0.12508805735E+03 0.  0.
          5    1    3    3  502    0 -0.44859072550E+02  0.52460360769E+02 -0.10413899707E+03  0.12500731560E+03  0.41800000000E+01 0.  1.
         -5    1    3    3    0  502  0.61192663550E+02 -0.12588024746E+02 -0.11638903856E+03  0.13216232873E+03  0.41800000000E+01 0.  1.
        -11    1    1    2    0    0 -0.19486608854E+02 -0.66234966571E+02 -0.12527294637E+03  0.14303884023E+03  0.00000000000E+00 0.  1.
         11    1    1    2    0    0  0.31530178544E+01  0.26362630548E+02 -0.19989697795E+02  0.33234286948E+02  0.00000000000E+00 0. -1.
</event>
<event>
 7    1  0.2714042E-009  0.8309878E+02  0.7561462E-02  0.1320481E+00
         -2   -1    0    0    0  501 -0.00000000000E+00  0.00000000000E+00  0.27936531805E+03  0.27936531805E+03  0.00000000000E+00 0. -1.
          2   -1    0    0  501    0  0.00000000000E+00 -0.00000000000E+00 -0.70066496150E+02  0.70066496150E+02  0.00000000000E+00 0.  1.
         25    2    1    2    0    0  0.27689019512E+02  0.47396544981E+02  0.20113205287E+03  0.24313697506E+03  0.12509345175E+03 0.  0.
          5    1    3    3  502    0 -0.14113907089E+02 -0.18302220916E+02 -0.38697839673E+01  0.23803808345E+02  0.41800000000E+01 0.  1.
         -5    1    3    3    0  502  0.41802926601E+02  0.65698765897E+02  0.20500183684E+03  0.21933316671E+03  0.41800000000E+01 0.  1.
        -11    1    1    2    0    0  0.17593122470E+01 -0.30946374962E+02  0.46088325708E+02  0.55541939734E+02  0.00000000000E+00 0. -1.
         11    1    1    2    0    0 -0.29448331759E+02 -0.16450170018E+02 -0.37921556681E+02  0.50752899406E+02  0.00000000000E+00 0.  1.
</event>
<event>
 7    1  0.2714042E-009  0.9883469E+02  0.7561462E-02  0.1282766E+00
          2   -1    0    0  501    0  0.00000000000E+00  0.00000000000E+00  0.13073920895E+03  0.13073920895E+03  0.00000000000E+00 0.  1.
         -2   -1    0    0    0  501 -0.00000000000E+00 -0.00000000000E+00 -0.98737147907E+02  0.98737147907E+02  0.00000000000E+00 0. -1.
         25    2    1    2    0    0  0.28801611450E+02  0.17758966565E+02  0.29424584551E+02  0.13288040957E+03  0.12508590390E+03 0.  0.
          5    1    3    3  502    0  0.26451051580E+02  0.60984069378E+02  0.51420362467E+02  0.84144167498E+02  0.41800000000E+01 0. -1.
         -5    1    3    3    0  502  0.23505598699E+01 -0.43225102813E+02 -0.21995777916E+02  0.48736242069E+02  0.41800000000E+01 0. -1.
        -11    1    1    2    0    0  0.15391260709E+02 -0.36469129760E+02  0.21456995272E+02  0.45025448113E+02  0.00000000000E+00 0.  1.
         11    1    1    2    0    0 -0.44192872160E+02  0.18710163194E+02 -0.18879518777E+02  0.51570499180E+02  0.00000000000E+00 0. -1.
</event>
<event>
 7    1  0.2714042E-009  0.1032384E+03  0.7561462E-02  0.1273630E+00
         -1   -1    0    0    0  501 -0.00000000000E+00  0.00000000000E+00  0.36692292284E+02  0.36692292284E+02  0.00000000000E+00 0.  1.
          1   -1    0    0  501    0  0.00000000000E+00 -0.00000000000E+00 -0.39945102335E+03  0.39945102335E+03  0.00000000000E+00 0. -1.
         25    2    1    2    0    0  0.41315769322E+02  0.18814741926E+02 -0.27121560030E+03  0.30210347941E+03  0.12509045974E+03 0.  0.
          5    1    3    3  502    0  0.63133360883E+02 -0.20536528153E+02 -0.23488061093E+03  0.24411870890E+03  0.41800000000E+01 0.  1.
         -5    1    3    3    0  502 -0.21817591561E+02  0.39351270079E+02 -0.36334989368E+02  0.57984770507E+02  0.41800000000E+01 0.  1.
        -11    1    1    2    0    0 -0.65800959122E+02 -0.35146019706E+01 -0.46927570807E+02  0.80896944011E+02  0.00000000000E+00 0.  1.
         11    1    1    2    0    0  0.24485189800E+02 -0.15300139956E+02 -0.44615559959E+02  0.53142892212E+02  0.00000000000E+00 0. -1.
</event>
<event>
 7    1  0.2714042E-009  0.1057523E+03  0.7561462E-02  0.1268644E+00
         -1   -1    0    0    0  501 -0.00000000000E+00  0.00000000000E+00  0.11469795814E+03  0.11469795814E+03  0.00000000000E+00 0.  1.
          1   -1    0    0  501    0  0.00000000000E+00 -0.00000000000E+00 -0.11803442588E+03  0.11803442588E+03  0.00000000000E+00 0. -1.
         25    2    1    2    0    0  0.31742619575E+01  0.32020265986E+02 -0.30604679120E+02  0.13272916765E+03  0.12508002314E+03 0.  0.
          5    1    3    3  502    0 -0.29897991137E+02  0.70633326808E+02 -0.90325075708E+01  0.77343489209E+02  0.41800000000E+01 0.  1.
         -5    1    3    3    0  502  0.33072253095E+02 -0.38613060822E+02 -0.21572171549E+02  0.55385678439E+02  0.41800000000E+01 0.  1.
        -11    1    1    2    0    0  0.15039402855E+02  0.22011898407E+02  0.33310075155E+02  0.42664603790E+02  0.00000000000E+00 0.  1.
         11    1    1    2    0    0 -0.18213664813E+02 -0.54032164393E+02 -0.60418637679E+01  0.57338612581E+02  0.00000000000E+00 0. -1.
</event>
<event>
 7    1  0.2714042E-009  0.1370731E+03  0.7561462E-02  0.1217322E+00
         -1   -1    0    0    0  501 -0.00000000000E+00  0.00000000000E+00  0.46201718462E+02  0.46201718462E+02  0.00000000000E+00 0.  1.
          1   -1    0    0  501    0  0.00000000000E+00 -0.00000000000E+00 -0.58319223459E+03  0.58319223459E+03  0.00000000000E+00 0. -1.
         25    2    1    2    0    0 -0.29358099843E+02  0.11961654331E+03 -0.27332005835E+03  0.32484147193E+03  0.12509241435E+03 0.  0.
          5    1    3    3  502    0 -0.46033086920E+02  0.41536829551E+02 -0.22032813504E+03  0.22892425121E+03  0.41800000000E+01 0.  1.
         -5    1    3    3    0  502  0.16674987077E+02  0.78079713758E+02 -0.52991923310E+02  0.95917220720E+02  0.41800000000E+01 0.  1.
        -11    1    1    2    0    0  0.16032915242E+00 -0.91559098376E+02 -0.24174760156E+03  0.25850531341E+03  0.00000000000E+00 0. -1.
         11    1    1    2    0    0  0.29197770691E+02 -0.28057444933E+02 -0.21922856210E+02  0.46047167707E+02  0.00000000000E+00 0.  1.
</event>
<event>
 7    1  0.3015020E-009  0.9152456E+02  0.7561462E-02  0.1299201E+00
          2   -1    0    0  501    0  0.00000000000E+00  0.00000000000E+00  0.45102945279E+03  0.45102945279E+03  0.00000000000E+00 0. -1.
         -2   -1    0    0    0  501 -0.00000000000E+00 -0.00000000000E+00 -0.33600254675E+02  0.33600254675E+02  0.00000000000E+00 0.  1.
         25    2    1    2    0    0  0.44007066063E+02  0.14172734054E+02  0.16635912147E+03  0.21321503272E+03  0.12509118525E+03 0.  0.
          5    1    3    3  502    0  0.65848999592E+02  0.24295275970E+02  0.33063061001E+02  0.77698066800E+02  0.41800000000E+01 0. -1.
         -5    1    3    3    0  502 -0.21841933529E+02 -0.10122541916E+02  0.13329606047E+03  0.13551696592E+03  0.41800000000E+01 0. -1.
        -11    1    1    2    0    0 -0.49787886477E+02  0.19992662379E+02  0.21420091911E+03  0.22081796561E+03  0.00000000000E+00 0. -1.
         11    1    1    2    0    0  0.57808204141E+01 -0.34165396433E+02  0.36869157534E+02  0.50596709136E+02  0.00000000000E+00 0.  1.
</event>
<event>
 7    1  0.2714042E-009  0.9574524E+02  0.7561462E-02  0.1289506E+00
         -2   -1    0    0    0  501 -0.00000000000E+00  0.00000000000E+00  0.15131762470E+03  0.15131762470E+03  0.00000000000E+00 0.  1.
          2   -1    0    0  501    0  0.00000000000E+00 -0.00000000000E+00 -0.10127249458E+03  0.10127249458E+03  0.00000000000E+00 0. -1.
         25    2    1    2    0    0 -0.49988211848E+02  0.30267969863E+02  0.41186890195E+02  0.14408006733E+03  0.12509090516E+03 0.  0.
          5    1    3    3  502    0 -0.61889514796E+02 -0.25329077928E+02  0.53516790805E+02  0.85751930173E+02  0.41800000000E+01 0. -1.
         -5    1    3    3    0  502  0.11901302948E+02  0.55597047791E+02 -0.12329900610E+02  0.58328137155E+02  0.41800000000E+01 0. -1.
        -11    1    1    2    0    0  0.51984996129E+02 -0.17946454823E+02  0.44500885820E+02  0.70744921387E+02  0.00000000000E+00 0.  1.
         11    1    1    2    0    0 -0.19967842811E+01 -0.12321515039E+02 -0.35642645899E+02  0.37765130571E+02  0.00000000000E+00 0. -1.
</event>
<event>
 7    1  0.2714042E-009  0.1124240E+03  0.7561462E-02  0.1256146E+00
          1   -1    0    0  501    0  0.00000000000E+00  0.00000000000E+00  0.30076909313E+03  0.30076909313E+03  0.00000000000E+00 0. -1.
         -1   -1    0    0    0  501 -0.00000000000E+00 -0.00000000000E+00 -0.64956361004E+02  0.64956361004E+02  0.00000000000E+00 0.  1.
         25    2    1    2    0    0 -0.52423156104E+02  0.84599253814E+01  0.21935852102E+03  0.25804113924E+03  0.12508921281E+03 0.  0.
          5    1    3    3  502    0  0.31539649965E+02  0.30460321317E+02  0.10909719452E+03  0.11765309578E+03  0.41800000000E+01 0. -1.
         -5    1    3    3    0  502 -0.83962806069E+02 -0.22000395936E+02  0.11026132650E+03  0.14038804346E+03  0.41800000000E+01 0. -1.
        -11    1    1    2    0    0  0.24998251215E+02  0.34700701942E+02 -0.17598731667E+02  0.46246801352E+02  0.00000000000E+00 0.  1.
         11    1    1    2    0    0  0.27424904890E+02 -0.43160627323E+02  0.34052942779E+02  0.61437513549E+02  0.00000000000E+00 0. -1.
</event>
<event>
 7    1  0.2714042E-009  0.9407561E+02  0.7561462E-02  0.1293272E+00
          1   -1    0    0  501    0  0.00000000000E+00  0.00000000000E+00  0.31762871449E+03  0.31762871449E+03  0.00000000000E+00 0. -1.
         -1   -1    0    0    0  501 -0.00000000000E+00 -0.00000000000E+00 -0.43912717118E+02  0.43912717118E+02  0.00000000000E+00 0.  1.
         25    2    1    2    0    0  0.61042158081E+01 -0.38036981622E+02  0.19753536453E+03  0.23696243706E+03  0.12508758097E+03 0.  0.
          5    1    3    3  502    0 -0.39849232061E+02 -0.23047231190E+02  0.15779548668E+02  0.48842632173E+02  0.41800000000E+01 0.  1.
         -5    1    3    3    0  502  0.45953447869E+02 -0.14989750432E+02  0.18175581587E+03  0.18811980489E+03  0.41800000000E+01 0.  1.
        -11    1    1    2    0    0 -0.21849557555E+02 -0.22200812472E+02  0.45571822043E+02  0.55200273587E+02  0.00000000000E+00 0.  1.
         11    1    1    2    0    0  0.15745341747E+02  0.60237794094E+02  0.30608810793E+02  0.69378720961E+02  0.00000000000E+00 0. -1.
</event>
<event>
 7    1  0.2714042E-009  0.9206144E+02  0.7561462E-02  0.1297935E+00
          4   -1    0    0  501    0  0.00000000000E+00  0.00000000000E+00  0.15483360911E+03  0.15483360911E+03  0.00000000000E+00 0. -1.
         -4   -1    0    0    0  501 -0.00000000000E+00 -0.00000000000E+00 -0.85991591894E+02  0.85991591894E+02  0.00000000000E+00 0.  1.
         25    2    1    2    0    0  0.19498970548E+02 -0.27664693467E+02  0.60329534443E+02  0.14294257560E+03  0.12508949627E+03 0.  0.
          5    1    3    3  502    0 -0.28532314693E+02 -0.29380151081E+02  0.80685163471E+02  0.90580650603E+02  0.41800000000E+01 0. -1.
         -5    1    3    3    0  502  0.48031285241E+02  0.17154576143E+01 -0.20355629027E+02  0.52361925001E+02  0.41800000000E+01 0. -1.
        -11    1    1    2    0    0  0.64995782203E-01 -0.31959851124E+02  0.13998352876E+02  0.34891119093E+02  0.00000000000E+00 0. -1.
         11    1    1    2    0    0 -0.19563966330E+02  0.59624544591E+02 -0.54858701016E+01  0.62991506308E+02  0.00000000000E+00 0.  1.
</event>
<event>
 7    1  0.2714042E-009  0.2459963E+03  0.7561462E-02  0.1115861E+00
          1   -1    0    0  501    0  0.00000000000E+00  0.00000000000E+00  0.70530984668E+03  0.70530984668E+03  0.00000000000E+00 0. -1.
         -1   -1    0    0    0  501 -0.00000000000E+00 -0.00000000000E+00 -0.93660171832E+02  0.93660171832E+02  0.00000000000E+00 0.  1.
         25    2    1    2    0    0  0.92544477799E+02  0.20696587296E+03  0.33117290467E+03  0.42038388057E+03  0.12509101212E+03 0.  0.
          5    1    3    3  502    0  0.65644283718E+02  0.52729410160E+02  0.48599559648E+02  0.97308541653E+02  0.41800000000E+01 0.  1.
         -5    1    3    3    0  502  0.26900194080E+02  0.15423646280E+03  0.28257334502E+03  0.32307533892E+03  0.41800000000E+01 0.  1.
        -11    1    1    2    0    0  0.17332409254E+01 -0.12821750698E+03  0.17317145971E+03  0.21547874067E+03  0.00000000000E+00 0.  1.
         11    1    1    2    0    0 -0.94277718724E+02 -0.78748365973E+02  0.10730531046E+03  0.16310739727E+03  0.00000000000E+00 0. -1.
</event>
<event>
 7    1  0.2714042E-009  0.1523032E+03  0.7561462E-02  0.1197671E+00
          2   -1    0    0  501    0  0.00000000000E+00  0.00000000000E+00  0.91607206331E+02  0.91607206331E+02  0.00000000000E+00 0. -1.
         -2   -1    0    0    0  501 -0.00000000000E+00 -0.00000000000E+00 -0.30750300047E+03  0.30750300047E+03  0.00000000000E+00 0.  1.
         25    2    1    2    0    0 -0.10628753067E+03 -0.15191983942E+02 -0.32603324618E+02  0.16804136640E+03  0.12508832277E+03 0.  0.
          5    1    3    3  502    0 -0.10908716049E+03 -0.56263023907E+02 -0.30839533579E+02  0.12662577018E+03  0.41800000000E+01 0.  1.
         -5    1    3    3    0  502  0.27996298226E+01  0.41071039965E+02 -0.17637910382E+01  0.41415596214E+02  0.41800000000E+01 0.  1.
        -11    1    1    2    0    0  0.60064786719E+02  0.53457998941E+02 -0.11218278577E+03  0.13802359827E+03  0.00000000000E+00 0.  1.
         11    1    1    2    0    0  0.46222743948E+02 -0.38266014999E+02 -0.71109683743E+02  0.93045242135E+02  0.00000000000E+00 0. -1.
</event>
<event>
 7    1  0.2714042E-009  0.1095826E+03  0.7561462E-02  0.1261345E+00
          2   -1    0    0  501    0  0.00000000000E+00  0.00000000000E+00  0.10911379723E+04  0.10911379723E+04  0.00000000000E+00 0. -1.
         -2   -1    0    0    0  501 -0.00000000000E+00 -0.00000000000E+00 -0.11167267249E+02  0.11167267249E+02  0.00000000000E+00 0.  1.
         25    2    1    2    0    0 -0.17066092013E+02  0.11388600089E+02  0.67351715876E+03  0.68534272560E+03  0.12509331188E+03 0.  0.
          5    1    3    3  502    0 -0.22993549816E+02  0.66793085319E+02  0.39130499887E+03  0.39765197613E+03  0.41800000000E+01 0.  1.
         -5    1    3    3    0  502  0.59274578024E+01 -0.55404485230E+02  0.28221215989E+03  0.28769074947E+03  0.41800000000E+01 0.  1.
        -11    1    1    2    0    0 -0.37072708186E+02  0.58481057176E+00  0.14217920632E+03  0.14693418392E+03  0.00000000000E+00 0.  1.
         11    1    1    2    0    0  0.54138800199E+02 -0.11973410661E+02  0.26427433999E+03  0.27002833005E+03  0.00000000000E+00 0. -1.
</event>
<event>
 7    1  0.2714042E-009  0.1043652E+03  0.7561462E-02  0.1271375E+00
          3   -1    0    0  501    0  0.00000000000E+00  0.00000000000E+00  0.13007102201E+03  0.13007102201E+03  0.00000000000E+00 0. -1.
         -3   -1    0    0    0  501 -0.00000000000E+00 -0.00000000000E+00 -0.12789470580E+03  0.12789470580E+03  0.00000000000E+00 0.  1.
         25    2    1    2    0    0  0.15841321814E+02 -0.23282337225E+02  0.65534608074E+02  0.14399996302E+03  0.12509272477E+03 0.  0.
          5    1    3    3  502    0  0.26581599549E+02 -0.65428397637E+02  0.70682001633E+02  0.10000437194E+03  0.41800000000E+01 0. -1.
         -5    1    3    3    0  502 -0.10740277735E+02  0.42146060413E+02 -0.51473935588E+01  0.43995591082E+02  0.41800000000E+01 0. -1.
        -11    1    1    2    0    0 -0.19010161879E+02  0.57174150417E+02 -0.35135937583E+02  0.69748145785E+02  0.00000000000E+00 0. -1.
         11    1    1    2    0    0  0.31688400647E+01 -0.33891813192E+02 -0.28222354287E+02  0.44217619003E+02  0.00000000000E+00 0.  1.
</event>
<event>
 7    1  0.2714042E-009  0.2814613E+03  0.7561462E-02  0.1094893E+00
          1   -1    0    0  501    0  0.00000000000E+00  0.00000000000E+00  0.86937981292E+02  0.86937981292E+02  0.00000000000E+00 0. -1.
         -1   -1    0    0    0  501 -0.00000000000E+00 -0.00000000000E+00 -0.97394786708E+03  0.97394786708E+03  0.00000000000E+00 0.  1.
         25    2    1    2    0    0 -0.25798105160E+03 -0.79187738520E+02 -0.47934127311E+03  0.56412744728E+03  0.12508716861E+03 0.  0.
          5    1    3    3  502    0 -0.12855265227E+03 -0.25756030717E+01 -0.12594092073E+03  0.18003056977E+03  0.41800000000E+01 0.  1.
         -5    1    3    3    0  502 -0.12942839933E+03 -0.76612135448E+02 -0.35340035238E+03  0.38409687751E+03  0.41800000000E+01 0.  1.
        -11    1    1    2    0    0  0.18764669071E+03  0.14415987000E+02 -0.27438081382E+03  0.33272200440E+03  0.00000000000E+00 0.  1.
         11    1    1    2    0    0  0.70334360889E+02  0.64771751519E+02 -0.13328779885E+03  0.16403639669E+03  0.00000000000E+00 0. -1.
</event>
<event>
 7    1  0.2714042E-009  0.9344965E+02  0.7561462E-02  0.1294707E+00
         -2   -1    0    0    0  501 -0.00000000000E+00  0.00000000000E+00  0.22865696030E+03  0.22865696030E+03  0.00000000000E+00 0.  1.
          2   -1    0    0  501    0  0.00000000000E+00 -0.00000000000E+00 -0.66096110883E+02  0.66096110883E+02  0.00000000000E+00 0. -1.
         25    2    1    2    0    0  0.19072992315E+02 -0.21810600767E+02  0.15197505052E+03  0.19895568955E+03  0.12508984405E+03 0.  0.
          5    1    3    3  502    0  0.44982235618E+02 -0.61117304821E+02  0.65163851657E+02  0.10011256880E+03  0.41800000000E+01 0.  1.
         -5    1    3    3    0  502 -0.25909243303E+02  0.39306704054E+02  0.86811198859E+02  0.98843120749E+02  0.41800000000E+01 0.  1.
        -11    1    1    2    0    0 -0.29209633022E+02 -0.95070534303E+01  0.40830490742E+02  0.51095163181E+02  0.00000000000E+00 0.  1.
         11    1    1    2    0    0  0.10136640707E+02  0.31317654197E+02 -0.30244691845E+02  0.44702218446E+02  0.00000000000E+00 0. -1.
</event>
<event>
 7    1  0.2714042E-009  0.3842402E+03  0.7561462E-02  0.1049378E+00
         -2   -1    0    0    0  501 -0.00000000000E+00  0.00000000000E+00  0.14156320208E+04  0.14156320208E+04  0.00000000000E+00 0.  1.
          2   -1    0    0  501    0  0.00000000000E+00 -0.00000000000E+00 -0.11389645591E+03  0.11389645591E+03  0.00000000000E+00 0. -1.
         25    2    1    2    0    0  0.22607502856E+03 -0.31039861425E+03  0.58094841631E+03  0.70753445811E+03  0.12508688471E+03 0.  0.
          5    1    3    3  502    0  0.86753226442E+02 -0.12203340497E+03  0.33949049227E+03  0.37106541333E+03  0.41800000000E+01 0. -1.
         -5    1    3    3    0  502  0.13932180212E+03 -0.18836520927E+03  0.24145792405E+03  0.33646904478E+03  0.41800000000E+01 0. -1.
        -11    1    1    2    0    0 -0.18149012824E+03  0.23734785672E+03  0.62981351318E+03  0.69709234188E+03  0.00000000000E+00 0.  1.
         11    1    1    2    0    0 -0.44584900328E+02  0.73050757529E+02  0.90973635449E+02  0.12490167677E+03  0.00000000000E+00 0. -1.
</event>
<event>
 7    1  0.2714042E-009  0.1142007E+03  0.7561462E-02  0.1252983E+00
          2   -1    0    0  501    0  0.00000000000E+00  0.00000000000E+00  0.29317110844E+03  0.29317110844E+03  0.00000000000E+00 0. -1.
         -2   -1    0    0    0  501 -0.00000000000E+00 -0.00000000000E+00 -0.52180772002E+02  0.52180772002E+02  0.00000000000E+00 0.  1.
         25    2    1    2    0    0 -0.15593651720E+02  0.56525828244E+02  0.12596649144E+03  0.18695594112E+03  0.12508651295E+03 0.  0.
          5    1    3    3  502    0 -0.29341414400E+02  0.89850466786E+02  0.11526076734E+03  0.14911922032E+03  0.41800000000E+01 0.  1.
         -5    1    3    3    0  502  0.13747762680E+02 -0.33324638542E+02  0.10705724099E+02  0.37836720803E+02  0.41800000000E+01 0.  1.
        -11    1    1    2    0    0 -0.17484141643E+02  0.12136703692E+02  0.10782186687E+01  0.21310967622E+02  0.00000000000E+00 0.  1.
         11    1    1    2    0    0  0.33077793363E+02 -0.68662531936E+02  0.11394562633E+03  0.13708497170E+03  0.00000000000E+00 0. -1.
</event>
<event>
 7    1  0.2714042E-009  0.1213766E+03  0.7561462E-02  0.1240843E+00
         -3   -1    0    0    0  501 -0.00000000000E+00  0.00000000000E+00  0.31404713873E+03  0.31404713873E+03  0.00000000000E+00 0.  1.
          3   -1    0    0  501    0  0.00000000000E+00 -0.00000000000E+00 -0.55247514852E+02  0.55247514852E+02  0.00000000000E+00 0. -1.
         25    2    1    2    0    0 -0.38176074046E+02  0.45248173731E+02  0.20460916602E+03  0.24701396077E+03  0.12508467588E+03 0.  0.
          5    1    3    3  502    0 -0.63867594716E+02 -0.20875191976E+02  0.98800386627E+02  0.11955681533E+03  0.41800000000E+01 0. -1.
         -5    1    3    3    0  502  0.25691520670E+02  0.66123365707E+02  0.10580877939E+03  0.12745714544E+03  0.41800000000E+01 0. -1.
        -11    1    1    2    0    0  0.30356765141E+02 -0.71127046587E+02  0.55541387161E+02  0.95212581279E+02  0.00000000000E+00 0.  1.
         11    1    1    2    0    0  0.78193089051E+01  0.25878872856E+02 -0.13509292994E+01  0.27068111534E+02  0.00000000000E+00 0. -1.
</event>
<event>
 7    1  0.2714042E-009  0.1484751E+03  0.7561462E-02  0.1202359E+00
          2   -1    0    0  501    0  0.00000000000E+00  0.00000000000E+00  0.11363543395E+03  0.11363543395E+03  0.00000000000E+00 0.  1.
         -2   -1    0    0    0  501 -0.00000000000E+00 -0.00000000000E+00 -0.20991039222E+03  0.20991039222E+03  0.00000000000E+00 0. -1.
         25    2    1    2    0    0 -0.79296675567E+02 -0.64586325636E+02 -0.13544262743E+02  0.16214293461E+03  0.12509007945E+03 0.  0.
          5    1    3    3  502    0 -0.91982282790E+02  0.43145321970E+00  0.78307189511E+01  0.92410600358E+02  0.41800000000E+01 0.  1.
         -5    1    3    3    0  502  0.12685607223E+02 -0.65017778855E+02 -0.21374981695E+02  0.69732334253E+02  0.41800000000E+01 0.  1.
        -11    1    1    2    0    0  0.64454169165E+01 -0.23396104706E+02 -0.16757490071E+02  0.29491262912E+02  0.00000000000E+00 0.  1.
         11    1    1    2    0    0  0.72851258651E+02  0.87982430341E+02 -0.65973205450E+02  0.13191162865E+03  0.00000000000E+00 0. -1.
</event>
<event>
 7    1  0.2714042E-009  0.1019117E+03  0.7561462E-02  0.1276326E+00
         -1   -1    0    0    0  501 -0.00000000000E+00  0.00000000000E+00  0.50724493895E+02  0.50724493895E+02  0.00000000000E+00 0.  1.
          1   -1    0    0  501    0  0.00000000000E+00 -0.00000000000E+00 -0.39217986205E+03  0.39217986205E+03  0.00000000000E+00 0. -1.
         25    2    1    2    0    0 -0.15047581180E+02  0.88989953261E+02 -0.17321160355E+03  0.23193942968E+03  0.12509195801E+03 0.  0.
          5    1    3    3  502    0  0.92031348153E+00  0.91533713766E+02 -0.43994797983E+02  0.10164783511E+03  0.41800000000E+01 0. -1.
         -5    1    3    3    0  502 -0.15967894662E+02 -0.25437605046E+01 -0.12921680556E+03  0.13029159458E+03  0.41800000000E+01 0. -1.
        -11    1    1    2    0    0 -0.52527379225E+01 -0.59241874885E+02 -0.16430225227E+03  0.17473528864E+03  0.00000000000E+00 0. -1.
         11    1    1    2    0    0  0.20300319103E+02 -0.29748078377E+02 -0.39415123456E+01  0.36229637624E+02  0.00000000000E+00 0.  1.
</event>
<event>
 7    1  0.2714042E-009  0.1750326E+03  0.7561462E-02  0.1172699E+00
         -2   -1    0    0    0  501 -0.00000000000E+00  0.00000000000E+00  0.42881470346E+02  0.42881470346E+02  0.00000000000E+00 0.  1.
          2   -1    0    0  501    0  0.00000000000E+00 -0.00000000000E+00 -0.10524331976E+04  0.10524331976E+04  0.00000000000E+00 0. -1.
         25    2    1    2    0    0  0.81376487126E+02 -0.13118849053E+03 -0.77415758139E+03  0.79924979257E+03  0.12509083656E+03 0.  0.
          5    1    3    3  502    0  0.69815503961E+02 -0.31058910224E+02 -0.16610906095E+03  0.18288945576E+03  0.41800000000E+01 0.  1.
         -5    1    3    3    0  502  0.11560983165E+02 -0.10012958030E+03 -0.60804852044E+03  0.61636033681E+03  0.41800000000E+01 0.  1.
        -11    1    1    2    0    0  0.12921207823E+02  0.37775141185E+02 -0.94020151249E+02  0.10214552239E+03  0.00000000000E+00 0. -1.
         11    1    1    2    0    0 -0.94297694949E+02  0.93413349343E+02 -0.14137399459E+03  0.19391935296E+03  0.00000000000E+00 0.  1.
</event>
<event>
 7    1  0.2714042E-009  0.1351663E+03  0.7561462E-02  0.1219985E+00
          2   -1    0    0  501    0  0.00000000000E+00  0.00000000000E+00  0.11210332258E+02  0.11210332258E+02  0.00000000000E+00 0. -1.
         -2   -1    0    0    0  501 -0.00000000000E+00 -0.00000000000E+00 -0.28353534952E+04  0.28353534952E+04  0.00000000000E+00 0.  1.
         25    2    1    2    0    0  0.99568608869E+02 -0.28556198398E+02 -0.22627247659E+04  0.22685455992E+04  0.12508559036E+03 0.  0.
          5    1    3    3  502    0  0.10971050490E+03 -0.45189054991E+01 -0.21483622741E+04  0.21511705531E+04  0.41800000000E+01 0.  1.
         -5    1    3    3    0  502 -0.10141896033E+02 -0.24037292898E+02 -0.11436249188E+03  0.11737504613E+03  0.41800000000E+01 0.  1.
        -11    1    1    2    0    0 -0.15392658205E+01  0.35704713135E+02 -0.98571342701E+02  0.10484991884E+03  0.00000000000E+00 0. -1.
         11    1    1    2    0    0 -0.98029343048E+02 -0.71485147372E+01 -0.46284705433E+03  0.47316830944E+03  0.00000000000E+00 0.  1.
</event>
<event>
 7    1  0.2714042E-009  0.1139966E+03  0.7561462E-02  0.1253343E+00
          2   -1    0    0  501    0  0.00000000000E+00  0.00000000000E+00  0.16368708984E+04  0.16368708984E+04  0.00000000000E+00 0. -1.
         -2   -1    0    0    0  501 -0.00000000000E+00 -0.00000000000E+00 -0.17603122333E+02  0.17603122333E+02  0.00000000000E+00 0.  1.
         25    2    1    2    0    0  0.52387177044E+02  0.14100604378E+02  0.14388023555E+04  0.14452483792E+04  0.12508963175E+03 0.  0.
          5    1    3    3  502    0 -0.30172459866E+02 -0.15737782401E+02  0.17099110178E+03  0.17439462267E+03  0.41800000000E+01 0. -1.
         -5    1    3    3    0  502  0.82559636911E+02  0.29838386779E+02  0.12678112537E+04  0.12708537565E+04  0.41800000000E+01 0. -1.
        -11    1    1    2    0    0 -0.77936702450E+02 -0.17967404888E+02  0.13375266234E+03  0.15584200946E+03  0.00000000000E+00 0. -1.
         11    1    1    2    0    0  0.25549525406E+02  0.38668005104E+01  0.46712758204E+02  0.53383632077E+02  0.00000000000E+00 0.  1.
</event>
<event>
 7    1  0.2714042E-009  0.1620948E+03  0.7561462E-02  0.1186352E+00
          1   -1    0    0  501    0  0.00000000000E+00  0.00000000000E+00  0.25329555873E+02  0.25329555873E+02  0.00000000000E+00 0. -1.
         -1   -1    0    0    0  501 -0.00000000000E+00 -0.00000000000E+00 -0.10500047674E+04  0.10500047674E+04  0.00000000000E+00 0.  1.
         25    2    1    2    0    0 -0.55964883973E+02  0.10413338705E+03 -0.48631809491E+03  0.51587641212E+03  0.12508937849E+03 0.  0.
          5    1    3    3  502    0 -0.79419091413E+02  0.16519037404E+02 -0.22123938934E+03  0.23567904123E+03  0.41800000000E+01 0.  1.
         -5    1    3    3    0  502  0.23454207440E+02  0.87614349649E+02 -0.26507870557E+03  0.28019737089E+03  0.41800000000E+01 0.  1.
        -11    1    1    2    0    0  0.52728630451E+02 -0.12257972704E+03 -0.47579437330E+03  0.49415218669E+03  0.00000000000E+00 0.  1.
         11    1    1    2    0    0  0.32362535214E+01  0.18446339982E+02 -0.62562743321E+02  0.65305724462E+02  0.00000000000E+00 0. -1.
</event>
<event>
 7    1  0.2714042E-009  0.4677024E+03  0.7561462E-02  0.1022571E+00
         -2   -1    0    0    0  501 -0.00000000000E+00  0.00000000000E+00  0.96638716716E+02  0.96638716716E+02  0.00000000000E+00 0.  1.
          2   -1    0    0  501    0  0.00000000000E+00 -0.00000000000E+00 -0.28564729254E+04  0.28564729254E+04  0.00000000000E+00 0. -1.
         25    2    1    2    0    0 -0.20497699847E+03  0.40782825617E+03 -0.72537834751E+03  0.86611822336E+03  0.12509026089E+03 0.  0.
          5    1    3    3  502    0 -0.99358225111E+02  0.31380590817E+03 -0.46398633248E+03  0.56889981019E+03  0.41800000000E+01 0.  1.
         -5    1    3    3    0  502 -0.10561877336E+03  0.94022347998E+02 -0.26139201503E+03  0.29721841317E+03  0.41800000000E+01 0.  1.
        -11    1    1    2    0    0  0.59293111880E+02 -0.47126682358E+02 -0.29482139778E+03  0.30439489794E+03  0.00000000000E+00 0. -1.
         11    1    1    2    0    0  0.14568388659E+03 -0.36070157381E+03 -0.17396344634E+04  0.17825985209E+04  0.00000000000E+00 0.  1.
</event>
<event>
 7    1  0.2714042E-009  0.9172542E+02  0.7561462E-02  0.1298726E+00
         -1   -1    0    0    0  501 -0.00000000000E+00  0.00000000000E+00  0.24753172550E+02  0.24753172550E+02  0.00000000000E+00 0.  1.
          1   -1    0    0  501    0  0.00000000000E+00 -0.00000000000E+00 -0.52031380933E+03  0.52031380933E+03  0.00000000000E+00 0. -1.
         25    2    1    2    0    0  0.44357558343E+01 -0.20660614948E+02 -0.35221780301E+03  0.37436853909E+03  0.12509150797E+03 0.  0.
          5    1    3    3  502    0 -0.12215173768E+02 -0.70301501563E+02 -0.24090863662E+03  0.25128858945E+03  0.41800000000E+01 0. -1.
         -5    1    3    3    0  502  0.16650929603E+02  0.49640886615E+02 -0.11130916639E+03  0.12307994964E+03  0.41800000000E+01 0. -1.
        -11    1    1    2    0    0 -0.18650633592E+02  0.34746869610E+02 -0.14533222822E+03  0.15058767427E+03  0.00000000000E+00 0.  1.
         11    1    1    2    0    0  0.14214877757E+02 -0.14086254663E+02  0.19893944551E+01  0.20110768518E+02  0.00000000000E+00 0. -1.
</event>
<event>
 7    1  0.2714042E-009  0.1148304E+03  0.7561462E-02  0.1251878E+00
          1   -1    0    0  501    0  0.00000000000E+00  0.00000000000E+00  0.34868360463E+03  0.34868360463E+03  0.00000000000E+00 0. -1.
         -1   -1    0    0    0  501 -0.00000000000E+00 -0.00000000000E+00 -0.41105846374E+02  0.41105846374E+02  0.00000000000E+00 0.  1.
         25    2    1    2    0    0 -0.19483146365E+02 -0.40722453653E+02  0.20801565692E+03  0.24689326429E+03  0.12509140339E+03 0.  0.
          5    1    3    3  502    0  0.30845673417E+02  0.31133337808E+02  0.85238198423E+02  0.95936245299E+02  0.41800000000E+01 0.  1.
         -5    1    3    3    0  502 -0.50328819782E+02 -0.71855791460E+02  0.12277745849E+03  0.15095701899E+03  0.41800000000E+01 0.  1.
        -11    1    1    2    0    0  0.48120478420E+02  0.11802466204E+00  0.27682882691E+02  0.55515190419E+02  0.00000000000E+00 0.  1.
         11    1    1    2    0    0 -0.28637332054E+02  0.40604428991E+02  0.71879218643E+02  0.87380996295E+02  0.00000000000E+00 0. -1.
</event>
<event>
 7    1  0.2714042E-009  0.2083679E+03  0.7561462E-02  0.1142865E+00
          2   -1    0    0  501    0  0.00000000000E+00  0.00000000000E+00  0.16011046922E+04  0.16011046922E+04  0.00000000000E+00 0. -1.
         -2   -1    0    0    0  501 -0.00000000000E+00 -0.00000000000E+00 -0.31515902842E+02  0.31515902842E+02  0.00000000000E+00 0.  1.
         25    2    1    2    0    0 -0.11395205424E+03  0.14842856504E+03  0.10159407262E+04  0.10405764552E+04  0.12509072905E+03 0.  0.
          5    1    3    3  502    0 -0.33677155031E+02 -0.11180201231E+02  0.78431032332E+02  0.86186117810E+02  0.41800000000E+01 0. -1.
         -5    1    3    3    0  502 -0.80274899210E+02  0.15960876627E+03  0.93750969382E+03  0.95439033740E+03  0.41800000000E+01 0. -1.
        -11    1    1    2    0    0  0.85352582959E+02 -0.48099935646E+02  0.19062763212E+03  0.21433049562E+03  0.00000000000E+00 0.  1.
         11    1    1    2    0    0  0.28599471282E+02 -0.10032862939E+03  0.36302043104E+03  0.37771364416E+03  0.00000000000E+00 0. -1.
</event>
<event>
 7    1  0.2714042E-009  0.1509632E+03  0.7561462E-02  0.1199294E+00
         -2   -1    0    0    0  501 -0.00000000000E+00  0.00000000000E+00  0.24127597913E+02  0.24127597913E+02  0.00000000000E+00 0.  1.
          2   -1    0    0  501    0  0.00000000000E+00 -0.00000000000E+00 -0.94982154808E+03  0.94982154808E+03  0.00000000000E+00 0. -1.
         25    2    1    2    0    0 -0.10192750636E+03  0.10581578450E+02 -0.49192125030E+03  0.51781833886E+03  0.12509248260E+03 0.  0.
          5    1    3    3  502    0 -0.11893019300E+03 -0.24664517285E+02 -0.39273920996E+03  0.41111347419E+03  0.41800000000E+01 0. -1.
         -5    1    3    3    0  502  0.17002686642E+02  0.35246095735E+02 -0.99182040342E+02  0.10670486467E+03  0.41800000000E+01 0. -1.
        -11    1    1    2    0    0  0.38910107590E+02  0.43236883024E+02 -0.17543591381E+03  0.18482744488E+03  0.00000000000E+00 0.  1.
         11    1    1    2    0    0  0.63017398765E+02 -0.53818461474E+02 -0.25833678605E+03  0.27130336226E+03  0.00000000000E+00 0. -1.
</event>
<event>
 7    1  0.2714042E-009  0.1044065E+03  0.7561462E-02  0.1271293E+00
         -1   -1    0    0    0  501 -0.00000000000E+00  0.00000000000E+00  0.13758306047E+03  0.13758306047E+03  0.00000000000E+00 0.  1.
          1   -1    0    0  501    0  0.00000000000E+00 -0.00000000000E+00 -0.13754562044E+03  0.13754562044E+03  0.00000000000E+00 0. -1.
         25    2    1    2    0    0  0.54566796865E+02  0.63202523775E+02 -0.72839710348E+01  0.15057567306E+03  0.12509149752E+03 0.  0.
          5    1    3    3  502    0 -0.12067642305E+02  0.49882391943E+02  0.42065791098E+02  0.66489730015E+02  0.41800000000E+01 0.  1.
         -5    1    3    3    0  502  0.66634439170E+02  0.13320131832E+02 -0.49349762133E+02  0.84085943047E+02  0.41800000000E+01 0.  1.
        -11    1    1    2    0    0 -0.43543398529E+02 -0.26625974171E+02 -0.39200949532E+02  0.64355920475E+02  0.00000000000E+00 0. -1.
         11    1    1    2    0    0 -0.11023398337E+02 -0.36576549605E+02  0.46522360595E+02  0.60197087365E+02  0.00000000000E+00 0.  1.
</event>
<event>
 7    1  0.2714042E-009  0.1453514E+03  0.7561462E-02  0.1206304E+00
          4   -1    0    0  501    0  0.00000000000E+00  0.00000000000E+00  0.72434183167E+02  0.72434183167E+02  0.00000000000E+00 0.  1.
         -4   -1    0    0    0  501 -0.00000000000E+00 -0.00000000000E+00 -0.32535314267E+03  0.32535314267E+03  0.00000000000E+00 0. -1.
         25    2    1    2    0    0  0.10102231488E+03 -0.14533126533E+02 -0.90811500940E+02  0.18523130301E+03  0.12508871669E+03 0.  0.
          5    1    3    3  502    0  0.12481753974E+03  0.12098357976E+02 -0.69570513108E+02  0.14346887184E+03  0.41800000000E+01 0.  1.
         -5    1    3    3    0  502 -0.23795224862E+02 -0.26631484509E+02 -0.21240987832E+02  0.41762431173E+02  0.41800000000E+01 0.  1.
        -11    1    1    2    0    0 -0.46225207460E+02 -0.32949090422E+02 -0.36392695514E+02  0.67430265097E+02  0.00000000000E+00 0.  1.
         11    1    1    2    0    0 -0.54797107417E+02  0.47482216954E+02 -0.12571476305E+03  0.14512575773E+03  0.00000000000E+00 0. -1.
</event>
<event>
 7    1  0.2714042E-009  0.2028367E+03  0.7561462E-02  0.1147368E+00
          1   -1    0    0  501    0  0.00000000000E+00  0.00000000000E+00  0.59814575623E+03  0.59814575623E+03  0.00000000000E+00 0. -1.
         -1   -1    0    0    0  501 -0.00000000000E+00 -0.00000000000E+00 -0.10681709453E+03  0.10681709453E+03  0.00000000000E+00 0.  1.
         25    2    1    2    0    0 -0.14749355447E+03 -0.12778949821E+03  0.85975877703E+02  0.24723400222E+03  0.12509314867E+03 0.  0.
          5    1    3    3  502    0 -0.57503211297E+02 -0.57796128234E+01  0.75549485692E+02  0.95211451108E+02  0.41800000000E+01 0.  1.
         -5    1    3    3    0  502 -0.89990343176E+02 -0.12200988539E+03  0.10426392011E+02  0.15202255111E+03  0.41800000000E+01 0.  1.
        -11    1    1    2    0    0  0.98187639313E+02  0.96492105947E+02  0.35449774690E+03  0.38028961540E+03  0.00000000000E+00 0.  1.
         11    1    1    2    0    0  0.49305915159E+02  0.31297392263E+02  0.50855037098E+02  0.77439233147E+02  0.00000000000E+00 0. -1.
</event>
<event>
 7    1  0.2714042E-009  0.1256591E+03  0.7561462E-02  0.1234043E+00
         -2   -1    0    0    0  501 -0.00000000000E+00  0.00000000000E+00  0.12411537256E+03  0.12411537256E+03  0.00000000000E+00 0.  1.
          2   -1    0    0  501    0  0.00000000000E+00 -0.00000000000E+00 -0.20336885682E+03  0.20336885682E+03  0.00000000000E+00 0. -1.
         25    2    1    2    0    0 -0.57500518709E+02  0.56223944605E+02 -0.12164481538E+03  0.19212561469E+03  0.12508936451E+03 0.  0.
          5    1    3    3  502    0 -0.63861024693E+02 -0.43597992927E+01 -0.10064264380E+02  0.64930733418E+02  0.41800000000E+01 0.  1.
         -5    1    3    3    0  502  0.63605059841E+01  0.60583743898E+02 -0.11158055100E+03  0.12719488127E+03  0.41800000000E+01 0.  1.
        -11    1    1    2    0    0  0.74555884410E+02 -0.71438292862E+02  0.23967330180E+02  0.10600208726E+03  0.00000000000E+00 0.  1.
         11    1    1    2    0    0 -0.17055365701E+02  0.15214348257E+02  0.18424000944E+02  0.29356527432E+02  0.00000000000E+00 0. -1.
</event>
<event>
 7    1  0.2714042E-009  0.9316419E+02  0.7561462E-02  0.1295365E+00
          2   -1    0    0  501    0  0.00000000000E+00  0.00000000000E+00  0.78773874017E+02  0.78773874017E+02  0.00000000000E+00 0.  1.
         -2   -1    0    0    0  501 -0.00000000000E+00 -0.00000000000E+00 -0.18801721456E+03  0.18801721456E+03  0.00000000000E+00 0. -1.
         25    2    1    2    0    0  0.92631337380E+01 -0.52115464111E+02 -0.85377601745E+02  0.16042917244E+03  0.12508539981E+03 0.  0.
          5    1    3    3  502    0 -0.27329295253E+02 -0.65592928694E+02 -0.96268280874E+02  0.11972625851E+03  0.41800000000E+01 0.  1.
         -5    1    3    3    0  502  0.36592428991E+02  0.13477464582E+02  0.10890679129E+02  0.40702913937E+02  0.41800000000E+01 0.  1.
        -11    1    1    2    0    0  0.18758956978E+02  0.42237631541E+02  0.22414722062E+02  0.51364732553E+02  0.00000000000E+00 0.  1.
         11    1    1    2    0    0 -0.28022090716E+02  0.98778325700E+01 -0.46280460865E+02  0.54997183585E+02  0.00000000000E+00 0. -1.
</event>
<event>
 7    1  0.2714042E-009  0.1041676E+03  0.7561462E-02  0.1271768E+00
         -1   -1    0    0    0  501 -0.00000000000E+00  0.00000000000E+00  0.71736452638E+02  0.71736452638E+02  0.00000000000E+00 0.  1.
          1   -1    0    0  501    0  0.00000000000E+00 -0.00000000000E+00 -0.47235884249E+03  0.47235884249E+03  0.00000000000E+00 0. -1.
         25    2    1    2    0    0  0.27346893511E+02  0.11693996399E+02 -0.42677837153E+03  0.44572604878E+03  0.12508928817E+03 0.  0.
          5    1    3    3  502    0  0.69881070110E+02  0.11276700316E+01 -0.15083713983E+03  0.16629477066E+03  0.41800000000E+01 0.  1.
         -5    1    3    3    0  502 -0.42534176599E+02  0.10566326367E+02 -0.27594123171E+03  0.27943127811E+03  0.41800000000E+01 0.  1.
        -11    1    1    2    0    0 -0.18835421873E+02 -0.50848754082E+02  0.98664751837E+01  0.55115480959E+02  0.00000000000E+00 0. -1.
         11    1    1    2    0    0 -0.85114716384E+01  0.39154757683E+02  0.16289506496E+02  0.43253765392E+02  0.00000000000E+00 0.  1.
</event>
<event>
 7    1  0.2714042E-009  0.8418929E+02  0.7561462E-02  0.1317566E+00
         -2   -1    0    0    0  501 -0.00000000000E+00  0.00000000000E+00  0.33656265973E+02  0.33656265973E+02  0.00000000000E+00 0.  1.
          2   -1    0    0  501    0  0.00000000000E+00 -0.00000000000E+00 -0.43664884752E+03  0.43664884752E+03  0.00000000000E+00 0. -1.
         25    2    1    2    0    0  0.47237733385E+02  0.16690472888E+02 -0.25372136967E+03  0.28728548489E+03  0.12509372909E+03 0.  0.
          5    1    3    3  502    0  0.46006964820E+02 -0.41161225623E+01 -0.26079083259E+03  0.26488283077E+03  0.41800000000E+01 0. -1.
         -5    1    3    3    0  502  0.12307685649E+01  0.20806595451E+02  0.70694629122E+01  0.22402654115E+02  0.41800000000E+01 0. -1.
        -11    1    1    2    0    0 -0.27799458710E+02  0.35476117078E+02 -0.39463072307E+02  0.59905749836E+02  0.00000000000E+00 0. -1.
         11    1    1    2    0    0 -0.19438274675E+02 -0.52166589967E+02 -0.10980813957E+03  0.12311387877E+03  0.00000000000E+00 0.  1.
</event>
<event>
 7    1  0.2714042E-009  0.1253842E+03  0.7561462E-02  0.1234470E+00
         -3   -1    0    0    0  501 -0.00000000000E+00  0.00000000000E+00  0.39327276291E+02  0.39327276291E+02  0.00000000000E+00 0.  1.
          3   -1    0    0  501    0  0.00000000000E+00 -0.00000000000E+00 -0.49215480655E+03  0.49215480655E+03  0.00000000000E+00 0. -1.
         25    2    1    2    0    0 -0.73132141461E+02 -0.41044329392E+02 -0.27052995162E+03  0.30962361307E+03  0.12508948780E+03 0.  0.
          5    1    3    3  502    0  0.25994878031E+02 -0.14208490681E+02 -0.13533259830E+02  0.32836510365E+02  0.41800000000E+01 0.  1.
         -5    1    3    3    0  502 -0.99127019493E+02 -0.26835838711E+02 -0.25699669179E+03  0.27678710270E+03  0.41800000000E+01 0.  1.
        -11    1    1    2    0    0  0.90731591262E+02  0.42919786735E+02 -0.11675265706E+03  0.15396594649E+03  0.00000000000E+00 0.  1.
         11    1    1    2    0    0 -0.17599449801E+02 -0.18754573436E+01 -0.65544921574E+02  0.67892523282E+02  0.00000000000E+00 0. -1.
</event>
<event>
 7    1  0.2714042E-009  0.1066788E+03  0.7561462E-02  0.1266847E+00
         -2   -1    0    0    0  501 -0.00000000000E+00  0.00000000000E+00  0.19923632466E+03  0.19923632466E+03  0.00000000000E+00 0.  1.
          2   -1    0    0  501    0  0.00000000000E+00 -0.00000000000E+00 -0.72714925579E+02  0.72714925579E+02  0.00000000000E+00 0. -1.
         25    2    1    2    0    0 -0.23397766698E+02 -0.11445879264E+02  0.19874798490E+02  0.12930695411E+03  0.12508723807E+03 0.  0.
          5    1    3    3  502    0 -0.57282251267E+02  0.31024163977E+02 -0.11714833960E+02  0.66320922757E+02  0.41800000000E+01 0.  1.
         -5    1    3    3    0  502  0.33884484569E+02 -0.42470043241E+02  0.31589632450E+02  0.62986031354E+02  0.41800000000E+01 0.  1.
        -11    1    1    2    0    0 -0.28135636407E+02  0.27768776433E+02  0.56159542834E+02  0.68677603569E+02  0.00000000000E+00 0.  1.
         11    1    1    2    0    0  0.51533403105E+02 -0.16322897169E+02  0.50487057760E+02  0.73966692564E+02  0.00000000000E+00 0. -1.
</event>
<event>
 7    1  0.2714042E-009  0.1985265E+03  0.7561462E-02  0.1150988E+00
         -1   -1    0    0    0  501 -0.00000000000E+00  0.00000000000E+00  0.12665778185E+03  0.12665778185E+03  0.00000000000E+00 0.  1.
          1   -1    0    0  501    0  0.00000000000E+00 -0.00000000000E+00 -0.32990370955E+03  0.32990370955E+03  0.00000000000E+00 0. -1.
         25    2    1    2    0    0  0.53320937732E+01 -0.16963530826E+03 -0.14537847337E+03  0.25609962563E+03  0.12509016227E+03 0.  0.
          5    1    3    3  502    0 -0.59414980064E+02 -0.83525317128E+02 -0.79083333204E+02  0.12953094012E+03  0.41800000000E+01 0.  1.
         -5    1    3    3    0  502  0.64747073837E+02 -0.86109991132E+02 -0.66295140167E+02  0.12656868551E+03  0.41800000000E+01 0.  1.
        -11    1    1    2    0    0  0.34083958562E+02  0.11003992962E+03 -0.12614958972E+02  0.11588632159E+03  0.00000000000E+00 0.  1.
         11    1    1    2    0    0 -0.39416052335E+02  0.59595378644E+02 -0.45252495363E+02  0.84575544183E+02  0.00000000000E+00 0. -1.
</event>
<event>
 7    1  0.2714042E-009  0.1492992E+03  0.7561462E-02  0.1201337E+00
          3   -1    0    0  501    0  0.00000000000E+00  0.00000000000E+00  0.44587465886E+02  0.44587465886E+02  0.00000000000E+00 0. -1.
         -3   -1    0    0    0  501 -0.00000000000E+00 -0.00000000000E+00 -0.53430416600E+03  0.53430416600E+03  0.00000000000E+00 0.  1.
         25    2    1    2    0    0  0.27065543420E+02  0.10574271518E+03 -0.25615681389E+03  0.30525017998E+03  0.12508914269E+03 0.  0.
          5    1    3    3  502    0 -0.31068230387E+02 -0.12775101157E+02 -0.48268060764E+02  0.58955205358E+02  0.41800000000E+01 0. -1.
         -5    1    3    3    0  502  0.58133773807E+02  0.11851781634E+03 -0.20788875313E+03  0.24629497462E+03  0.41800000000E+01 0. -1.
        -11    1    1    2    0    0  0.22976214551E+02 -0.10882751465E+02 -0.95456229395E+02  0.98783766100E+02  0.00000000000E+00 0.  1.
         11    1    1    2    0    0 -0.50041757971E+02 -0.94859963715E+02 -0.13810365683E+03  0.17485768581E+03  0.00000000000E+00 0. -1.
</event>
<event>
 7    1  0.2714042E-009  0.9765184E+02  0.7561462E-02  0.1285313E+00
         -1   -1    0    0    0  501 -0.00000000000E+00  0.00000000000E+00  0.20732346072E+02  0.20732346072E+02  0.00000000000E+00 0.  1.
          1   -1    0    0  501    0  0.00000000000E+00 -0.00000000000E+00 -0.66368527206E+03  0.66368527206E+03  0.00000000000E+00 0. -1.
         25    2    1    2    0    0  0.45017455626E+02 -0.27049529765E+01 -0.41230488698E+03  0.43321664149E+03  0.12508976998E+03 0.  0.
          5    1    3    3  502    0 -0.35545428240E+01  0.34692397277E+02 -0.32248206077E+03  0.32438919391E+03  0.41800000000E+01 0. -1.
         -5    1    3    3    0  502  0.48571998450E+02 -0.37397350253E+02 -0.89822826209E+02  0.10882744758E+03  0.41800000000E+01 0. -1.
        -11    1    1    2    0    0 -0.25446650151E+02  0.45245494051E+02 -0.13683463839E+03  0.14635028186E+03  0.00000000000E+00 0.  1.
         11    1    1    2    0    0 -0.19570805475E+02 -0.42540541074E+02 -0.93813400608E+02  0.10485069478E+03  0.00000000000E+00 0. -1.
</event>
<event>
 7    1  0.2714042E-009  0.1456696E+03  0.7561462E-02  0.1205897E+00
         -2   -1    0    0    0  501 -0.00000000000E+00  0.00000000000E+00  0.13911323571E+03  0.13911323571E+03  0.00000000000E+00 0.  1.
          2   -1    0    0  501    0  0.00000000000E+00 -0.00000000000E+00 -0.24005899686E+03  0.24005899686E+03  0.00000000000E+00 0. -1.
         25    2    1    2    0    0  0.96031138089E+02 -0.84428501698E+02  0.20854653270E+02  0.18009036700E+03  0.12508985707E+03 0.  0.
          5    1    3    3  502    0  0.10359828240E+03 -0.90232173000E+02  0.52226435327E+02  0.14703578513E+03  0.41800000000E+01 0.  1.
         -5    1    3    3    0  502 -0.75671443101E+01  0.58036713025E+01 -0.31371782056E+02  0.33054581876E+02  0.41800000000E+01 0.  1.
        -11    1    1    2    0    0 -0.10668980858E+02  0.50510646615E+02 -0.70624585136E+01  0.52105958338E+02  0.00000000000E+00 0.  1.
         11    1    1    2    0    0 -0.85362157231E+02  0.33917855083E+02 -0.11473795590E+03  0.14697590723E+03  0.00000000000E+00 0. -1.
</event>
<event>
 7    1  0.2714042E-009  0.4079877E+03  0.7561462E-02  0.1041048E+00
         -2   -1    0    0    0  501 -0.00000000000E+00  0.00000000000E+00  0.13102732128E+03  0.13102732128E+03  0.00000000000E+00 0.  1.
          2   -1    0    0  501    0  0.00000000000E+00 -0.00000000000E+00 -0.19601638944E+04  0.19601638944E+04  0.00000000000E+00 0. -1.
         25    2    1    2    0    0  0.39739690409E+03 -0.25369144084E+02 -0.15274033061E+04  0.15834062042E+04  0.12508579068E+03 0.  0.
          5    1    3    3  502    0  0.14670059772E+02  0.18268558125E+02 -0.36776351459E+02  0.43805516734E+02  0.41800000000E+01 0. -1.
         -5    1    3    3    0  502  0.38272684432E+03 -0.43637702208E+02 -0.14906269547E+04  0.15396006874E+04  0.41800000000E+01 0. -1.
        -11    1    1    2    0    0 -0.33647173521E+03 -0.97711839194E+01 -0.26518514914E+03  0.42852289082E+03  0.00000000000E+00 0. -1.
         11    1    1    2    0    0 -0.60925168883E+02  0.35140328003E+02 -0.36548117853E+02  0.79262120676E+02  0.00000000000E+00 0.  1.
</event>
<event>
 7    1  0.2909123E-009  0.1692013E+03  0.7561462E-02  0.1178683E+00
          4   -1    0    0  501    0  0.00000000000E+00  0.00000000000E+00  0.12807409206E+04  0.12807409206E+04  0.00000000000E+00 0.  1.
         -4   -1    0    0    0  501 -0.00000000000E+00 -0.00000000000E+00 -0.23066757198E+02  0.23066757198E+02  0.00000000000E+00 0. -1.
         25    2    1    2    0    0  0.12716503900E+03 -0.31704832071E+02  0.58226869726E+03  0.60980342441E+03  0.12508891674E+03 0.  0.
          5    1    3    3  502    0  0.10644891457E+03  0.34035898367E+02  0.37630350307E+03  0.39257051928E+03  0.41800000000E+01 0. -1.
         -5    1    3    3    0  502  0.20716124430E+02 -0.65740730438E+02  0.20596519419E+03  0.21723290512E+03  0.41800000000E+01 0. -1.
        -11    1    1    2    0    0 -0.71404830560E+02  0.61546763294E+02  0.34774082198E+03  0.36029201097E+03  0.00000000000E+00 0. -1.
         11    1    1    2    0    0 -0.55760208441E+02 -0.29841931223E+02  0.32766464419E+03  0.33371224245E+03  0.00000000000E+00 0.  1.
</event>
<event>
 7    1  0.2714042E-009  0.1508692E+03  0.7561462E-02  0.1199409E+00
         -4   -1    0    0    0  501 -0.00000000000E+00  0.00000000000E+00  0.28731826946E+03  0.28731826946E+03  0.00000000000E+00 0.  1.
          4   -1    0    0  501    0  0.00000000000E+00 -0.00000000000E+00 -0.10506570687E+03  0.10506570687E+03  0.00000000000E+00 0. -1.
         25    2    1    2    0    0 -0.13403952540E+03  0.21405295442E+02  0.10173376694E+03  0.21076549202E+03  0.12509017646E+03 0.  0.
          5    1    3    3  502    0 -0.10939454458E+03  0.55638390029E+01  0.12985941021E+03  0.16993840505E+03  0.41800000000E+01 0.  1.
         -5    1    3    3    0  502 -0.24644980816E+02  0.15841456439E+02 -0.28125643268E+02  0.40827086974E+02  0.41800000000E+01 0.  1.
        -11    1    1    2    0    0  0.80796001032E+02 -0.56649655090E+02  0.53922114901E+02  0.11244897367E+03  0.00000000000E+00 0.  1.
         11    1    1    2    0    0  0.53243524367E+02  0.35244359648E+02  0.26596680746E+02  0.69169510630E+02  0.00000000000E+00 0. -1.
</event>
<event>
 7    1  0.2714042E-009  0.9855002E+02  0.7561462E-02  0.1283375E+00
         -2   -1    0    0    0  501 -0.00000000000E+00  0.00000000000E+00  0.99326586781E+02  0.99326586781E+02  0.00000000000E+00 0.  1.
          2   -1    0    0  501    0  0.00000000000E+00 -0.00000000000E+00 -0.21220533446E+03  0.21220533446E+03  0.00000000000E+00 0. -1.
         25    2    1    2    0    0  0.87637160358E+02  0.25189977725E+02 -0.23034386859E+02  0.15649065850E+03  0.12507572253E+03 0.  0.
          5    1    3    3  502    0  0.27009880915E+02 -0.31834020154E+01 -0.69599943367E+02  0.74841781326E+02  0.41800000000E+01 0.  1.
         -5    1    3    3    0  502  0.60627279443E+02  0.28373379740E+02  0.46565556508E+02  0.81648877172E+02  0.41800000000E+01 0.  1.
        -11    1    1    2    0    0 -0.58113466274E+02  0.73516932245E+01 -0.41310763484E+01  0.58722126558E+02  0.00000000000E+00 0.  1.
         11    1    1    2    0    0 -0.29523694084E+02 -0.32541670950E+02 -0.85713284476E+02  0.96319136189E+02  0.00000000000E+00 0. -1.
</event>
<event>
 7    1  0.2714042E-009  0.5175855E+02  0.7561462E-02  0.1436081E+00
         -2   -1    0    0    0  501 -0.00000000000E+00  0.00000000000E+00  0.25225361034E+02  0.25225361034E+02  0.00000000000E+00 0.  1.
          2   -1    0    0  501    0  0.00000000000E+00 -0.00000000000E+00 -0.63823183566E+03  0.63823183566E+03  0.00000000000E+00 0. -1.
         25    2    1    2    0    0 -0.11814323860E+02 -0.39441395062E+02 -0.47726504128E+03  0.49510006065E+03  0.12508776335E+03 0.  0.
          5    1    3    3  502    0 -0.85167433585E+01 -0.17133375997E+01  0.53214002594E+01  0.11011818373E+02  0.41800000000E+01 0. -1.
         -5    1    3    3    0  502 -0.32975805014E+01 -0.37728057462E+02 -0.48258644154E+03  0.48408824228E+03  0.41800000000E+01 0. -1.
        -11    1    1    2    0    0  0.23049688337E+02  0.11710190945E+02 -0.13599963028E+03  0.13843524168E+03  0.00000000000E+00 0. -1.
         11    1    1    2    0    0 -0.11235364477E+02  0.27731204117E+02  0.25819692370E+00  0.29921894364E+02  0.00000000000E+00 0.  1.
</event>
<event>
 7    1  0.2714042E-009  0.1088051E+03  0.7561462E-02  0.1262799E+00
         -4   -1    0    0    0  501 -0.00000000000E+00  0.00000000000E+00  0.33814487275E+02  0.33814487275E+02  0.00000000000E+00 0.  1.
          4   -1    0    0  501    0  0.00000000000E+00 -0.00000000000E+00 -0.53525633010E+03  0.53525633010E+03  0.00000000000E+00 0. -1.
         25    2    1    2    0    0 -0.44058505787E+02 -0.27201536256E+02 -0.36695266325E+03  0.39112758146E+03  0.12508178284E+03 0.  0.
          5    1    3    3  502    0  0.38882791983E+01 -0.51728201407E+02 -0.59857795486E+02  0.79318053533E+02  0.41800000000E+01 0.  1.
         -5    1    3    3    0  502 -0.47946784985E+02  0.24526665151E+02 -0.30709486777E+03  0.31180952792E+03  0.41800000000E+01 0.  1.
        -11    1    1    2    0    0  0.57661724846E+02  0.55575106375E+02 -0.11746499724E+03  0.14216712889E+03  0.00000000000E+00 0.  1.
         11    1    1    2    0    0 -0.13603219059E+02 -0.28373570120E+02 -0.17024182337E+02  0.35776107032E+02  0.00000000000E+00 0. -1.
</event>
<event>
 7    1  0.2714042E-009  0.1283276E+03  0.7561462E-02  0.1229959E+00
         -1   -1    0    0    0  501 -0.00000000000E+00  0.00000000000E+00  0.12131591488E+03  0.12131591488E+03  0.00000000000E+00 0.  1.
          1   -1    0    0  501    0  0.00000000000E+00 -0.00000000000E+00 -0.19700757947E+03  0.19700757947E+03  0.00000000000E+00 0. -1.
         25    2    1    2    0    0  0.10144172163E+03 -0.36960011195E+02 -0.16954268403E+02  0.16610518728E+03  0.12508805182E+03 0.  0.
          5    1    3    3  502    0  0.73487889700E+02  0.92362688816E+01 -0.61201375614E+02  0.96170990285E+02  0.41800000000E+01 0.  1.
         -5    1    3    3    0  502  0.27953831928E+02 -0.46196280076E+02  0.44247107210E+02  0.69934196991E+02  0.41800000000E+01 0.  1.
        -11    1    1    2    0    0 -0.51956902561E+02 -0.17410341786E+02  0.48576600752E+01  0.55011240545E+02  0.00000000000E+00 0.  1.
         11    1    1    2    0    0 -0.49484819066E+02  0.54370352981E+02 -0.63595056265E+02  0.97207066526E+02  0.00000000000E+00 0. -1.
</event>
<event>
 7    1  0.2714042E-009  0.9615040E+02  0.7561462E-02  0.1288606E+00
          3   -1    0    0  501    0  0.00000000000E+00  0.00000000000E+00  0.30163229260E+03  0.30163229260E+03  0.00000000000E+00 0. -1.
         -3   -1    0    0    0  501 -0.00000000000E+00 -0.00000000000E+00 -0.36832378324E+02  0.36832378324E+02  0.00000000000E+00 0.  1.
         25    2    1    2    0    0 -0.56157903402E+01 -0.13119514546E+02  0.15804207324E+03  0.20205892686E+03  0.12508738644E+03 0.  0.
          5    1    3    3  502    0  0.98220924637E+01 -0.58492622236E+02  0.32824710575E+02  0.67917555763E+02  0.41800000000E+01 0. -1.
         -5    1    3    3    0  502 -0.15437882804E+02  0.45373107690E+02  0.12521736267E+03  0.13414137110E+03  0.41800000000E+01 0. -1.
        -11    1    1    2    0    0 -0.15022139781E+01 -0.35531741783E+02  0.49161260015E+02  0.60676113977E+02  0.00000000000E+00 0.  1.
         11    1    1    2    0    0  0.71180043182E+01  0.48651256330E+02  0.57596581016E+02  0.75729630085E+02  0.00000000000E+00 0. -1.
</event>
<event>
 7    1  0.2714042E-009  0.9857828E+02  0.7561462E-02  0.1283314E+00
          2   -1    0    0  501    0  0.00000000000E+00  0.00000000000E+00  0.90518767926E+03  0.90518767926E+03  0.00000000000E+00 0. -1.
         -2   -1    0    0    0  501 -0.00000000000E+00 -0.00000000000E+00 -0.17282086646E+02  0.17282086646E+02  0.00000000000E+00 0.  1.
         25    2    1    2    0    0  0.56145885634E+01 -0.56236489223E+02  0.59748406512E+03  0.61304792341E+03  0.12508589852E+03 0.  0.
          5    1    3    3  502    0 -0.39671035023E+02 -0.16972455469E+01  0.41986818668E+03  0.42176230065E+03  0.41800000000E+01 0. -1.
         -5    1    3    3    0  502  0.45285623586E+02 -0.54539243676E+02  0.17761587844E+03  0.19128562277E+03  0.41800000000E+01 0. -1.
        -11    1    1    2    0    0 -0.17154008038E+02 -0.94091581990E+01  0.11602105839E+02  0.22746452684E+02  0.00000000000E+00 0.  1.
         11    1    1    2    0    0  0.11539419475E+02  0.65645647422E+02  0.27881942165E+03  0.28667538980E+03  0.00000000000E+00 0. -1.
</event>
<event>
 7    1  0.2714042E-009  0.1098580E+03  0.7561462E-02  0.1260833E+00
         -1   -1    0    0    0  501 -0.00000000000E+00  0.00000000000E+00  0.15880049799E+03  0.15880049799E+03  0.00000000000E+00 0.  1.
          1   -1    0    0  501    0  0.00000000000E+00 -0.00000000000E+00 -0.12412573023E+03  0.12412573023E+03  0.00000000000E+00 0. -1.
         25    2    1    2    0    0 -0.34366647320E+02 -0.66404781258E+01  0.10126088995E+03  0.16469670199E+03  0.12508426526E+03 0.  0.
          5    1    3    3  502    0  0.67616825203E+01  0.51452852438E+02  0.18020649329E+02  0.55093852441E+02  0.41800000000E+01 0. -1.
         -5    1    3    3    0  502 -0.41128329840E+02 -0.58093330564E+02  0.83240240622E+02  0.10960284955E+03  0.41800000000E+01 0. -1.
        -11    1    1    2    0    0  0.61832813539E+02 -0.12225920960E+02 -0.52588378614E+02  0.82087194730E+02  0.00000000000E+00 0. -1.
         11    1    1    2    0    0 -0.27466166219E+02  0.18866399086E+02 -0.13997743576E+02  0.36142331503E+02  0.00000000000E+00 0.  1.
</event>
<event>
 7    1  0.2714042E-009  0.1670004E+03  0.7561462E-02  0.1181013E+00
          1   -1    0    0  501    0  0.00000000000E+00  0.00000000000E+00  0.93230184035E+03  0.93230184035E+03  0.00000000000E+00 0. -1.
         -1   -1    0    0    0  501 -0.00000000000E+00 -0.00000000000E+00 -0.31492093693E+02  0.31492093693E+02  0.00000000000E+00 0.  1.
         25    2    1    2    0    0 -0.74326962379E+02 -0.10987890184E+03  0.50798147133E+03  0.53971092572E+03  0.12507932571E+03 0.  0.
          5    1    3    3  502    0  0.26468206610E+02 -0.67334639473E+02  0.21934118299E+03  0.23100334757E+03  0.41800000000E+01 0.  1.
         -5    1    3    3    0  502 -0.10079516899E+03 -0.42544262363E+02  0.28864028834E+03  0.30870757814E+03  0.41800000000E+01 0.  1.
        -11    1    1    2    0    0  0.88168678222E+02  0.79740337118E+02  0.35170391168E+03  0.37125177262E+03  0.00000000000E+00 0.  1.
         11    1    1    2    0    0 -0.13841715843E+02  0.30138564718E+02  0.41124363650E+02  0.52831235707E+02  0.00000000000E+00 0. -1.
</event>
<event>
 7    1  0.2714042E-009  0.3223945E+03  0.7561462E-02  0.1074553E+00
          2   -1    0    0  501    0  0.00000000000E+00  0.00000000000E+00  0.11345152897E+04  0.11345152897E+04  0.00000000000E+00 0. -1.
         -2   -1    0    0    0  501 -0.00000000000E+00 -0.00000000000E+00 -0.11726066425E+03  0.11726066425E+03  0.00000000000E+00 0.  1.
         25    2    1    2    0    0 -0.54009309770E+01  0.31863756203E+03  0.27466655775E+03  0.43891768002E+03  0.12509174991E+03 0.  0.
          5    1    3    3  502    0 -0.38558611000E+01  0.45135480750E+02  0.11146969218E+03  0.12039536520E+03  0.41800000000E+01 0.  1.
         -5    1    3    3    0  502 -0.15450698770E+01  0.27350208128E+03  0.16319686557E+03  0.31852231482E+03  0.41800000000E+01 0.  1.
        -11    1    1    2    0    0 -0.23346583577E+02 -0.45768660067E+02  0.17572833031E+03  0.18308544258E+03  0.00000000000E+00 0.  1.
         11    1    1    2    0    0  0.28747514554E+02 -0.27286890196E+03  0.56685973738E+03  0.62977283136E+03  0.00000000000E+00 0. -1.
</event>
<event>
 7    1  0.2714042E-009  0.8329078E+02  0.7561462E-02  0.1319964E+00
          1   -1    0    0  501    0  0.00000000000E+00  0.00000000000E+00  0.16005824069E+03  0.16005824069E+03  0.00000000000E+00 0. -1.
         -1   -1    0    0    0  501 -0.00000000000E+00 -0.00000000000E+00 -0.90373840510E+02  0.90373840510E+02  0.00000000000E+00 0.  1.
         25    2    1    2    0    0  0.37005443247E+02  0.35753454420E+02  0.44736076879E+02  0.14245510318E+03  0.12507768592E+03 0.  0.
          5    1    3    3  502    0  0.23193748011E+02 -0.17029389288E+02 -0.35154842227E+02  0.45621106720E+02  0.41800000000E+01 0.  1.
         -5    1    3    3    0  502  0.13811695236E+02  0.52782843709E+02  0.79890919106E+02  0.96833996463E+02  0.41800000000E+01 0.  1.
        -11    1    1    2    0    0 -0.30185203819E+02  0.13496830755E+02  0.43733490538E+02  0.54826354654E+02  0.00000000000E+00 0. -1.
         11    1    1    2    0    0 -0.68202394278E+01 -0.49250285175E+02 -0.18785167238E+02  0.53150623363E+02  0.00000000000E+00 0.  1.
</event>
<event>
 7    1  0.2714042E-009  0.5170075E+02  0.7561462E-02  0.1436378E+00
          2   -1    0    0  501    0  0.00000000000E+00  0.00000000000E+00  0.53465305629E+03  0.53465305629E+03  0.00000000000E+00 0. -1.
         -2   -1    0    0    0  501 -0.00000000000E+00 -0.00000000000E+00 -0.22830199400E+02  0.22830199400E+02  0.00000000000E+00 0.  1.
         25    2    1    2    0    0 -0.34811123071E+01 -0.26527962559E+02  0.34738708864E+03  0.37019223964E+03  0.12509458021E+03 0.  0.
          5    1    3    3  502    0  0.13755154569E+01 -0.81911762994E+01 -0.91976443761E+01  0.13078855990E+02  0.41800000000E+01 0. -1.
         -5    1    3    3    0  502 -0.48566277640E+01 -0.18336786259E+02  0.35658473301E+03  0.35711338365E+03  0.41800000000E+01 0. -1.
        -11    1    1    2    0    0  0.30812225589E+02 -0.68240488420E+01  0.21997183196E+02  0.38468649013E+02  0.00000000000E+00 0.  1.
         11    1    1    2    0    0 -0.27331113282E+02  0.33352011401E+02  0.14243858505E+03  0.14882236703E+03  0.00000000000E+00 0. -1.
</event>
<event>
 7    1  0.2714042E-009  0.1312625E+03  0.7561462E-02  0.1225594E+00
         -2   -1    0    0    0  501 -0.00000000000E+00  0.00000000000E+00  0.42291161954E+02  0.42291161954E+02  0.00000000000E+00 0.  1.
          2   -1    0    0  501    0  0.00000000000E+00 -0.00000000000E+00 -0.72590164536E+03  0.72590164536E+03  0.00000000000E+00 0. -1.
         25    2    1    2    0    0 -0.59191634969E+02 -0.11169440717E+03 -0.24574840403E+03  0.30334725210E+03  0.12509191431E+03 0.  0.
          5    1    3    3  502    0 -0.43728006204E+02 -0.54053218909E+02 -0.24000359852E+02  0.73670745035E+02  0.41800000000E+01 0. -1.
         -5    1    3    3    0  502 -0.15463628765E+02 -0.57641188266E+02 -0.22174804418E+03  0.22967650706E+03  0.41800000000E+01 0. -1.
        -11    1    1    2    0    0  0.42259228529E+02  0.36097035143E+02 -0.72451261978E+02  0.91312779523E+02  0.00000000000E+00 0. -1.
         11    1    1    2    0    0  0.16932406440E+02  0.75597372031E+02 -0.36541081740E+03  0.37353277570E+03  0.00000000000E+00 0.  1.
</event>
<event>
 7    1  0.2714042E-009  0.1224353E+03  0.7561462E-02  0.1239133E+00
         -1   -1    0    0    0  501 -0.00000000000E+00  0.00000000000E+00  0.11013270469E+02  0.11013270469E+02  0.00000000000E+00 0.  1.
          1   -1    0    0  501    0  0.00000000000E+00 -0.00000000000E+00 -0.16563730150E+04  0.16563730150E+04  0.00000000000E+00 0. -1.
         25    2    1    2    0    0  0.59754543809E+02  0.37629102352E+02 -0.11920532443E+04  0.12006767965E+04  0.12508907880E+03 0.  0.
          5    1    3    3  502    0  0.46242121936E+02  0.83505761009E+02 -0.77295102381E+03  0.77883393838E+03  0.41800000000E+01 0. -1.
         -5    1    3    3    0  502  0.13512421873E+02 -0.45876658657E+02 -0.41910222048E+03  0.42184285814E+03  0.41800000000E+01 0. -1.
        -11    1    1    2    0    0 -0.78638169259E+01  0.21354748828E+02 -0.40153635388E+02  0.46153866024E+02  0.00000000000E+00 0.  1.
         11    1    1    2    0    0 -0.51890726883E+02 -0.58983851179E+02 -0.41315286489E+03  0.42055562296E+03  0.00000000000E+00 0. -1.
</event>
<event>
 7    1  0.2714042E-009  0.9942615E+02  0.7561462E-02  0.1281507E+00
          2   -1    0    0  501    0  0.00000000000E+00  0.00000000000E+00  0.28548342657E+03  0.28548342657E+03  0.00000000000E+00 0.  1.
         -2   -1    0    0    0  501 -0.00000000000E+00 -0.00000000000E+00 -0.59638440296E+02  0.59638440296E+02  0.00000000000E+00 0. -1.
         25    2    1    2    0    0 -0.57008889625E+02 -0.43693442357E+02  0.10234859660E+03  0.17686758304E+03  0.12509107204E+03 0.  0.
          5    1    3    3  502    0 -0.38065870570E+02  0.26513225335E+02 -0.53157230056E+01  0.46879536378E+02  0.41800000000E+01 0. -1.
         -5    1    3    3    0  502 -0.18943019054E+02 -0.70206667692E+02  0.10766431960E+03  0.12998804666E+03  0.41800000000E+01 0. -1.
        -11    1    1    2    0    0  0.56507201804E+02  0.26806293008E+02  0.13433575683E+03  0.14818143191E+03  0.00000000000E+00 0.  1.
         11    1    1    2    0    0  0.50168782069E+00  0.16887149349E+02 -0.10839367152E+02  0.20072851916E+02  0.00000000000E+00 0. -1.
</event>
<event>
 7    1  0.2714042E-009  0.1438117E+03  0.7561462E-02  0.1208290E+00
         -1   -1    0    0    0  501 -0.00000000000E+00  0.00000000000E+00  0.25635042661E+02  0.25635042661E+02  0.00000000000E+00 0.  1.
          1   -1    0    0  501    0  0.00000000000E+00 -0.00000000000E+00 -0.12839158266E+04  0.12839158266E+04  0.00000000000E+00 0. -1.
         25    2    1    2    0    0  0.84492105032E+02  0.66147301269E+02 -0.10288695466E+04  0.10419860503E+04  0.12509198180E+03 0.  0.
          5    1    3    3  502    0  0.10786155681E+03  0.39549716847E+02 -0.55521078926E+03  0.56698746764E+03  0.41800000000E+01 0.  1.
         -5    1    3    3    0  502 -0.23369451781E+02  0.26597584422E+02 -0.47365875732E+03  0.47499858269E+03  0.41800000000E+01 0.  1.
        -11    1    1    2    0    0 -0.33175360671E+02  0.18529312192E+02 -0.52157165452E+02  0.64531464217E+02  0.00000000000E+00 0. -1.
         11    1    1    2    0    0 -0.51316744361E+02 -0.84676613461E+02 -0.17725407187E+03  0.20303335468E+03  0.00000000000E+00 0.  1.
</event>
<event>
 7    1  0.3425244E-009  0.1277050E+03  0.7561462E-02  0.1230901E+00
         -2   -1    0    0    0  501 -0.00000000000E+00  0.00000000000E+00  0.44677209783E+02  0.44677209783E+02  0.00000000000E+00 0.  1.
          2   -1    0    0  501    0  0.00000000000E+00 -0.00000000000E+00 -0.65253821796E+03  0.65253821796E+03  0.00000000000E+00 0. -1.
         25    2    1    2    0    0 -0.22926638162E+02  0.10988484729E+03 -0.18332420680E+03  0.24870706086E+03  0.12508847638E+03 0.  0.
          5    1    3    3  502    0 -0.89992293288E+01  0.88054222662E+02 -0.30599316822E+02  0.93746055101E+02  0.41800000000E+01 0. -1.
         -5    1    3    3    0  502 -0.13927408833E+02  0.21830624627E+02 -0.15272488997E+03  0.15496100576E+03  0.41800000000E+01 0. -1.
        -11    1    1    2    0    0 -0.32249898587E+02 -0.45590818497E+02 -0.22302273763E+03  0.22990806900E+03  0.00000000000E+00 0. -1.
         11    1    1    2    0    0  0.55176536749E+02 -0.64294028792E+02 -0.20151406375E+03  0.21860029789E+03  0.00000000000E+00 0.  1.
</event>
<event>
 7    1  0.2714042E-009  0.2846448E+03  0.7561462E-02  0.1093179E+00
          2   -1    0    0  501    0  0.00000000000E+00  0.00000000000E+00  0.10993090461E+03  0.10993090461E+03  0.00000000000E+00 0. -1.
         -2   -1    0    0    0  501 -0.00000000000E+00 -0.00000000000E+00 -0.94238290626E+03  0.94238290626E+03  0.00000000000E+00 0.  1.
         25    2    1    2    0    0 -0.17496564511E+03 -0.21283803936E+03 -0.62814026205E+03  0.69722384831E+03  0.12509155798E+03 0.  0.
          5    1    3    3  502    0 -0.66007849848E+02 -0.18166263831E+02 -0.79811318878E+02  0.10523482505E+03  0.41800000000E+01 0.  1.
         -5    1    3    3    0  502 -0.10895779526E+03 -0.19467177553E+03 -0.54832894317E+03  0.59198902325E+03  0.41800000000E+01 0.  1.
        -11    1    1    2    0    0  0.25263074771E+02  0.52196547943E+02 -0.91230005043E+02  0.10810002953E+03  0.00000000000E+00 0.  1.
         11    1    1    2    0    0  0.14970257034E+03  0.16064149142E+03 -0.11308173455E+03  0.24698993303E+03  0.00000000000E+00 0. -1.
</event>
<event>
 7    1  0.2714042E-009  0.3478156E+03  0.7561462E-02  0.1063515E+00
          2   -1    0    0  501    0  0.00000000000E+00  0.00000000000E+00  0.17794510972E+04  0.17794510972E+04  0.00000000000E+00 0. -1.
         -2   -1    0    0    0  501 -0.00000000000E+00 -0.00000000000E+00 -0.87981308202E+02  0.87981308202E+02  0.00000000000E+00 0.  1.
         25    2    1    2    0    0  0.30009612128E+03  0.15104312824E+03  0.12760665096E+04  0.13254677992E+04  0.12508973192E+03 0.  0.
          5    1    3    3  502    0  0.95589394355E+02  0.11676341767E+03  0.55558267442E+03  0.57572615759E+03  0.41800000000E+01 0. -1.
         -5    1    3    3    0  502  0.20450672692E+03  0.34279710579E+02  0.72048383520E+03  0.74974164157E+03  0.41800000000E+01 0. -1.
        -11    1    1    2    0    0 -0.95458510887E+02 -0.63773075042E+02  0.20919886314E+03  0.23862836533E+03  0.00000000000E+00 0.  1.
         11    1    1    2    0    0 -0.20463761039E+03 -0.87270053203E+02  0.20620441621E+03  0.30333624089E+03  0.00000000000E+00 0. -1.
</event>
<event>
 7    1  0.2714042E-009  0.1778561E+03  0.7561462E-02  0.1169894E+00
         -2   -1    0    0    0  501 -0.00000000000E+00  0.00000000000E+00  0.45686956547E+02  0.45686956547E+02  0.00000000000E+00 0.  1.
          2   -1    0    0  501    0  0.00000000000E+00 -0.00000000000E+00 -0.88577030361E+03  0.88577030361E+03  0.00000000000E+00 0. -1.
         25    2    1    2    0    0 -0.14470810014E+03 -0.53678226399E+02 -0.25419625408E+03  0.32262233697E+03  0.12509056912E+03 0.  0.
          5    1    3    3  502    0 -0.31991938152E+02 -0.69412686782E+02 -0.59047056989E+02  0.96672811753E+02  0.41800000000E+01 0. -1.
         -5    1    3    3    0  502 -0.11271616199E+03  0.15734460383E+02 -0.19514919710E+03  0.22594952521E+03  0.41800000000E+01 0. -1.
        -11    1    1    2    0    0  0.30107524103E+02 -0.12889231551E+02 -0.10218497962E+03  0.10730501087E+03  0.00000000000E+00 0. -1.
         11    1    1    2    0    0  0.11460057604E+03  0.66567457950E+02 -0.48370211336E+03  0.50152991232E+03  0.00000000000E+00 0.  1.
</event>
<event>
 7    1  0.2714042E-009  0.1566649E+03  0.7561462E-02  0.1192514E+00
         -2   -1    0    0    0  501 -0.00000000000E+00  0.00000000000E+00  0.30388404417E+02  0.30388404417E+02  0.00000000000E+00 0. -1.
          2   -1    0    0  501    0  0.00000000000E+00 -0.00000000000E+00 -0.98373399019E+03  0.98373399019E+03  0.00000000000E+00 0.  1.
         25    2    1    2    0    0  0.12604395379E+03  0.39324778043E+02 -0.41996155433E+03  0.45765509572E+03  0.12508782142E+03 0.  0.
          5    1    3    3  502    0  0.13677581580E+03  0.66224129460E+02 -0.36491201970E+03  0.39531191942E+03  0.41800000000E+01 0.  1.
         -5    1    3    3    0  502 -0.10731862008E+02 -0.26899351416E+02 -0.55049534623E+02  0.62343176298E+02  0.41800000000E+01 0.  1.
        -11    1    1    2    0    0 -0.10662520410E+03 -0.33891782446E+02 -0.52083618197E+03  0.53271748190E+03  0.00000000000E+00 0.  1.
         11    1    1    2    0    0 -0.19418749692E+02 -0.54329955976E+01 -0.12547849473E+02  0.23749816992E+02  0.00000000000E+00 0. -1.
</event>
<event>
 7    1  0.2714042E-009  0.7931142E+02  0.7561462E-02  0.1331017E+00
         -3   -1    0    0    0  501 -0.00000000000E+00  0.00000000000E+00  0.98475374736E+02  0.98475374736E+02  0.00000000000E+00 0.  1.
          3   -1    0    0  501    0  0.00000000000E+00 -0.00000000000E+00 -0.13552407568E+03  0.13552407568E+03  0.00000000000E+00 0. -1.
         25    2    1    2    0    0  0.34700926366E+02 -0.13619939020E+02 -0.60707914886E+02  0.14394804823E+03  0.12508370250E+03 0.  0.
          5    1    3    3  502    0  0.29931259269E+02  0.37853091150E+02  0.16298096086E+02  0.51106135904E+02  0.41800000000E+01 0.  1.
         -5    1    3    3    0  502  0.47696670975E+01 -0.51473030170E+02 -0.77006010972E+02  0.92841912329E+02  0.41800000000E+01 0.  1.
        -11    1    1    2    0    0 -0.16000460302E+02  0.29650262654E+02 -0.20535046534E+02  0.39456823763E+02  0.00000000000E+00 0. -1.
         11    1    1    2    0    0 -0.18700466064E+02 -0.16030323634E+02  0.44194260475E+02  0.50594578422E+02  0.00000000000E+00 0.  1.
</event>
<event>
 7    1  0.2714042E-009  0.1634629E+03  0.7561462E-02  0.1184842E+00
         -1   -1    0    0    0  501 -0.00000000000E+00  0.00000000000E+00  0.15423798087E+03  0.15423798087E+03  0.00000000000E+00 0.  1.
          1   -1    0    0  501    0  0.00000000000E+00 -0.00000000000E+00 -0.23026528132E+03  0.23026528132E+03  0.00000000000E+00 0. -1.
         25    2    1    2    0    0 -0.23837986972E+02  0.15084380909E+03 -0.52299304166E+02  0.20422400624E+03  0.12510045222E+03 0.  0.
          5    1    3    3  502    0 -0.50917051481E+02  0.58112341561E+02  0.24042361971E+02  0.81025291991E+02  0.41800000000E+01 0. -1.
         -5    1    3    3    0  502  0.27079064509E+02  0.92731467529E+02 -0.76341666137E+02  0.12319871425E+03  0.41800000000E+01 0. -1.
        -11    1    1    2    0    0  0.47539742203E+01 -0.49678509616E+02  0.35744672123E+02  0.61385960722E+02  0.00000000000E+00 0.  1.
         11    1    1    2    0    0  0.19084012751E+02 -0.10116529947E+03 -0.59472668412E+02  0.11889329522E+03  0.00000000000E+00 0. -1.
</event>
<event>
 7    1  0.2714042E-009  0.1609453E+03  0.7561462E-02  0.1187634E+00
         -1   -1    0    0    0  501 -0.00000000000E+00  0.00000000000E+00  0.11229550752E+03  0.11229550752E+03  0.00000000000E+00 0.  1.
          1   -1    0    0  501    0  0.00000000000E+00 -0.00000000000E+00 -0.23991048436E+03  0.23991048436E+03  0.00000000000E+00 0. -1.
         25    2    1    2    0    0 -0.10875738378E+03  0.56228584289E+02 -0.74609406595E+02  0.19027268601E+03  0.12508920526E+03 0.  0.
          5    1    3    3  502    0 -0.13534844775E+03  0.39410378026E+02 -0.72208850462E+02  0.15844232606E+03  0.41800000000E+01 0. -1.
         -5    1    3    3    0  502  0.26591063968E+02  0.16818206263E+02 -0.24005561338E+01  0.31830359951E+02  0.41800000000E+01 0. -1.
        -11    1    1    2    0    0  0.12296529175E+03 -0.55452327489E+02 -0.35710779050E+02  0.13953739047E+03  0.00000000000E+00 0.  1.
         11    1    1    2    0    0 -0.14207907974E+02 -0.77625680010E+00 -0.17294791196E+02  0.22395915389E+02  0.00000000000E+00 0. -1.
</event>
<event>
 7    1  0.2714042E-009  0.1023724E+03  0.7561462E-02  0.1275385E+00
         -3   -1    0    0    0  501 -0.00000000000E+00  0.00000000000E+00  0.24993176602E+03  0.24993176602E+03  0.00000000000E+00 0.  1.
          3   -1    0    0  501    0  0.00000000000E+00 -0.00000000000E+00 -0.58261295263E+02  0.58261295263E+02  0.00000000000E+00 0. -1.
         25    2    1    2    0    0  0.23052107010E+02 -0.45675286228E+02  0.12859148792E+03  0.18654929606E+03  0.12508891912E+03 0.  0.
          5    1    3    3  502    0 -0.44463418778E+02 -0.40721299299E+02  0.90305611527E+02  0.10866368160E+03  0.41800000000E+01 0. -1.
         -5    1    3    3    0  502  0.67515525788E+02 -0.49539869293E+01  0.38285876390E+02  0.77885614461E+02  0.41800000000E+01 0. -1.
        -11    1    1    2    0    0 -0.30140363183E+02  0.56211783088E+02  0.78835899172E+02  0.10140663217E+03  0.00000000000E+00 0.  1.
         11    1    1    2    0    0  0.70882561727E+01 -0.10536496860E+02 -0.15756916332E+02  0.20237133046E+02  0.00000000000E+00 0. -1.
</event>
<event>
 7    1  0.2714042E-009  0.8861208E+02  0.7561462E-02  0.1306248E+00
         -1   -1    0    0    0  501 -0.00000000000E+00  0.00000000000E+00  0.54906490524E+02  0.54906490524E+02  0.00000000000E+00 0.  1.
          1   -1    0    0  501    0  0.00000000000E+00 -0.00000000000E+00 -0.21432597423E+03  0.21432597423E+03  0.00000000000E+00 0. -1.
         25    2    1    2    0    0 -0.84500494986E+01  0.35112485562E+01 -0.87176017398E+02  0.15273172313E+03  0.12507433405E+03 0.  0.
          5    1    3    3  502    0  0.52850927446E+02  0.23586221675E+02 -0.25476882759E+02  0.63372504605E+02  0.41800000000E+01 0.  1.
         -5    1    3    3    0  502 -0.61300976945E+02 -0.20074973119E+02 -0.61699134638E+02  0.89359218524E+02  0.41800000000E+01 0.  1.
        -11    1    1    2    0    0 -0.14780963127E+02 -0.20858978967E+02 -0.82013240313E+02  0.85905444887E+02  0.00000000000E+00 0. -1.
         11    1    1    2    0    0  0.23231012625E+02  0.17347730411E+02  0.97697740092E+01  0.30595296733E+02  0.00000000000E+00 0.  1.
</event>
<event>
 7    1  0.2714042E-009  0.2559479E+03  0.7561462E-02  0.1109603E+00
         -2   -1    0    0    0  501 -0.00000000000E+00  0.00000000000E+00  0.24981912793E+02  0.24981912793E+02  0.00000000000E+00 0. -1.
          2   -1    0    0  501    0  0.00000000000E+00 -0.00000000000E+00 -0.30230398039E+04  0.30230398039E+04  0.00000000000E+00 0.  1.
         25    2    1    2    0    0  0.18756762414E+03 -0.13412958001E+03 -0.20549557732E+04  0.20716326671E+04  0.12508525006E+03 0.  0.
          5    1    3    3  502    0  0.14189760643E+03 -0.28593319987E+02 -0.10024657521E+04  0.10128709519E+04  0.41800000000E+01 0. -1.
         -5    1    3    3    0  502  0.45670017711E+02 -0.10553626002E+03 -0.10524900211E+04  0.10587617152E+04  0.41800000000E+01 0. -1.
        -11    1    1    2    0    0 -0.16988151994E+03  0.67035132435E+02 -0.71592810924E+03  0.73885485544E+03  0.00000000000E+00 0. -1.
         11    1    1    2    0    0 -0.17686104207E+02  0.67094447572E+02 -0.22717400875E+03  0.23753419423E+03  0.00000000000E+00 0.  1.
</event>
<event>
 7    1  0.2714042E-009  0.1416101E+03  0.7561462E-02  0.1211179E+00
          1   -1    0    0  501    0  0.00000000000E+00  0.00000000000E+00  0.11700580784E+03  0.11700580784E+03  0.00000000000E+00 0. -1.
         -1   -1    0    0    0  501 -0.00000000000E+00 -0.00000000000E+00 -0.39875071188E+03  0.39875071188E+03  0.00000000000E+00 0.  1.
         25    2    1    2    0    0 -0.50401548120E+02  0.12258074149E+03  0.10248304518E+02  0.18253447286E+03  0.12508977496E+03 0.  0.
          5    1    3    3  502    0 -0.65089804430E+02  0.82298318814E+02 -0.43490158435E+02  0.11365985308E+03  0.41800000000E+01 0.  1.
         -5    1    3    3    0  502  0.14688256310E+02  0.40282422674E+02  0.53738462953E+02  0.68874619784E+02  0.41800000000E+01 0.  1.
        -11    1    1    2    0    0  0.24077572066E+02 -0.90412250795E+02 -0.10067014769E+03  0.13743574210E+03  0.00000000000E+00 0. -1.
         11    1    1    2    0    0  0.26323976054E+02 -0.32168490693E+02 -0.19132306087E+03  0.19578630476E+03  0.00000000000E+00 0.  1.
</event>
<event>
 7    1  0.2714042E-009  0.1107613E+03  0.7561462E-02  0.1259167E+00
          1   -1    0    0  501    0  0.00000000000E+00  0.00000000000E+00  0.45865852042E+03  0.45865852042E+03  0.00000000000E+00 0. -1.
         -1   -1    0    0    0  501 -0.00000000000E+00 -0.00000000000E+00 -0.31672219415E+02  0.31672219415E+02  0.00000000000E+00 0.  1.
         25    2    1    2    0    0  0.26671877529E+02  0.30151759443E+02  0.30830616565E+03  0.33514712284E+03  0.12510149688E+03 0.  0.
          5    1    3    3  502    0  0.30952507491E+02 -0.45035734897E+02  0.10799097407E+03  0.12110242780E+03  0.41800000000E+01 0. -1.
         -5    1    3    3    0  502 -0.42806299624E+01  0.75187494339E+02  0.20031519158E+03  0.21404469504E+03  0.41800000000E+01 0. -1.
        -11    1    1    2    0    0 -0.51976961970E+02 -0.38457794604E+02  0.50676592502E+02  0.82150615147E+02  0.00000000000E+00 0.  1.
         11    1    1    2    0    0  0.25305084441E+02  0.83060351609E+01  0.68003542851E+02  0.73033001848E+02  0.00000000000E+00 0. -1.
</event>
<event>
 7    1  0.2714042E-009  0.1740130E+03  0.7561462E-02  0.1173726E+00
          1   -1    0    0  501    0  0.00000000000E+00  0.00000000000E+00  0.17039974280E+03  0.17039974280E+03  0.00000000000E+00 0. -1.
         -1   -1    0    0    0  501 -0.00000000000E+00 -0.00000000000E+00 -0.21904563928E+03  0.21904563928E+03  0.00000000000E+00 0.  1.
         25    2    1    2    0    0  0.88856926561E+02 -0.13062318084E+03 -0.38504259960E+02  0.20515429451E+03  0.12509091793E+03 0.  0.
          5    1    3    3  502    0  0.66283566339E+02 -0.12314229017E+03  0.20496555073E+02  0.14140408751E+03  0.41800000000E+01 0.  1.
         -5    1    3    3    0  502  0.22573360222E+02 -0.74808906656E+01 -0.59000815034E+02  0.63750206992E+02  0.41800000000E+01 0.  1.
        -11    1    1    2    0    0 -0.72162227546E+02  0.14498312421E+03 -0.76496050841E+01  0.16212960817E+03  0.00000000000E+00 0. -1.
         11    1    1    2    0    0 -0.16694699015E+02 -0.14359943368E+02 -0.24920314397E+01  0.22161479405E+02  0.00000000000E+00 0.  1.
</event>
<event>
 7    1  0.2714042E-009  0.9170057E+02  0.7561462E-02  0.1298785E+00
          2   -1    0    0  501    0  0.00000000000E+00  0.00000000000E+00  0.79792300331E+03  0.79792300331E+03  0.00000000000E+00 0. -1.
         -2   -1    0    0    0  501 -0.00000000000E+00 -0.00000000000E+00 -0.17677068925E+02  0.17677068925E+02  0.00000000000E+00 0.  1.
         25    2    1    2    0    0 -0.23339708633E+02 -0.41740547273E+02  0.44915504981E+03  0.46869869120E+03  0.12510471245E+03 0.  0.
          5    1    3    3  502    0 -0.28100451747E+02 -0.57158736319E+02  0.44740812981E+03  0.45193834043E+03  0.41800000000E+01 0. -1.
         -5    1    3    3    0  502  0.47607431143E+01  0.15418189046E+02  0.17469199949E+01  0.16760350770E+02  0.41800000000E+01 0. -1.
        -11    1    1    2    0    0 -0.30673133577E+02  0.37894507196E+02  0.13785758127E+03  0.14622430548E+03  0.00000000000E+00 0.  1.
         11    1    1    2    0    0  0.54012842210E+02  0.38460400767E+01  0.19323330331E+03  0.20067707556E+03  0.00000000000E+00 0. -1.
</event>
<event>
 7    1  0.2714042E-009  0.2180042E+03  0.7561462E-02  0.1135380E+00
          1   -1    0    0  501    0  0.00000000000E+00  0.00000000000E+00  0.80658714572E+02  0.80658714572E+02  0.00000000000E+00 0. -1.
         -1   -1    0    0    0  501 -0.00000000000E+00 -0.00000000000E+00 -0.77811026064E+03  0.77811026064E+03  0.00000000000E+00 0.  1.
         25    2    1    2    0    0  0.19800698053E+03  0.59696248270E+02 -0.51722120223E+03  0.57090704063E+03  0.12508665238E+03 0.  0.
          5    1    3    3  502    0  0.13882980975E+03  0.67471361894E+02 -0.22672579456E+03  0.27431397899E+03  0.41800000000E+01 0. -1.
         -5    1    3    3    0  502  0.59177170785E+02 -0.77751136230E+01 -0.29049540767E+03  0.29659306164E+03  0.41800000000E+01 0. -1.
        -11    1    1    2    0    0 -0.67716681252E+02  0.17995778800E+02 -0.37020797171E+02  0.79246049729E+02  0.00000000000E+00 0. -1.
         11    1    1    2    0    0 -0.13029029928E+03 -0.77692027071E+02 -0.14320954666E+03  0.20861588485E+03  0.00000000000E+00 0.  1.
</event>
<event>
 7    1  0.2714042E-009  0.1342228E+03  0.7561462E-02  0.1221321E+00
         -2   -1    0    0    0  501 -0.00000000000E+00  0.00000000000E+00  0.55702266065E+02  0.55702266065E+02  0.00000000000E+00 0.  1.
          2   -1    0    0  501    0  0.00000000000E+00 -0.00000000000E+00 -0.39991845365E+03  0.39991845365E+03  0.00000000000E+00 0. -1.
         25    2    1    2    0    0  0.18923495154E+02 -0.10063942624E+03 -0.17301571857E+03  0.23679114490E+03  0.12509682110E+03 0.  0.
          5    1    3    3  502    0  0.51808758926E+02  0.79134379866E+00 -0.79023057537E+02  0.94588000026E+02  0.41800000000E+01 0.  1.
         -5    1    3    3    0  502 -0.32885263772E+02 -0.10143077004E+03 -0.93992661032E+02  0.14220314487E+03  0.41800000000E+01 0.  1.
        -11    1    1    2    0    0  0.83682198579E+01  0.61325076363E+02 -0.28166068410E+02  0.68000878701E+02  0.00000000000E+00 0.  1.
         11    1    1    2    0    0 -0.27291715012E+02  0.39314349878E+02 -0.14303440061E+03  0.15082869612E+03  0.00000000000E+00 0. -1.
</event>
<event>
 7    1  0.2714042E-009  0.9661659E+02  0.7561462E-02  0.1287576E+00
         -4   -1    0    0    0  501 -0.00000000000E+00  0.00000000000E+00  0.61373360814E+02  0.61373360814E+02  0.00000000000E+00 0.  1.
          4   -1    0    0  501    0  0.00000000000E+00 -0.00000000000E+00 -0.31337394508E+03  0.31337394508E+03  0.00000000000E+00 0. -1.
         25    2    1    2    0    0 -0.57427968991E+02  0.32529534970E+02 -0.21501919838E+03  0.25736589845E+03  0.12509119772E+03 0.  0.
          5    1    3    3  502    0 -0.16136100003E+02 -0.15464165930E+02 -0.18636321027E+03  0.18774512695E+03  0.41800000000E+01 0.  1.
         -5    1    3    3    0  502 -0.41291868987E+02  0.47993700900E+02 -0.28655988110E+02  0.69620771506E+02  0.41800000000E+01 0.  1.
        -11    1    1    2    0    0 -0.22259524973E+02 -0.59233393995E+01 -0.22368892352E+02  0.32108250447E+02  0.00000000000E+00 0. -1.
         11    1    1    2    0    0  0.79687493964E+02 -0.26606195571E+02 -0.14612493541E+02  0.85273156998E+02  0.00000000000E+00 0.  1.
</event>
<event>
 7    1  0.2714042E-009  0.1359918E+03  0.7561462E-02  0.1218826E+00
         -1   -1    0    0    0  501 -0.00000000000E+00  0.00000000000E+00  0.13323461133E+03  0.13323461133E+03  0.00000000000E+00 0.  1.
          1   -1    0    0  501    0  0.00000000000E+00 -0.00000000000E+00 -0.21251059702E+03  0.21251059702E+03  0.00000000000E+00 0. -1.
         25    2    1    2    0    0  0.11041842163E+03  0.18580507976E+02  0.21008148428E+02  0.16919555451E+03  0.12509328620E+03 0.  0.
          5    1    3    3  502    0 -0.18391179382E+02  0.18831655578E+02 -0.20689647112E+02  0.33740193072E+02  0.41800000000E+01 0. -1.
         -5    1    3    3    0  502  0.12880960101E+03 -0.25114760219E+00  0.41697795541E+02  0.13545536144E+03  0.41800000000E+01 0. -1.
        -11    1    1    2    0    0 -0.33553521769E+02  0.90848635311E+01 -0.87126098922E+02  0.93804747651E+02  0.00000000000E+00 0. -1.
         11    1    1    2    0    0 -0.76864899863E+02 -0.27665371507E+02 -0.13158035196E+02  0.82744906199E+02  0.00000000000E+00 0.  1.
</event>
<event>
 7    1  0.2714042E-009  0.1212935E+03  0.7561462E-02  0.1240978E+00
          1   -1    0    0  501    0  0.00000000000E+00  0.00000000000E+00  0.38425033388E+03  0.38425033388E+03  0.00000000000E+00 0. -1.
         -1   -1    0    0    0  501 -0.00000000000E+00 -0.00000000000E+00 -0.47634340515E+02  0.47634340515E+02  0.00000000000E+00 0.  1.
         25    2    1    2    0    0 -0.12444161506E+02 -0.51159821418E+02  0.27804588177E+03  0.30939883006E+03  0.12508372873E+03 0.  0.
          5    1    3    3  502    0 -0.42375798800E+02  0.27546583705E+02  0.11986968518E+03  0.13015658425E+03  0.41800000000E+01 0.  1.
         -5    1    3    3    0  502  0.29931637294E+02 -0.78706405123E+02  0.15817619658E+03  0.17924224581E+03  0.41800000000E+01 0.  1.
        -11    1    1    2    0    0  0.17421578645E+02  0.78175108444E+02  0.44404499821E+02  0.91578483210E+02  0.00000000000E+00 0.  1.
         11    1    1    2    0    0 -0.49774171389E+01 -0.27015287026E+02  0.14165611775E+02  0.30907361120E+02  0.00000000000E+00 0. -1.
</event>
<event>
 7    1  0.2714042E-009  0.1397159E+03  0.7561462E-02  0.1213712E+00
         -2   -1    0    0    0  501 -0.00000000000E+00  0.00000000000E+00  0.10022532045E+04  0.10022532045E+04  0.00000000000E+00 0.  1.
          2   -1    0    0  501    0  0.00000000000E+00 -0.00000000000E+00 -0.31032597881E+02  0.31032597881E+02  0.00000000000E+00 0. -1.
         25    2    1    2    0    0  0.75006187104E+01  0.92066887560E+02  0.81278369554E+03  0.82752292116E+03  0.12507708920E+03 0.  0.
          5    1    3    3  502    0  0.36881785872E+02  0.10929519165E+03  0.51545802637E+03  0.52822358372E+03  0.41800000000E+01 0. -1.
         -5    1    3    3    0  502 -0.29381167161E+02 -0.17228304087E+02  0.29732566917E+03  0.29929933744E+03  0.41800000000E+01 0. -1.
        -11    1    1    2    0    0  0.38623418524E+02 -0.18417042330E+02  0.37861850786E+02  0.57135590061E+02  0.00000000000E+00 0.  1.
         11    1    1    2    0    0 -0.46124037235E+02 -0.73649845230E+02  0.12057506029E+03  0.14862729116E+03  0.00000000000E+00 0. -1.
</event>
<event>
 7    1  0.2714042E-009  0.1687823E+03  0.7561462E-02  0.1179124E+00
          2   -1    0    0  501    0  0.00000000000E+00  0.00000000000E+00  0.12192012805E+03  0.12192012805E+03  0.00000000000E+00 0. -1.
         -2   -1    0    0    0  501 -0.00000000000E+00 -0.00000000000E+00 -0.27298561903E+03  0.27298561903E+03  0.00000000000E+00 0.  1.
         25    2    1    2    0    0 -0.10401768373E+03 -0.10187714920E+03 -0.99663683822E+02  0.21627406159E+03  0.12507193044E+03 0.  0.
          5    1    3    3  502    0 -0.73670518047E+02 -0.10266294092E+02  0.39658591683E+01  0.74605244203E+02  0.41800000000E+01 0.  1.
         -5    1    3    3    0  502 -0.30347165683E+02 -0.91610855106E+02 -0.10362954299E+03  0.14166881738E+03  0.41800000000E+01 0.  1.
        -11    1    1    2    0    0  0.25846745557E+02 -0.11875831773E+02 -0.25495224535E+02  0.38198116580E+02  0.00000000000E+00 0.  1.
         11    1    1    2    0    0  0.78170938172E+02  0.11375298097E+03 -0.25906582618E+02  0.14043356891E+03  0.00000000000E+00 0. -1.
</event>
<event>
 7    1  0.2714042E-009  0.9516263E+02  0.7561462E-02  0.1290810E+00
          2   -1    0    0  501    0  0.00000000000E+00  0.00000000000E+00  0.17910327208E+03  0.17910327208E+03  0.00000000000E+00 0. -1.
         -2   -1    0    0    0  501 -0.00000000000E+00 -0.00000000000E+00 -0.58224560876E+02  0.58224560876E+02  0.00000000000E+00 0.  1.
         25    2    1    2    0    0  0.45623111875E+01  0.12053658304E+02  0.10546600600E+03  0.16412367385E+03  0.12508955406E+03 0.  0.
          5    1    3    3  502    0 -0.36111326406E+02  0.51877765852E+02  0.31646203436E+02  0.70811616819E+02  0.41800000000E+01 0.  1.
         -5    1    3    3    0  502  0.40673637593E+02 -0.39824107547E+02  0.73819802560E+02  0.93312057029E+02  0.41800000000E+01 0.  1.
        -11    1    1    2    0    0  0.31100795390E+01  0.28479460413E+02 -0.13384027190E+01  0.28680020606E+02  0.00000000000E+00 0. -1.
         11    1    1    2    0    0 -0.76723907265E+01 -0.40533118717E+02  0.16751107925E+02  0.44524138499E+02  0.00000000000E+00 0.  1.
</event>
<event>
 7    1  0.2714042E-009  0.1156628E+03  0.7561462E-02  0.1250429E+00
         -1   -1    0    0    0  501 -0.00000000000E+00  0.00000000000E+00  0.25637624357E+02  0.25637624357E+02  0.00000000000E+00 0.  1.
          1   -1    0    0  501    0  0.00000000000E+00 -0.00000000000E+00 -0.75043668199E+03  0.75043668199E+03  0.00000000000E+00 0. -1.
         25    2    1    2    0    0 -0.74904515738E+02 -0.79632787890E+01 -0.51625360378E+03  0.53650606536E+03  0.12508746724E+03 0.  0.
          5    1    3    3  502    0  0.12408803829E+02  0.23276431749E+02 -0.25077172777E+02  0.36634787865E+02  0.41800000000E+01 0. -1.
         -5    1    3    3    0  502 -0.87313319567E+02 -0.31239710538E+02 -0.49117643101E+03  0.49987127750E+03  0.41800000000E+01 0. -1.
        -11    1    1    2    0    0  0.55268356260E+02  0.44071724839E+02 -0.92226018233E+02  0.11620045857E+03  0.00000000000E+00 0.  1.
         11    1    1    2    0    0  0.19636159478E+02 -0.36108446050E+02 -0.11631943562E+03  0.12336778241E+03  0.00000000000E+00 0. -1.
</event>
<event>
 7    1  0.2714042E-009  0.1701836E+03  0.7561462E-02  0.1177656E+00
          2   -1    0    0  501    0  0.00000000000E+00  0.00000000000E+00  0.60233004739E+03  0.60233004739E+03  0.00000000000E+00 0. -1.
         -2   -1    0    0    0  501 -0.00000000000E+00 -0.00000000000E+00 -0.57393884824E+02  0.57393884824E+02  0.00000000000E+00 0.  1.
         25    2    1    2    0    0 -0.12132432148E+03 -0.85293226271E+02  0.33425804208E+03  0.38648850217E+03  0.12510155148E+03 0.  0.
          5    1    3    3  502    0  0.16403893376E+02 -0.42446780898E+02  0.11768373380E+03  0.12624480397E+03  0.41800000000E+01 0.  1.
         -5    1    3    3    0  502 -0.13772821486E+03 -0.42846445373E+02  0.21657430828E+03  0.26024369821E+03  0.41800000000E+01 0.  1.
        -11    1    1    2    0    0  0.48488316904E+02  0.49213532782E+02  0.30399336027E+02  0.75479853709E+02  0.00000000000E+00 0. -1.
         11    1    1    2    0    0  0.72836004581E+02  0.36079693488E+02  0.18027878445E+03  0.19775557633E+03  0.00000000000E+00 0.  1.
</event>
<event>
 7    1  0.2714042E-009  0.1097870E+03  0.7561462E-02  0.1260965E+00
          1   -1    0    0  501    0  0.00000000000E+00  0.00000000000E+00  0.11473371874E+04  0.11473371874E+04  0.00000000000E+00 0. -1.
         -1   -1    0    0    0  501 -0.00000000000E+00 -0.00000000000E+00 -0.29200076703E+02  0.29200076703E+02  0.00000000000E+00 0.  1.
         25    2    1    2    0    0 -0.64147542008E+02 -0.41288819832E+02  0.98850611242E+03  0.99930530306E+03  0.12508829133E+03 0.  0.
          5    1    3    3  502    0 -0.81698219061E+02 -0.13802564701E+01  0.85259533071E+03  0.85651198150E+03  0.41800000000E+01 0. -1.
         -5    1    3    3    0  502  0.17550677053E+02 -0.39908563362E+02  0.13591078171E+03  0.14279332155E+03  0.41800000000E+01 0. -1.
        -11    1    1    2    0    0  0.22088184428E+02 -0.12733395974E+02 -0.51942846782E+01  0.26019374660E+02  0.00000000000E+00 0.  1.
         11    1    1    2    0    0  0.42059357579E+02  0.54022215806E+02  0.13482528300E+03  0.15121258643E+03  0.00000000000E+00 0. -1.
</event>
<event>
 7    1  0.2714042E-009  0.2906468E+03  0.7561462E-02  0.1090012E+00
          2   -1    0    0  501    0  0.00000000000E+00  0.00000000000E+00  0.11859948628E+04  0.11859948628E+04  0.00000000000E+00 0.  1.
         -2   -1    0    0    0  501 -0.00000000000E+00 -0.00000000000E+00 -0.82208203275E+02  0.82208203275E+02  0.00000000000E+00 0. -1.
         25    2    1    2    0    0 -0.26912668484E+03 -0.54307587605E+02  0.76464356184E+03  0.82201335421E+03  0.12509073218E+03 0.  0.
          5    1    3    3  502    0 -0.28123092517E+03 -0.47155379537E+02  0.74314627553E+03  0.79598889585E+03  0.41800000000E+01 0. -1.
         -5    1    3    3    0  502  0.12104240329E+02 -0.71522080674E+01  0.21497286311E+02  0.26024458359E+02  0.41800000000E+01 0. -1.
        -11    1    1    2    0    0  0.19665429359E+03  0.10889688266E+02  0.28285933993E+03  0.34467506826E+03  0.00000000000E+00 0.  1.
         11    1    1    2    0    0  0.72472391254E+02  0.43417899339E+02  0.56283757745E+02  0.10151464359E+03  0.00000000000E+00 0. -1.
</event>
<event>
 7    1  0.2714042E-009  0.1542973E+03  0.7561462E-02  0.1195290E+00
          2   -1    0    0  501    0  0.00000000000E+00  0.00000000000E+00  0.13261800366E+03  0.13261800366E+03  0.00000000000E+00 0.  1.
         -2   -1    0    0    0  501 -0.00000000000E+00 -0.00000000000E+00 -0.36277800248E+03  0.36277800248E+03  0.00000000000E+00 0. -1.
         25    2    1    2    0    0 -0.65089353137E+02 -0.12861999177E+03  0.20384326249E+02  0.19194467364E+03  0.12509001083E+03 0.  0.
          5    1    3    3  502    0 -0.26282998420E+02 -0.19669681145E+02 -0.47411209705E+02  0.57818574593E+02  0.41800000000E+01 0.  1.
         -5    1    3    3    0  502 -0.38806354718E+02 -0.10895031062E+03  0.67795535954E+02  0.13412609905E+03  0.41800000000E+01 0.  1.
        -11    1    1    2    0    0  0.48707441117E+02  0.24784063839E+02 -0.14289892242E+03  0.15299270136E+03  0.00000000000E+00 0. -1.
         11    1    1    2    0    0  0.16381912020E+02  0.10383592793E+03 -0.10764540265E+03  0.15045863113E+03  0.00000000000E+00 0.  1.
</event>
<event>
 7    1  0.2714042E-009  0.1517951E+03  0.7561462E-02  0.1198284E+00
          1   -1    0    0  501    0  0.00000000000E+00  0.00000000000E+00  0.89410108581E+03  0.89410108581E+03  0.00000000000E+00 0. -1.
         -1   -1    0    0    0  501 -0.00000000000E+00 -0.00000000000E+00 -0.27152474849E+02  0.27152474849E+02  0.00000000000E+00 0.  1.
         25    2    1    2    0    0 -0.22328981381E+02 -0.10726970500E+03  0.51336548113E+03  0.53962681760E+03  0.12509041547E+03 0.  0.
          5    1    3    3  502    0  0.41244131597E+02 -0.72683675896E+01  0.80797952681E+02  0.91102629578E+02  0.41800000000E+01 0. -1.
         -5    1    3    3    0  502 -0.63573112977E+02 -0.10000133741E+03  0.43256752845E+03  0.44852418803E+03  0.41800000000E+01 0. -1.
        -11    1    1    2    0    0 -0.36064289073E+02  0.40675555550E+02  0.15259903440E+03  0.16199258954E+03  0.00000000000E+00 0. -1.
         11    1    1    2    0    0  0.58393270454E+02  0.66594149446E+02  0.20098409543E+03  0.21963415352E+03  0.00000000000E+00 0.  1.
</event>
<event>
 7    1  0.2714042E-009  0.1492338E+03  0.7561462E-02  0.1201418E+00
          2   -1    0    0  501    0  0.00000000000E+00  0.00000000000E+00  0.83859739447E+03  0.83859739447E+03  0.00000000000E+00 0. -1.
         -2   -1    0    0    0  501 -0.00000000000E+00 -0.00000000000E+00 -0.38023954293E+02  0.38023954293E+02  0.00000000000E+00 0.  1.
         25    2    1    2    0    0 -0.10748039085E+02 -0.10986314719E+03  0.64122449072E+03  0.66257210487E+03  0.12509002839E+03 0.  0.
          5    1    3    3  502    0 -0.19451496178E+02 -0.13459022541E+03  0.58166846785E+03  0.59736803427E+03  0.41800000000E+01 0.  1.
         -5    1    3    3    0  502  0.87034570934E+01  0.24727078221E+02  0.59556022866E+02  0.65204070596E+02  0.41800000000E+01 0.  1.
        -11    1    1    2    0    0 -0.34546642492E+02  0.50922814251E+02  0.10594892188E+03  0.12252255941E+03  0.00000000000E+00 0. -1.
         11    1    1    2    0    0  0.45294681577E+02  0.58940332936E+02  0.53400027585E+02  0.91526684480E+02  0.00000000000E+00 0.  1.
</event>
<event>
 7    1  0.2714042E-009  0.1202650E+03  0.7561462E-02  0.1242660E+00
          2   -1    0    0  501    0  0.00000000000E+00  0.00000000000E+00  0.80113119899E+03  0.80113119899E+03  0.00000000000E+00 0. -1.
         -2   -1    0    0    0  501 -0.00000000000E+00 -0.00000000000E+00 -0.25530525912E+02  0.25530525912E+02  0.00000000000E+00 0.  1.
         25    2    1    2    0    0  0.64758840026E+01  0.66871103173E+02  0.60059632547E+03  0.61715183156E+03  0.12508699181E+03 0.  0.
          5    1    3    3  502    0 -0.52209199902E+02  0.25484116437E+02  0.39638861516E+03  0.40064528872E+03  0.41800000000E+01 0.  1.
         -5    1    3    3    0  502  0.58685083904E+02  0.41386986736E+02  0.20420771031E+03  0.21650654285E+03  0.41800000000E+01 0.  1.
        -11    1    1    2    0    0 -0.40373214425E+02 -0.61921266322E+01  0.37554821021E+02  0.55486065432E+02  0.00000000000E+00 0.  1.
         11    1    1    2    0    0  0.33897330422E+02 -0.60678976541E+02  0.13744952659E+03  0.15402382791E+03  0.00000000000E+00 0. -1.
</event>
<event>
 7    1  0.2714042E-009  0.2373439E+03  0.7561462E-02  0.1121575E+00
          2   -1    0    0  501    0  0.00000000000E+00  0.00000000000E+00  0.16606270127E+04  0.16606270127E+04  0.00000000000E+00 0.  1.
         -2   -1    0    0    0  501 -0.00000000000E+00 -0.00000000000E+00 -0.99275858473E+02  0.99275858473E+02  0.00000000000E+00 0. -1.
         25    2    1    2    0    0 -0.18127993502E+03 -0.13130503630E+03  0.14836225494E+04  0.15056180190E+04  0.12508526134E+03 0.  0.
          5    1    3    3  502    0 -0.36143831344E+02  0.19437664267E+02  0.38773814607E+03  0.38992632849E+03  0.41800000000E+01 0.  1.
         -5    1    3    3    0  502 -0.14513610368E+03 -0.15074270056E+03  0.10958844033E+04  0.11156916905E+04  0.41800000000E+01 0.  1.
        -11    1    1    2    0    0  0.52583904729E+02  0.44708662785E+02 -0.18861670125E+02  0.71552038157E+02  0.00000000000E+00 0. -1.
         11    1    1    2    0    0  0.12869603029E+03  0.86596373511E+02  0.96590275012E+02  0.18273281409E+03  0.00000000000E+00 0.  1.
</event>
<event>
 7    1  0.2714042E-009  0.1136221E+03  0.7561462E-02  0.1254006E+00
         -2   -1    0    0    0  501 -0.00000000000E+00  0.00000000000E+00  0.13618345805E+02  0.13618345805E+02  0.00000000000E+00 0.  1.
          2   -1    0    0  501    0  0.00000000000E+00 -0.00000000000E+00 -0.10866420409E+04  0.10866420409E+04  0.00000000000E+00 0. -1.
         25    2    1    2    0    0 -0.22117324015E+02  0.50878879204E+02 -0.59133999904E+03  0.60696877014E+03  0.12510098756E+03 0.  0.
          5    1    3    3  502    0 -0.66653208335E+02  0.28463354866E+02 -0.20648771041E+03  0.21887772774E+03  0.41800000000E+01 0.  1.
         -5    1    3    3    0  502  0.44535884319E+02  0.22415524338E+02 -0.38485228863E+03  0.38809104240E+03  0.41800000000E+01 0.  1.
        -11    1    1    2    0    0  0.49627393598E+02 -0.57864082297E+02 -0.38737565436E+03  0.39480505038E+03  0.00000000000E+00 0. -1.
         11    1    1    2    0    0 -0.27510069582E+02  0.69852030929E+01 -0.94308041702E+02  0.98486566192E+02  0.00000000000E+00 0.  1.
</event>
<event>
 7    1  0.2714042E-009  0.1076744E+03  0.7561462E-02  0.1264938E+00
         -2   -1    0    0    0  501 -0.00000000000E+00  0.00000000000E+00  0.14828371966E+03  0.14828371966E+03  0.00000000000E+00 0.  1.
          2   -1    0    0  501    0  0.00000000000E+00 -0.00000000000E+00 -0.12117445912E+03  0.12117445912E+03  0.00000000000E+00 0. -1.
         25    2    1    2    0    0 -0.12917980536E+02  0.68850085153E+02  0.50295863865E+02  0.15193468869E+03  0.12508903733E+03 0.  0.
          5    1    3    3  502    0 -0.39150646402E+02 -0.17692633847E+02 -0.84927285442E+01  0.43993195431E+02  0.41800000000E+01 0. -1.
         -5    1    3    3    0  502  0.26232665866E+02  0.86542719000E+02  0.58788592409E+02  0.10794149326E+03  0.41800000000E+01 0. -1.
        -11    1    1    2    0    0 -0.15371260305E+02 -0.28426357201E+02 -0.51379466265E+02  0.60697470959E+02  0.00000000000E+00 0. -1.
         11    1    1    2    0    0  0.28289240840E+02 -0.40423727952E+02  0.28192862943E+02  0.56826019126E+02  0.00000000000E+00 0.  1.
</event>
<event>
 7    1  0.2714042E-009  0.1048821E+03  0.7561462E-02  0.1270352E+00
         -2   -1    0    0    0  501 -0.00000000000E+00  0.00000000000E+00  0.10789403923E+03  0.10789403923E+03  0.00000000000E+00 0.  1.
          2   -1    0    0  501    0  0.00000000000E+00 -0.00000000000E+00 -0.20395907009E+03  0.20395907009E+03  0.00000000000E+00 0. -1.
         25    2    1    2    0    0  0.73014679950E+02  0.36400194472E+02 -0.11103513079E+03  0.18609490505E+03  0.12508555380E+03 0.  0.
          5    1    3    3  502    0  0.50256629860E+02 -0.14898890879E+02  0.91607904111E+01  0.53376945166E+02  0.41800000000E+01 0. -1.
         -5    1    3    3    0  502  0.22758050090E+02  0.51299085351E+02 -0.12019592120E+03  0.13271795988E+03  0.41800000000E+01 0. -1.
        -11    1    1    2    0    0  0.89391183093E+01 -0.12812003034E+02  0.34849594407E+02  0.38190960818E+02  0.00000000000E+00 0.  1.
         11    1    1    2    0    0 -0.81953798259E+02 -0.23588191438E+02 -0.19879494477E+02  0.87567243448E+02  0.00000000000E+00 0. -1.
</event>
<event>
 7    1  0.2714042E-009  0.1142660E+03  0.7561462E-02  0.1252868E+00
         -2   -1    0    0    0  501 -0.00000000000E+00  0.00000000000E+00  0.10532298656E+03  0.10532298656E+03  0.00000000000E+00 0.  1.
          2   -1    0    0  501    0  0.00000000000E+00 -0.00000000000E+00 -0.18472968584E+03  0.18472968584E+03  0.00000000000E+00 0. -1.
         25    2    1    2    0    0 -0.45502120156E+01  0.86912454763E+02 -0.51140862535E+02  0.16074173804E+03  0.12509212328E+03 0.  0.
          5    1    3    3  502    0  0.16875565006E+02  0.10605744598E+01 -0.68321918276E+02  0.70507208351E+02  0.41800000000E+01 0.  1.
         -5    1    3    3    0  502 -0.21425777022E+02  0.85851880304E+02  0.17181055741E+02  0.90234529694E+02  0.41800000000E+01 0.  1.
        -11    1    1    2    0    0 -0.10797342807E+02 -0.10107302424E+03 -0.34784135275E+02  0.10743497991E+03  0.00000000000E+00 0. -1.
         11    1    1    2    0    0  0.15347554823E+02  0.14160569477E+02  0.65182985292E+01  0.21875954440E+02  0.00000000000E+00 0.  1.
</event>
<event>
 7    1  0.2714042E-009  0.1444121E+03  0.7561462E-02  0.1207513E+00
         -2   -1    0    0    0  501 -0.00000000000E+00  0.00000000000E+00  0.18547711084E+02  0.18547711084E+02  0.00000000000E+00 0. -1.
          2   -1    0    0  501    0  0.00000000000E+00 -0.00000000000E+00 -0.12532000072E+04  0.12532000072E+04  0.00000000000E+00 0.  1.
         25    2    1    2    0    0 -0.10181014190E+03 -0.15912993677E+02 -0.77749986621E+03  0.79420999742E+03  0.12507977328E+03 0.  0.
          5    1    3    3  502    0 -0.62692128885E+02 -0.70671827744E+02 -0.46539045306E+03  0.47490057535E+03  0.41800000000E+01 0.  1.
         -5    1    3    3    0  502 -0.39118013013E+02  0.54758834067E+02 -0.31210941315E+03  0.31930942208E+03  0.41800000000E+01 0.  1.
        -11    1    1    2    0    0  0.73522881293E+02  0.45048510385E+02 -0.38691015810E+03  0.39640188295E+03  0.00000000000E+00 0.  1.
         11    1    1    2    0    0  0.28287260605E+02 -0.29135516708E+02 -0.70242271809E+02  0.81135837922E+02  0.00000000000E+00 0. -1.
</event>
<event>
 7    1  0.2714042E-009  0.1348982E+03  0.7561462E-02  0.1220363E+00
         -2   -1    0    0    0  501 -0.00000000000E+00  0.00000000000E+00  0.21585125633E+02  0.21585125633E+02  0.00000000000E+00 0.  1.
          2   -1    0    0  501    0  0.00000000000E+00 -0.00000000000E+00 -0.98277144775E+03  0.98277144775E+03  0.00000000000E+00 0. -1.
         25    2    1    2    0    0 -0.63080411736E+02 -0.84745928632E+02 -0.46519914261E+03  0.49317190055E+03  0.12508905008E+03 0.  0.
          5    1    3    3  502    0 -0.98887119988E+02 -0.45538315688E+02 -0.27943500112E+03  0.29992297836E+03  0.41800000000E+01 0.  1.
         -5    1    3    3    0  502  0.35806708252E+02 -0.39207612944E+02 -0.18576414149E+03  0.19324892220E+03  0.41800000000E+01 0.  1.
        -11    1    1    2    0    0  0.10896209761E+02  0.43373438087E+01 -0.88145686217E+01  0.14670942657E+02  0.00000000000E+00 0.  1.
         11    1    1    2    0    0  0.52184201975E+02  0.80408584823E+02 -0.48717261089E+03  0.49651373017E+03  0.00000000000E+00 0. -1.
</event>
<event>
 7    1  0.2714042E-009  0.9438191E+02  0.7561462E-02  0.1292574E+00
          1   -1    0    0  501    0  0.00000000000E+00  0.00000000000E+00  0.48588621651E+03  0.48588621651E+03  0.00000000000E+00 0. -1.
         -1   -1    0    0    0  501 -0.00000000000E+00 -0.00000000000E+00 -0.29141398620E+02  0.29141398620E+02  0.00000000000E+00 0.  1.
         25    2    1    2    0    0  0.24691987453E+02  0.29339060037E+02  0.32981336874E+03  0.35481635274E+03  0.12508921330E+03 0.  0.
          5    1    3    3  502    0  0.16495305681E+02 -0.31673113775E+02  0.24930508993E+02  0.43752530491E+02  0.41800000000E+01 0.  1.
         -5    1    3    3    0  502  0.81966817729E+01  0.61012173811E+02  0.30488285974E+03  0.31106382225E+03  0.41800000000E+01 0.  1.
        -11    1    1    2    0    0 -0.22441625626E+02 -0.58086801626E+02  0.11098229770E+03  0.12725868727E+03  0.00000000000E+00 0.  1.
         11    1    1    2    0    0 -0.22503618279E+01  0.28747741589E+02  0.15949151451E+02  0.32952575117E+02  0.00000000000E+00 0. -1.
</event>
<event>
 7    1  0.2714042E-009  0.1123402E+03  0.7561462E-02  0.1256297E+00
         -1   -1    0    0    0  501 -0.00000000000E+00  0.00000000000E+00  0.38444181510E+02  0.38444181510E+02  0.00000000000E+00 0.  1.
          1   -1    0    0  501    0  0.00000000000E+00 -0.00000000000E+00 -0.44748268108E+03  0.44748268108E+03  0.00000000000E+00 0. -1.
         25    2    1    2    0    0 -0.64370948451E+02  0.29859729424E+02 -0.19517276016E+03  0.24243493405E+03  0.12508824282E+03 0.  0.
          5    1    3    3  502    0 -0.38540363655E+02 -0.33925888914E+02 -0.15340987094E+03  0.16182826228E+03  0.41800000000E+01 0.  1.
         -5    1    3    3    0  502 -0.25830584796E+02  0.63785618338E+02 -0.41762889219E+02  0.80606671769E+02  0.41800000000E+01 0.  1.
        -11    1    1    2    0    0  0.24594059789E+02 -0.52840032061E+02 -0.17100357746E+03  0.18066311264E+03  0.00000000000E+00 0. -1.
         11    1    1    2    0    0  0.39776888662E+02  0.22980302637E+02 -0.42862161951E+02  0.62828815905E+02  0.00000000000E+00 0.  1.
</event>
<event>
 7    1  0.2714042E-009  0.8965766E+02  0.7561462E-02  0.1303683E+00
          2   -1    0    0  501    0  0.00000000000E+00  0.00000000000E+00  0.32952466331E+03  0.32952466331E+03  0.00000000000E+00 0. -1.
         -2   -1    0    0    0  501 -0.00000000000E+00 -0.00000000000E+00 -0.43423986935E+02  0.43423986935E+02  0.00000000000E+00 0.  1.
         25    2    1    2    0    0  0.10241865741E+02  0.12469720451E+02  0.24197909656E+03  0.27287672590E+03  0.12508970631E+03 0.  0.
          5    1    3    3  502    0 -0.22510141270E+02 -0.30403133809E+02  0.17360878042E+02  0.41832158584E+02  0.41800000000E+01 0.  1.
         -5    1    3    3    0  502  0.32752007012E+02  0.42872854260E+02  0.22461821852E+03  0.23104456732E+03  0.41800000000E+01 0.  1.
        -11    1    1    2    0    0  0.79127625507E+01  0.35228443484E+02  0.65453180662E+01  0.36694634895E+02  0.00000000000E+00 0.  1.
         11    1    1    2    0    0 -0.18154628292E+02 -0.47698163935E+02  0.37576261749E+02  0.63377289451E+02  0.00000000000E+00 0. -1.
</event>
<event>
 7    1  0.2714042E-009  0.7474329E+02  0.7561462E-02  0.1344668E+00
         -2   -1    0    0    0  501 -0.00000000000E+00  0.00000000000E+00  0.42020944152E+03  0.42020944152E+03  0.00000000000E+00 0.  1.
          2   -1    0    0  501    0  0.00000000000E+00 -0.00000000000E+00 -0.35999187948E+02  0.35999187948E+02  0.00000000000E+00 0. -1.
         25    2    1    2    0    0  0.18165924867E+02 -0.43946832588E+02  0.15104098230E+03  0.20179714934E+03  0.12508951286E+03 0.  0.
          5    1    3    3  502    0  0.15250055305E+02 -0.36201890668E+02  0.17326776980E+03  0.17771419056E+03  0.41800000000E+01 0. -1.
         -5    1    3    3    0  502  0.29158695622E+01 -0.77449419199E+01 -0.22226787506E+02  0.24082958778E+02  0.41800000000E+01 0. -1.
        -11    1    1    2    0    0  0.27502492807E+02  0.47517650970E+02  0.10865472195E+03  0.12173809127E+03  0.00000000000E+00 0. -1.
         11    1    1    2    0    0 -0.45668417675E+02 -0.35708183821E+01  0.12451454932E+03  0.13267338885E+03  0.00000000000E+00 0.  1.
</event>
<event>
 7    1  0.2714042E-009  0.1154249E+03  0.7561462E-02  0.1250841E+00
          1   -1    0    0  501    0  0.00000000000E+00  0.00000000000E+00  0.39330693257E+03  0.39330693257E+03  0.00000000000E+00 0. -1.
         -1   -1    0    0    0  501 -0.00000000000E+00 -0.00000000000E+00 -0.41106502867E+02  0.41106502867E+02  0.00000000000E+00 0.  1.
         25    2    1    2    0    0 -0.46821516759E+02 -0.48647640954E+02  0.20301151964E+03  0.24783833723E+03  0.12510522328E+03 0.  0.
          5    1    3    3  502    0  0.41976032663E+02 -0.17127973296E+02  0.46313923500E+02  0.64944643330E+02  0.41800000000E+01 0.  1.
         -5    1    3    3    0  502 -0.88797549422E+02 -0.31519667658E+02  0.15669759614E+03  0.18289369390E+03  0.41800000000E+01 0.  1.
        -11    1    1    2    0    0  0.45760116428E+02  0.35551826807E+01  0.20607510489E+02  0.50311997257E+02  0.00000000000E+00 0.  1.
         11    1    1    2    0    0  0.10614003310E+01  0.45092458273E+02  0.12858139957E+03  0.13626310095E+03  0.00000000000E+00 0. -1.
</event>
<event>
 7    1  0.2714042E-009  0.1727921E+03  0.7561462E-02  0.1174967E+00
          2   -1    0    0  501    0  0.00000000000E+00  0.00000000000E+00  0.33074747275E+03  0.33074747275E+03  0.00000000000E+00 0. -1.
         -2   -1    0    0    0  501 -0.00000000000E+00 -0.00000000000E+00 -0.96296409059E+02  0.96296409059E+02  0.00000000000E+00 0.  1.
         25    2    1    2    0    0  0.23271528539E+02  0.13426920142E+03  0.17405706368E+03  0.25398526357E+03  0.12507146038E+03 0.  0.
          5    1    3    3  502    0 -0.13435110739E+02 -0.20608688193E+02  0.32185585091E+02  0.40725968586E+02  0.41800000000E+01 0.  1.
         -5    1    3    3    0  502  0.36706639278E+02  0.15487788961E+03  0.14187147859E+03  0.21325929498E+03  0.41800000000E+01 0.  1.
        -11    1    1    2    0    0 -0.37842979616E+02 -0.14141233276E+02  0.22572395812E+02  0.46277193492E+02  0.00000000000E+00 0. -1.
         11    1    1    2    0    0  0.14571451077E+02 -0.12012796814E+03  0.37821604191E+02  0.12678142475E+03  0.00000000000E+00 0.  1.
</event>
<event>
 7    1  0.2714042E-009  0.1275817E+03  0.7561462E-02  0.1231089E+00
          1   -1    0    0  501    0  0.00000000000E+00  0.00000000000E+00  0.25959785509E+03  0.25959785509E+03  0.00000000000E+00 0. -1.
         -1   -1    0    0    0  501 -0.00000000000E+00 -0.00000000000E+00 -0.69246787819E+02  0.69246787819E+02  0.00000000000E+00 0.  1.
         25    2    1    2    0    0  0.47972381338E+01 -0.78572881567E+02  0.92509010918E+02  0.17436267692E+03  0.12509082616E+03 0.  0.
          5    1    3    3  502    0  0.19059684157E+02  0.30127154726E+02  0.36458681654E+02  0.51162729404E+02  0.41800000000E+01 0. -1.
         -5    1    3    3    0  502 -0.14262446024E+02 -0.10870003629E+03  0.56050329264E+02  0.12319994751E+03  0.41800000000E+01 0. -1.
        -11    1    1    2    0    0  0.23109577833E+01  0.93234955692E+02  0.10143750964E+03  0.13779573960E+03  0.00000000000E+00 0. -1.
         11    1    1    2    0    0 -0.71081959172E+01 -0.14662074126E+02 -0.35954532911E+01  0.16686226393E+02  0.00000000000E+00 0.  1.
</event>
<event>
 7    1  0.2714042E-009  0.1117482E+03  0.7561462E-02  0.1257366E+00
          2   -1    0    0  501    0  0.00000000000E+00  0.00000000000E+00  0.47228366646E+03  0.47228366646E+03  0.00000000000E+00 0. -1.
         -2   -1    0    0    0  501 -0.00000000000E+00 -0.00000000000E+00 -0.37920309182E+02  0.37920309182E+02  0.00000000000E+00 0.  1.
         25    2    1    2    0    0  0.12813505635E+02 -0.35181963733E+02  0.37095924042E+03  0.39327074629E+03  0.12509662398E+03 0.  0.
          5    1    3    3  502    0  0.68746154077E+02 -0.19793645912E+02  0.18350483029E+03  0.19700080523E+03  0.41800000000E+01 0. -1.
         -5    1    3    3    0  502 -0.55932648443E+02 -0.15388317821E+02  0.18745441013E+03  0.19626994106E+03  0.41800000000E+01 0. -1.
        -11    1    1    2    0    0  0.89173788086E+01  0.60015880556E+02  0.57139067107E+02  0.83344457246E+02  0.00000000000E+00 0. -1.
         11    1    1    2    0    0 -0.21730884443E+02 -0.24833916824E+02  0.62650497505E+01  0.33588772110E+02  0.00000000000E+00 0.  1.
</event>
<event>
 7    1  0.2714042E-009  0.1274847E+03  0.7561462E-02  0.1231236E+00
          1   -1    0    0  501    0  0.00000000000E+00  0.00000000000E+00  0.26411708744E+03  0.26411708744E+03  0.00000000000E+00 0. -1.
         -1   -1    0    0    0  501 -0.00000000000E+00 -0.00000000000E+00 -0.66878350836E+02  0.66878350836E+02  0.00000000000E+00 0.  1.
         25    2    1    2    0    0 -0.20761450064E+01 -0.72702517435E+02  0.13995163686E+03  0.20130063390E+03  0.12508204559E+03 0.  0.
          5    1    3    3  502    0  0.50071315266E+02  0.55614450331E+01  0.48815937389E+02  0.70274706876E+02  0.41800000000E+01 0. -1.
         -5    1    3    3    0  502 -0.52147460273E+02 -0.78263962468E+02  0.91135699475E+02  0.13102592703E+03  0.41800000000E+01 0. -1.
        -11    1    1    2    0    0 -0.31703401545E+02  0.18166935750E+01 -0.12087398823E+01  0.31778406145E+02  0.00000000000E+00 0.  1.
         11    1    1    2    0    0  0.33779546551E+02  0.70885823860E+02  0.58495839627E+02  0.97916398234E+02  0.00000000000E+00 0. -1.
</event>
<event>
 7    1  0.2714042E-009  0.1056217E+03  0.7561462E-02  0.1268900E+00
         -1   -1    0    0    0  501 -0.00000000000E+00  0.00000000000E+00  0.13330030406E+03  0.13330030406E+03  0.00000000000E+00 0.  1.
          1   -1    0    0  501    0  0.00000000000E+00 -0.00000000000E+00 -0.12396746992E+03  0.12396746992E+03  0.00000000000E+00 0. -1.
         25    2    1    2    0    0 -0.41068996008E+02  0.51845347378E+02 -0.12373975749E+02  0.14204092598E+03  0.12509159403E+03 0.  0.
          5    1    3    3  502    0  0.25000801060E+02  0.30076381650E+00  0.36878669244E+02  0.44750856503E+02  0.41800000000E+01 0. -1.
         -5    1    3    3    0  502 -0.66069797068E+02  0.51544583562E+02 -0.49252644993E+02  0.97290069473E+02  0.41800000000E+01 0. -1.
        -11    1    1    2    0    0 -0.22723161117E+02 -0.62085030462E+01 -0.15719554710E+02  0.28319462592E+02  0.00000000000E+00 0. -1.
         11    1    1    2    0    0  0.63792157126E+02 -0.45636844332E+02  0.37426364604E+02  0.86907385410E+02  0.00000000000E+00 0.  1.
</event>
<event>
 7    1  0.2714042E-009  0.5310154E+02  0.7561462E-02  0.1429296E+00
          2   -1    0    0  501    0  0.00000000000E+00  0.00000000000E+00  0.43696340076E+03  0.43696340076E+03  0.00000000000E+00 0. -1.
         -2   -1    0    0    0  501 -0.00000000000E+00 -0.00000000000E+00 -0.31760561694E+02  0.31760561694E+02  0.00000000000E+00 0.  1.
         25    2    1    2    0    0 -0.38221075697E+02 -0.21739641693E+02  0.22790391806E+03  0.26366889504E+03  0.12509047803E+03 0.  0.
          5    1    3    3  502    0 -0.22026804947E+01 -0.20784244162E+02 -0.96245751522E+01  0.23386779462E+02  0.41800000000E+01 0. -1.
         -5    1    3    3    0  502 -0.36018395203E+02 -0.95539753070E+00  0.23752849321E+03  0.24028211557E+03  0.41800000000E+01 0. -1.
        -11    1    1    2    0    0  0.69793556491E+01  0.15159084034E+02 -0.69371799387E+01  0.18073010250E+02  0.00000000000E+00 0.  1.
         11    1    1    2    0    0  0.31241720048E+02  0.65805576591E+01  0.18423610094E+03  0.18698205717E+03  0.00000000000E+00 0. -1.
</event>
<event>
 7    1  0.2714042E-009  0.9357339E+02  0.7561462E-02  0.1294422E+00
         -1   -1    0    0    0  501 -0.00000000000E+00  0.00000000000E+00  0.11301701235E+03  0.11301701235E+03  0.00000000000E+00 0.  1.
          1   -1    0    0  501    0  0.00000000000E+00 -0.00000000000E+00 -0.13054397022E+03  0.13054397022E+03  0.00000000000E+00 0. -1.
         25    2    1    2    0    0  0.42168148628E+02  0.28275524685E+02 -0.13031466708E+01  0.13500590204E+03  0.12508891773E+03 0.  0.
          5    1    3    3  502    0  0.62151626460E+02 -0.32754356244E+02  0.35575152648E+01  0.70468438605E+02  0.41800000000E+01 0.  1.
         -5    1    3    3    0  502 -0.19983477831E+02  0.61029880929E+02 -0.48606619356E+01  0.64537463437E+02  0.41800000000E+01 0.  1.
        -11    1    1    2    0    0 -0.26540040195E+02 -0.24970352511E+02  0.37629906043E+02  0.52382268631E+02  0.00000000000E+00 0.  1.
         11    1    1    2    0    0 -0.15628108433E+02 -0.33051721736E+01 -0.53853717239E+02  0.56172811900E+02  0.00000000000E+00 0. -1.
</event>
<event>
 7    1  0.2714042E-009  0.1030158E+03  0.7561462E-02  0.1274079E+00
          3   -1    0    0  501    0  0.00000000000E+00  0.00000000000E+00  0.51192052030E+02  0.51192052030E+02  0.00000000000E+00 0. -1.
         -3   -1    0    0    0  501 -0.00000000000E+00 -0.00000000000E+00 -0.34436884122E+03  0.34436884122E+03  0.00000000000E+00 0.  1.
         25    2    1    2    0    0 -0.69969962324E+02 -0.32087380732E+02 -0.14814170295E+03  0.20861290740E+03  0.12509190762E+03 0.  0.
          5    1    3    3  502    0 -0.53245520078E+02 -0.10483185816E+01 -0.16193816854E+03  0.17052163267E+03  0.41800000000E+01 0.  1.
         -5    1    3    3    0  502 -0.16724442246E+02 -0.31039062150E+02  0.13796465589E+02  0.38091274727E+02  0.41800000000E+01 0.  1.
        -11    1    1    2    0    0  0.69209298584E+02  0.58537921607E+02 -0.10228090444E+03  0.13666747488E+03  0.00000000000E+00 0. -1.
         11    1    1    2    0    0  0.76066374073E+00 -0.26450540876E+02 -0.42754181808E+02  0.50280510976E+02  0.00000000000E+00 0.  1.
</event>
<event>
 7    1  0.2714042E-009  0.9838691E+02  0.7561462E-02  0.1283725E+00
         -1   -1    0    0    0  501 -0.00000000000E+00  0.00000000000E+00  0.84187456393E+02  0.84187456393E+02  0.00000000000E+00 0.  1.
          1   -1    0    0  501    0  0.00000000000E+00 -0.00000000000E+00 -0.15910644816E+03  0.15910644816E+03  0.00000000000E+00 0. -1.
         25    2    1    2    0    0 -0.15597998428E+02  0.34041197769E+02 -0.61008585672E+02  0.14412178444E+03  0.12508773131E+03 0.  0.
          5    1    3    3  502    0  0.38388918401E+02 -0.17867811100E+02  0.66981400953E+01  0.43073254001E+02  0.41800000000E+01 0. -1.
         -5    1    3    3    0  502 -0.53986916829E+02  0.51909008869E+02 -0.67706725767E+02  0.10104853044E+03  0.41800000000E+01 0. -1.
        -11    1    1    2    0    0 -0.22795796386E+02 -0.33861391309E+02 -0.36386501061E+02  0.54682900560E+02  0.00000000000E+00 0. -1.
         11    1    1    2    0    0  0.38393794814E+02 -0.17980645992E+00  0.22476094970E+02  0.44489219545E+02  0.00000000000E+00 0.  1.
</event>
<event>
 7    1  0.2714042E-009  0.1071206E+03  0.7561462E-02  0.1265997E+00
          1   -1    0    0  501    0  0.00000000000E+00  0.00000000000E+00  0.59110665469E+03  0.59110665469E+03  0.00000000000E+00 0. -1.
         -1   -1    0    0    0  501 -0.00000000000E+00 -0.00000000000E+00 -0.37207967408E+02  0.37207967408E+02  0.00000000000E+00 0.  1.
         25    2    1    2    0    0 -0.48652197526E+02 -0.51588921978E+02  0.43835450531E+03  0.46133594262E+03  0.12509087268E+03 0.  0.
          5    1    3    3  502    0 -0.66160737955E+02 -0.27397583771E+02  0.41990100906E+03  0.42598380327E+03  0.41800000000E+01 0. -1.
         -5    1    3    3    0  502  0.17508540428E+02 -0.24191338207E+02  0.18453496255E+02  0.35352139344E+02  0.41800000000E+01 0. -1.
        -11    1    1    2    0    0 -0.24836775503E+02  0.21843855432E+02  0.91946201878E+01  0.34330168626E+02  0.00000000000E+00 0.  1.
         11    1    1    2    0    0  0.73488973029E+02  0.29745066546E+02  0.10634956178E+03  0.13264851086E+03  0.00000000000E+00 0. -1.
</event>
<event>
 7    1  0.2714042E-009  0.1328284E+03  0.7561462E-02  0.1223318E+00
          3   -1    0    0  501    0  0.00000000000E+00  0.00000000000E+00  0.48143790166E+02  0.48143790166E+02  0.00000000000E+00 0.  1.
         -3   -1    0    0    0  501 -0.00000000000E+00 -0.00000000000E+00 -0.68881074636E+03  0.68881074636E+03  0.00000000000E+00 0. -1.
         25    2    1    2    0    0  0.12104143295E+02  0.77302186947E+02 -0.88918746571E+02  0.17226813532E+03  0.12509048150E+03 0.  0.
          5    1    3    3  502    0 -0.21003452715E+02 -0.29039358547E+02 -0.20912420892E+02  0.41704089947E+02  0.41800000000E+01 0. -1.
         -5    1    3    3    0  502  0.33107596010E+02  0.10634154549E+03 -0.68006325679E+02  0.13056404537E+03  0.41800000000E+01 0. -1.
        -11    1    1    2    0    0  0.36672326310E+02 -0.50665019363E+02 -0.23956180675E+03  0.24759172635E+03  0.00000000000E+00 0. -1.
         11    1    1    2    0    0 -0.48776469604E+02 -0.26637167584E+02 -0.31218640287E+03  0.31709467485E+03  0.00000000000E+00 0.  1.
</event>
<event>
 7    1  0.2714042E-009  0.2405446E+03  0.7561462E-02  0.1119431E+00
          2   -1    0    0  501    0  0.00000000000E+00  0.00000000000E+00  0.44405933702E+03  0.44405933702E+03  0.00000000000E+00 0.  1.
         -2   -1    0    0    0  501 -0.00000000000E+00 -0.00000000000E+00 -0.13664080597E+03  0.13664080597E+03  0.00000000000E+00 0. -1.
         25    2    1    2    0    0 -0.21601174363E+03  0.42505308816E+02  0.15409298709E+03  0.29640779419E+03  0.12508060250E+03 0.  0.
          5    1    3    3  502    0 -0.12174985151E+03 -0.38833602879E+02  0.66499713870E+02  0.14412064183E+03  0.41800000000E+01 0.  1.
         -5    1    3    3    0  502 -0.94261892121E+02  0.81338911695E+02  0.87593273217E+02  0.15228715236E+03  0.41800000000E+01 0.  1.
        -11    1    1    2    0    0  0.11519404886E+03 -0.53924703779E+02  0.12640295186E+03  0.17931884678E+03  0.00000000000E+00 0. -1.
         11    1    1    2    0    0  0.10081769477E+03  0.11419394963E+02  0.26922592098E+02  0.10497350202E+03  0.00000000000E+00 0.  1.
</event>
<event>
 7    1  0.2714042E-009  0.1077548E+03  0.7561462E-02  0.1264785E+00
         -1   -1    0    0    0  501 -0.00000000000E+00  0.00000000000E+00  0.27176212602E+02  0.27176212602E+02  0.00000000000E+00 0.  1.
          1   -1    0    0  501    0  0.00000000000E+00 -0.00000000000E+00 -0.50810594842E+03  0.50810594842E+03  0.00000000000E+00 0. -1.
         25    2    1    2    0    0 -0.33329564722E+02 -0.11341890659E+01 -0.21029750674E+03  0.24694589914E+03  0.12508033216E+03 0.  0.
          5    1    3    3  502    0  0.31993930569E+02 -0.35004631692E+02 -0.43072519188E+02  0.64200078990E+02  0.41800000000E+01 0.  1.
         -5    1    3    3    0  502 -0.65323495291E+02  0.33870442626E+02 -0.16722498755E+03  0.18274582015E+03  0.41800000000E+01 0.  1.
        -11    1    1    2    0    0  0.62486607723E+02 -0.94213913173E+01 -0.13293321602E+03  0.14718892173E+03  0.00000000000E+00 0.  1.
         11    1    1    2    0    0 -0.29157043001E+02  0.10555580383E+02 -0.13769901307E+03  0.14114734016E+03  0.00000000000E+00 0. -1.
</event>
<event>
 7    1  0.2714042E-009  0.3128963E+03  0.7561462E-02  0.1078966E+00
          1   -1    0    0  501    0  0.00000000000E+00  0.00000000000E+00  0.23764271309E+04  0.23764271309E+04  0.00000000000E+00 0. -1.
         -1   -1    0    0    0  501 -0.00000000000E+00 -0.00000000000E+00 -0.44817476855E+02  0.44817476855E+02  0.00000000000E+00 0.  1.
         25    2    1    2    0    0  0.26388742029E+03 -0.15657657068E+03  0.11110426871E+04  0.11594037031E+04  0.12509316936E+03 0.  0.
          5    1    3    3  502    0  0.16580265926E+03 -0.77178112828E+02  0.84956696441E+03  0.86903882671E+03  0.41800000000E+01 0.  1.
         -5    1    3    3    0  502  0.98084761031E+02 -0.79398457856E+02  0.26147572271E+03  0.29036487636E+03  0.41800000000E+01 0.  1.
        -11    1    1    2    0    0 -0.29926971630E+02  0.52718726765E+02  0.16823753410E+03  0.17882604861E+03  0.00000000000E+00 0. -1.
         11    1    1    2    0    0 -0.23396044866E+03  0.10385784392E+03  0.10523294328E+04  0.10830148561E+04  0.00000000000E+00 0.  1.
</event>
<event>
 7    1  0.2714042E-009  0.9378635E+02  0.7561462E-02  0.1293933E+00
          1   -1    0    0  501    0  0.00000000000E+00  0.00000000000E+00  0.27141629027E+03  0.27141629027E+03  0.00000000000E+00 0. -1.
         -1   -1    0    0    0  501 -0.00000000000E+00 -0.00000000000E+00 -0.46464999600E+02  0.46464999600E+02  0.00000000000E+00 0.  1.
         25    2    1    2    0    0 -0.23371496235E+02 -0.11020690489E+02  0.14367814559E+03  0.19224876853E+03  0.12509395280E+03 0.  0.
          5    1    3    3  502    0 -0.56888316265E+02  0.62678461099E+01  0.14323455914E+03  0.15430222861E+03  0.41800000000E+01 0.  1.
         -5    1    3    3    0  502  0.33516820030E+02 -0.17288536599E+02  0.44358644651E+00  0.37946539916E+02  0.41800000000E+01 0.  1.
        -11    1    1    2    0    0 -0.34102640363E+02  0.35825593355E+01  0.47409724438E+02  0.58510740744E+02  0.00000000000E+00 0. -1.
         11    1    1    2    0    0  0.57474136598E+02  0.74381311535E+01  0.33863420642E+02  0.67121780596E+02  0.00000000000E+00 0.  1.
</event>
<event>
 7    1  0.2714042E-009  0.1432785E+03  0.7561462E-02  0.1208984E+00
         -2   -1    0    0    0  501 -0.00000000000E+00  0.00000000000E+00  0.36384649303E+02  0.36384649303E+02  0.00000000000E+00 0.  1.
          2   -1    0    0  501    0  0.00000000000E+00 -0.00000000000E+00 -0.92639881209E+03  0.92639881209E+03  0.00000000000E+00 0. -1.
         25    2    1    2    0    0  0.70484556879E+02 -0.11207794400E+03 -0.29919929174E+03  0.35027808761E+03  0.12507991123E+03 0.  0.
          5    1    3    3  502    0  0.42401717327E+02 -0.11624807168E+03 -0.13335185068E+03  0.18196622841E+03  0.41800000000E+01 0.  1.
         -5    1    3    3    0  502  0.28082839552E+02  0.41701276784E+01 -0.16584744106E+03  0.16831185920E+03  0.41800000000E+01 0.  1.
        -11    1    1    2    0    0 -0.60301809474E+02  0.78658017662E+02 -0.54964504853E+03  0.55850968778E+03  0.00000000000E+00 0. -1.
         11    1    1    2    0    0 -0.10182747405E+02  0.33419926338E+02 -0.41169822517E+02  0.53995686006E+02  0.00000000000E+00 0.  1.
</event>
<event>
 7    1  0.2714042E-009  0.1218608E+03  0.7561462E-02  0.1240059E+00
          2   -1    0    0  501    0  0.00000000000E+00  0.00000000000E+00  0.49675463889E+03  0.49675463889E+03  0.00000000000E+00 0. -1.
         -2   -1    0    0    0  501 -0.00000000000E+00 -0.00000000000E+00 -0.55087545909E+02  0.55087545909E+02  0.00000000000E+00 0.  1.
         25    2    1    2    0    0 -0.93960152514E+01  0.11462052445E+03  0.15683683332E+03  0.23123679096E+03  0.12508601632E+03 0.  0.
          5    1    3    3  502    0  0.13400209624E+02  0.89544293099E+02  0.23552409997E+02  0.93647928227E+02  0.41800000000E+01 0. -1.
         -5    1    3    3    0  502 -0.22796224876E+02  0.25076231355E+02  0.13328442333E+03  0.13758886274E+03  0.41800000000E+01 0. -1.
        -11    1    1    2    0    0 -0.10585143774E+02 -0.56373751015E+02  0.23348983583E+03  0.24043200392E+03  0.00000000000E+00 0. -1.
         11    1    1    2    0    0  0.19981159025E+02 -0.58246773439E+02  0.51340423826E+02  0.80173389916E+02  0.00000000000E+00 0.  1.
</event>
<event>
 7    1  0.2714042E-009  0.1089080E+03  0.7561462E-02  0.1262606E+00
         -1   -1    0    0    0  501 -0.00000000000E+00  0.00000000000E+00  0.26910500335E+02  0.26910500335E+02  0.00000000000E+00 0.  1.
          1   -1    0    0  501    0  0.00000000000E+00 -0.00000000000E+00 -0.53314894548E+03  0.53314894548E+03  0.00000000000E+00 0. -1.
         25    2    1    2    0    0  0.26473530330E+02  0.38090445159E+02 -0.24476441034E+03  0.27876403588E+03  0.12509213127E+03 0.  0.
          5    1    3    3  502    0  0.18808724674E+02  0.76725393738E+02 -0.93873456923E+02  0.12276095667E+03  0.41800000000E+01 0.  1.
         -5    1    3    3    0  502  0.76648056561E+01 -0.38634948579E+02 -0.15089095342E+03  0.15600307920E+03  0.41800000000E+01 0.  1.
        -11    1    1    2    0    0  0.14697489476E+02 -0.53238421110E+02 -0.18569327840E+03  0.19373264909E+03  0.00000000000E+00 0. -1.
         11    1    1    2    0    0 -0.41171019806E+02  0.15147975951E+02 -0.75780756400E+02  0.87562760851E+02  0.00000000000E+00 0.  1.
</event>
<event>
 7    1  0.2714042E-009  0.1136791E+03  0.7561462E-02  0.1253905E+00
         -1   -1    0    0    0  501 -0.00000000000E+00  0.00000000000E+00  0.17977707748E+02  0.17977707748E+02  0.00000000000E+00 0.  1.
          1   -1    0    0  501    0  0.00000000000E+00 -0.00000000000E+00 -0.91528657188E+03  0.91528657188E+03  0.00000000000E+00 0. -1.
         25    2    1    2    0    0  0.37498654457E+02  0.58443916464E+02 -0.54898582138E+03  0.56732241032E+03  0.12508974665E+03 0.  0.
          5    1    3    3  502    0  0.67931486657E+01  0.78349035990E+02 -0.17963853448E+03  0.19614329910E+03  0.41800000000E+01 0. -1.
         -5    1    3    3    0  502  0.30705505792E+02 -0.19905119527E+02 -0.36934728690E+03  0.37117911123E+03  0.41800000000E+01 0. -1.
        -11    1    1    2    0    0 -0.44655337677E+02  0.76390176229E+01 -0.15672031108E+03  0.16313708860E+03  0.00000000000E+00 0.  1.
         11    1    1    2    0    0  0.71566832198E+01 -0.66082934086E+02 -0.19160273167E+03  0.20280478070E+03  0.00000000000E+00 0. -1.
</event>
<event>
 7    1  0.2714042E-009  0.1051753E+03  0.7561462E-02  0.1269775E+00
         -1   -1    0    0    0  501 -0.00000000000E+00  0.00000000000E+00  0.20853855605E+02  0.20853855605E+02  0.00000000000E+00 0.  1.
          1   -1    0    0  501    0  0.00000000000E+00 -0.00000000000E+00 -0.60764600118E+03  0.60764600118E+03  0.00000000000E+00 0. -1.
         25    2    1    2    0    0  0.69779942526E+01 -0.28031820013E+02 -0.29886857640E+03  0.32527581347E+03  0.12508978187E+03 0.  0.
          5    1    3    3  502    0  0.53630715105E+02 -0.44329658683E+02 -0.23053083562E+03  0.24083876518E+03  0.41800000000E+01 0.  1.
         -5    1    3    3    0  502 -0.46652720852E+02  0.16297838670E+02 -0.68337740784E+02  0.84437048289E+02  0.41800000000E+01 0.  1.
        -11    1    1    2    0    0 -0.32262100636E+02  0.48684732920E+02 -0.13913656429E+03  0.15089741509E+03  0.00000000000E+00 0.  1.
         11    1    1    2    0    0  0.25284106384E+02 -0.20652912907E+02 -0.14878700488E+03  0.15232662823E+03  0.00000000000E+00 0. -1.
</event>
<event>
 7    1  0.2714042E-009  0.1337307E+03  0.7561462E-02  0.1222023E+00
         -1   -1    0    0    0  501 -0.00000000000E+00  0.00000000000E+00  0.15166983251E+03  0.15166983251E+03  0.00000000000E+00 0.  1.
          1   -1    0    0  501    0  0.00000000000E+00 -0.00000000000E+00 -0.14715910502E+03  0.14715910502E+03  0.00000000000E+00 0. -1.
         25    2    1    2    0    0  0.77056520787E+02 -0.65432813621E+02 -0.12286924863E+02  0.16129781302E+03  0.12508739132E+03 0.  0.
          5    1    3    3  502    0  0.23960284206E+01 -0.58772139497E+02 -0.49973167350E+02  0.77296152480E+02  0.41800000000E+01 0.  1.
         -5    1    3    3    0  502  0.74660492366E+02 -0.66606741238E+01  0.37686242486E+02  0.84001660536E+02  0.41800000000E+01 0.  1.
        -11    1    1    2    0    0 -0.96161177447E+02  0.47654327630E+02  0.16044374687E+01  0.10733350460E+03  0.00000000000E+00 0.  1.
         11    1    1    2    0    0  0.19104656660E+02  0.17778485990E+02  0.15193214878E+02  0.30197619915E+02  0.00000000000E+00 0. -1.
</event>
<event>
 7    1  0.2714042E-009  0.3110005E+03  0.7561462E-02  0.1079867E+00
         -2   -1    0    0    0  501 -0.00000000000E+00  0.00000000000E+00  0.11203938706E+03  0.11203938706E+03  0.00000000000E+00 0.  1.
          2   -1    0    0  501    0  0.00000000000E+00 -0.00000000000E+00 -0.92819374256E+03  0.92819374256E+03  0.00000000000E+00 0. -1.
         25    2    1    2    0    0  0.73340104079E+01 -0.29718517864E+03 -0.51169896281E+03  0.60485905701E+03  0.12508330101E+03 0.  0.
          5    1    3    3  502    0  0.34258773156E+02 -0.13711482005E+02 -0.71599584325E+02  0.80657554838E+02  0.41800000000E+01 0. -1.
         -5    1    3    3    0  502 -0.26924762749E+02 -0.28347369664E+03 -0.44009937849E+03  0.52420150217E+03  0.41800000000E+01 0. -1.
        -11    1    1    2    0    0  0.17031019987E+02  0.10759900648E+03 -0.16911619882E+03  0.20116632557E+03  0.00000000000E+00 0.  1.
         11    1    1    2    0    0 -0.24365030395E+02  0.18958617216E+03 -0.13533919385E+03  0.23420774704E+03  0.00000000000E+00 0. -1.
</event>
<event>
 7    1  0.2714042E-009  0.1249084E+03  0.7561462E-02  0.1235212E+00
         -3   -1    0    0    0  501 -0.00000000000E+00  0.00000000000E+00  0.29440530126E+02  0.29440530126E+02  0.00000000000E+00 0.  1.
          3   -1    0    0  501    0  0.00000000000E+00 -0.00000000000E+00 -0.73291851224E+03  0.73291851224E+03  0.00000000000E+00 0. -1.
         25    2    1    2    0    0 -0.80933478971E+02  0.56165107952E+02 -0.40359862806E+03  0.43387053283E+03  0.12508812619E+03 0.  0.
          5    1    3    3  502    0 -0.65972979077E+02 -0.83567432849E+01 -0.32135428775E+03  0.32818945714E+03  0.41800000000E+01 0. -1.
         -5    1    3    3    0  502 -0.14960499894E+02  0.64521851237E+02 -0.82244340318E+02  0.10568107569E+03  0.41800000000E+01 0. -1.
        -11    1    1    2    0    0  0.54424167921E+01  0.13213644677E+02 -0.32722862511E+01  0.14660428490E+02  0.00000000000E+00 0.  1.
         11    1    1    2    0    0  0.75491062179E+02 -0.69378752629E+02 -0.29660706780E+03  0.31382808104E+03  0.00000000000E+00 0. -1.
</event>
<event>
 7    1  0.2714042E-009  0.1172634E+03  0.7561462E-02  0.1247681E+00
          3   -1    0    0  501    0  0.00000000000E+00  0.00000000000E+00  0.40046792995E+02  0.40046792995E+02  0.00000000000E+00 0. -1.
         -3   -1    0    0    0  501 -0.00000000000E+00 -0.00000000000E+00 -0.36342707363E+03  0.36342707363E+03  0.00000000000E+00 0.  1.
         25    2    1    2    0    0 -0.98159722292E+01  0.62177927041E+02 -0.22504484180E+03  0.26505709332E+03  0.12509050315E+03 0.  0.
          5    1    3    3  502    0 -0.50048483490E+02 -0.15404329041E+02 -0.82873351549E+02  0.98120379381E+02  0.41800000000E+01 0. -1.
         -5    1    3    3    0  502  0.40232511261E+02  0.77582256082E+02 -0.14217149025E+03  0.16693671394E+03  0.41800000000E+01 0. -1.
        -11    1    1    2    0    0 -0.22940772788E+02 -0.56862653767E+02 -0.46861438664E+02  0.77172759981E+02  0.00000000000E+00 0. -1.
         11    1    1    2    0    0  0.32756745017E+02 -0.53152732745E+01 -0.51474000167E+02  0.61244013319E+02  0.00000000000E+00 0.  1.
</event>
<event>
 7    1  0.2714042E-009  0.1655942E+03  0.7561462E-02  0.1182522E+00
          2   -1    0    0  501    0  0.00000000000E+00  0.00000000000E+00  0.19076445619E+04  0.19076445619E+04  0.00000000000E+00 0. -1.
         -2   -1    0    0    0  501 -0.00000000000E+00 -0.00000000000E+00 -0.34443123524E+02  0.34443123524E+02  0.00000000000E+00 0.  1.
         25    2    1    2    0    0  0.10142329635E+03 -0.94329171992E+02  0.16685601291E+04  0.16789654666E+04  0.12508979197E+03 0.  0.
          5    1    3    3  502    0  0.18339718398E+02  0.21989861398E+02  0.62291330993E+03  0.62358508911E+03  0.41800000000E+01 0. -1.
         -5    1    3    3    0  502  0.83083577955E+02 -0.11631903339E+03  0.10456468192E+04  0.10553803775E+04  0.41800000000E+01 0. -1.
        -11    1    1    2    0    0 -0.99910298488E+02  0.44464100416E+02  0.17090471169E+03  0.20289786704E+03  0.00000000000E+00 0. -1.
         11    1    1    2    0    0 -0.15129978651E+01  0.49865071576E+02  0.33736597592E+02  0.60224351743E+02  0.00000000000E+00 0.  1.
</event>
<event>
 7    1  0.2714042E-009  0.7943055E+02  0.7561462E-02  0.1330675E+00
          2   -1    0    0  501    0  0.00000000000E+00  0.00000000000E+00  0.74646346765E+02  0.74646346765E+02  0.00000000000E+00 0.  1.
         -2   -1    0    0    0  501 -0.00000000000E+00 -0.00000000000E+00 -0.25632254917E+03  0.25632254917E+03  0.00000000000E+00 0. -1.
         25    2    1    2    0    0 -0.47011145632E+02  0.48928910597E+02 -0.34064652580E+02  0.14632795267E+03  0.12508950025E+03 0.  0.
          5    1    3    3  502    0  0.11884686446E+02 -0.23011657245E+01  0.37943093207E+02  0.40046121631E+02  0.41800000000E+01 0. -1.
         -5    1    3    3    0  502 -0.58895832078E+02  0.51230076322E+02 -0.72007745787E+02  0.10628183104E+03  0.41800000000E+01 0. -1.
        -11    1    1    2    0    0  0.29939253937E+02 -0.29751534621E+02 -0.83419656983E+01  0.43024424811E+02  0.00000000000E+00 0.  1.
         11    1    1    2    0    0  0.17071891695E+02 -0.19177375976E+02 -0.13926958412E+03  0.14161651845E+03  0.00000000000E+00 0. -1.
</event>
<event>
 7    1  0.2714042E-009  0.1006245E+03  0.7561462E-02  0.1278988E+00
         -1   -1    0    0    0  501 -0.00000000000E+00  0.00000000000E+00  0.14517976648E+03  0.14517976648E+03  0.00000000000E+00 0.  1.
          1   -1    0    0  501    0  0.00000000000E+00 -0.00000000000E+00 -0.95164238556E+02  0.95164238556E+02  0.00000000000E+00 0. -1.
         25    2    1    2    0    0 -0.35621849876E+02 -0.35975964874E+02  0.34302367114E+02  0.13923878960E+03  0.12509037494E+03 0.  0.
          5    1    3    3  502    0  0.33930315159E+02  0.20486161855E+02 -0.70633838251E+01  0.40476078187E+02  0.41800000000E+01 0.  1.
         -5    1    3    3    0  502 -0.69552165035E+02 -0.56462126728E+02  0.41365750939E+02  0.98762711417E+02  0.41800000000E+01 0.  1.
        -11    1    1    2    0    0  0.36598590241E+01  0.39397287956E+02 -0.26813698820E+02  0.47796603548E+02  0.00000000000E+00 0. -1.
         11    1    1    2    0    0  0.31961990852E+02 -0.34213230825E+01  0.42526859629E+02  0.53308611882E+02  0.00000000000E+00 0.  1.
</event>
<event>
 7    1  0.2714042E-009  0.1371528E+03  0.7561462E-02  0.1217212E+00
         -1   -1    0    0    0  501 -0.00000000000E+00  0.00000000000E+00  0.79824786846E+02  0.79824786846E+02  0.00000000000E+00 0.  1.
          1   -1    0    0  501    0  0.00000000000E+00 -0.00000000000E+00 -0.36125559409E+03  0.36125559409E+03  0.00000000000E+00 0. -1.
         25    2    1    2    0    0 -0.88671425294E+02  0.71522635534E+02 -0.23296085374E+03  0.28791779153E+03  0.12509111178E+03 0.  0.
          5    1    3    3  502    0 -0.31075276140E+02  0.66619999306E+02 -0.21497650955E+03  0.22723615283E+03  0.41800000000E+01 0.  1.
         -5    1    3    3    0  502 -0.57596149154E+02  0.49026362279E+01 -0.17984344188E+02  0.60681638699E+02  0.41800000000E+01 0.  1.
        -11    1    1    2    0    0  0.96397700765E+02 -0.84121371735E+02 -0.51771965521E+02  0.13801905053E+03  0.00000000000E+00 0.  1.
         11    1    1    2    0    0 -0.77262754705E+01  0.12598736201E+02  0.33020120112E+01  0.15143538881E+02  0.00000000000E+00 0. -1.
</event>
<event>
 7    1  0.3588930E-009  0.9922406E+02  0.7561462E-02  0.1281936E+00
          1   -1    0    0  501    0  0.00000000000E+00  0.00000000000E+00  0.16548142321E+03  0.16548142321E+03  0.00000000000E+00 0. -1.
         -1   -1    0    0    0  501 -0.00000000000E+00 -0.00000000000E+00 -0.93925944271E+02  0.93925944271E+02  0.00000000000E+00 0.  1.
         25    2    1    2    0    0 -0.53402750905E+02  0.29993254543E+02  0.43948881360E+02  0.14605001446E+03  0.12509058089E+03 0.  0.
          5    1    3    3  502    0  0.21621880053E+02  0.37447063167E+02 -0.19313067299E+02  0.47542141363E+02  0.41800000000E+01 0. -1.
         -5    1    3    3    0  502 -0.75024630957E+02 -0.74538086239E+01  0.63261948659E+02  0.98507873094E+02  0.41800000000E+01 0. -1.
        -11    1    1    2    0    0  0.98289569870E+01 -0.34327466115E+02 -0.25977576706E+02  0.44156741465E+02  0.00000000000E+00 0.  1.
         11    1    1    2    0    0  0.43573793918E+02  0.43342115720E+01  0.53584174288E+02  0.69200611561E+02  0.00000000000E+00 0. -1.
</event>
<event>
 7    1  0.2714042E-009  0.1216977E+03  0.7561462E-02  0.1240322E+00
         -1   -1    0    0    0  501 -0.00000000000E+00  0.00000000000E+00  0.27252920643E+02  0.27252920643E+02  0.00000000000E+00 0.  1.
          1   -1    0    0  501    0  0.00000000000E+00 -0.00000000000E+00 -0.56122742679E+03  0.56122742679E+03  0.00000000000E+00 0. -1.
         25    2    1    2    0    0 -0.19901925173E+02  0.56173337732E+02 -0.28835133775E+03  0.31991516762E+03  0.12509072705E+03 0.  0.
          5    1    3    3  502    0  0.49769349980E+02  0.43206533135E+02 -0.11538675724E+03  0.13294874519E+03  0.41800000000E+01 0. -1.
         -5    1    3    3    0  502 -0.69671275153E+02  0.12966804597E+02 -0.17296458052E+03  0.18696642243E+03  0.41800000000E+01 0. -1.
        -11    1    1    2    0    0 -0.38498077301E+01 -0.75589086005E+02 -0.14792204224E+03  0.16616095066E+03  0.00000000000E+00 0. -1.
         11    1    1    2    0    0  0.23751732903E+02  0.19415748273E+02 -0.97701126147E+02  0.10240422915E+03  0.00000000000E+00 0.  1.
</event>
<event>
 7    1  0.2714042E-009  0.2896955E+03  0.7561462E-02  0.1090508E+00
          1   -1    0    0  501    0  0.00000000000E+00  0.00000000000E+00  0.89022351658E+03  0.89022351658E+03  0.00000000000E+00 0. -1.
         -1   -1    0    0    0  501 -0.00000000000E+00 -0.00000000000E+00 -0.10230110486E+03  0.10230110486E+03  0.00000000000E+00 0.  1.
         25    2    1    2    0    0 -0.70853176200E+02  0.26846136001E+03  0.47667534815E+03  0.56565066007E+03  0.12509839052E+03 0.  0.
          5    1    3    3  502    0 -0.13447261410E+02 -0.25142191780E+01  0.83315730052E+02  0.84534805918E+02  0.41800000000E+01 0. -1.
         -5    1    3    3    0  502 -0.57405914791E+02  0.27097557919E+03  0.39335961810E+03  0.48111585415E+03  0.41800000000E+01 0. -1.
        -11    1    1    2    0    0  0.31044502623E+02 -0.23204606947E+03  0.27822546502E+03  0.36361868611E+03  0.00000000000E+00 0. -1.
         11    1    1    2    0    0  0.39808673577E+02 -0.36415290539E+02  0.33021598552E+02  0.63255275258E+02  0.00000000000E+00 0.  1.
</event>
<event>
 7    1  0.2714042E-009  0.9753695E+02  0.7561462E-02  0.1285562E+00
         -3   -1    0    0    0  501 -0.00000000000E+00  0.00000000000E+00  0.33585140745E+03  0.33585140745E+03  0.00000000000E+00 0.  1.
          3   -1    0    0  501    0  0.00000000000E+00 -0.00000000000E+00 -0.38120430368E+02  0.38120430368E+02  0.00000000000E+00 0. -1.
         25    2    1    2    0    0 -0.41561106876E+01  0.19842459573E+02  0.12631814513E+03  0.17892373734E+03  0.12508570476E+03 0.  0.
          5    1    3    3  502    0  0.60236255868E+02  0.91946924741E+01  0.66511403127E+02  0.90300542837E+02  0.41800000000E+01 0.  1.
         -5    1    3    3    0  502 -0.64392366555E+02  0.10647767099E+02  0.59806741999E+02  0.88623194500E+02  0.41800000000E+01 0.  1.
        -11    1    1    2    0    0  0.14074796656E+02  0.21711734485E+02  0.94512269858E+01  0.27546778519E+02  0.00000000000E+00 0. -1.
         11    1    1    2    0    0 -0.99186859680E+01 -0.41554194058E+02  0.16196160497E+03  0.16750132197E+03  0.00000000000E+00 0.  1.
</event>
<event>
 7    1  0.2714042E-009  0.9495738E+02  0.7561462E-02  0.1291272E+00
          3   -1    0    0  501    0  0.00000000000E+00  0.00000000000E+00  0.13333767530E+03  0.13333767530E+03  0.00000000000E+00 0. -1.
         -3   -1    0    0    0  501 -0.00000000000E+00 -0.00000000000E+00 -0.28759383106E+03  0.28759383106E+03  0.00000000000E+00 0.  1.
         25    2    1    2    0    0 -0.20757405598E+02 -0.39472029130E+01  0.91931876075E+02  0.15666975108E+03  0.12508993072E+03 0.  0.
          5    1    3    3  502    0 -0.54397208746E+02  0.27081808149E+02  0.92450226224E+02  0.11071132454E+03  0.41800000000E+01 0. -1.
         -5    1    3    3    0  502  0.33639803149E+02 -0.31029011062E+02 -0.51835014976E+00  0.45958426543E+02  0.41800000000E+01 0. -1.
        -11    1    1    2    0    0  0.49379053689E+02  0.16125022482E+02 -0.21098593446E+03  0.21728638207E+03  0.00000000000E+00 0.  1.
         11    1    1    2    0    0 -0.28621648091E+02 -0.12177819569E+02 -0.35202097371E+02  0.46975373210E+02  0.00000000000E+00 0. -1.
</event>
<event>
 7    1  0.2714042E-009  0.1615502E+03  0.7561462E-02  0.1186958E+00
         -2   -1    0    0    0  501 -0.00000000000E+00  0.00000000000E+00  0.21575931029E+02  0.21575931029E+02  0.00000000000E+00 0.  1.
          2   -1    0    0  501    0  0.00000000000E+00 -0.00000000000E+00 -0.25691909435E+04  0.25691909435E+04  0.00000000000E+00 0. -1.
         25    2    1    2    0    0 -0.13522463214E+03  0.63738529762E+02 -0.21157961868E+04  0.21247562994E+04  0.12509007283E+03 0.  0.
          5    1    3    3  502    0 -0.73853276377E+01  0.24916125626E+02 -0.10862659347E+04  0.10865847917E+04  0.41800000000E+01 0.  1.
         -5    1    3    3    0  502 -0.12783930450E+03  0.38822404136E+02 -0.10295302522E+04  0.10381715077E+04  0.41800000000E+01 0.  1.
        -11    1    1    2    0    0  0.10883789373E+03 -0.77248123889E+02 -0.26647099589E+03  0.29802642737E+03  0.00000000000E+00 0.  1.
         11    1    1    2    0    0  0.26386738405E+02  0.13509594127E+02 -0.16534782974E+03  0.16798414776E+03  0.00000000000E+00 0. -1.
</event>
<event>
 7    1  0.2714042E-009  0.7348600E+02  0.7561462E-02  0.1348625E+00
          2   -1    0    0  501    0  0.00000000000E+00  0.00000000000E+00  0.26669968267E+03  0.26669968267E+03  0.00000000000E+00 0. -1.
         -2   -1    0    0    0  501 -0.00000000000E+00 -0.00000000000E+00 -0.51276419460E+02  0.51276419460E+02  0.00000000000E+00 0.  1.
         25    2    1    2    0    0 -0.37520676092E+00 -0.45905590912E+02  0.12386411075E+03  0.18192502540E+03  0.12508770075E+03 0.  0.
          5    1    3    3  502    0  0.24234246914E+02 -0.42998405390E+02  0.14235358733E+03  0.15072550486E+03  0.41800000000E+01 0.  1.
         -5    1    3    3    0  502 -0.24609453675E+02 -0.29071855213E+01 -0.18489476583E+02  0.31199520544E+02  0.41800000000E+01 0.  1.
        -11    1    1    2    0    0  0.14475589311E+02 -0.80336182184E+01 -0.10607786867E+02  0.19662320560E+02  0.00000000000E+00 0.  1.
         11    1    1    2    0    0 -0.14100382550E+02  0.53939209130E+02  0.10216693933E+03  0.11638875617E+03  0.00000000000E+00 0. -1.
</event>
<event>
 7    1  0.2714042E-009  0.1844746E+03  0.7561462E-02  0.1163541E+00
         -1   -1    0    0    0  501 -0.00000000000E+00  0.00000000000E+00  0.32798651487E+02  0.32798651487E+02  0.00000000000E+00 0.  1.
          1   -1    0    0  501    0  0.00000000000E+00 -0.00000000000E+00 -0.12069536345E+04  0.12069536345E+04  0.00000000000E+00 0. -1.
         25    2    1    2    0    0  0.14617889896E+03  0.35145638755E+02 -0.79479903638E+03  0.81850703720E+03  0.12507907617E+03 0.  0.
          5    1    3    3  502    0 -0.17063935924E+02 -0.41635758370E+01 -0.26521108546E+02  0.32083560767E+02  0.41800000000E+01 0. -1.
         -5    1    3    3    0  502  0.16324283488E+03  0.39309214592E+02 -0.76827792784E+03  0.78642347644E+03  0.41800000000E+01 0. -1.
        -11    1    1    2    0    0 -0.12553422060E+03 -0.69024820276E+02 -0.30490536417E+03  0.33688358146E+03  0.00000000000E+00 0.  1.
         11    1    1    2    0    0 -0.20644678358E+02  0.33879181522E+02 -0.74450582463E+02  0.84361667326E+02  0.00000000000E+00 0. -1.
</event>
<event>
 7    1  0.2714042E-009  0.1269363E+03  0.7561462E-02  0.1232074E+00
         -1   -1    0    0    0  501 -0.00000000000E+00  0.00000000000E+00  0.15054188712E+03  0.15054188712E+03  0.00000000000E+00 0.  1.
          1   -1    0    0  501    0  0.00000000000E+00 -0.00000000000E+00 -0.11379189947E+03  0.11379189947E+03  0.00000000000E+00 0. -1.
         25    2    1    2    0    0 -0.14415705048E+02 -0.65194586778E+02 -0.60875406484E+01  0.14193537786E+03  0.12510174515E+03 0.  0.
          5    1    3    3  502    0  0.46512942361E+02  0.64918624107E+01  0.34745161025E+01  0.47277296315E+02  0.41800000000E+01 0.  1.
         -5    1    3    3    0  502 -0.60928647409E+02 -0.71686449189E+02 -0.95620567509E+01  0.94658081545E+02  0.41800000000E+01 0.  1.
        -11    1    1    2    0    0  0.22056442509E+02 -0.18328197988E+02  0.10586199928E+01  0.28697215439E+02  0.00000000000E+00 0. -1.
         11    1    1    2    0    0 -0.76407374615E+01  0.83522784766E+02  0.41778908303E+02  0.93701193285E+02  0.00000000000E+00 0.  1.
</event>
<event>
 7    1  0.4039178E-009  0.1450451E+03  0.7561462E-02  0.1206697E+00
         -3   -1    0    0    0  501 -0.00000000000E+00  0.00000000000E+00  0.66881446074E+02  0.66881446074E+02  0.00000000000E+00 0.  1.
          3   -1    0    0  501    0  0.00000000000E+00 -0.00000000000E+00 -0.40246382566E+03  0.40246382566E+03  0.00000000000E+00 0. -1.
         25    2    1    2    0    0 -0.11104979151E+03  0.40430820294E+02 -0.22710336834E+03  0.28493935498E+03  0.12509112152E+03 0.  0.
          5    1    3    3  502    0 -0.15624595497E+02  0.52849086618E+02 -0.24200636310E+02  0.60334874978E+02  0.41800000000E+01 0.  1.
         -5    1    3    3    0  502 -0.95425196016E+02 -0.12418266324E+02 -0.20290273203E+03  0.22460448000E+03  0.41800000000E+01 0.  1.
        -11    1    1    2    0    0  0.20148567800E+02 -0.43082274432E+02 -0.68868776408E+01  0.48057010293E+02  0.00000000000E+00 0.  1.
         11    1    1    2    0    0  0.90901223714E+02  0.26514541380E+01 -0.10159213361E+03  0.13634890646E+03  0.00000000000E+00 0. -1.
</event>
<event>
 7    1  0.2714042E-009  0.9746886E+02  0.7561462E-02  0.1285710E+00
          1   -1    0    0  501    0  0.00000000000E+00  0.00000000000E+00  0.19486314695E+02  0.19486314695E+02  0.00000000000E+00 0. -1.
         -1   -1    0    0    0  501 -0.00000000000E+00 -0.00000000000E+00 -0.69227400102E+03  0.69227400102E+03  0.00000000000E+00 0.  1.
         25    2    1    2    0    0  0.24784379889E+02  0.37091362326E+02 -0.34050645673E+03  0.36548976594E+03  0.12509231507E+03 0.  0.
          5    1    3    3  502    0 -0.73432928159E+01  0.65247802668E+02 -0.29764744026E+03  0.30483220105E+03  0.41800000000E+01 0. -1.
         -5    1    3    3    0  502  0.32127672705E+02 -0.28156440342E+02 -0.42859016465E+02  0.60657564891E+02  0.41800000000E+01 0. -1.
        -11    1    1    2    0    0 -0.59115519391E+00 -0.55697649383E+02 -0.28202277306E+03  0.28747073266E+03  0.00000000000E+00 0.  1.
         11    1    1    2    0    0 -0.24193224695E+02  0.18606287057E+02 -0.50258456544E+02  0.58799817120E+02  0.00000000000E+00 0. -1.
</event>
<event>
 7    1  0.2714042E-009  0.1508621E+03  0.7561462E-02  0.1199418E+00
          2   -1    0    0  501    0  0.00000000000E+00  0.00000000000E+00  0.18339728084E+03  0.18339728084E+03  0.00000000000E+00 0.  1.
         -2   -1    0    0    0  501 -0.00000000000E+00 -0.00000000000E+00 -0.34841596294E+03  0.34841596294E+03  0.00000000000E+00 0. -1.
         25    2    1    2    0    0  0.29820475407E+02  0.13042328530E+03  0.10917529844E+03  0.21323988520E+03  0.12510998661E+03 0.  0.
          5    1    3    3  502    0 -0.33177859362E+02  0.72704709023E+02  0.98685968166E+02  0.12705564835E+03  0.41800000000E+01 0. -1.
         -5    1    3    3    0  502  0.62998334769E+02  0.57718576280E+02  0.10489330278E+02  0.86184236848E+02  0.41800000000E+01 0. -1.
        -11    1    1    2    0    0 -0.59759531537E+01 -0.81609389760E+02 -0.24191822321E+03  0.25538251944E+03  0.00000000000E+00 0.  1.
         11    1    1    2    0    0 -0.23844522253E+02 -0.48813895543E+02 -0.32275757337E+02  0.63190839140E+02  0.00000000000E+00 0. -1.
</event>
<event>
 7    1  0.2714042E-009  0.3067006E+03  0.7561462E-02  0.1081938E+00
          2   -1    0    0  501    0  0.00000000000E+00  0.00000000000E+00  0.13685853745E+03  0.13685853745E+03  0.00000000000E+00 0. -1.
         -2   -1    0    0    0  501 -0.00000000000E+00 -0.00000000000E+00 -0.71329001599E+03  0.71329001599E+03  0.00000000000E+00 0.  1.
         25    2    1    2    0    0  0.28332497869E+03 -0.60801340819E+02 -0.23459483791E+03  0.39325795047E+03  0.12508889252E+03 0.  0.
          5    1    3    3  502    0  0.43867702802E+02  0.35473087968E+02 -0.54230542924E+02  0.78365422892E+02  0.41800000000E+01 0.  1.
         -5    1    3    3    0  502  0.23945727589E+03 -0.96274428787E+02 -0.18036429499E+03  0.31489252757E+03  0.41800000000E+01 0.  1.
        -11    1    1    2    0    0 -0.86679764657E+02 -0.14987936555E+02 -0.13829926723E+03  0.16390456724E+03  0.00000000000E+00 0. -1.
         11    1    1    2    0    0 -0.19664521404E+03  0.75789277374E+02 -0.20353737340E+03  0.29298603574E+03  0.00000000000E+00 0.  1.
</event>
<event>
 7    1  0.2714042E-009  0.1072311E+03  0.7561462E-02  0.1265785E+00
         -2   -1    0    0    0  501 -0.00000000000E+00  0.00000000000E+00  0.67680782310E+03  0.67680782310E+03  0.00000000000E+00 0.  1.
          2   -1    0    0  501    0  0.00000000000E+00 -0.00000000000E+00 -0.18999430824E+02  0.18999430824E+02  0.00000000000E+00 0. -1.
         25    2    1    2    0    0  0.31483184138E+02 -0.34968075546E+01  0.36933044891E+03  0.39122256849E+03  0.12508676612E+03 0.  0.
          5    1    3    3  502    0  0.46532265956E+02  0.47297076539E+02  0.12941438744E+03  0.14549165371E+03  0.41800000000E+01 0. -1.
         -5    1    3    3    0  502 -0.15049081819E+02 -0.50793884094E+02  0.23991606147E+03  0.24573091478E+03  0.41800000000E+01 0. -1.
        -11    1    1    2    0    0 -0.25087107651E+02 -0.41985827054E+02  0.11172584844E+03  0.12196244444E+03  0.00000000000E+00 0. -1.
         11    1    1    2    0    0 -0.63960764862E+01  0.45482634608E+02  0.17675209493E+03  0.18262224100E+03  0.00000000000E+00 0.  1.
</event>
<event>
 7    1  0.2714042E-009  0.1305040E+03  0.7561462E-02  0.1226710E+00
         -1   -1    0    0    0  501 -0.00000000000E+00  0.00000000000E+00  0.26170077333E+02  0.26170077333E+02  0.00000000000E+00 0.  1.
          1   -1    0    0  501    0  0.00000000000E+00 -0.00000000000E+00 -0.98333389326E+03  0.98333389326E+03  0.00000000000E+00 0. -1.
         25    2    1    2    0    0  0.86599860461E+02  0.77939619239E+02 -0.51761901485E+03  0.54511628620E+03  0.12509276904E+03 0.  0.
          5    1    3    3  502    0  0.26237227441E+02  0.79551767547E+02 -0.43317401256E+03  0.44121884976E+03  0.41800000000E+01 0. -1.
         -5    1    3    3    0  502  0.60362633020E+02 -0.16121483078E+01 -0.84445002292E+02  0.10389743644E+03  0.41800000000E+01 0. -1.
        -11    1    1    2    0    0 -0.16338700360E+02 -0.17325154553E+02 -0.11583822163E+02  0.26482051386E+02  0.00000000000E+00 0.  1.
         11    1    1    2    0    0 -0.70261160101E+02 -0.60614464687E+02 -0.42796097891E+03  0.43790563301E+03  0.00000000000E+00 0. -1.
</event>
<event>
 7    1  0.2714042E-009  0.1639464E+03  0.7561462E-02  0.1184312E+00
          1   -1    0    0  501    0  0.00000000000E+00  0.00000000000E+00  0.11638434434E+04  0.11638434434E+04  0.00000000000E+00 0. -1.
         -1   -1    0    0    0  501 -0.00000000000E+00 -0.00000000000E+00 -0.36328903349E+02  0.36328903349E+02  0.00000000000E+00 0.  1.
         25    2    1    2    0    0  0.15558696348E+03 -0.50497612820E+02  0.40766273029E+03  0.45672130783E+03  0.12509252276E+03 0.  0.
          5    1    3    3  502    0  0.11057598644E+03 -0.40587176194E+02  0.38960819725E+03  0.40704592789E+03  0.41800000000E+01 0. -1.
         -5    1    3    3    0  502  0.45010977041E+02 -0.99104366263E+01  0.18054533035E+02  0.49675379932E+02  0.41800000000E+01 0. -1.
        -11    1    1    2    0    0 -0.10245157355E+03  0.29468402164E+02  0.61374247605E+03  0.62293221024E+03  0.00000000000E+00 0. -1.
         11    1    1    2    0    0 -0.53135389938E+02  0.21029210656E+02  0.10610933368E+03  0.12051882865E+03  0.00000000000E+00 0.  1.
</event>
<event>
 7    1  0.2714042E-009  0.1434828E+03  0.7561462E-02  0.1208718E+00
          2   -1    0    0  501    0  0.00000000000E+00  0.00000000000E+00  0.93155606953E+03  0.93155606953E+03  0.00000000000E+00 0. -1.
         -2   -1    0    0    0  501 -0.00000000000E+00 -0.00000000000E+00 -0.32934126714E+02  0.32934126714E+02  0.00000000000E+00 0.  1.
         25    2    1    2    0    0  0.96436390056E+02  0.95186954085E+02  0.53410983836E+03  0.56504995342E+03  0.12509035482E+03 0.  0.
          5    1    3    3  502    0  0.70785888506E+02  0.26741803093E+02  0.10360291291E+03  0.12836199596E+03  0.41800000000E+01 0. -1.
         -5    1    3    3    0  502  0.25650501550E+02  0.68445150993E+02  0.43050692545E+03  0.43668795746E+03  0.41800000000E+01 0. -1.
        -11    1    1    2    0    0 -0.51438866352E+02 -0.68461543579E+02  0.10895357912E+03  0.13857785654E+03  0.00000000000E+00 0.  1.
         11    1    1    2    0    0 -0.44997523704E+02 -0.26725410506E+02  0.25555852533E+03  0.26086238628E+03  0.00000000000E+00 0. -1.
</event>
<event>
 7    1  0.3896582E-009  0.1310092E+03  0.7561462E-02  0.1225966E+00
          2   -1    0    0  501    0  0.00000000000E+00  0.00000000000E+00  0.30127078424E+03  0.30127078424E+03  0.00000000000E+00 0. -1.
         -2   -1    0    0    0  501 -0.00000000000E+00 -0.00000000000E+00 -0.80640059204E+02  0.80640059204E+02  0.00000000000E+00 0.  1.
         25    2    1    2    0    0 -0.10328501879E+03 -0.39811531223E+02  0.97962191894E+02  0.19364199143E+03  0.12509147325E+03 0.  0.
          5    1    3    3  502    0  0.23924708144E+01  0.25714808906E+02 -0.10883381842E+02  0.28335414484E+02  0.41800000000E+01 0. -1.
         -5    1    3    3    0  502 -0.10567748961E+03 -0.65526340129E+02  0.10884557374E+03  0.16530657695E+03  0.41800000000E+01 0. -1.
        -11    1    1    2    0    0  0.23235838640E+02  0.14914222879E+02 -0.11624593628E+02  0.29957793951E+02  0.00000000000E+00 0.  1.
         11    1    1    2    0    0  0.80049180154E+02  0.24897308344E+02  0.13429312677E+03  0.15831105806E+03  0.00000000000E+00 0. -1.
</event>
<event>
 7    1  0.2714042E-009  0.9948619E+02  0.7561462E-02  0.1281380E+00
          4   -1    0    0  501    0  0.00000000000E+00  0.00000000000E+00  0.30187098119E+02  0.30187098119E+02  0.00000000000E+00 0. -1.
         -4   -1    0    0    0  501 -0.00000000000E+00 -0.00000000000E+00 -0.51465946347E+03  0.51465946347E+03  0.00000000000E+00 0.  1.
         25    2    1    2    0    0 -0.41958740096E+01 -0.48066846719E+02 -0.35895726955E+03  0.38317712601E+03  0.12508541652E+03 0.  0.
          5    1    3    3  502    0  0.51987573623E+02 -0.50657173158E+02 -0.14923979655E+03  0.16600857290E+03  0.41800000000E+01 0. -1.
         -5    1    3    3    0  502 -0.56183447632E+02  0.25903264389E+01 -0.20971747300E+03  0.21716855311E+03  0.41800000000E+01 0. -1.
        -11    1    1    2    0    0 -0.20776404642E+02  0.72273503933E+01 -0.10874484734E+03  0.11094744435E+03  0.00000000000E+00 0.  1.
         11    1    1    2    0    0  0.24972278652E+02  0.40839496326E+02 -0.16770248468E+02  0.50721991236E+02  0.00000000000E+00 0. -1.
</event>
<event>
 7    1  0.2714042E-009  0.1827421E+03  0.7561462E-02  0.1165175E+00
          2   -1    0    0  501    0  0.00000000000E+00  0.00000000000E+00  0.39801511310E+02  0.39801511310E+02  0.00000000000E+00 0. -1.
         -2   -1    0    0    0  501 -0.00000000000E+00 -0.00000000000E+00 -0.10104065892E+04  0.10104065892E+04  0.00000000000E+00 0.  1.
         25    2    1    2    0    0 -0.64462681973E+02 -0.13438819474E+03 -0.71226484523E+03  0.73836624801E+03  0.12509149532E+03 0.  0.
          5    1    3    3  502    0 -0.30225389248E+01  0.24035552011E+02 -0.94442763973E+02  0.97589710363E+02  0.41800000000E+01 0. -1.
         -5    1    3    3    0  502 -0.61440143048E+02 -0.15842374675E+03 -0.61782208125E+03  0.64077653764E+03  0.41800000000E+01 0. -1.
        -11    1    1    2    0    0  0.13429276560E+02  0.11586151167E+03 -0.20423042162E+03  0.23518992426E+03  0.00000000000E+00 0.  1.
         11    1    1    2    0    0  0.51033405413E+02  0.18526683071E+02 -0.54109811049E+02  0.76651928256E+02  0.00000000000E+00 0. -1.
</event>
<event>
 7    1  0.2714042E-009  0.1246636E+03  0.7561462E-02  0.1235596E+00
          2   -1    0    0  501    0  0.00000000000E+00  0.00000000000E+00  0.44097298617E+02  0.44097298617E+02  0.00000000000E+00 0. -1.
         -2   -1    0    0    0  501 -0.00000000000E+00 -0.00000000000E+00 -0.50291503033E+03  0.50291503033E+03  0.00000000000E+00 0.  1.
         25    2    1    2    0    0  0.18344502698E+02 -0.62965522703E+02 -0.38957656606E+03  0.41439079562E+03  0.12509457560E+03 0.  0.
          5    1    3    3  502    0 -0.21770764763E+02 -0.87269829500E+02 -0.20501164768E+03  0.22391345967E+03  0.41800000000E+01 0.  1.
         -5    1    3    3    0  502  0.40115267461E+02  0.24304306798E+02 -0.18456491838E+03  0.19047733595E+03  0.41800000000E+01 0.  1.
        -11    1    1    2    0    0 -0.53366570166E+02  0.20539694652E+02 -0.26864351001E+02  0.63178819413E+02  0.00000000000E+00 0.  1.
         11    1    1    2    0    0  0.35022067468E+02  0.42425828051E+02 -0.42376814655E+02  0.69442713915E+02  0.00000000000E+00 0. -1.
</event>
<event>
 7    1  0.2714042E-009  0.9923472E+02  0.7561462E-02  0.1281913E+00
          2   -1    0    0  501    0  0.00000000000E+00  0.00000000000E+00  0.84206694299E+03  0.84206694299E+03  0.00000000000E+00 0. -1.
         -2   -1    0    0    0  501 -0.00000000000E+00 -0.00000000000E+00 -0.14692751393E+02  0.14692751393E+02  0.00000000000E+00 0.  1.
         25    2    1    2    0    0  0.44311248277E+02  0.99700467865E+01  0.40942595908E+03  0.43051124985E+03  0.12508969469E+03 0.  0.
          5    1    3    3  502    0  0.77975654937E+02  0.18028941711E+02  0.16305819308E+03  0.18168844826E+03  0.41800000000E+01 0.  1.
         -5    1    3    3    0  502 -0.33664406660E+02 -0.80588949245E+01  0.24636776600E+03  0.24882280158E+03  0.41800000000E+01 0.  1.
        -11    1    1    2    0    0 -0.19567195711E+02 -0.40012007091E+02  0.20662784764E+03  0.21137384720E+03  0.00000000000E+00 0.  1.
         11    1    1    2    0    0 -0.24744052565E+02  0.30041960305E+02  0.21132038487E+03  0.21487459733E+03  0.00000000000E+00 0. -1.
</event>
<event>
 7    1  0.2714042E-009  0.1166850E+03  0.7561462E-02  0.1248668E+00
         -1   -1    0    0    0  501 -0.00000000000E+00  0.00000000000E+00  0.14184028616E+03  0.14184028616E+03  0.00000000000E+00 0.  1.
          1   -1    0    0  501    0  0.00000000000E+00 -0.00000000000E+00 -0.11852569582E+03  0.11852569582E+03  0.00000000000E+00 0. -1.
         25    2    1    2    0    0  0.50375773680E+02  0.44912434904E+02 -0.25530887541E+02  0.14440980341E+03  0.12509004644E+03 0.  0.
          5    1    3    3  502    0  0.90454147886E+02  0.33046876899E+02 -0.32716193494E+02  0.10179327414E+03  0.41800000000E+01 0. -1.
         -5    1    3    3    0  502 -0.40078374206E+02  0.11865558005E+02  0.71853059530E+01  0.42616529274E+02  0.41800000000E+01 0. -1.
        -11    1    1    2    0    0 -0.30934641407E+02  0.13244512581E+02  0.42645484506E+02  0.54323167261E+02  0.00000000000E+00 0.  1.
         11    1    1    2    0    0 -0.19441132272E+02 -0.58156947485E+02  0.61999933727E+01  0.61633011306E+02  0.00000000000E+00 0. -1.
</event>
<event>
 7    1  0.2714042E-009  0.1200525E+03  0.7561462E-02  0.1243010E+00
          2   -1    0    0  501    0  0.00000000000E+00  0.00000000000E+00  0.56895075934E+02  0.56895075934E+02  0.00000000000E+00 0. -1.
         -2   -1    0    0    0  501 -0.00000000000E+00 -0.00000000000E+00 -0.26649913477E+03  0.26649913477E+03  0.00000000000E+00 0.  1.
         25    2    1    2    0    0 -0.54664427982E+02  0.64226817495E+01 -0.14527310854E+03  0.19945114246E+03  0.12508809551E+03 0.  0.
          5    1    3    3  502    0 -0.67046696887E+02  0.53478271445E+02 -0.10823852514E+03  0.13816018169E+03  0.41800000000E+01 0.  1.
         -5    1    3    3    0  502  0.12382268905E+02 -0.47055589696E+02 -0.37034583391E+02  0.61290960767E+02  0.41800000000E+01 0.  1.
        -11    1    1    2    0    0  0.37170917236E+02 -0.47758555432E+02 -0.43048247028E+02  0.74267814545E+02  0.00000000000E+00 0.  1.
         11    1    1    2    0    0  0.17493510747E+02  0.41335873682E+02 -0.21282703272E+02  0.49675253697E+02  0.00000000000E+00 0. -1.
</event>
<event>
 7    1  0.2714042E-009  0.6617008E+02  0.7561462E-02  0.1373623E+00
          1   -1    0    0  501    0  0.00000000000E+00  0.00000000000E+00  0.13312886964E+03  0.13312886964E+03  0.00000000000E+00 0. -1.
         -1   -1    0    0    0  501 -0.00000000000E+00 -0.00000000000E+00 -0.97787747292E+02  0.97787747292E+02  0.00000000000E+00 0.  1.
         25    2    1    2    0    0  0.28574094101E+02  0.18886264101E+02  0.18012823718E+02  0.13093815692E+03  0.12508864575E+03 0.  0.
          5    1    3    3  502    0  0.52935371303E+02  0.34913159103E+02  0.54726994986E+02  0.83866552294E+02  0.41800000000E+01 0. -1.
         -5    1    3    3    0  502 -0.24361277201E+02 -0.16026895002E+02 -0.36714171269E+02  0.47071604628E+02  0.41800000000E+01 0. -1.
        -11    1    1    2    0    0 -0.10572450937E+02 -0.18521600667E+02 -0.37020905181E+02  0.42724393858E+02  0.00000000000E+00 0.  1.
         11    1    1    2    0    0 -0.18001643164E+02 -0.36466343382E+00  0.54349203808E+02  0.57254066149E+02  0.00000000000E+00 0. -1.
</event>
<event>
 7    1  0.2714042E-009  0.1338673E+03  0.7561462E-02  0.1221828E+00
         -3   -1    0    0    0  501 -0.00000000000E+00  0.00000000000E+00  0.47622738764E+03  0.47622738764E+03  0.00000000000E+00 0.  1.
          3   -1    0    0  501    0  0.00000000000E+00 -0.00000000000E+00 -0.46886277312E+02  0.46886277312E+02  0.00000000000E+00 0. -1.
         25    2    1    2    0    0  0.80189621184E+02  0.30596140141E+02  0.13273448909E+03  0.20157537788E+03  0.12509072402E+03 0.  0.
          5    1    3    3  502    0 -0.11966159991E+02 -0.31864113598E+02  0.97885142267E+01  0.35662278826E+02  0.41800000000E+01 0.  1.
         -5    1    3    3    0  502  0.92155781175E+02  0.62460253739E+02  0.12294597487E+03  0.16591309905E+03  0.41800000000E+01 0.  1.
        -11    1    1    2    0    0 -0.11151070461E+02  0.28850035998E+02  0.10343610546E+03  0.10796156197E+03  0.00000000000E+00 0.  1.
         11    1    1    2    0    0 -0.69038550723E+02 -0.59446176140E+02  0.19317051578E+03  0.21357672511E+03  0.00000000000E+00 0. -1.
</event>
<event>
 7    1  0.2714042E-009  0.1929916E+03  0.7561462E-02  0.1155790E+00
         -2   -1    0    0    0  501 -0.00000000000E+00  0.00000000000E+00  0.10211598370E+04  0.10211598370E+04  0.00000000000E+00 0.  1.
          2   -1    0    0  501    0  0.00000000000E+00 -0.00000000000E+00 -0.50067323087E+02  0.50067323087E+02  0.00000000000E+00 0. -1.
         25    2    1    2    0    0 -0.89715696556E+02  0.14751876871E+03  0.27392017209E+03  0.34711316275E+03  0.12507835043E+03 0.  0.
          5    1    3    3  502    0 -0.11393251675E+03  0.13159824925E+03  0.18754053118E+03  0.25590553103E+03  0.41800000000E+01 0. -1.
         -5    1    3    3    0  502  0.24216820191E+02  0.15920519464E+02  0.86379640909E+02  0.91207631719E+02  0.41800000000E+01 0. -1.
        -11    1    1    2    0    0  0.59809983598E+02 -0.42446485780E+02  0.41692378394E+03  0.42332538302E+03  0.00000000000E+00 0. -1.
         11    1    1    2    0    0  0.29905712958E+02 -0.10507228293E+03  0.28024855792E+03  0.30078861435E+03  0.00000000000E+00 0.  1.
</event>
<event>
 7    1  0.2714042E-009  0.9957476E+02  0.7561462E-02  0.1281193E+00
         -1   -1    0    0    0  501 -0.00000000000E+00  0.00000000000E+00  0.80261829736E+02  0.80261829736E+02  0.00000000000E+00 0.  1.
          1   -1    0    0  501    0  0.00000000000E+00 -0.00000000000E+00 -0.24528119027E+03  0.24528119027E+03  0.00000000000E+00 0. -1.
         25    2    1    2    0    0  0.43266540691E+02  0.49288386441E+02 -0.21771536696E+02  0.14290651539E+03  0.12508770423E+03 0.  0.
          5    1    3    3  502    0  0.63021228962E+02  0.23063065876E+02 -0.61551874186E+02  0.91157478702E+02  0.41800000000E+01 0.  1.
         -5    1    3    3    0  502 -0.19754688271E+02  0.26225320565E+02  0.39780337490E+02  0.51749036689E+02  0.41800000000E+01 0.  1.
        -11    1    1    2    0    0 -0.48041430997E+02 -0.65886424753E+02 -0.14385130220E+03  0.16535476166E+03  0.00000000000E+00 0. -1.
         11    1    1    2    0    0  0.47748903060E+01  0.16598038311E+02  0.60347836653E+00  0.17281742949E+02  0.00000000000E+00 0.  1.
</event>
<event>
 7    1  0.2714042E-009  0.1247466E+03  0.7561462E-02  0.1235466E+00
         -1   -1    0    0    0  501 -0.00000000000E+00  0.00000000000E+00  0.37299693816E+02  0.37299693816E+02  0.00000000000E+00 0.  1.
          1   -1    0    0  501    0  0.00000000000E+00 -0.00000000000E+00 -0.56815558676E+03  0.56815558676E+03  0.00000000000E+00 0. -1.
         25    2    1    2    0    0  0.12834634814E+01 -0.89087862418E+02 -0.36425712999E+03  0.39530960671E+03  0.12509250138E+03 0.  0.
          5    1    3    3  502    0 -0.35768956768E+02 -0.16085292751E+02 -0.25949724828E+02  0.47212451004E+02  0.41800000000E+01 0.  1.
         -5    1    3    3    0  502  0.37052420249E+02 -0.73002569667E+02 -0.33830740516E+03  0.34809715571E+03  0.41800000000E+01 0.  1.
        -11    1    1    2    0    0 -0.44751810899E+02  0.26933510032E+02 -0.66770961205E+02  0.84773225735E+02  0.00000000000E+00 0.  1.
         11    1    1    2    0    0  0.43468347418E+02  0.62154352386E+02 -0.99827801749E+02  0.12537244813E+03  0.00000000000E+00 0. -1.
</event>
<event>
 7    1  0.2714042E-009  0.1141318E+03  0.7561462E-02  0.1253104E+00
         -1   -1    0    0    0  501 -0.00000000000E+00  0.00000000000E+00  0.17552252962E+03  0.17552252962E+03  0.00000000000E+00 0.  1.
          1   -1    0    0  501    0  0.00000000000E+00 -0.00000000000E+00 -0.10936734500E+03  0.10936734500E+03  0.00000000000E+00 0. -1.
         25    2    1    2    0    0 -0.22351059632E+02  0.88728447806E+02  0.32260488751E+02  0.15830793369E+03  0.12509338679E+03 0.  0.
          5    1    3    3  502    0  0.35118999411E+02  0.64075232128E+02  0.55090938444E+02  0.91604931038E+02  0.41800000000E+01 0. -1.
         -5    1    3    3    0  502 -0.57470059043E+02  0.24653215679E+02 -0.22830449694E+02  0.66703002653E+02  0.41800000000E+01 0. -1.
        -11    1    1    2    0    0  0.83318136667E+00 -0.27312421232E+02  0.52252259592E+02  0.58965762755E+02  0.00000000000E+00 0.  1.
         11    1    1    2    0    0  0.21517878265E+02 -0.61416026574E+02 -0.18357563724E+02  0.67616178176E+02  0.00000000000E+00 0. -1.
</event>
<event>
 7    1  0.2714042E-009  0.1394776E+03  0.7561462E-02  0.1214034E+00
         -2   -1    0    0    0  501 -0.00000000000E+00  0.00000000000E+00  0.70613428555E+02  0.70613428555E+02  0.00000000000E+00 0.  1.
          2   -1    0    0  501    0  0.00000000000E+00 -0.00000000000E+00 -0.35962012707E+03  0.35962012707E+03  0.00000000000E+00 0. -1.
         25    2    1    2    0    0 -0.39819996307E+02  0.10850069438E+03 -0.16802749890E+03  0.23924698807E+03  0.12509135911E+03 0.  0.
          5    1    3    3  502    0  0.20194839262E+02  0.56176012234E+02 -0.78918380832E+01  0.60359998274E+02  0.41800000000E+01 0. -1.
         -5    1    3    3    0  502 -0.60014835570E+02  0.52324682148E+02 -0.16013566082E+03  0.17888698979E+03  0.41800000000E+01 0. -1.
        -11    1    1    2    0    0  0.60909252983E+02 -0.55748672231E+02 -0.10168692658E+03  0.13098886438E+03  0.00000000000E+00 0. -1.
         11    1    1    2    0    0 -0.21089256676E+02 -0.52752022150E+02 -0.19292273034E+02  0.59997703180E+02  0.00000000000E+00 0.  1.
</event>
<event>
 7    1  0.2714042E-009  0.1345052E+03  0.7561462E-02  0.1220920E+00
          1   -1    0    0  501    0  0.00000000000E+00  0.00000000000E+00  0.32337043398E+03  0.32337043398E+03  0.00000000000E+00 0. -1.
         -1   -1    0    0    0  501 -0.00000000000E+00 -0.00000000000E+00 -0.65989588766E+02  0.65989588766E+02  0.00000000000E+00 0.  1.
         25    2    1    2    0    0 -0.72264296411E+02 -0.58794108765E+02  0.17439434928E+03  0.23396543404E+03  0.12509020545E+03 0.  0.
          5    1    3    3  502    0 -0.69404208179E+02 -0.85649307556E+02  0.17472188141E+03  0.20663483792E+03  0.41800000000E+01 0.  1.
         -5    1    3    3    0  502 -0.28600882324E+01  0.26855198790E+02 -0.32753212814E+00  0.27330596116E+02  0.41800000000E+01 0.  1.
        -11    1    1    2    0    0  0.34721065097E+02 -0.22805651473E+02  0.25084924490E+02  0.48527348343E+02  0.00000000000E+00 0.  1.
         11    1    1    2    0    0  0.37543231315E+02  0.81599760238E+02  0.57901571441E+02  0.10686724037E+03  0.00000000000E+00 0. -1.
</event>
<event>
 7    1  0.2714042E-009  0.1813826E+03  0.7561462E-02  0.1166472E+00
          1   -1    0    0  501    0  0.00000000000E+00  0.00000000000E+00  0.18350207579E+04  0.18350207579E+04  0.00000000000E+00 0. -1.
         -1   -1    0    0    0  501 -0.00000000000E+00 -0.00000000000E+00 -0.20371255427E+02  0.20371255427E+02  0.00000000000E+00 0.  1.
         25    2    1    2    0    0 -0.43837778194E+02  0.15457645588E+03  0.85698071257E+03  0.88083990460E+03  0.12508942529E+03 0.  0.
          5    1    3    3  502    0 -0.70500994531E+02  0.10830174792E+03  0.75143732861E+03  0.76247963255E+03  0.41800000000E+01 0. -1.
         -5    1    3    3    0  502  0.26663216337E+02  0.46274707961E+02  0.10554338396E+03  0.11836027205E+03  0.41800000000E+01 0. -1.
        -11    1    1    2    0    0  0.18831702367E+02 -0.15373094075E+03  0.85186845785E+03  0.86583353171E+03  0.00000000000E+00 0.  1.
         11    1    1    2    0    0  0.25006075827E+02 -0.84551513069E+00  0.10580033205E+03  0.10871857701E+03  0.00000000000E+00 0. -1.
</event>
<event>
 7    1  0.2714042E-009  0.1314344E+03  0.7561462E-02  0.1225343E+00
         -2   -1    0    0    0  501 -0.00000000000E+00  0.00000000000E+00  0.45725136488E+02  0.45725136488E+02  0.00000000000E+00 0. -1.
          2   -1    0    0  501    0  0.00000000000E+00 -0.00000000000E+00 -0.43578834411E+03  0.43578834411E+03  0.00000000000E+00 0.  1.
         25    2    1    2    0    0  0.20990992490E+02 -0.83538145538E+02 -0.21054665640E+03  0.25960877165E+03  0.12509027249E+03 0.  0.
          5    1    3    3  502    0  0.41647532944E+01  0.33225308722E+02 -0.50568419565E+02  0.60793945151E+02  0.41800000000E+01 0. -1.
         -5    1    3    3    0  502  0.16826239196E+02 -0.11676345426E+03 -0.15997823683E+03  0.19881482650E+03  0.41800000000E+01 0. -1.
        -11    1    1    2    0    0 -0.44295079404E+02  0.73259916922E+02 -0.17661487401E+03  0.19626992436E+03  0.00000000000E+00 0.  1.
         11    1    1    2    0    0  0.23304086914E+02  0.10278228617E+02 -0.29016772210E+01  0.25634784592E+02  0.00000000000E+00 0. -1.
</event>
<event>
 7    1  0.2714042E-009  0.8458548E+02  0.7561462E-02  0.1316520E+00
          1   -1    0    0  501    0  0.00000000000E+00  0.00000000000E+00  0.46798573020E+03  0.46798573020E+03  0.00000000000E+00 0. -1.
         -1   -1    0    0    0  501 -0.00000000000E+00 -0.00000000000E+00 -0.28759732223E+02  0.28759732223E+02  0.00000000000E+00 0.  1.
         25    2    1    2    0    0 -0.23827779915E+02 -0.24664031085E+02  0.19796396927E+03  0.23666997664E+03  0.12508743818E+03 0.  0.
          5    1    3    3  502    0 -0.24374133316E+02  0.17589344455E+02 -0.37108319060E+01  0.30573290413E+02  0.41800000000E+01 0.  1.
         -5    1    3    3    0  502  0.54635340164E+00 -0.42253375540E+02  0.20167480117E+03  0.20609668623E+03  0.41800000000E+01 0.  1.
        -11    1    1    2    0    0 -0.27325811600E+02  0.34765395458E+02  0.12702176840E+03  0.13449855891E+03  0.00000000000E+00 0.  1.
         11    1    1    2    0    0  0.51153591514E+02 -0.10101364373E+02  0.11424026032E+03  0.12557692688E+03  0.00000000000E+00 0. -1.
</event>
<event>
 7    1  0.2714042E-009  0.9968500E+02  0.7561462E-02  0.1280960E+00
         -1   -1    0    0    0  501 -0.00000000000E+00  0.00000000000E+00  0.20793424319E+02  0.20793424319E+02  0.00000000000E+00 0.  1.
          1   -1    0    0  501    0  0.00000000000E+00 -0.00000000000E+00 -0.60190306504E+03  0.60190306504E+03  0.00000000000E+00 0. -1.
         25    2    1    2    0    0 -0.15148567966E+02 -0.33685397442E+01 -0.39714236138E+03  0.41666558020E+03  0.12508926552E+03 0.  0.
          5    1    3    3  502    0  0.42068188965E+02  0.34680543357E+02 -0.13546215041E+03  0.14608196057E+03  0.41800000000E+01 0. -1.
         -5    1    3    3    0  502 -0.57216756931E+02 -0.38049083101E+02 -0.26168021097E+03  0.27058361963E+03  0.41800000000E+01 0. -1.
        -11    1    1    2    0    0 -0.27308581420E+02 -0.13127882176E+02 -0.21122786316E+02  0.36936053002E+02  0.00000000000E+00 0.  1.
         11    1    1    2    0    0  0.42457149386E+02  0.16496421920E+02 -0.16284449303E+03  0.16909485616E+03  0.00000000000E+00 0. -1.
</event>
<event>
 7    1  0.2714042E-009  0.1289450E+03  0.7561462E-02  0.1229030E+00
          1   -1    0    0  501    0  0.00000000000E+00  0.00000000000E+00  0.12520643750E+04  0.12520643750E+04  0.00000000000E+00 0. -1.
         -1   -1    0    0    0  501 -0.00000000000E+00 -0.00000000000E+00 -0.30973958303E+02  0.30973958303E+02  0.00000000000E+00 0.  1.
         25    2    1    2    0    0 -0.53746113235E+02 -0.10194634377E+03  0.10159323952E+04  0.10300717885E+04  0.12509019202E+03 0.  0.
          5    1    3    3  502    0 -0.49855562042E+01 -0.11532807603E+02  0.53628556097E+01  0.14286148612E+02  0.41800000000E+01 0. -1.
         -5    1    3    3    0  502 -0.48760557030E+02 -0.90413536170E+02  0.10105695396E+04  0.10157856399E+04  0.41800000000E+01 0. -1.
        -11    1    1    2    0    0 -0.68268612454E+01  0.75394232264E+02  0.14495398398E+03  0.16353150695E+03  0.00000000000E+00 0. -1.
         11    1    1    2    0    0  0.60572974480E+02  0.26552111510E+02  0.60204037503E+02  0.89435037846E+02  0.00000000000E+00 0.  1.
</event>
<event>
 7    1  0.2714042E-009  0.1458794E+03  0.7561462E-02  0.1205630E+00
          1   -1    0    0  501    0  0.00000000000E+00  0.00000000000E+00  0.93010322452E+03  0.93010322452E+03  0.00000000000E+00 0. -1.
         -1   -1    0    0    0  501 -0.00000000000E+00 -0.00000000000E+00 -0.31263102338E+02  0.31263102338E+02  0.00000000000E+00 0.  1.
         25    2    1    2    0    0  0.93594349871E+02 -0.90474253700E+02  0.48556866985E+03  0.51804884305E+03  0.12510866369E+03 0.  0.
          5    1    3    3  502    0  0.43674945301E+02 -0.70387288409E+02  0.43899190207E+03  0.44675858548E+03  0.41800000000E+01 0. -1.
         -5    1    3    3    0  502  0.49919404569E+02 -0.20086965292E+02  0.46576767785E+02  0.71290257571E+02  0.41800000000E+01 0. -1.
        -11    1    1    2    0    0 -0.10953178186E+03  0.81756712097E+02  0.39304044098E+03  0.41612757594E+03  0.00000000000E+00 0. -1.
         11    1    1    2    0    0  0.15937431985E+02  0.87175416031E+01  0.20231011347E+02  0.27189907870E+02  0.00000000000E+00 0.  1.
</event>
<event>
 7    1  0.2714042E-009  0.8918803E+02  0.7561462E-02  0.1304830E+00
         -1   -1    0    0    0  501 -0.00000000000E+00  0.00000000000E+00  0.17173345097E+02  0.17173345097E+02  0.00000000000E+00 0.  1.
          1   -1    0    0  501    0  0.00000000000E+00 -0.00000000000E+00 -0.69392278946E+03  0.69392278946E+03  0.00000000000E+00 0. -1.
         25    2    1    2    0    0  0.16705731772E+02 -0.95490646736E+00 -0.33245256136E+03  0.35559669887E+03  0.12507722962E+03 0.  0.
          5    1    3    3  502    0  0.62091245000E+01 -0.45477772821E+02 -0.44715495272E+02  0.64216267139E+02  0.41800000000E+01 0.  1.
         -5    1    3    3    0  502  0.10496607272E+02  0.44522866354E+02 -0.28773706609E+03  0.29138043173E+03  0.41800000000E+01 0.  1.
        -11    1    1    2    0    0 -0.24605312381E+02  0.39756573469E+02 -0.14657182064E+03  0.15384831861E+03  0.00000000000E+00 0. -1.
         11    1    1    2    0    0  0.78995806087E+01 -0.38801667002E+02 -0.19772506235E+03  0.20165111708E+03  0.00000000000E+00 0.  1.
</event>
<event>
 7    1  0.2714042E-009  0.9401525E+02  0.7561462E-02  0.1293410E+00
         -1   -1    0    0    0  501 -0.00000000000E+00  0.00000000000E+00  0.85083840332E+02  0.85083840332E+02  0.00000000000E+00 0.  1.
          1   -1    0    0  501    0  0.00000000000E+00 -0.00000000000E+00 -0.22612032007E+03  0.22612032007E+03  0.00000000000E+00 0. -1.
         25    2    1    2    0    0  0.50921367086E+02  0.44954255865E+02 -0.19496518973E+02  0.14366830651E+03  0.12508635935E+03 0.  0.
          5    1    3    3  502    0  0.50171100839E+02  0.52451184578E+02 -0.64898855482E+02  0.97455630755E+02  0.41800000000E+01 0. -1.
         -5    1    3    3    0  502  0.75026624701E+00 -0.74969287127E+01  0.45402336509E+02  0.46212675751E+02  0.41800000000E+01 0. -1.
        -11    1    1    2    0    0 -0.54857548690E+02  0.63790559221E+01 -0.94319660229E+02  0.10929886234E+03  0.00000000000E+00 0. -1.
         11    1    1    2    0    0  0.39361816036E+01 -0.51333311787E+02 -0.27220300541E+02  0.58236991562E+02  0.00000000000E+00 0.  1.
</event>
<event>
 7    1  0.2714042E-009  0.1342489E+03  0.7561462E-02  0.1221284E+00
          3   -1    0    0  501    0  0.00000000000E+00  0.00000000000E+00  0.26406910631E+03  0.26406910631E+03  0.00000000000E+00 0. -1.
         -3   -1    0    0    0  501 -0.00000000000E+00 -0.00000000000E+00 -0.86448219062E+02  0.86448219062E+02  0.00000000000E+00 0.  1.
         25    2    1    2    0    0  0.27135643831E+02  0.99567681480E+02  0.12362459191E+03  0.20391860184E+03  0.12509872137E+03 0.  0.
          5    1    3    3  502    0  0.25430732937E+02 -0.25845971379E+02  0.23939701974E+02  0.43649950112E+02  0.41800000000E+01 0. -1.
         -5    1    3    3    0  502  0.17049108941E+01  0.12541365286E+03  0.99684889934E+02  0.16026865172E+03  0.41800000000E+01 0. -1.
        -11    1    1    2    0    0  0.14279848398E+01 -0.44010601269E+02 -0.21173119535E+02  0.48859729386E+02  0.00000000000E+00 0.  1.
         11    1    1    2    0    0 -0.28563628671E+02 -0.55557080210E+02  0.75169414872E+02  0.97738994145E+02  0.00000000000E+00 0. -1.
</event>
<event>
 7    1  0.2714042E-009  0.1303988E+03  0.7561462E-02  0.1226865E+00
          2   -1    0    0  501    0  0.00000000000E+00  0.00000000000E+00  0.79291858614E+03  0.79291858614E+03  0.00000000000E+00 0. -1.
         -2   -1    0    0    0  501 -0.00000000000E+00 -0.00000000000E+00 -0.25334427116E+02  0.25334427116E+02  0.00000000000E+00 0.  1.
         25    2    1    2    0    0 -0.87123400264E+02 -0.35340610668E+02  0.45364595930E+03  0.47987581863E+03  0.12508676701E+03 0.  0.
          5    1    3    3  502    0 -0.36836141293E+01 -0.49496123590E+02  0.63869371371E+02  0.80995087893E+02  0.41800000000E+01 0. -1.
         -5    1    3    3    0  502 -0.83439786135E+02  0.14155512922E+02  0.38977658793E+03  0.39888073073E+03  0.41800000000E+01 0. -1.
        -11    1    1    2    0    0 -0.16361600198E+02  0.11667557372E+02  0.51337494243E+02  0.55130501279E+02  0.00000000000E+00 0.  1.
         11    1    1    2    0    0  0.10348500046E+03  0.23673053296E+02  0.26260070549E+03  0.28324669335E+03  0.00000000000E+00 0. -1.
</event>
<event>
 7    1  0.2714042E-009  0.1282582E+03  0.7561462E-02  0.1230063E+00
          2   -1    0    0  501    0  0.00000000000E+00  0.00000000000E+00  0.15481000356E+03  0.15481000356E+03  0.00000000000E+00 0. -1.
         -2   -1    0    0    0  501 -0.00000000000E+00 -0.00000000000E+00 -0.19087908886E+03  0.19087908886E+03  0.00000000000E+00 0.  1.
         25    2    1    2    0    0  0.11753597934E+03  0.10808121533E+01 -0.82025993463E+02  0.19023369231E+03  0.12507885309E+03 0.  0.
          5    1    3    3  502    0  0.68743525539E+02  0.25119721248E+01 -0.11293818645E+03  0.13230453003E+03  0.41800000000E+01 0.  1.
         -5    1    3    3    0  502  0.48792453803E+02 -0.14311599715E+01  0.30912192987E+02  0.57929162278E+02  0.41800000000E+01 0.  1.
        -11    1    1    2    0    0 -0.88797131298E+02  0.32364578216E+02  0.56505236789E+02  0.11011465949E+03  0.00000000000E+00 0.  1.
         11    1    1    2    0    0 -0.28738848044E+02 -0.33445390370E+02 -0.10548328621E+02  0.45340740627E+02  0.00000000000E+00 0. -1.
</event>
<event>
 7    1  0.2714042E-009  0.1660194E+03  0.7561462E-02  0.1182064E+00
          2   -1    0    0  501    0  0.00000000000E+00  0.00000000000E+00  0.12768531389E+03  0.12768531389E+03  0.00000000000E+00 0. -1.
         -2   -1    0    0    0  501 -0.00000000000E+00 -0.00000000000E+00 -0.24603860558E+03  0.24603860558E+03  0.00000000000E+00 0.  1.
         25    2    1    2    0    0  0.11113355042E+03 -0.77770456198E+02 -0.28382783424E+02  0.18668704246E+03  0.12509020562E+03 0.  0.
          5    1    3    3  502    0  0.44869642561E+02 -0.93921849555E+02  0.15728674955E+02  0.10535398551E+03  0.41800000000E+01 0. -1.
         -5    1    3    3    0  502  0.66263907859E+02  0.16151393357E+02 -0.44111458379E+02  0.81333056948E+02  0.41800000000E+01 0. -1.
        -11    1    1    2    0    0  0.52122143461E+01  0.35293629980E+02 -0.32211034039E+01  0.35821543835E+02  0.00000000000E+00 0. -1.
         11    1    1    2    0    0 -0.11634576477E+03  0.42476826217E+02 -0.86749404864E+02  0.15121533318E+03  0.00000000000E+00 0.  1.
</event>
<event>
 7    1  0.2714042E-009  0.1502839E+03  0.7561462E-02  0.1200125E+00
          2   -1    0    0  501    0  0.00000000000E+00  0.00000000000E+00  0.83398095111E+03  0.83398095111E+03  0.00000000000E+00 0. -1.
         -2   -1    0    0    0  501 -0.00000000000E+00 -0.00000000000E+00 -0.28310255332E+02  0.28310255332E+02  0.00000000000E+00 0.  1.
         25    2    1    2    0    0  0.65400480669E+02 -0.85892613555E+02  0.46394133064E+03  0.49248792163E+03  0.12509208905E+03 0.  0.
          5    1    3    3  502    0  0.77919417225E+00  0.30395662831E+02  0.63984671524E+02  0.70964879008E+02  0.41800000000E+01 0.  1.
         -5    1    3    3    0  502  0.64621286497E+02 -0.11628827639E+03  0.39995665912E+03  0.42152304263E+03  0.41800000000E+01 0.  1.
        -11    1    1    2    0    0 -0.21163933448E+02 -0.15445602047E+02  0.10953865628E+03  0.11262857507E+03  0.00000000000E+00 0. -1.
         11    1    1    2    0    0 -0.44236547221E+02  0.10133821560E+03  0.23219070886E+03  0.25717470974E+03  0.00000000000E+00 0.  1.
</event>
<event>
 7    1  0.2714042E-009  0.9358962E+02  0.7561462E-02  0.1294385E+00
          1   -1    0    0  501    0  0.00000000000E+00  0.00000000000E+00  0.10456935292E+03  0.10456935292E+03  0.00000000000E+00 0. -1.
         -1   -1    0    0    0  501 -0.00000000000E+00 -0.00000000000E+00 -0.12055133161E+03  0.12055133161E+03  0.00000000000E+00 0.  1.
         25    2    1    2    0    0  0.32731928453E+02 -0.24711974080E+02 -0.17356434142E+02  0.13277275006E+03  0.12508115985E+03 0.  0.
          5    1    3    3  502    0 -0.28546080412E+02  0.34717581989E+02  0.18401522433E+01  0.45177956642E+02  0.41800000000E+01 0.  1.
         -5    1    3    3    0  502  0.61278008865E+02 -0.59429556069E+02 -0.19196586386E+02  0.87594793418E+02  0.41800000000E+01 0.  1.
        -11    1    1    2    0    0 -0.28318476083E+02 -0.30321795397E+01  0.37181440212E+02  0.46835773685E+02  0.00000000000E+00 0. -1.
         11    1    1    2    0    0 -0.44134523706E+01  0.27744153619E+02 -0.35806984763E+02  0.45512160789E+02  0.00000000000E+00 0.  1.
</event>
<event>
 7    1  0.2714042E-009  0.1001516E+03  0.7561462E-02  0.1279977E+00
          4   -1    0    0  501    0  0.00000000000E+00  0.00000000000E+00  0.52855938423E+02  0.52855938423E+02  0.00000000000E+00 0. -1.
         -4   -1    0    0    0  501 -0.00000000000E+00 -0.00000000000E+00 -0.31309932492E+03  0.31309932492E+03  0.00000000000E+00 0.  1.
         25    2    1    2    0    0  0.40656634739E+02 -0.40769885446E+00 -0.22464614057E+03  0.26031748423E+03  0.12508467515E+03 0.  0.
          5    1    3    3  502    0  0.56381263043E+01  0.43777454275E+02 -0.21165898048E+02  0.49129640862E+02  0.41800000000E+01 0.  1.
         -5    1    3    3    0  502  0.35018508435E+02 -0.44185153130E+02 -0.20348024252E+03  0.21118784337E+03  0.41800000000E+01 0.  1.
        -11    1    1    2    0    0 -0.29583302791E+02 -0.44357898634E+02 -0.17866126198E+02  0.56231605353E+02  0.00000000000E+00 0.  1.
         11    1    1    2    0    0 -0.11073331948E+02  0.44765597489E+02 -0.17731119733E+02  0.49406173763E+02  0.00000000000E+00 0. -1.
</event>
<event>
 7    1  0.2714042E-009  0.1114005E+03  0.7561462E-02  0.1257998E+00
          2   -1    0    0  501    0  0.00000000000E+00  0.00000000000E+00  0.64933131309E+02  0.64933131309E+02  0.00000000000E+00 0. -1.
         -2   -1    0    0    0  501 -0.00000000000E+00 -0.00000000000E+00 -0.20364095875E+03  0.20364095875E+03  0.00000000000E+00 0.  1.
         25    2    1    2    0    0  0.19677138533E+02 -0.27614501252E+02 -0.55857616276E+02  0.14111216180E+03  0.12507125349E+03 0.  0.
          5    1    3    3  502    0  0.95521656084E+00  0.47870848254E+02 -0.55244402736E+01  0.48378945746E+02  0.41800000000E+01 0.  1.
         -5    1    3    3    0  502  0.18721921972E+02 -0.75485349506E+02 -0.50333176002E+02  0.92733216049E+02  0.41800000000E+01 0.  1.
        -11    1    1    2    0    0 -0.43387447947E+02 -0.16784189274E+02 -0.38933712853E+02  0.60663116022E+02  0.00000000000E+00 0.  1.
         11    1    1    2    0    0  0.23710309414E+02  0.44398690526E+02 -0.43916498314E+02  0.66798812243E+02  0.00000000000E+00 0. -1.
</event>
<event>
 7    1  0.2714042E-009  0.1255155E+03  0.7561462E-02  0.1234266E+00
          2   -1    0    0  501    0  0.00000000000E+00  0.00000000000E+00  0.92283944913E+03  0.92283944913E+03  0.00000000000E+00 0. -1.
         -2   -1    0    0    0  501 -0.00000000000E+00 -0.00000000000E+00 -0.29325964849E+02  0.29325964849E+02  0.00000000000E+00 0.  1.
         25    2    1    2    0    0 -0.16892631656E+02  0.11251920745E+03  0.29615923021E+03  0.34103298143E+03  0.12508905520E+03 0.  0.
          5    1    3    3  502    0 -0.33005607379E+02  0.43865485746E+02  0.25150452220E+03  0.25745979890E+03  0.41800000000E+01 0. -1.
         -5    1    3    3    0  502  0.16112975723E+02  0.68653721709E+02  0.44654708006E+02  0.83573182530E+02  0.41800000000E+01 0. -1.
        -11    1    1    2    0    0  0.29480724419E+02 -0.30743284519E+02  0.13933875460E+03  0.14570364164E+03  0.00000000000E+00 0.  1.
         11    1    1    2    0    0 -0.12588092762E+02 -0.81775922936E+02  0.45801549948E+03  0.46542879091E+03  0.00000000000E+00 0. -1.
</event>
<event>
 7    1  0.2714042E-009  0.1742639E+03  0.7561462E-02  0.1173473E+00
          2   -1    0    0  501    0  0.00000000000E+00  0.00000000000E+00  0.12079414357E+04  0.12079414357E+04  0.00000000000E+00 0. -1.
         -2   -1    0    0    0  501 -0.00000000000E+00 -0.00000000000E+00 -0.69752717891E+02  0.69752717891E+02  0.00000000000E+00 0.  1.
         25    2    1    2    0    0 -0.59970142049E+01 -0.16044168911E+03  0.10662728961E+03  0.22976674840E+03  0.12508349210E+03 0.  0.
          5    1    3    3  502    0  0.15260851585E+02 -0.76096578026E+02  0.11866705744E+03  0.14185529845E+03  0.41800000000E+01 0.  1.
         -5    1    3    3    0  502 -0.21257865790E+02 -0.84345111088E+02 -0.12039767825E+02  0.87911449946E+02  0.41800000000E+01 0.  1.
        -11    1    1    2    0    0 -0.39888596556E+02  0.48874554424E+02  0.31041794973E+03  0.31676351703E+03  0.00000000000E+00 0.  1.
         11    1    1    2    0    0  0.45885610761E+02  0.11156713469E+03  0.72114347843E+03  0.73116388812E+03  0.00000000000E+00 0. -1.
</event>
<event>
 7    1  0.2714042E-009  0.4266486E+03  0.7561462E-02  0.1034924E+00
          2   -1    0    0  501    0  0.00000000000E+00  0.00000000000E+00  0.17118109325E+04  0.17118109325E+04  0.00000000000E+00 0. -1.
         -2   -1    0    0    0  501 -0.00000000000E+00 -0.00000000000E+00 -0.12398036732E+03  0.12398036732E+03  0.00000000000E+00 0.  1.
         25    2    1    2    0    0  0.78949388396E+02 -0.41707078671E+03  0.51835279841E+03  0.68155610091E+03  0.12509215808E+03 0.  0.
          5    1    3    3  502    0  0.25339016054E+02 -0.11135966367E+03  0.23480409347E+03  0.26113880435E+03  0.41800000000E+01 0. -1.
         -5    1    3    3    0  502  0.53610372342E+02 -0.30571112304E+03  0.28354870494E+03  0.42041729656E+03  0.41800000000E+01 0. -1.
        -11    1    1    2    0    0 -0.25280095459E+01  0.16936191138E+03  0.33566098883E+03  0.37597625894E+03  0.00000000000E+00 0.  1.
         11    1    1    2    0    0 -0.76421378850E+02  0.24770887533E+03  0.73381677795E+03  0.77825893998E+03  0.00000000000E+00 0. -1.
</event>
<event>
 7    1  0.2714042E-009  0.1153024E+03  0.7561462E-02  0.1251054E+00
          1   -1    0    0  501    0  0.00000000000E+00  0.00000000000E+00  0.66457227297E+03  0.66457227297E+03  0.00000000000E+00 0. -1.
         -1   -1    0    0    0  501 -0.00000000000E+00 -0.00000000000E+00 -0.34954318335E+02  0.34954318335E+02  0.00000000000E+00 0.  1.
         25    2    1    2    0    0  0.88220524545E+02 -0.43900214403E+02  0.42886620313E+03  0.45747103401E+03  0.12507372621E+03 0.  0.
          5    1    3    3  502    0  0.49081402107E+01 -0.45188736043E+02  0.30330502236E+03  0.30672059060E+03  0.41800000000E+01 0. -1.
         -5    1    3    3    0  502  0.83312384334E+02  0.12885216403E+01  0.12556118077E+03  0.15075044341E+03  0.41800000000E+01 0. -1.
        -11    1    1    2    0    0 -0.39633525520E+02  0.33382706073E+02  0.18148877233E+03  0.18874161145E+03  0.00000000000E+00 0. -1.
         11    1    1    2    0    0 -0.48586999024E+02  0.10517508330E+02  0.19262979170E+02  0.53313945851E+02  0.00000000000E+00 0.  1.
</event>
<event>
 7    1  0.2714042E-009  0.4070758E+03  0.7561462E-02  0.1041357E+00
         -2   -1    0    0    0  501 -0.00000000000E+00  0.00000000000E+00  0.68710724920E+03  0.68710724920E+03  0.00000000000E+00 0. -1.
          2   -1    0    0  501    0  0.00000000000E+00 -0.00000000000E+00 -0.48122589137E+03  0.48122589137E+03  0.00000000000E+00 0.  1.
         25    2    1    2    0    0 -0.38879019234E+03 -0.10196229528E+03  0.50649877355E+03  0.65859101936E+03  0.12508796846E+03 0.  0.
          5    1    3    3  502    0 -0.15161717248E+02  0.30475848369E+00 -0.53983051939E+01  0.16630834213E+02  0.41800000000E+01 0. -1.
         -5    1    3    3    0  502 -0.37362847509E+03 -0.10226705377E+03  0.51189707874E+03  0.64196018515E+03  0.41800000000E+01 0. -1.
        -11    1    1    2    0    0  0.12487824364E+03  0.75174168364E+02 -0.93192929863E+02  0.17300477883E+03  0.00000000000E+00 0.  1.
         11    1    1    2    0    0  0.26391194871E+03  0.26788126920E+02 -0.20742448586E+03  0.33673734237E+03  0.00000000000E+00 0. -1.
</event>
<event>
 7    1  0.2714042E-009  0.1104858E+03  0.7561462E-02  0.1259673E+00
         -1   -1    0    0    0  501 -0.00000000000E+00  0.00000000000E+00  0.12707844451E+03  0.12707844451E+03  0.00000000000E+00 0.  1.
          1   -1    0    0  501    0  0.00000000000E+00 -0.00000000000E+00 -0.13896985528E+03  0.13896985528E+03  0.00000000000E+00 0. -1.
         25    2    1    2    0    0  0.64235811336E+02 -0.11664510203E+02  0.24365976804E+02  0.14319149429E+03  0.12509117857E+03 0.  0.
          5    1    3    3  502    0  0.66000247644E+02  0.23406573500E+02  0.60496513322E+02  0.92634771529E+02  0.41800000000E+01 0. -1.
         -5    1    3    3    0  502 -0.17644363078E+01 -0.35071083703E+02 -0.36130536518E+02  0.50556722765E+02  0.41800000000E+01 0. -1.
        -11    1    1    2    0    0  0.11539390032E+02 -0.27742138972E+02 -0.19498761286E+02  0.35818786813E+02  0.00000000000E+00 0.  1.
         11    1    1    2    0    0 -0.75775201368E+02  0.39406649175E+02 -0.16758626279E+02  0.87038018684E+02  0.00000000000E+00 0. -1.
</event>
<event>
 7    1  0.2714042E-009  0.2616394E+03  0.7561462E-02  0.1106162E+00
          3   -1    0    0  501    0  0.00000000000E+00  0.00000000000E+00  0.20834805752E+03  0.20834805752E+03  0.00000000000E+00 0. -1.
         -3   -1    0    0    0  501 -0.00000000000E+00 -0.00000000000E+00 -0.39154127202E+03  0.39154127202E+03  0.00000000000E+00 0.  1.
         25    2    1    2    0    0 -0.23953056957E+03  0.55269245636E+02  0.72934661399E+01  0.27591557041E+03  0.12508646640E+03 0.  0.
          5    1    3    3  502    0 -0.82059656272E+01 -0.27232655852E+02  0.94904304699E+01  0.30273686382E+02  0.41800000000E+01 0.  1.
         -5    1    3    3    0  502 -0.23132460394E+03  0.82501901488E+02 -0.21969643301E+01  0.24564188403E+03  0.41800000000E+01 0.  1.
        -11    1    1    2    0    0  0.10949159682E+03 -0.53966092783E+01 -0.34650072998E+02  0.11497026017E+03  0.00000000000E+00 0. -1.
         11    1    1    2    0    0  0.13003897275E+03 -0.49872636357E+02 -0.15583660764E+03  0.20900349895E+03  0.00000000000E+00 0.  1.
</event>
<event>
 7    1  0.2714042E-009  0.1513452E+03  0.7561462E-02  0.1198830E+00
         -2   -1    0    0    0  501 -0.00000000000E+00  0.00000000000E+00  0.83927947086E+02  0.83927947086E+02  0.00000000000E+00 0.  1.
          2   -1    0    0  501    0  0.00000000000E+00 -0.00000000000E+00 -0.30403729966E+03  0.30403729966E+03  0.00000000000E+00 0. -1.
         25    2    1    2    0    0  0.84740418104E+01  0.10960319330E+03 -0.71374189623E+02  0.18118014090E+03  0.12508916478E+03 0.  0.
          5    1    3    3  502    0 -0.22433372634E+02  0.12336628308E+03 -0.32749811839E+02  0.12966309647E+03  0.41800000000E+01 0. -1.
         -5    1    3    3    0  502  0.30907414445E+02 -0.13763089782E+02 -0.38624377783E+02  0.51517044433E+02  0.41800000000E+01 0. -1.
        -11    1    1    2    0    0 -0.45545448490E+02 -0.90779342492E+02 -0.97336879055E+02  0.14067602826E+03  0.00000000000E+00 0. -1.
         11    1    1    2    0    0  0.37071406680E+02 -0.18823850810E+02 -0.51398283896E+02  0.66109077592E+02  0.00000000000E+00 0.  1.
</event>
<event>
 7    1  0.2714042E-009  0.1371888E+03  0.7561462E-02  0.1217162E+00
          2   -1    0    0  501    0  0.00000000000E+00  0.00000000000E+00  0.79786614757E+03  0.79786614757E+03  0.00000000000E+00 0. -1.
         -2   -1    0    0    0  501 -0.00000000000E+00 -0.00000000000E+00 -0.26035942275E+02  0.26035942275E+02  0.00000000000E+00 0.  1.
         25    2    1    2    0    0 -0.64114688823E+02 -0.66954782190E+02  0.47917455417E+03  0.50383416079E+03  0.12508785723E+03 0.  0.
          5    1    3    3  502    0 -0.37432854388E+02  0.31844008646E+02  0.10695719212E+03  0.11778188664E+03  0.41800000000E+01 0.  1.
         -5    1    3    3    0  502 -0.26681834435E+02 -0.98798790836E+02  0.37221736206E+03  0.38605227415E+03  0.41800000000E+01 0.  1.
        -11    1    1    2    0    0  0.43204333828E+02 -0.87588285442E+01  0.59600620013E+02  0.74132081078E+02  0.00000000000E+00 0.  1.
         11    1    1    2    0    0  0.20910354994E+02  0.75713610734E+02  0.23305503111E+03  0.24593584798E+03  0.00000000000E+00 0. -1.
</event>
<event>
 7    1  0.2714042E-009  0.1248826E+03  0.7561462E-02  0.1235253E+00
          3   -1    0    0  501    0  0.00000000000E+00  0.00000000000E+00  0.20617651718E+02  0.20617651718E+02  0.00000000000E+00 0. -1.
         -3   -1    0    0    0  501 -0.00000000000E+00 -0.00000000000E+00 -0.86834764484E+03  0.86834764484E+03  0.00000000000E+00 0.  1.
         25    2    1    2    0    0 -0.77020153528E+02 -0.59675405082E+01 -0.51030185662E+03  0.53105855194E+03  0.12508990820E+03 0.  0.
          5    1    3    3  502    0 -0.40535628754E+02  0.49812463645E+02 -0.37141544044E+03  0.37695002392E+03  0.41800000000E+01 0. -1.
         -5    1    3    3    0  502 -0.36484524774E+02 -0.55780004154E+02 -0.13888641618E+03  0.15410852802E+03  0.41800000000E+01 0. -1.
        -11    1    1    2    0    0 -0.17052777923E+02 -0.14461112045E+02 -0.80087425170E+02  0.83149964924E+02  0.00000000000E+00 0.  1.
         11    1    1    2    0    0  0.94072931451E+02  0.20428652554E+02 -0.25734071134E+03  0.27475677969E+03  0.00000000000E+00 0. -1.
</event>
<event>
 7    1  0.2714042E-009  0.1338069E+03  0.7561462E-02  0.1221914E+00
          2   -1    0    0  501    0  0.00000000000E+00  0.00000000000E+00  0.84857162108E+03  0.84857162108E+03  0.00000000000E+00 0. -1.
         -2   -1    0    0    0  501 -0.00000000000E+00 -0.00000000000E+00 -0.27896815868E+02  0.27896815868E+02  0.00000000000E+00 0.  1.
         25    2    1    2    0    0 -0.23216583296E+02  0.76125501548E+02  0.63447430485E+03  0.65156695505E+03  0.12509097359E+03 0.  0.
          5    1    3    3  502    0 -0.63700920670E+02  0.84973014627E+02  0.47481357772E+03  0.48656307555E+03  0.41800000000E+01 0. -1.
         -5    1    3    3    0  502  0.40484337375E+02 -0.88475130789E+01  0.15966072713E+03  0.16500387949E+03  0.41800000000E+01 0. -1.
        -11    1    1    2    0    0  0.57465777341E+02 -0.54354554517E+02  0.15388476841E+03  0.17302385705E+03  0.00000000000E+00 0. -1.
         11    1    1    2    0    0 -0.34249194045E+02 -0.21770947031E+02  0.32315731954E+02  0.51877624841E+02  0.00000000000E+00 0.  1.
</event>
<event>
 7    1  0.2714042E-009  0.2467943E+03  0.7561462E-02  0.1115348E+00
         -1   -1    0    0    0  501 -0.00000000000E+00  0.00000000000E+00  0.29119274280E+03  0.29119274280E+03  0.00000000000E+00 0.  1.
          1   -1    0    0  501    0  0.00000000000E+00 -0.00000000000E+00 -0.29122698548E+03  0.29122698548E+03  0.00000000000E+00 0. -1.
         25    2    1    2    0    0  0.22253427181E+03 -0.21984727763E+02  0.15137094109E+03  0.29760096873E+03  0.12509334273E+03 0.  0.
          5    1    3    3  502    0  0.14495126243E+03 -0.70001027276E+02  0.71165960142E+02  0.17604851201E+03  0.41800000000E+01 0.  1.
         -5    1    3    3    0  502  0.77583009380E+02  0.48016299513E+02  0.80204980952E+02  0.12155245671E+03  0.41800000000E+01 0.  1.
        -11    1    1    2    0    0 -0.10095667370E+03  0.55380889041E+02 -0.73750911001E+02  0.13674242103E+03  0.00000000000E+00 0. -1.
         11    1    1    2    0    0 -0.12157759811E+03 -0.33396161278E+02 -0.77654272768E+02  0.14807633852E+03  0.00000000000E+00 0.  1.
</event>
<event>
 7    1  0.2714042E-009  0.1976251E+03  0.7561462E-02  0.1151758E+00
         -2   -1    0    0    0  501 -0.00000000000E+00  0.00000000000E+00  0.67481369761E+02  0.67481369761E+02  0.00000000000E+00 0.  1.
          2   -1    0    0  501    0  0.00000000000E+00 -0.00000000000E+00 -0.64254989628E+03  0.64254989628E+03  0.00000000000E+00 0. -1.
         25    2    1    2    0    0 -0.16579161399E+03  0.33330924763E+02 -0.21013476062E+03  0.29732376766E+03  0.12508795057E+03 0.  0.
          5    1    3    3  502    0 -0.36731353352E+00 -0.30883560113E+02 -0.19097250696E+02  0.36552791803E+02  0.41800000000E+01 0.  1.
         -5    1    3    3    0  502 -0.16542430046E+03  0.64214484876E+02 -0.19103750993E+03  0.26077097586E+03  0.41800000000E+01 0.  1.
        -11    1    1    2    0    0  0.16717467638E+03 -0.46357734648E+02 -0.30073459889E+03  0.34718541294E+03  0.00000000000E+00 0.  1.
         11    1    1    2    0    0 -0.13830623874E+01  0.13026809885E+02 -0.64199167003E+02  0.65522085447E+02  0.00000000000E+00 0. -1.
</event>
<event>
 7    1  0.2714042E-009  0.9444268E+02  0.7561462E-02  0.1292436E+00
         -2   -1    0    0    0  501 -0.00000000000E+00  0.00000000000E+00  0.37424117606E+02  0.37424117606E+02  0.00000000000E+00 0.  1.
          2   -1    0    0  501    0  0.00000000000E+00 -0.00000000000E+00 -0.36831441915E+03  0.36831441915E+03  0.00000000000E+00 0. -1.
         25    2    1    2    0    0  0.13990978627E+02  0.12834173560E+02 -0.11695677858E+03  0.17229997849E+03  0.12509169052E+03 0.  0.
          5    1    3    3  502    0  0.52457048018E+02  0.38214350624E+02 -0.25599622763E+02  0.69891999299E+02  0.41800000000E+01 0.  1.
         -5    1    3    3    0  502 -0.38466069391E+02 -0.25380177064E+02 -0.91357155818E+02  0.10240797919E+03  0.41800000000E+01 0.  1.
        -11    1    1    2    0    0 -0.39279957391E+02  0.13048259100E+02 -0.17683539202E+03  0.18161477911E+03  0.00000000000E+00 0. -1.
         11    1    1    2    0    0  0.25288978764E+02 -0.25882432660E+02 -0.37098130939E+02  0.51823779161E+02  0.00000000000E+00 0.  1.
</event>
<event>
 7    1  0.2714042E-009  0.1079472E+03  0.7561462E-02  0.1264419E+00
         -2   -1    0    0    0  501 -0.00000000000E+00  0.00000000000E+00  0.34218276285E+03  0.34218276285E+03  0.00000000000E+00 0.  1.
          2   -1    0    0  501    0  0.00000000000E+00 -0.00000000000E+00 -0.43785360832E+02  0.43785360832E+02  0.00000000000E+00 0. -1.
         25    2    1    2    0    0 -0.47465803249E+02 -0.42254740724E+01  0.21532561996E+03  0.25354283352E+03  0.12509192104E+03 0.  0.
          5    1    3    3  502    0 -0.11528515156E+02 -0.51678537672E+02  0.17141662504E+03  0.17945670692E+03  0.41800000000E+01 0.  1.
         -5    1    3    3    0  502 -0.35937288093E+02  0.47453063599E+02  0.43908994919E+02  0.74086126604E+02  0.41800000000E+01 0.  1.
        -11    1    1    2    0    0  0.74046018349E+02 -0.67470033026E+01  0.58726017643E+02  0.94747453977E+02  0.00000000000E+00 0. -1.
         11    1    1    2    0    0 -0.26580215100E+02  0.10972477375E+02  0.24345764417E+02  0.37677836185E+02  0.00000000000E+00 0.  1.
</event>
<event>
 7    1  0.2714042E-009  0.3185099E+03  0.7561462E-02  0.1076337E+00
         -1   -1    0    0    0  501 -0.00000000000E+00  0.00000000000E+00  0.42730764028E+02  0.42730764028E+02  0.00000000000E+00 0.  1.
          1   -1    0    0  501    0  0.00000000000E+00 -0.00000000000E+00 -0.24288060330E+04  0.24288060330E+04  0.00000000000E+00 0. -1.
         25    2    1    2    0    0  0.21274565377E+03 -0.21427937791E+03 -0.11199116087E+04  0.11666294328E+04  0.12508340107E+03 0.  0.
          5    1    3    3  502    0  0.75344797359E+02 -0.15810522595E+03 -0.68573142739E+03  0.70775642976E+03  0.41800000000E+01 0.  1.
         -5    1    3    3    0  502  0.13740085641E+03 -0.56174151959E+02 -0.43418018133E+03  0.45887300307E+03  0.41800000000E+01 0.  1.
        -11    1    1    2    0    0 -0.86772537839E+02  0.14652853344E+03 -0.60929436272E+03  0.63264500700E+03  0.00000000000E+00 0.  1.
         11    1    1    2    0    0 -0.12597311593E+03  0.67750844470E+02 -0.65686929751E+03  0.67226235718E+03  0.00000000000E+00 0. -1.
</event>
<event>
 7    1  0.2714042E-009  0.1133663E+03  0.7561462E-02  0.1254460E+00
          1   -1    0    0  501    0  0.00000000000E+00  0.00000000000E+00  0.12080002693E+04  0.12080002693E+04  0.00000000000E+00 0. -1.
         -1   -1    0    0    0  501 -0.00000000000E+00 -0.00000000000E+00 -0.14973997897E+02  0.14973997897E+02  0.00000000000E+00 0.  1.
         25    2    1    2    0    0  0.13952743522E+02  0.69361866436E+02  0.66894632065E+03  0.68420870140E+03  0.12508644846E+03 0.  0.
          5    1    3    3  502    0 -0.25429726849E+02  0.49772082545E+01  0.47979953373E+03  0.48051691810E+03  0.41800000000E+01 0. -1.
         -5    1    3    3    0  502  0.39382470371E+02  0.64384658182E+02  0.18914678692E+03  0.20369178330E+03  0.41800000000E+01 0. -1.
        -11    1    1    2    0    0  0.27438020621E+01 -0.94597056593E+02  0.40276450711E+03  0.41373346462E+03  0.00000000000E+00 0.  1.
         11    1    1    2    0    0 -0.16696545584E+02  0.25235190157E+02  0.12131544360E+03  0.12503210113E+03  0.00000000000E+00 0. -1.
</event>
<event>
 7    1  0.2714042E-009  0.8185770E+02  0.7561462E-02  0.1323861E+00
         -2   -1    0    0    0  501 -0.00000000000E+00  0.00000000000E+00  0.17506652809E+02  0.17506652809E+02  0.00000000000E+00 0.  1.
          2   -1    0    0  501    0  0.00000000000E+00 -0.00000000000E+00 -0.73469669418E+03  0.73469669418E+03  0.00000000000E+00 0. -1.
         25    2    1    2    0    0 -0.33492503176E+02  0.98058769212E+01 -0.37165025958E+03  0.39368766441E+03  0.12509260040E+03 0.  0.
          5    1    3    3  502    0 -0.36591445025E+02  0.34844806239E+02 -0.50634587729E+02  0.71654924780E+02  0.41800000000E+01 0. -1.
         -5    1    3    3    0  502  0.30989418486E+01 -0.25038929318E+02 -0.32101567185E+03  0.32203273963E+03  0.41800000000E+01 0. -1.
        -11    1    1    2    0    0  0.13456540599E+02  0.35466169355E+02 -0.81772724476E+02  0.90142698661E+02  0.00000000000E+00 0.  1.
         11    1    1    2    0    0  0.20035962577E+02 -0.45272046276E+02 -0.26376705732E+03  0.26837298392E+03  0.00000000000E+00 0. -1.
</event>
<event>
 7    1  0.2714042E-009  0.9414199E+02  0.7561462E-02  0.1293120E+00
          1   -1    0    0  501    0  0.00000000000E+00  0.00000000000E+00  0.78894899255E+02  0.78894899255E+02  0.00000000000E+00 0. -1.
         -1   -1    0    0    0  501 -0.00000000000E+00 -0.00000000000E+00 -0.15456601662E+03  0.15456601662E+03  0.00000000000E+00 0.  1.
         25    2    1    2    0    0 -0.59120461310E+01 -0.11614026206E+02 -0.26367877300E+02  0.12849791748E+03  0.12508641793E+03 0.  0.
          5    1    3    3  502    0  0.57821406532E+01 -0.63577503376E+02  0.87363446263E+01  0.64570335321E+02  0.41800000000E+01 0.  1.
         -5    1    3    3    0  502 -0.11694186784E+02  0.51963477170E+02 -0.35104221926E+02  0.63927582163E+02  0.41800000000E+01 0.  1.
        -11    1    1    2    0    0  0.11005214296E+02 -0.28444642536E+02  0.10970658425E+02  0.32412463296E+02  0.00000000000E+00 0. -1.
         11    1    1    2    0    0 -0.50931681645E+01  0.40058668741E+02 -0.60273898492E+02  0.72550535096E+02  0.00000000000E+00 0.  1.
</event>
<event>
 7    1  0.2714042E-009  0.9927242E+02  0.7561462E-02  0.1281833E+00
          1   -1    0    0  501    0  0.00000000000E+00  0.00000000000E+00  0.43969076761E+02  0.43969076761E+02  0.00000000000E+00 0. -1.
         -1   -1    0    0    0  501 -0.00000000000E+00 -0.00000000000E+00 -0.43953017317E+03  0.43953017317E+03  0.00000000000E+00 0.  1.
         25    2    1    2    0    0 -0.76127298093E+02  0.39925787234E+02 -0.25402931789E+03  0.29591803435E+03  0.12508858742E+03 0.  0.
          5    1    3    3  502    0 -0.50603994727E+01  0.32664906468E+02 -0.13975773627E+01  0.33347104520E+02  0.41800000000E+01 0.  1.
         -5    1    3    3    0  502 -0.71066898620E+02  0.72608807658E+01 -0.25263174052E+03  0.26257092983E+03  0.41800000000E+01 0.  1.
        -11    1    1    2    0    0  0.47437930078E+02 -0.38766189858E+01 -0.13228972276E+03  0.14059145113E+03  0.00000000000E+00 0.  1.
         11    1    1    2    0    0  0.28689368015E+02 -0.36049168248E+02 -0.92420557651E+01  0.46989764452E+02  0.00000000000E+00 0. -1.
</event>
<event>
 7    1  0.2714042E-009  0.1333309E+03  0.7561462E-02  0.1222595E+00
         -1   -1    0    0    0  501 -0.00000000000E+00  0.00000000000E+00  0.20577851659E+03  0.20577851659E+03  0.00000000000E+00 0.  1.
          1   -1    0    0  501    0  0.00000000000E+00 -0.00000000000E+00 -0.13633858518E+03  0.13633858518E+03  0.00000000000E+00 0. -1.
         25    2    1    2    0    0  0.11196558201E+03 -0.51854529103E+02  0.14207835778E+02  0.17626828928E+03  0.12507383206E+03 0.  0.
          5    1    3    3  502    0  0.67654913728E+02 -0.16897906500E+02  0.68503012281E+02  0.97841002076E+02  0.41800000000E+01 0.  1.
         -5    1    3    3    0  502  0.44310668278E+02 -0.34956622603E+02 -0.54295176502E+02  0.78427287206E+02  0.41800000000E+01 0.  1.
        -11    1    1    2    0    0 -0.48929586025E+02  0.59136357158E+02 -0.68702097945E+01  0.77061098546E+02  0.00000000000E+00 0. -1.
         11    1    1    2    0    0 -0.63035995982E+02 -0.72818280545E+01  0.62102305418E+02  0.88787713944E+02  0.00000000000E+00 0.  1.
</event>
<event>
 7    1  0.2714042E-009  0.1329210E+03  0.7561462E-02  0.1223185E+00
          1   -1    0    0  501    0  0.00000000000E+00  0.00000000000E+00  0.63965259785E+03  0.63965259785E+03  0.00000000000E+00 0. -1.
         -1   -1    0    0    0  501 -0.00000000000E+00 -0.00000000000E+00 -0.35622258175E+02  0.35622258175E+02  0.00000000000E+00 0.  1.
         25    2    1    2    0    0  0.76373831598E+02 -0.49779232701E+02  0.21037338530E+03  0.26118043429E+03  0.12508926354E+03 0.  0.
          5    1    3    3  502    0 -0.23984507331E+02  0.40325975853E+01  0.98302914854E+02  0.10135311492E+03  0.41800000000E+01 0. -1.
         -5    1    3    3    0  502  0.10035833893E+03 -0.53811830286E+02  0.11207047045E+03  0.15982731937E+03  0.41800000000E+01 0. -1.
        -11    1    1    2    0    0 -0.49819975626E+02 -0.19128160968E+02  0.19445912171E+03  0.20164886939E+03  0.00000000000E+00 0.  1.
         11    1    1    2    0    0 -0.26553855972E+02  0.68907393669E+02  0.19919783267E+03  0.21244555234E+03  0.00000000000E+00 0. -1.
</event>
<event>
 7    1  0.2714042E-009  0.1096201E+03  0.7561462E-02  0.1261275E+00
          1   -1    0    0  501    0  0.00000000000E+00  0.00000000000E+00  0.59213792530E+03  0.59213792530E+03  0.00000000000E+00 0. -1.
         -1   -1    0    0    0  501 -0.00000000000E+00 -0.00000000000E+00 -0.37645117249E+02  0.37645117249E+02  0.00000000000E+00 0.  1.
         25    2    1    2    0    0 -0.23158766578E+02 -0.71487459623E+02  0.44866247807E+03  0.47179712800E+03  0.12509086862E+03 0.  0.
          5    1    3    3  502    0  0.13896647603E+02  0.13811801004E+02  0.82717628405E+01  0.21674342483E+02  0.41800000000E+01 0. -1.
         -5    1    3    3    0  502 -0.37055414182E+02 -0.85299260627E+02  0.44039071522E+03  0.45012278551E+03  0.41800000000E+01 0. -1.
        -11    1    1    2    0    0  0.43358167674E+02  0.73990178837E+02  0.10755481739E+03  0.13755913642E+03  0.00000000000E+00 0. -1.
         11    1    1    2    0    0 -0.20199401096E+02 -0.25027192146E+01 -0.17244874032E+01  0.20426778133E+02  0.00000000000E+00 0.  1.
</event>
<event>
 7    1  0.2714042E-009  0.9728857E+02  0.7561462E-02  0.1286103E+00
          2   -1    0    0  501    0  0.00000000000E+00  0.00000000000E+00  0.24806098159E+03  0.24806098159E+03  0.00000000000E+00 0. -1.
         -2   -1    0    0    0  501 -0.00000000000E+00 -0.00000000000E+00 -0.73653813215E+02  0.73653813215E+02  0.00000000000E+00 0.  1.
         25    2    1    2    0    0  0.16124566488E+02  0.34153792781E+02  0.11507215924E+02  0.13116865263E+03  0.12508523577E+03 0.  0.
          5    1    3    3  502    0  0.58132106122E+02 -0.17088773608E+02 -0.96268020079E+01  0.61494029487E+02  0.41800000000E+01 0. -1.
         -5    1    3    3    0  502 -0.42007539634E+02  0.51242566389E+02  0.21134017932E+02  0.69674623144E+02  0.41800000000E+01 0. -1.
        -11    1    1    2    0    0 -0.11439921280E+02  0.14556691823E+02 -0.19217070850E+01  0.18613490641E+02  0.00000000000E+00 0.  1.
         11    1    1    2    0    0 -0.46846452079E+01 -0.48710484604E+02  0.16482165954E+03  0.17193265153E+03  0.00000000000E+00 0. -1.
</event>
<event>
 7    1  0.2714042E-009  0.1136407E+03  0.7561462E-02  0.1253973E+00
          2   -1    0    0  501    0  0.00000000000E+00  0.00000000000E+00  0.10060513803E+04  0.10060513803E+04  0.00000000000E+00 0. -1.
         -2   -1    0    0    0  501 -0.00000000000E+00 -0.00000000000E+00 -0.13152715398E+02  0.13152715398E+02  0.00000000000E+00 0.  1.
         25    2    1    2    0    0 -0.31799336858E+02  0.24370562007E+01  0.50262195008E+03  0.51893565855E+03  0.12509298921E+03 0.  0.
          5    1    3    3  502    0 -0.79668414588E+02 -0.29769612436E+01  0.28240491621E+03  0.29347219235E+03  0.41800000000E+01 0. -1.
         -5    1    3    3    0  502  0.47869077730E+02  0.54140174443E+01  0.22021703387E+03  0.22546346620E+03  0.41800000000E+01 0. -1.
        -11    1    1    2    0    0  0.27811621992E+02  0.44234430652E+02  0.28057567292E+03  0.28539950842E+03  0.00000000000E+00 0.  1.
         11    1    1    2    0    0  0.39877148653E+01 -0.46671486853E+02  0.20970104187E+03  0.21486892869E+03  0.00000000000E+00 0. -1.
</event>
<event>
 7    1  0.2714042E-009  0.1017068E+03  0.7561462E-02  0.1276747E+00
         -4   -1    0    0    0  501 -0.00000000000E+00  0.00000000000E+00  0.51672456710E+03  0.51672456710E+03  0.00000000000E+00 0. -1.
          4   -1    0    0  501    0  0.00000000000E+00 -0.00000000000E+00 -0.28061212868E+02  0.28061212868E+02  0.00000000000E+00 0.  1.
         25    2    1    2    0    0 -0.39729585842E+02 -0.31231792888E+02  0.30382812826E+03  0.33243507980E+03  0.12509071062E+03 0.  0.
          5    1    3    3  502    0 -0.70508808985E+02 -0.36825538443E+02  0.28446528455E+03  0.29540748627E+03  0.41800000000E+01 0. -1.
         -5    1    3    3    0  502  0.30779223143E+02  0.55937455550E+01  0.19362843703E+02  0.37027593533E+02  0.41800000000E+01 0. -1.
        -11    1    1    2    0    0  0.45509540749E+02  0.52893197360E+02  0.84718179469E+02  0.10975417331E+03  0.00000000000E+00 0.  1.
         11    1    1    2    0    0 -0.57799549066E+01 -0.21661404472E+02  0.10011704650E+03  0.10259652685E+03  0.00000000000E+00 0. -1.
</event>
<event>
 7    1  0.2714042E-009  0.8979715E+02  0.7561462E-02  0.1303344E+00
          2   -1    0    0  501    0  0.00000000000E+00  0.00000000000E+00  0.37695752807E+03  0.37695752807E+03  0.00000000000E+00 0. -1.
         -2   -1    0    0    0  501 -0.00000000000E+00 -0.00000000000E+00 -0.34963465894E+02  0.34963465894E+02  0.00000000000E+00 0.  1.
         25    2    1    2    0    0  0.31066504287E+02  0.13625520782E+02  0.22509945834E+03  0.25974262896E+03  0.12508271124E+03 0.  0.
          5    1    3    3  502    0 -0.22341452366E+02 -0.95887374747E+01  0.19005194255E+03  0.19164628263E+03  0.41800000000E+01 0.  1.
         -5    1    3    3    0  502  0.53407956653E+02  0.23214258257E+02  0.35047515791E+02  0.68096346329E+02  0.41800000000E+01 0.  1.
        -11    1    1    2    0    0 -0.23718113638E+02 -0.52166518344E+02  0.59069700431E+02  0.82298991851E+02  0.00000000000E+00 0.  1.
         11    1    1    2    0    0 -0.73483906490E+01  0.38540997562E+02  0.57824903407E+02  0.69879373153E+02  0.00000000000E+00 0. -1.
</event>
<event>
 7    1  0.2714042E-009  0.3165631E+03  0.7561462E-02  0.1077242E+00
          2   -1    0    0  501    0  0.00000000000E+00  0.00000000000E+00  0.21142116575E+04  0.21142116575E+04  0.00000000000E+00 0. -1.
         -2   -1    0    0    0  501 -0.00000000000E+00 -0.00000000000E+00 -0.53826272656E+02  0.53826272656E+02  0.00000000000E+00 0.  1.
         25    2    1    2    0    0  0.19458294774E+03  0.23356425688E+03  0.73331010772E+03  0.80362072127E+03  0.12509102254E+03 0.  0.
          5    1    3    3  502    0  0.12790527134E+03  0.58346308443E+02  0.29127008600E+03  0.32344981921E+03  0.41800000000E+01 0. -1.
         -5    1    3    3    0  502  0.66677676403E+02  0.17521794844E+03  0.44204002172E+03  0.48017090206E+03  0.41800000000E+01 0. -1.
        -11    1    1    2    0    0 -0.26207449787E+02 -0.19812557565E+02  0.59522757282E+02  0.67987693710E+02  0.00000000000E+00 0. -1.
         11    1    1    2    0    0 -0.16837549795E+03 -0.21375169932E+03  0.12675525199E+04  0.12964295152E+04  0.00000000000E+00 0.  1.
</event>
<event>
 7    1  0.2714042E-009  0.1135845E+03  0.7561462E-02  0.1254072E+00
         -1   -1    0    0    0  501 -0.00000000000E+00  0.00000000000E+00  0.14004286096E+02  0.14004286096E+02  0.00000000000E+00 0. -1.
          1   -1    0    0  501    0  0.00000000000E+00 -0.00000000000E+00 -0.12179612153E+04  0.12179612153E+04  0.00000000000E+00 0.  1.
         25    2    1    2    0    0  0.20507047635E+02  0.50719423792E+02 -0.88380270769E+03  0.89428610759E+03  0.12508963645E+03 0.  0.
          5    1    3    3  502    0  0.23046107755E+02  0.86919801665E+02 -0.75677850986E+03  0.76211374504E+03  0.41800000000E+01 0.  1.
         -5    1    3    3    0  502 -0.25390601196E+01 -0.36200377873E+02 -0.12702419783E+03  0.13217236254E+03  0.41800000000E+01 0.  1.
        -11    1    1    2    0    0  0.33162108424E+02 -0.17419716160E+02 -0.66953440778E+02  0.76719848659E+02  0.00000000000E+00 0. -1.
         11    1    1    2    0    0 -0.53669156059E+02 -0.33299707632E+02 -0.25320078073E+03  0.26095954514E+03  0.00000000000E+00 0.  1.
</event>
<event>
 7    1  0.2714042E-009  0.1198689E+03  0.7561462E-02  0.1243314E+00
          4   -1    0    0  501    0  0.00000000000E+00  0.00000000000E+00  0.72333078564E+02  0.72333078564E+02  0.00000000000E+00 0. -1.
         -4   -1    0    0    0  501 -0.00000000000E+00 -0.00000000000E+00 -0.30385377326E+03  0.30385377326E+03  0.00000000000E+00 0.  1.
         25    2    1    2    0    0  0.80064204997E+02 -0.46685657293E+02 -0.17901038364E+03  0.23723755131E+03  0.12508841185E+03 0.  0.
          5    1    3    3  502    0 -0.21328948888E+02 -0.15835482461E+02  0.25021080003E+01  0.27007767584E+02  0.41800000000E+01 0.  1.
         -5    1    3    3    0  502  0.10139315388E+03 -0.30850174832E+02 -0.18151249164E+03  0.21022978372E+03  0.41800000000E+01 0.  1.
        -11    1    1    2    0    0 -0.39518377330E+02  0.52616110119E+02  0.75565934380E+01  0.66236389510E+02  0.00000000000E+00 0. -1.
         11    1    1    2    0    0 -0.40545827667E+02 -0.59304528259E+01 -0.60066904498E+02  0.72712911012E+02  0.00000000000E+00 0.  1.
</event>
<event>
 7    1  0.2714042E-009  0.8329108E+02  0.7561462E-02  0.1319963E+00
          1   -1    0    0  501    0  0.00000000000E+00  0.00000000000E+00  0.98535201599E+03  0.98535201599E+03  0.00000000000E+00 0. -1.
         -1   -1    0    0    0  501 -0.00000000000E+00 -0.00000000000E+00 -0.15936946162E+02  0.15936946162E+02  0.00000000000E+00 0.  1.
         25    2    1    2    0    0  0.28392094207E+02  0.45008754456E+02  0.43386545380E+03  0.45466360894E+03  0.12509143175E+03 0.  0.
          5    1    3    3  502    0  0.13974390400E+02  0.60409738149E+01  0.40155187776E+03  0.40186211551E+03  0.41800000000E+01 0. -1.
         -5    1    3    3    0  502  0.14417703806E+02  0.38967780641E+02  0.32313576045E+02  0.52801493425E+02  0.41800000000E+01 0. -1.
        -11    1    1    2    0    0  0.11701624165E+02 -0.63723428503E+02  0.29364183859E+03  0.30070439425E+03  0.00000000000E+00 0. -1.
         11    1    1    2    0    0 -0.40093718371E+02  0.18714674047E+02  0.24190777744E+03  0.24592095897E+03  0.00000000000E+00 0.  1.
</event>
<event>
 7    1  0.2790781E-009  0.1395323E+03  0.7561462E-02  0.1213960E+00
         -1   -1    0    0    0  501 -0.00000000000E+00  0.00000000000E+00  0.20425080816E+02  0.20425080816E+02  0.00000000000E+00 0.  1.
          1   -1    0    0  501    0  0.00000000000E+00 -0.00000000000E+00 -0.12558446415E+04  0.12558446415E+04  0.00000000000E+00 0. -1.
         25    2    1    2    0    0  0.11605311863E+03  0.13228247918E+02 -0.73252596875E+03  0.75225246338E+03  0.12508461489E+03 0.  0.
          5    1    3    3  502    0 -0.78517544254E+01  0.43574126889E+01 -0.68146585898E+00  0.99284383774E+01  0.41800000000E+01 0. -1.
         -5    1    3    3    0  502  0.12390487305E+03  0.88708352295E+01 -0.73184450289E+03  0.74232402500E+03  0.41800000000E+01 0. -1.
        -11    1    1    2    0    0 -0.69409593461E+02  0.35033152720E+02 -0.31643097587E+03  0.32584287002E+03  0.00000000000E+00 0.  1.
         11    1    1    2    0    0 -0.46643525165E+02 -0.48261400639E+02 -0.18646261604E+03  0.19817438889E+03  0.00000000000E+00 0. -1.
</event>
<event>
 7    1  0.2714042E-009  0.7325177E+02  0.7561462E-02  0.1349372E+00
          3   -1    0    0  501    0  0.00000000000E+00  0.00000000000E+00  0.17295746762E+03  0.17295746762E+03  0.00000000000E+00 0.  1.
         -3   -1    0    0    0  501 -0.00000000000E+00 -0.00000000000E+00 -0.69225568652E+02  0.69225568652E+02  0.00000000000E+00 0. -1.
         25    2    1    2    0    0 -0.18134279612E+02  0.10425642776E+02  0.51478063706E+02  0.13687601441E+03  0.12508999222E+03 0.  0.
          5    1    3    3  502    0 -0.32868164527E+02 -0.13869149136E+02 -0.32304041606E+02  0.48308312341E+02  0.41800000000E+01 0. -1.
         -5    1    3    3    0  502  0.14733884914E+02  0.24294791912E+02  0.83782105312E+02  0.88567702066E+02  0.41800000000E+01 0. -1.
        -11    1    1    2    0    0  0.36703982790E+02  0.23222556205E+02  0.50815058684E+02  0.66847884472E+02  0.00000000000E+00 0.  1.
         11    1    1    2    0    0 -0.18569703177E+02 -0.33648198981E+02  0.14387765756E+01  0.38459137390E+02  0.00000000000E+00 0. -1.
</event>
<event>
 7    1  0.2714042E-009  0.1604903E+03  0.7561462E-02  0.1188144E+00
         -2   -1    0    0    0  501 -0.00000000000E+00  0.00000000000E+00  0.26118796930E+03  0.26118796930E+03  0.00000000000E+00 0. -1.
          2   -1    0    0  501    0  0.00000000000E+00 -0.00000000000E+00 -0.18824223837E+03  0.18824223837E+03  0.00000000000E+00 0.  1.
         25    2    1    2    0    0 -0.48359884401E+02 -0.14313755922E+03  0.15986234407E+03  0.25304374442E+03  0.12509247883E+03 0.  0.
          5    1    3    3  502    0 -0.16418729650E+02 -0.60925742814E+02 -0.76360524222E+01  0.63696958462E+02  0.41800000000E+01 0.  1.
         -5    1    3    3    0  502 -0.31941154751E+02 -0.82211816404E+02  0.16749839650E+03  0.18934678596E+03  0.41800000000E+01 0.  1.
        -11    1    1    2    0    0 -0.15173335078E+02  0.74039740571E+02 -0.12511576906E+02  0.76607133074E+02  0.00000000000E+00 0.  1.
         11    1    1    2    0    0  0.63533219479E+02  0.69097818647E+02 -0.74405036237E+02  0.11977933017E+03  0.00000000000E+00 0. -1.
</event>
<event>
 7    1  0.2714042E-009  0.9540613E+02  0.7561462E-02  0.1290264E+00
          1   -1    0    0  501    0  0.00000000000E+00  0.00000000000E+00  0.36583210996E+03  0.36583210996E+03  0.00000000000E+00 0. -1.
         -1   -1    0    0    0  501 -0.00000000000E+00 -0.00000000000E+00 -0.41534543793E+02  0.41534543793E+02  0.00000000000E+00 0.  1.
         25    2    1    2    0    0  0.32382948994E+02 -0.34578312576E+02  0.12266419265E+03  0.18148926545E+03  0.12509010445E+03 0.  0.
          5    1    3    3  502    0  0.25512801165E+02 -0.71585365285E+02  0.30766056073E+02  0.82093788757E+02  0.41800000000E+01 0. -1.
         -5    1    3    3    0  502  0.68701478288E+01  0.37007052709E+02  0.91898136577E+02  0.99395476697E+02  0.41800000000E+01 0. -1.
        -11    1    1    2    0    0 -0.38283249188E+02 -0.33655752204E+01  0.26740827855E+02  0.46818865207E+02  0.00000000000E+00 0.  1.
         11    1    1    2    0    0  0.59003001940E+01  0.37943887796E+02  0.17489254567E+03  0.17905852309E+03  0.00000000000E+00 0. -1.
</event>
<event>
 7    1  0.2714042E-009  0.9237855E+02  0.7561462E-02  0.1297192E+00
          2   -1    0    0  501    0  0.00000000000E+00  0.00000000000E+00  0.66092248381E+03  0.66092248381E+03  0.00000000000E+00 0. -1.
         -2   -1    0    0    0  501 -0.00000000000E+00 -0.00000000000E+00 -0.21805845519E+02  0.21805845519E+02  0.00000000000E+00 0.  1.
         25    2    1    2    0    0  0.21941617864E+02 -0.28326098154E+01  0.46143176761E+03  0.47859689569E+03  0.12508498763E+03 0.  0.
          5    1    3    3  502    0 -0.40794161802E+02  0.20539081700E+02  0.88475326567E+02  0.99656275896E+02  0.41800000000E+01 0.  1.
         -5    1    3    3    0  502  0.62735779666E+02 -0.23371691516E+02  0.37295644105E+03  0.37894061980E+03  0.41800000000E+01 0.  1.
        -11    1    1    2    0    0 -0.46031311722E+02 -0.54238573772E+01  0.32205696188E+02  0.56440293715E+02  0.00000000000E+00 0.  1.
         11    1    1    2    0    0  0.24089693857E+02  0.82564671927E+01  0.14547917449E+03  0.14769113992E+03  0.00000000000E+00 0. -1.
</event>
<event>
 7    1  0.2714042E-009  0.9551184E+02  0.7561462E-02  0.1290027E+00
         -2   -1    0    0    0  501 -0.00000000000E+00  0.00000000000E+00  0.21653997059E+02  0.21653997059E+02  0.00000000000E+00 0.  1.
          2   -1    0    0  501    0  0.00000000000E+00 -0.00000000000E+00 -0.61297952410E+03  0.61297952410E+03  0.00000000000E+00 0. -1.
         25    2    1    2    0    0  0.30001841062E+01 -0.21311010330E+02 -0.42951772355E+03  0.44787974985E+03  0.12509050808E+03 0.  0.
          5    1    3    3  502    0  0.39565593312E+02  0.39340462147E+02 -0.18437742776E+03  0.19268008824E+03  0.41800000000E+01 0. -1.
         -5    1    3    3    0  502 -0.36565409206E+02 -0.60651472477E+02 -0.24514029579E+03  0.25519966161E+03  0.41800000000E+01 0. -1.
        -11    1    1    2    0    0  0.27926436385E+01 -0.21119636202E+02 -0.21029744592E+01  0.21407017387E+02  0.00000000000E+00 0.  1.
         11    1    1    2    0    0 -0.57928277448E+01  0.42430646532E+02 -0.15970482903E+03  0.16534675393E+03  0.00000000000E+00 0. -1.
</event>
<event>
 7    1  0.3038169E-009  0.8943043E+02  0.7561462E-02  0.1304237E+00
         -1   -1    0    0    0  501 -0.00000000000E+00  0.00000000000E+00  0.84347807926E+02  0.84347807926E+02  0.00000000000E+00 0.  1.
          1   -1    0    0  501    0  0.00000000000E+00 -0.00000000000E+00 -0.16864317652E+03  0.16864317652E+03  0.00000000000E+00 0. -1.
         25    2    1    2    0    0  0.32812591298E+02  0.32734692015E+02 -0.68982156646E+02  0.15018016943E+03  0.12508924472E+03 0.  0.
          5    1    3    3  502    0  0.58531201102E+02  0.62806273596E+01  0.12778423321E+02  0.60383013216E+02  0.41800000000E+01 0. -1.
         -5    1    3    3    0  502 -0.25718609804E+02  0.26454064655E+02 -0.81760579968E+02  0.89797156211E+02  0.41800000000E+01 0. -1.
        -11    1    1    2    0    0 -0.53835273521E+02 -0.29668005794E+02  0.17328016217E+02  0.63864602002E+02  0.00000000000E+00 0.  1.
         11    1    1    2    0    0  0.21022682223E+02 -0.30666862209E+01 -0.32641228166E+02  0.38946213017E+02  0.00000000000E+00 0. -1.
</event>
<event>
 7    1  0.2714042E-009  0.1004650E+03  0.7561462E-02  0.1279321E+00
         -3   -1    0    0    0  501 -0.00000000000E+00  0.00000000000E+00  0.23791589168E+02  0.23791589168E+02  0.00000000000E+00 0.  1.
          3   -1    0    0  501    0  0.00000000000E+00 -0.00000000000E+00 -0.63450735222E+03  0.63450735222E+03  0.00000000000E+00 0. -1.
         25    2    1    2    0    0 -0.22728727486E+02  0.45209231061E+02 -0.26080010115E+03  0.29363949612E+03  0.12508793425E+03 0.  0.
          5    1    3    3  502    0  0.31375624855E+02  0.36279641479E+02 -0.21988273324E+03  0.22509227218E+03  0.41800000000E+01 0.  1.
         -5    1    3    3    0  502 -0.54104352341E+02  0.89295895819E+01 -0.40917367911E+02  0.68547223934E+02  0.41800000000E+01 0.  1.
        -11    1    1    2    0    0  0.61922692926E+01  0.24949618176E+02 -0.14908295095E+03  0.15128302585E+03  0.00000000000E+00 0. -1.
         11    1    1    2    0    0  0.16536458194E+02 -0.70158849237E+02 -0.20083271095E+03  0.21337641942E+03  0.00000000000E+00 0.  1.
</event>
<event>
 7    1  0.2714042E-009  0.1247395E+03  0.7561462E-02  0.1235477E+00
         -2   -1    0    0    0  501 -0.00000000000E+00  0.00000000000E+00  0.26959849082E+02  0.26959849082E+02  0.00000000000E+00 0.  1.
          2   -1    0    0  501    0  0.00000000000E+00 -0.00000000000E+00 -0.73141947803E+03  0.73141947803E+03  0.00000000000E+00 0. -1.
         25    2    1    2    0    0 -0.89078028311E+02 -0.28456323278E+01 -0.37492273783E+03  0.40516316172E+03  0.12508851077E+03 0.  0.
          5    1    3    3  502    0 -0.86660796989E+02 -0.51186276450E+02 -0.20470592569E+03  0.22814933058E+03  0.41800000000E+01 0. -1.
         -5    1    3    3    0  502 -0.24172313213E+01  0.48340644122E+02 -0.17021681213E+03  0.17701383114E+03  0.41800000000E+01 0. -1.
        -11    1    1    2    0    0  0.52113551381E+02 -0.20987248918E+02 -0.68933941928E+02  0.88927921400E+02  0.00000000000E+00 0.  1.
         11    1    1    2    0    0  0.36964476930E+02  0.23832881246E+02 -0.26060294920E+03  0.26428824399E+03  0.00000000000E+00 0. -1.
</event>
<event>
 7    1  0.2714042E-009  0.1057089E+03  0.7561462E-02  0.1268729E+00
         -2   -1    0    0    0  501 -0.00000000000E+00  0.00000000000E+00  0.89634753969E+02  0.89634753969E+02  0.00000000000E+00 0. -1.
          2   -1    0    0  501    0  0.00000000000E+00 -0.00000000000E+00 -0.19205219281E+03  0.19205219281E+03  0.00000000000E+00 0.  1.
         25    2    1    2    0    0 -0.65040543307E+02  0.18055172361E+02 -0.93175133643E+02  0.16995939520E+03  0.12509328106E+03 0.  0.
          5    1    3    3  502    0 -0.86416801990E+02 -0.16059166575E+02 -0.26391558719E+02  0.91868097123E+02  0.41800000000E+01 0.  1.
         -5    1    3    3    0  502  0.21376258684E+02  0.34114338935E+02 -0.66783574923E+02  0.78091298080E+02  0.41800000000E+01 0.  1.
        -11    1    1    2    0    0  0.31892447797E+02 -0.33608232761E+02 -0.42046601805E+02  0.62566430769E+02  0.00000000000E+00 0.  1.
         11    1    1    2    0    0  0.33148095509E+02  0.15553060400E+02  0.32804296603E+02  0.49161120810E+02  0.00000000000E+00 0. -1.
</event>
<event>
 7    1  0.2714042E-009  0.1946271E+03  0.7561462E-02  0.1154353E+00
         -2   -1    0    0    0  501 -0.00000000000E+00  0.00000000000E+00  0.27219653683E+03  0.27219653683E+03  0.00000000000E+00 0.  1.
          2   -1    0    0  501    0  0.00000000000E+00 -0.00000000000E+00 -0.16668573371E+03  0.16668573371E+03  0.00000000000E+00 0. -1.
         25    2    1    2    0    0 -0.15010098676E+03 -0.97405116266E+02  0.97060828772E+02  0.23892164804E+03  0.12507872128E+03 0.  0.
          5    1    3    3  502    0 -0.12039938133E+03 -0.36459092342E+02  0.11299951421E+03  0.16914975333E+03  0.41800000000E+01 0.  1.
         -5    1    3    3    0  502 -0.29701605430E+02 -0.60946023925E+02 -0.15938685443E+02  0.69771894707E+02  0.41800000000E+01 0.  1.
        -11    1    1    2    0    0  0.10408448526E+03  0.20871054664E+02  0.25185861597E+02  0.10910320169E+03  0.00000000000E+00 0.  1.
         11    1    1    2    0    0  0.46016501502E+02  0.76534061602E+02 -0.16735887244E+02  0.90857420818E+02  0.00000000000E+00 0. -1.
</event>
<event>
 7    1  0.2714042E-009  0.1604493E+03  0.7561462E-02  0.1188190E+00
          2   -1    0    0  501    0  0.00000000000E+00  0.00000000000E+00  0.27020447308E+03  0.27020447308E+03  0.00000000000E+00 0. -1.
         -2   -1    0    0    0  501 -0.00000000000E+00 -0.00000000000E+00 -0.14518001332E+03  0.14518001332E+03  0.00000000000E+00 0.  1.
         25    2    1    2    0    0  0.77506781158E+02  0.12773561122E+03  0.14094875352E+03  0.24049616527E+03  0.12509263324E+03 0.  0.
          5    1    3    3  502    0  0.28619659516E+02  0.58957226526E+02 -0.11052309065E+02  0.66593283491E+02  0.41800000000E+01 0. -1.
         -5    1    3    3    0  502  0.48887121642E+02  0.68778384698E+02  0.15200106258E+03  0.17390288178E+03  0.41800000000E+01 0. -1.
        -11    1    1    2    0    0  0.94968918589E+01 -0.59282656789E+02 -0.22187166888E+02  0.64006989661E+02  0.00000000000E+00 0.  1.
         11    1    1    2    0    0 -0.87003673017E+02 -0.68452954435E+02  0.62628731338E+01  0.11088133147E+03  0.00000000000E+00 0. -1.
</event>
<event>
 7    1  0.2714042E-009  0.1250272E+03  0.7561462E-02  0.1235027E+00
          2   -1    0    0  501    0  0.00000000000E+00  0.00000000000E+00  0.93480869740E+02  0.93480869740E+02  0.00000000000E+00 0. -1.
         -2   -1    0    0    0  501 -0.00000000000E+00 -0.00000000000E+00 -0.19448110366E+03  0.19448110366E+03  0.00000000000E+00 0.  1.
         25    2    1    2    0    0  0.57223450326E+02  0.66914336045E+02 -0.35529011936E+02  0.15703930467E+03  0.12508789265E+03 0.  0.
          5    1    3    3  502    0  0.51281374208E+02 -0.16411404282E+02 -0.48269192665E+02  0.72432733565E+02  0.41800000000E+01 0. -1.
         -5    1    3    3    0  502  0.59420761181E+01  0.83325740327E+02  0.12740180729E+02  0.84606571108E+02  0.41800000000E+01 0. -1.
        -11    1    1    2    0    0 -0.73233891070E+02 -0.47707913266E+02 -0.57730116954E+02  0.10474738275E+03  0.00000000000E+00 0.  1.
         11    1    1    2    0    0  0.16010440744E+02 -0.19206422779E+02 -0.77411050293E+01  0.26175285975E+02  0.00000000000E+00 0. -1.
</event>
<event>
 7    1  0.2714042E-009  0.1071423E+03  0.7561462E-02  0.1265955E+00
         -2   -1    0    0    0  501 -0.00000000000E+00  0.00000000000E+00  0.14473573421E+03  0.14473573421E+03  0.00000000000E+00 0.  1.
          2   -1    0    0  501    0  0.00000000000E+00 -0.00000000000E+00 -0.12994533413E+03  0.12994533413E+03  0.00000000000E+00 0. -1.
         25    2    1    2    0    0 -0.52403027779E+02  0.93616426114E+01 -0.54689348128E+02  0.14653452230E+03  0.12509086200E+03 0.  0.
          5    1    3    3  502    0  0.33339201353E+02  0.83952527101E+01  0.13222581490E+02  0.37071440168E+02  0.41800000000E+01 0. -1.
         -5    1    3    3    0  502 -0.85742229132E+02  0.96638990128E+00 -0.67911929617E+02  0.10946308213E+03  0.41800000000E+01 0. -1.
        -11    1    1    2    0    0  0.28176566422E+02  0.33983993457E+02  0.64610616422E+02  0.78251916661E+02  0.00000000000E+00 0.  1.
         11    1    1    2    0    0  0.24226461357E+02 -0.43345636069E+02  0.48691317790E+01  0.49894629374E+02  0.00000000000E+00 0. -1.
</event>
<event>
 7    1  0.2714042E-009  0.8991554E+02  0.7561462E-02  0.1303056E+00
         -2   -1    0    0    0  501 -0.00000000000E+00  0.00000000000E+00  0.40350759729E+02  0.40350759729E+02  0.00000000000E+00 0.  1.
          2   -1    0    0  501    0  0.00000000000E+00 -0.00000000000E+00 -0.37185269926E+03  0.37185269926E+03  0.00000000000E+00 0. -1.
         25    2    1    2    0    0 -0.16145304879E+02 -0.11469399840E+02 -0.27044537392E+03  0.29862965063E+03  0.12508696958E+03 0.  0.
          5    1    3    3  502    0 -0.42324617883E+02 -0.41627347000E+02 -0.24253215428E+03  0.24972690595E+03  0.41800000000E+01 0. -1.
         -5    1    3    3    0  502  0.26179313004E+02  0.30157947161E+02 -0.27913219642E+02  0.48902744678E+02  0.41800000000E+01 0. -1.
        -11    1    1    2    0    0 -0.48177832434E+01  0.42469846023E+02 -0.62965418520E+02  0.76102186473E+02  0.00000000000E+00 0. -1.
         11    1    1    2    0    0  0.20963088123E+02 -0.31000446183E+02  0.19088529119E+01  0.37471621884E+02  0.00000000000E+00 0.  1.
</event>
<event>
 7    1  0.2714042E-009  0.8858767E+02  0.7561462E-02  0.1306308E+00
         -1   -1    0    0    0  501 -0.00000000000E+00  0.00000000000E+00  0.76565033965E+02  0.76565033965E+02  0.00000000000E+00 0.  1.
          1   -1    0    0  501    0  0.00000000000E+00 -0.00000000000E+00 -0.24957553471E+03  0.24957553471E+03  0.00000000000E+00 0. -1.
         25    2    1    2    0    0 -0.14253456111E+02  0.46248088982E+02 -0.17617923444E+03  0.22141636996E+03  0.12507613480E+03 0.  0.
          5    1    3    3  502    0 -0.50391135102E+02  0.45364883131E+02 -0.17182655737E+03  0.18476763065E+03  0.41800000000E+01 0. -1.
         -5    1    3    3    0  502  0.36137678991E+02  0.88320585158E+00 -0.43526770621E+01  0.36648739310E+02  0.41800000000E+01 0. -1.
        -11    1    1    2    0    0  0.30754854368E+02 -0.47188702083E+02  0.36778477204E+02  0.67270283610E+02  0.00000000000E+00 0.  1.
         11    1    1    2    0    0 -0.16501398257E+02  0.94061310119E+00 -0.33609743517E+02  0.37453915105E+02  0.00000000000E+00 0. -1.
</event>
<event>
 7    1  0.3521413E-009  0.2894568E+03  0.7561462E-02  0.1090633E+00
         -1   -1    0    0    0  501 -0.00000000000E+00  0.00000000000E+00  0.21200779236E+03  0.21200779236E+03  0.00000000000E+00 0.  1.
          1   -1    0    0  501    0  0.00000000000E+00 -0.00000000000E+00 -0.46607053205E+03  0.46607053205E+03  0.00000000000E+00 0. -1.
         25    2    1    2    0    0 -0.31745050517E+02  0.28430331738E+03 -0.52851536588E+02  0.31666522058E+03  0.12508977775E+03 0.  0.
          5    1    3    3  502    0  0.17806409287E+02  0.92282024248E+02  0.34129228505E+02  0.10007655494E+03  0.41800000000E+01 0.  1.
         -5    1    3    3    0  502 -0.49551459804E+02  0.19202129313E+03 -0.86980765093E+02  0.21658866563E+03  0.41800000000E+01 0.  1.
        -11    1    1    2    0    0  0.47517794025E+01 -0.10973254334E+03 -0.26551834029E+02  0.11299916091E+03  0.00000000000E+00 0.  1.
         11    1    1    2    0    0  0.26993271114E+02 -0.17457077404E+03 -0.17465936907E+03  0.24841394292E+03  0.00000000000E+00 0. -1.
</event>
<event>
 7    1  0.2714042E-009  0.1477698E+03  0.7561462E-02  0.1203241E+00
          3   -1    0    0  501    0  0.00000000000E+00  0.00000000000E+00  0.73998220996E+03  0.73998220996E+03  0.00000000000E+00 0. -1.
         -3   -1    0    0    0  501 -0.00000000000E+00 -0.00000000000E+00 -0.37281469813E+02  0.37281469813E+02  0.00000000000E+00 0.  1.
         25    2    1    2    0    0 -0.11229021249E+03 -0.32586644710E+02  0.47587489403E+03  0.50574283523E+03  0.12509164395E+03 0.  0.
          5    1    3    3  502    0 -0.22183365424E+02  0.29657335403E+02  0.33897445792E+02  0.50380238944E+02  0.41800000000E+01 0.  1.
         -5    1    3    3    0  502 -0.90106847064E+02 -0.62243980113E+02  0.44197744823E+03  0.45536259629E+03  0.41800000000E+01 0.  1.
        -11    1    1    2    0    0  0.65189800976E+02 -0.28826121000E+02  0.96941072971E+02  0.12032550450E+03  0.00000000000E+00 0. -1.
         11    1    1    2    0    0  0.47100411512E+02  0.61412765710E+02  0.12988477315E+03  0.15119534005E+03  0.00000000000E+00 0.  1.
</event>
<event>
 7    1  0.2714042E-009  0.9509467E+02  0.7561462E-02  0.1290963E+00
          2   -1    0    0  501    0  0.00000000000E+00  0.00000000000E+00  0.65756710477E+03  0.65756710477E+03  0.00000000000E+00 0. -1.
         -2   -1    0    0    0  501 -0.00000000000E+00 -0.00000000000E+00 -0.25566533709E+02  0.25566533709E+02  0.00000000000E+00 0.  1.
         25    2    1    2    0    0  0.46047476402E+00  0.23045861047E+02  0.17393626015E+03  0.21548099590E+03  0.12508762230E+03 0.  0.
          5    1    3    3  502    0  0.46069761344E+02  0.23569925618E+00  0.15185417446E+02  0.48688271354E+02  0.41800000000E+01 0.  1.
         -5    1    3    3    0  502 -0.45609286580E+02  0.22810161791E+02  0.15875084270E+03  0.16679272454E+03  0.41800000000E+01 0.  1.
        -11    1    1    2    0    0 -0.31323506357E+02  0.21915302927E+02  0.14976096384E+03  0.15456321957E+03  0.00000000000E+00 0.  1.
         11    1    1    2    0    0  0.30863031593E+02 -0.44961163974E+02  0.30830334708E+03  0.31308942302E+03  0.00000000000E+00 0. -1.
</event>
<event>
 7    1  0.2714042E-009  0.1049754E+03  0.7561462E-02  0.1270168E+00
         -2   -1    0    0    0  501 -0.00000000000E+00  0.00000000000E+00  0.16728922999E+02  0.16728922999E+02  0.00000000000E+00 0.  1.
          2   -1    0    0  501    0  0.00000000000E+00 -0.00000000000E+00 -0.10504430955E+04  0.10504430955E+04  0.00000000000E+00 0. -1.
         25    2    1    2    0    0  0.37049138429E+02  0.28634413968E+01 -0.81468883260E+03  0.82507584415E+03  0.12510562210E+03 0.  0.
          5    1    3    3  502    0  0.27957200489E+02 -0.60116759581E+02 -0.44387070131E+03  0.44881432879E+03  0.41800000000E+01 0. -1.
         -5    1    3    3    0  502  0.90919379401E+01  0.62980200978E+02 -0.37081813129E+03  0.37626151537E+03  0.41800000000E+01 0. -1.
        -11    1    1    2    0    0 -0.16588035294E+02 -0.36661868326E+02 -0.33349183536E+02  0.52263022747E+02  0.00000000000E+00 0. -1.
         11    1    1    2    0    0 -0.20461103134E+02  0.33798426930E+02 -0.18567615633E+03  0.18983315156E+03  0.00000000000E+00 0.  1.
</event>
<event>
 7    1  0.2714042E-009  0.1605542E+03  0.7561462E-02  0.1188072E+00
          1   -1    0    0  501    0  0.00000000000E+00  0.00000000000E+00  0.28725158671E+03  0.28725158671E+03  0.00000000000E+00 0. -1.
         -1   -1    0    0    0  501 -0.00000000000E+00 -0.00000000000E+00 -0.14117077224E+03  0.14117077224E+03  0.00000000000E+00 0.  1.
         25    2    1    2    0    0  0.81887613957E+02  0.11470253272E+03  0.17586400181E+03  0.25776258271E+03  0.12510455460E+03 0.  0.
          5    1    3    3  502    0  0.93766294348E+02  0.12915915814E+03  0.12304954831E+03  0.20157596540E+03  0.41800000000E+01 0. -1.
         -5    1    3    3    0  502 -0.11878680391E+02 -0.14456625420E+02  0.52814453506E+02  0.56186617317E+02  0.41800000000E+01 0. -1.
        -11    1    1    2    0    0 -0.26388529968E+02 -0.53514061035E+02 -0.58150599334E+02  0.83316273592E+02  0.00000000000E+00 0.  1.
         11    1    1    2    0    0 -0.55499083989E+02 -0.61188471684E+02  0.28367411993E+02  0.87343502642E+02  0.00000000000E+00 0. -1.
</event>
<event>
 7    1  0.2714042E-009  0.7614033E+02  0.7561462E-02  0.1340376E+00
         -2   -1    0    0    0  501 -0.00000000000E+00  0.00000000000E+00  0.22594557976E+02  0.22594557976E+02  0.00000000000E+00 0.  1.
          2   -1    0    0  501    0  0.00000000000E+00 -0.00000000000E+00 -0.64978847251E+03  0.64978847251E+03  0.00000000000E+00 0. -1.
         25    2    1    2    0    0  0.36541523988E+02  0.25462618678E+02 -0.38644705169E+03  0.40862356226E+03  0.12509302118E+03 0.  0.
          5    1    3    3  502    0  0.31831677095E+02  0.11606474541E+02 -0.39119379271E+03  0.39268055945E+03  0.41800000000E+01 0. -1.
         -5    1    3    3    0  502  0.47098468926E+01  0.13856144137E+02  0.47467410207E+01  0.15943002805E+02  0.41800000000E+01 0. -1.
        -11    1    1    2    0    0 -0.42811062458E+02 -0.56708337269E+02 -0.19854821783E+03  0.21087915352E+03  0.00000000000E+00 0. -1.
         11    1    1    2    0    0  0.62695384703E+01  0.31245718591E+02 -0.42198645014E+02  0.52880314711E+02  0.00000000000E+00 0.  1.
</event>
<event>
 7    1  0.2714042E-009  0.9889961E+02  0.7561462E-02  0.1282627E+00
         -1   -1    0    0    0  501 -0.00000000000E+00  0.00000000000E+00  0.16583101623E+03  0.16583101623E+03  0.00000000000E+00 0.  1.
          1   -1    0    0  501    0  0.00000000000E+00 -0.00000000000E+00 -0.10613080868E+03  0.10613080868E+03  0.00000000000E+00 0. -1.
         25    2    1    2    0    0 -0.93691902053E+01 -0.45730203454E+02 -0.31590219457E+02  0.13720555021E+03  0.12509351626E+03 0.  0.
          5    1    3    3  502    0 -0.15901169380E+02  0.24333548547E+02  0.31168895871E+02  0.42824540188E+02  0.41800000000E+01 0. -1.
         -5    1    3    3    0  502  0.65319791744E+01 -0.70063752001E+02 -0.62759115328E+02  0.94381010024E+02  0.41800000000E+01 0. -1.
        -11    1    1    2    0    0 -0.27780216149E+02  0.53228409178E+02  0.65834342457E+02  0.89101989875E+02  0.00000000000E+00 0.  1.
         11    1    1    2    0    0  0.37149406354E+02 -0.74982057243E+01  0.25456084560E+02  0.45654284822E+02  0.00000000000E+00 0. -1.
</event>
<event>
 7    1  0.2714042E-009  0.1465624E+03  0.7561462E-02  0.1204762E+00
         -1   -1    0    0    0  501 -0.00000000000E+00  0.00000000000E+00  0.16762394920E+03  0.16762394920E+03  0.00000000000E+00 0.  1.
          1   -1    0    0  501    0  0.00000000000E+00 -0.00000000000E+00 -0.20075994812E+03  0.20075994812E+03  0.00000000000E+00 0. -1.
         25    2    1    2    0    0 -0.13931464222E+03 -0.20403605773E+02 -0.54122379706E+02  0.19596282354E+03  0.12508924638E+03 0.  0.
          5    1    3    3  502    0 -0.17911029960E+01  0.91095525282E+01  0.30231126063E+02  0.31899614108E+02  0.41800000000E+01 0. -1.
         -5    1    3    3    0  502 -0.13752353923E+03 -0.29513158301E+02 -0.84353505770E+02  0.16406320944E+03  0.41800000000E+01 0. -1.
        -11    1    1    2    0    0  0.84400244851E+02  0.22240394948E+02 -0.34944531201E+02  0.94016789773E+02  0.00000000000E+00 0. -1.
         11    1    1    2    0    0  0.54914397373E+02 -0.18367891751E+01  0.55930911989E+02  0.78404283998E+02  0.00000000000E+00 0.  1.
</event>
<event>
 7    1  0.2714042E-009  0.1867673E+03  0.7561462E-02  0.1161410E+00
          1   -1    0    0  501    0  0.00000000000E+00  0.00000000000E+00  0.43242812505E+02  0.43242812505E+02  0.00000000000E+00 0. -1.
         -1   -1    0    0    0  501 -0.00000000000E+00 -0.00000000000E+00 -0.10655548709E+04  0.10655548709E+04  0.00000000000E+00 0.  1.
         25    2    1    2    0    0 -0.15312212320E+03  0.65477051087E+02 -0.73396562778E+03  0.76294693283E+03  0.12509536651E+03 0.  0.
          5    1    3    3  502    0  0.63648338788E+00 -0.16597631939E+02 -0.21083550384E+03  0.21153006542E+03  0.41800000000E+01 0. -1.
         -5    1    3    3    0  502 -0.15375860659E+03  0.82074683026E+02 -0.52313012394E+03  0.55141686741E+03  0.41800000000E+01 0. -1.
        -11    1    1    2    0    0  0.15425272607E+01 -0.25169605017E+02 -0.11620829458E+02  0.27765663766E+02  0.00000000000E+00 0. -1.
         11    1    1    2    0    0  0.15157959594E+03 -0.40307446071E+02 -0.27672560115E+03  0.31808508680E+03  0.00000000000E+00 0.  1.
</event>
<event>
 7    1  0.2714042E-009  0.2302889E+03  0.7561462E-02  0.1126437E+00
          2   -1    0    0  501    0  0.00000000000E+00  0.00000000000E+00  0.28802748182E+03  0.28802748182E+03  0.00000000000E+00 0. -1.
         -2   -1    0    0    0  501 -0.00000000000E+00 -0.00000000000E+00 -0.24765626620E+03  0.24765626620E+03  0.00000000000E+00 0.  1.
         25    2    1    2    0    0  0.19937480794E+03 -0.11279518149E+03  0.10451031104E+03  0.28114391602E+03  0.12508568821E+03 0.  0.
          5    1    3    3  502    0  0.17767934216E+03 -0.10671447218E+03  0.37951164375E+02  0.21075030363E+03  0.41800000000E+01 0. -1.
         -5    1    3    3    0  502  0.21695465782E+02 -0.60807093136E+01  0.66559146664E+02  0.70393612394E+02  0.41800000000E+01 0. -1.
        -11    1    1    2    0    0 -0.18726254154E+03  0.11204067295E+03 -0.32467782901E+02  0.22062304681E+03  0.00000000000E+00 0. -1.
         11    1    1    2    0    0 -0.12112266404E+02  0.75450853581E+00 -0.31671312523E+02  0.33916785188E+02  0.00000000000E+00 0.  1.
</event>
<event>
 7    1  0.2714042E-009  0.1571745E+03  0.7561462E-02  0.1191924E+00
         -1   -1    0    0    0  501 -0.00000000000E+00  0.00000000000E+00  0.26824233158E+02  0.26824233158E+02  0.00000000000E+00 0.  1.
          1   -1    0    0  501    0  0.00000000000E+00 -0.00000000000E+00 -0.11828543680E+04  0.11828543680E+04  0.00000000000E+00 0. -1.
         25    2    1    2    0    0  0.96566680196E+02  0.85432350797E+02 -0.41779189041E+03  0.45477570722E+03  0.12508824845E+03 0.  0.
          5    1    3    3  502    0  0.48009003231E+02  0.10032584201E+03 -0.36417591209E+03  0.38080402613E+03  0.41800000000E+01 0.  1.
         -5    1    3    3    0  502  0.48557676965E+02 -0.14893491215E+02 -0.53615978317E+02  0.73971681092E+02  0.41800000000E+01 0.  1.
        -11    1    1    2    0    0 -0.92416228870E+02 -0.30970724327E+02 -0.56218465727E+03  0.57057123481E+03  0.00000000000E+00 0. -1.
         11    1    1    2    0    0 -0.41504513256E+01 -0.54461626470E+02 -0.17605358719E+03  0.18433165915E+03  0.00000000000E+00 0.  1.
</event>
<event>
 7    1  0.2714042E-009  0.1107761E+03  0.7561462E-02  0.1259139E+00
          2   -1    0    0  501    0  0.00000000000E+00  0.00000000000E+00  0.97012469779E+03  0.97012469779E+03  0.00000000000E+00 0. -1.
         -2   -1    0    0    0  501 -0.00000000000E+00 -0.00000000000E+00 -0.26867712061E+02  0.26867712061E+02  0.00000000000E+00 0.  1.
         25    2    1    2    0    0 -0.55799046778E+02 -0.82291439875E+02  0.81267804637E+03  0.82823782524E+03  0.12508746308E+03 0.  0.
          5    1    3    3  502    0 -0.58735331865E+02 -0.26792471155E+02  0.69526640547E+03  0.69826966331E+03  0.41800000000E+01 0. -1.
         -5    1    3    3    0  502  0.29362850871E+01 -0.55498968720E+02  0.11741164090E+03  0.12996816194E+03  0.41800000000E+01 0. -1.
        -11    1    1    2    0    0  0.35613513867E+02  0.66728958185E+02  0.11842027346E+03  0.14051490098E+03  0.00000000000E+00 0.  1.
         11    1    1    2    0    0  0.20185532911E+02  0.15562481689E+02  0.12158665909E+02  0.28239683637E+02  0.00000000000E+00 0. -1.
</event>
<event>
 7    1  0.2714042E-009  0.1280128E+03  0.7561462E-02  0.1230435E+00
         -4   -1    0    0    0  501 -0.00000000000E+00  0.00000000000E+00  0.10367916594E+03  0.10367916594E+03  0.00000000000E+00 0.  1.
          4   -1    0    0  501    0  0.00000000000E+00 -0.00000000000E+00 -0.33160848529E+03  0.33160848529E+03  0.00000000000E+00 0. -1.
         25    2    1    2    0    0  0.87792225095E+02  0.61223920777E+01 -0.26351814495E+03  0.30468737356E+03  0.12509046494E+03 0.  0.
          5    1    3    3  502    0  0.11639030655E+03  0.75659461829E+01 -0.16568790108E+03  0.20266696812E+03  0.41800000000E+01 0. -1.
         -5    1    3    3    0  502 -0.28598081460E+02 -0.14435541052E+01 -0.97830243865E+02  0.10202040544E+03  0.41800000000E+01 0. -1.
        -11    1    1    2    0    0 -0.72154867382E+02  0.24328075588E+02  0.52430344750E+02  0.92450641962E+02  0.00000000000E+00 0.  1.
         11    1    1    2    0    0 -0.15637357713E+02 -0.30450467665E+02 -0.16841519144E+02  0.38149635704E+02  0.00000000000E+00 0. -1.
</event>
<event>
 7    1  0.2714042E-009  0.1476110E+03  0.7561462E-02  0.1203440E+00
         -3   -1    0    0    0  501 -0.00000000000E+00  0.00000000000E+00  0.14229215497E+03  0.14229215497E+03  0.00000000000E+00 0.  1.
          3   -1    0    0  501    0  0.00000000000E+00 -0.00000000000E+00 -0.24323404870E+03  0.24323404870E+03  0.00000000000E+00 0. -1.
         25    2    1    2    0    0  0.10385616476E+03 -0.79809545395E+02  0.22900526017E+02  0.18255304669E+03  0.12508203015E+03 0.  0.
          5    1    3    3  502    0  0.31655573883E+02 -0.84051174599E+01  0.64718339309E+02  0.72654368074E+02  0.41800000000E+01 0. -1.
         -5    1    3    3    0  502  0.72200590882E+02 -0.71404427935E+02 -0.41817813292E+02  0.10989867861E+03  0.41800000000E+01 0. -1.
        -11    1    1    2    0    0 -0.10260865754E+03  0.24819152035E+02 -0.86642941726E+02  0.13657059076E+03  0.00000000000E+00 0.  1.
         11    1    1    2    0    0 -0.12475072232E+01  0.54990393359E+02 -0.37199478021E+02  0.66402566224E+02  0.00000000000E+00 0. -1.
</event>
<event>
 7    1  0.2714042E-009  0.7800547E+02  0.7561462E-02  0.1334809E+00
          2   -1    0    0  501    0  0.00000000000E+00  0.00000000000E+00  0.12707057583E+03  0.12707057583E+03  0.00000000000E+00 0. -1.
         -2   -1    0    0    0  501 -0.00000000000E+00 -0.00000000000E+00 -0.11716255908E+03  0.11716255908E+03  0.00000000000E+00 0.  1.
         25    2    1    2    0    0 -0.52146699977E+01  0.29452060837E+01  0.67264742296E+02  0.14215633338E+03  0.12509200830E+03 0.  0.
          5    1    3    3  502    0 -0.17529927852E+02 -0.56968799277E+02  0.51425743782E+02  0.78834142255E+02  0.41800000000E+01 0. -1.
         -5    1    3    3    0  502  0.12315257854E+02  0.59914005361E+02  0.15838998515E+02  0.63322191121E+02  0.41800000000E+01 0. -1.
        -11    1    1    2    0    0 -0.14759864151E+02  0.18509910230E-03  0.18449944494E+02  0.23627400230E+02  0.00000000000E+00 0. -1.
         11    1    1    2    0    0  0.19974534148E+02 -0.29453911828E+01 -0.75806670035E+02  0.78449401307E+02  0.00000000000E+00 0.  1.
</event>
<event>
 7    1  0.2714042E-009  0.1904002E+03  0.7561462E-02  0.1158101E+00
          2   -1    0    0  501    0  0.00000000000E+00  0.00000000000E+00  0.10392847262E+04  0.10392847262E+04  0.00000000000E+00 0. -1.
         -2   -1    0    0    0  501 -0.00000000000E+00 -0.00000000000E+00 -0.41115061184E+02  0.41115061184E+02  0.00000000000E+00 0.  1.
         25    2    1    2    0    0  0.16331938557E+03 -0.30000409101E+02  0.37595985923E+03  0.42961154320E+03  0.12508803321E+03 0.  0.
          5    1    3    3  502    0  0.33915538977E+02  0.34817170878E+02  0.37662058991E+02  0.61631179281E+02  0.41800000000E+01 0. -1.
         -5    1    3    3    0  502  0.12940384659E+03 -0.64817579979E+02  0.33829780023E+03  0.36798036392E+03  0.41800000000E+01 0. -1.
        -11    1    1    2    0    0 -0.13218098596E+03 -0.14433916783E+02  0.49372684446E+03  0.51131824527E+03  0.00000000000E+00 0.  1.
         11    1    1    2    0    0 -0.31138399605E+02  0.44434325884E+02  0.12848296137E+03  0.13946999896E+03  0.00000000000E+00 0. -1.
</event>
<event>
 7    1  0.2714042E-009  0.9655669E+02  0.7561462E-02  0.1287708E+00
          1   -1    0    0  501    0  0.00000000000E+00  0.00000000000E+00  0.26560742523E+03  0.26560742523E+03  0.00000000000E+00 0. -1.
         -1   -1    0    0    0  501 -0.00000000000E+00 -0.00000000000E+00 -0.12715090330E+03  0.12715090330E+03  0.00000000000E+00 0.  1.
         25    2    1    2    0    0  0.56321557627E+02  0.27419910507E+02 -0.70640144084E+02  0.15672175947E+03  0.12509080937E+03 0.  0.
          5    1    3    3  502    0  0.30446228832E+02  0.65347133733E+02  0.18527023726E+00  0.72213069885E+02  0.41800000000E+01 0. -1.
         -5    1    3    3    0  502  0.25875328796E+02 -0.37927223225E+02 -0.70825414321E+02  0.84508689586E+02  0.41800000000E+01 0. -1.
        -11    1    1    2    0    0 -0.46638217809E+02 -0.38215493379E+02  0.21271032127E+03  0.22109099500E+03  0.00000000000E+00 0. -1.
         11    1    1    2    0    0 -0.96833398181E+01  0.10795582872E+02 -0.36136552590E+01  0.14945574057E+02  0.00000000000E+00 0.  1.
</event>
<event>
 7    1  0.2714042E-009  0.1011805E+03  0.7561462E-02  0.1277833E+00
          2   -1    0    0  501    0  0.00000000000E+00  0.00000000000E+00  0.64711326563E+03  0.64711326563E+03  0.00000000000E+00 0. -1.
         -2   -1    0    0    0  501 -0.00000000000E+00 -0.00000000000E+00 -0.35344085562E+02  0.35344085562E+02  0.00000000000E+00 0.  1.
         25    2    1    2    0    0 -0.39649899273E+02 -0.76052142952E+02  0.47050565292E+03  0.49434702871E+03  0.12508945758E+03 0.  0.
          5    1    3    3  502    0 -0.14784840263E+02 -0.74818055635E+02  0.11565594724E+03  0.13860051761E+03  0.41800000000E+01 0. -1.
         -5    1    3    3    0  502 -0.24865059010E+02 -0.12340873170E+01  0.35484970568E+03  0.35574651109E+03  0.41800000000E+01 0. -1.
        -11    1    1    2    0    0 -0.13205556038E+02  0.15049365320E+02  0.90657846507E+02  0.92842421554E+02  0.00000000000E+00 0. -1.
         11    1    1    2    0    0  0.52855455311E+02  0.61002777631E+02  0.50605680636E+02  0.95267900930E+02  0.00000000000E+00 0.  1.
</event>
<event>
 7    1  0.2714042E-009  0.8455148E+02  0.7561462E-02  0.1316610E+00
          1   -1    0    0  501    0  0.00000000000E+00  0.00000000000E+00  0.17780481606E+03  0.17780481606E+03  0.00000000000E+00 0. -1.
         -1   -1    0    0    0  501 -0.00000000000E+00 -0.00000000000E+00 -0.80834498370E+02  0.80834498370E+02  0.00000000000E+00 0.  1.
         25    2    1    2    0    0  0.38628843048E+02  0.49184861102E+01  0.15904515724E+02  0.13197320949E+03  0.12509034888E+03 0.  0.
          5    1    3    3  502    0 -0.91391262733E-01  0.31035638561E+02  0.59951854270E+02  0.67638128623E+02  0.41800000000E+01 0. -1.
         -5    1    3    3    0  502  0.38720234310E+02 -0.26117152450E+02 -0.44047338545E+02  0.64335080867E+02  0.41800000000E+01 0. -1.
        -11    1    1    2    0    0 -0.20077930521E+01  0.35957791229E+02  0.10982259959E+02  0.37651082545E+02  0.00000000000E+00 0. -1.
         11    1    1    2    0    0 -0.36621049996E+02 -0.40876277339E+02  0.70083542004E+02  0.89015022394E+02  0.00000000000E+00 0.  1.
</event>
<event>
 7    1  0.2714042E-009  0.1617898E+03  0.7561462E-02  0.1186691E+00
          1   -1    0    0  501    0  0.00000000000E+00  0.00000000000E+00  0.37838920888E+03  0.37838920888E+03  0.00000000000E+00 0. -1.
         -1   -1    0    0    0  501 -0.00000000000E+00 -0.00000000000E+00 -0.96030317274E+02  0.96030317274E+02  0.00000000000E+00 0.  1.
         25    2    1    2    0    0 -0.10355306500E+03  0.10938217818E+03  0.93241601601E+02  0.21686199939E+03  0.12508969717E+03 0.  0.
          5    1    3    3  502    0 -0.99021277375E+01  0.63832469996E+02  0.92173008769E+02  0.11263202167E+03  0.41800000000E+01 0.  1.
         -5    1    3    3    0  502 -0.93650937265E+02  0.45549708180E+02  0.10685928314E+01  0.10422997772E+03  0.41800000000E+01 0.  1.
        -11    1    1    2    0    0  0.97312694486E+02 -0.84210218486E+02  0.95065034771E+02  0.15999525694E+03  0.00000000000E+00 0.  1.
         11    1    1    2    0    0  0.62403705163E+01 -0.25171959689E+02  0.94052255234E+02  0.97562269825E+02  0.00000000000E+00 0. -1.
</event>
<event>
 7    1  0.2714042E-009  0.9852041E+02  0.7561462E-02  0.1283438E+00
          2   -1    0    0  501    0  0.00000000000E+00  0.00000000000E+00  0.27935084275E+03  0.27935084275E+03  0.00000000000E+00 0. -1.
         -2   -1    0    0    0  501 -0.00000000000E+00 -0.00000000000E+00 -0.76672992323E+02  0.76672992323E+02  0.00000000000E+00 0.  1.
         25    2    1    2    0    0  0.52518530102E+02 -0.75851887837E+02  0.14128121288E+03  0.21004682144E+03  0.12509029216E+03 0.  0.
          5    1    3    3  502    0  0.19908941239E+02 -0.32566453837E+02 -0.17515984371E+02  0.42204525412E+02  0.41800000000E+01 0.  1.
         -5    1    3    3    0  502  0.32609588863E+02 -0.43285434001E+02  0.15879719725E+03  0.16784229603E+03  0.41800000000E+01 0.  1.
        -11    1    1    2    0    0  0.16245617494E+01  0.38444576925E+02  0.69730501613E+02  0.79642749519E+02  0.00000000000E+00 0.  1.
         11    1    1    2    0    0 -0.54143091851E+02  0.37407310912E+02 -0.83338640649E+01  0.66334264111E+02  0.00000000000E+00 0. -1.
</event>
<event>
 7    1  0.2714042E-009  0.1040220E+03  0.7561462E-02  0.1272059E+00
          1   -1    0    0  501    0  0.00000000000E+00  0.00000000000E+00  0.51833823317E+03  0.51833823317E+03  0.00000000000E+00 0. -1.
         -1   -1    0    0    0  501 -0.00000000000E+00 -0.00000000000E+00 -0.41225082950E+02  0.41225082950E+02  0.00000000000E+00 0.  1.
         25    2    1    2    0    0 -0.53469763214E+02  0.34473578312E+02  0.11506676004E+03  0.18148081994E+03  0.12508990991E+03 0.  0.
          5    1    3    3  502    0  0.19564101987E+02  0.33981232029E+02  0.99025063129E+02  0.10658758720E+03  0.41800000000E+01 0. -1.
         -5    1    3    3    0  502 -0.73033865202E+02  0.49234628309E+00  0.16041696909E+02  0.74893232744E+02  0.41800000000E+01 0. -1.
        -11    1    1    2    0    0  0.43730557159E+02  0.14075334993E+02  0.84755730206E+02  0.96405448432E+02  0.00000000000E+00 0.  1.
         11    1    1    2    0    0  0.97392060557E+01 -0.48548913305E+02  0.27729065997E+03  0.28167704774E+03  0.00000000000E+00 0. -1.
</event>
<event>
 7    1  0.2714042E-009  0.7518641E+02  0.7561462E-02  0.1343295E+00
         -1   -1    0    0    0  501 -0.00000000000E+00  0.00000000000E+00  0.50523456486E+02  0.50523456486E+02  0.00000000000E+00 0.  1.
          1   -1    0    0  501    0  0.00000000000E+00 -0.00000000000E+00 -0.22833341786E+03  0.22833341786E+03  0.00000000000E+00 0. -1.
         25    2    1    2    0    0  0.90163308559E+01 -0.12628100136E+02 -0.79596808635E+02  0.14907124023E+03  0.12508325061E+03 0.  0.
          5    1    3    3  502    0 -0.22555340227E+02 -0.35564264868E+02 -0.97233125235E+02  0.10604392180E+03  0.41800000000E+01 0. -1.
         -5    1    3    3    0  502  0.31571671083E+02  0.22936164731E+02  0.17636316601E+02  0.43027318424E+02  0.41800000000E+01 0. -1.
        -11    1    1    2    0    0 -0.25994463294E+02  0.33178473167E+02 -0.93708368208E+02  0.10275106557E+03  0.00000000000E+00 0. -1.
         11    1    1    2    0    0  0.16978132438E+02 -0.20550373031E+02 -0.45047845286E+01  0.27034568546E+02  0.00000000000E+00 0.  1.
</event>
<event>
 7    1  0.2714042E-009  0.1401780E+03  0.7561462E-02  0.1213090E+00
          1   -1    0    0  501    0  0.00000000000E+00  0.00000000000E+00  0.42572757188E+03  0.42572757188E+03  0.00000000000E+00 0. -1.
         -1   -1    0    0    0  501 -0.00000000000E+00 -0.00000000000E+00 -0.46443938849E+02  0.46443938849E+02  0.00000000000E+00 0.  1.
         25    2    1    2    0    0  0.54023207139E+02 -0.70657047434E+02  0.20958601510E+03  0.25977934945E+03  0.12509231556E+03 0.  0.
          5    1    3    3  502    0  0.81956604951E+01  0.36089398079E+02  0.50181775551E+02  0.62492371551E+02  0.41800000000E+01 0.  1.
         -5    1    3    3    0  502  0.45827546644E+02 -0.10674644551E+03  0.15940423955E+03  0.19728697790E+03  0.41800000000E+01 0.  1.
        -11    1    1    2    0    0 -0.11180693796E+02 -0.22060579593E+02  0.43519665491E+02  0.50056351947E+02  0.00000000000E+00 0.  1.
         11    1    1    2    0    0 -0.42842513343E+02  0.92717627027E+02  0.12617795244E+03  0.16233580934E+03  0.00000000000E+00 0. -1.
</event>
<event>
 7    1  0.2714042E-009  0.1038590E+03  0.7561462E-02  0.1272384E+00
         -1   -1    0    0    0  501 -0.00000000000E+00  0.00000000000E+00  0.53702317875E+02  0.53702317875E+02  0.00000000000E+00 0.  1.
          1   -1    0    0  501    0  0.00000000000E+00 -0.00000000000E+00 -0.37652982151E+03  0.37652982151E+03  0.00000000000E+00 0. -1.
         25    2    1    2    0    0  0.57552294511E+02 -0.44398168526E+02 -0.98689517377E+02  0.17512886641E+03  0.12508810910E+03 0.  0.
          5    1    3    3  502    0  0.34616963297E+02  0.10808926864E+01 -0.11603010624E+03  0.12116088656E+03  0.41800000000E+01 0. -1.
         -5    1    3    3    0  502  0.22935331213E+02 -0.45479061212E+02  0.17340588867E+02  0.53967979848E+02  0.41800000000E+01 0. -1.
        -11    1    1    2    0    0  0.25037789057E+02 -0.49417844961E+01 -0.43047620944E+02  0.50044078409E+02  0.00000000000E+00 0.  1.
         11    1    1    2    0    0 -0.82590083568E+02  0.49339953022E+02 -0.18109036532E+03  0.20505919457E+03  0.00000000000E+00 0. -1.
</event>
<event>
 7    1  0.2714042E-009  0.1500647E+03  0.7561462E-02  0.1200394E+00
         -1   -1    0    0    0  501 -0.00000000000E+00  0.00000000000E+00  0.30717968838E+03  0.30717968838E+03  0.00000000000E+00 0.  1.
          1   -1    0    0  501    0  0.00000000000E+00 -0.00000000000E+00 -0.88143005803E+02  0.88143005803E+02  0.00000000000E+00 0. -1.
         25    2    1    2    0    0 -0.11402057310E+03  0.31124292446E+02  0.77456359111E+02  0.18872233194E+03  0.12508884176E+03 0.  0.
          5    1    3    3  502    0  0.27086750880E+02  0.49982667406E+01  0.18943665746E+02  0.33689903763E+02  0.41800000000E+01 0.  1.
         -5    1    3    3    0  502 -0.14110732398E+03  0.26126025706E+02  0.58512693365E+02  0.15503242817E+03  0.41800000000E+01 0.  1.
        -11    1    1    2    0    0  0.51148892031E+02 -0.40363126169E+02  0.17933311501E+02  0.67579544032E+02  0.00000000000E+00 0. -1.
         11    1    1    2    0    0  0.62871681071E+02  0.92388337223E+01  0.12364701196E+03  0.13902081821E+03  0.00000000000E+00 0.  1.
</event>
<event>
 7    1  0.2714042E-009  0.1097211E+03  0.7561462E-02  0.1261087E+00
          1   -1    0    0  501    0  0.00000000000E+00  0.00000000000E+00  0.46790052449E+02  0.46790052449E+02  0.00000000000E+00 0. -1.
         -1   -1    0    0    0  501 -0.00000000000E+00 -0.00000000000E+00 -0.28254223523E+03  0.28254223523E+03  0.00000000000E+00 0.  1.
         25    2    1    2    0    0  0.39753415479E+02 -0.80283025714E+01 -0.13050738795E+03  0.18526608793E+03  0.12508619966E+03 0.  0.
          5    1    3    3  502    0 -0.23816017278E+02  0.38807450235E+02 -0.21307840057E+02  0.50445191254E+02  0.41800000000E+01 0.  1.
         -5    1    3    3    0  502  0.63569432757E+02 -0.46835752807E+02 -0.10919954789E+03  0.13482089668E+03  0.41800000000E+01 0.  1.
        -11    1    1    2    0    0  0.24506151131E+02 -0.12071374244E+02 -0.49986284730E+02  0.56964007764E+02  0.00000000000E+00 0.  1.
         11    1    1    2    0    0 -0.64259566610E+02  0.20099676815E+02 -0.55258510101E+02  0.87102191979E+02  0.00000000000E+00 0. -1.
</event>
<event>
 7    1  0.2714042E-009  0.7573003E+02  0.7561462E-02  0.1341625E+00
         -1   -1    0    0    0  501 -0.00000000000E+00  0.00000000000E+00  0.20242789143E+03  0.20242789143E+03  0.00000000000E+00 0.  1.
          1   -1    0    0  501    0  0.00000000000E+00 -0.00000000000E+00 -0.14414896003E+03  0.14414896003E+03  0.00000000000E+00 0. -1.
         25    2    1    2    0    0  0.44924288602E+02 -0.31233083697E+02  0.15218508377E+03  0.20445173923E+03  0.12508603730E+03 0.  0.
          5    1    3    3  502    0  0.57685492452E+02 -0.55506253168E+01  0.95254481983E+01  0.58878111759E+02  0.41800000000E+01 0.  1.
         -5    1    3    3    0  502 -0.12761203850E+02 -0.25682458380E+02  0.14265963558E+03  0.14557362747E+03  0.41800000000E+01 0.  1.
        -11    1    1    2    0    0 -0.30885268565E+02  0.83903253986E+00  0.10382299014E+02  0.32594415515E+02  0.00000000000E+00 0.  1.
         11    1    1    2    0    0 -0.14039020038E+02  0.30394051157E+02 -0.10428845140E+03  0.10953069672E+03  0.00000000000E+00 0. -1.
</event>
<event>
 7    1  0.2714042E-009  0.9677008E+02  0.7561462E-02  0.1287238E+00
          1   -1    0    0  501    0  0.00000000000E+00  0.00000000000E+00  0.91526187661E+02  0.91526187661E+02  0.00000000000E+00 0. -1.
         -1   -1    0    0    0  501 -0.00000000000E+00 -0.00000000000E+00 -0.16758262281E+03  0.16758262281E+03  0.00000000000E+00 0.  1.
         25    2    1    2    0    0  0.81566936186E+01 -0.59084983194E+02 -0.44532953159E+02  0.14556678547E+03  0.12509571625E+03 0.  0.
          5    1    3    3  502    0  0.52300403739E+02 -0.70525926875E+02 -0.10531113790E+02  0.88530307525E+02  0.41800000000E+01 0.  1.
         -5    1    3    3    0  502 -0.44143710120E+02  0.11440943681E+02 -0.34001839369E+02  0.57036477941E+02  0.41800000000E+01 0.  1.
        -11    1    1    2    0    0 -0.56247622616E+01  0.23248753193E+02 -0.61985296828E+02  0.66440345411E+02  0.00000000000E+00 0.  1.
         11    1    1    2    0    0 -0.25319313570E+01  0.35836230001E+02  0.30461814840E+02  0.47101679592E+02  0.00000000000E+00 0. -1.
</event>
<event>
 7    1  0.3761331E-009  0.1258836E+03  0.7561462E-02  0.1233695E+00
          2   -1    0    0  501    0  0.00000000000E+00  0.00000000000E+00  0.52703051498E+03  0.52703051498E+03  0.00000000000E+00 0. -1.
         -2   -1    0    0    0  501 -0.00000000000E+00 -0.00000000000E+00 -0.45952991813E+02  0.45952991813E+02  0.00000000000E+00 0.  1.
         25    2    1    2    0    0 -0.82068553570E+02  0.40558785034E+02  0.14256561240E+03  0.21059853331E+03  0.12508607382E+03 0.  0.
          5    1    3    3  502    0 -0.10249736384E+03  0.34054992466E+02  0.15224081467E+03  0.18670883792E+03  0.41800000000E+01 0.  1.
         -5    1    3    3    0  502  0.20428810273E+02  0.65037925677E+01 -0.96752022648E+01  0.23889695390E+02  0.41800000000E+01 0.  1.
        -11    1    1    2    0    0  0.27015055248E+02 -0.58085698361E+02  0.23779906247E+03  0.24627658369E+03  0.00000000000E+00 0. -1.
         11    1    1    2    0    0  0.55053498322E+02  0.17526913327E+02  0.10071284830E+03  0.11610838979E+03  0.00000000000E+00 0.  1.
</event>
<event>
 7    1  0.2714042E-009  0.1104235E+03  0.7561462E-02  0.1259788E+00
          1   -1    0    0  501    0  0.00000000000E+00  0.00000000000E+00  0.31545919538E+03  0.31545919538E+03  0.00000000000E+00 0. -1.
         -1   -1    0    0    0  501 -0.00000000000E+00 -0.00000000000E+00 -0.42352478435E+02  0.42352478435E+02  0.00000000000E+00 0.  1.
         25    2    1    2    0    0 -0.68671176885E+01 -0.36738082813E+02  0.17724262116E+03  0.22013623915E+03  0.12509265765E+03 0.  0.
          5    1    3    3  502    0  0.31868261924E+02  0.33028022275E+02  0.94326743013E+02  0.10498306159E+03  0.41800000000E+01 0.  1.
         -5    1    3    3    0  502 -0.38735379613E+02 -0.69766105088E+02  0.82915878146E+02  0.11515317756E+03  0.41800000000E+01 0.  1.
        -11    1    1    2    0    0 -0.25799089381E+02  0.52565209571E+02  0.39492841235E+02  0.70628455873E+02  0.00000000000E+00 0.  1.
         11    1    1    2    0    0  0.32666207070E+02 -0.15827126759E+02  0.56371254552E+02  0.67046978795E+02  0.00000000000E+00 0. -1.
</event>
<event>
 7    1  0.2714042E-009  0.1498842E+03  0.7561462E-02  0.1200615E+00
         -1   -1    0    0    0  501 -0.00000000000E+00  0.00000000000E+00  0.50338543838E+02  0.50338543838E+02  0.00000000000E+00 0.  1.
          1   -1    0    0  501    0  0.00000000000E+00 -0.00000000000E+00 -0.48864190868E+03  0.48864190868E+03  0.00000000000E+00 0. -1.
         25    2    1    2    0    0  0.10105218194E+02 -0.10544716113E+03 -0.27743364832E+03  0.32223936452E+03  0.12509020585E+03 0.  0.
          5    1    3    3  502    0 -0.29803155308E+02  0.10900562314E+02 -0.10919692422E+03  0.11379143634E+03  0.41800000000E+01 0.  1.
         -5    1    3    3    0  502  0.39908373502E+02 -0.11634772345E+03 -0.16823672410E+03  0.20844792818E+03  0.41800000000E+01 0.  1.
        -11    1    1    2    0    0 -0.50454845897E+02  0.28871213881E+02 -0.55408066902E+02  0.80307486222E+02  0.00000000000E+00 0.  1.
         11    1    1    2    0    0  0.40349627703E+02  0.76575947253E+02 -0.10546164962E+03  0.13643360178E+03  0.00000000000E+00 0. -1.
</event>
<event>
 7    1  0.2714042E-009  0.1020012E+03  0.7561462E-02  0.1276143E+00
         -1   -1    0    0    0  501 -0.00000000000E+00  0.00000000000E+00  0.13139188846E+03  0.13139188846E+03  0.00000000000E+00 0.  1.
          1   -1    0    0  501    0  0.00000000000E+00 -0.00000000000E+00 -0.15782097643E+03  0.15782097643E+03  0.00000000000E+00 0. -1.
         25    2    1    2    0    0 -0.76059347026E+01  0.81466751742E+01 -0.10709764555E+03  0.16504695413E+03  0.12508546210E+03 0.  0.
          5    1    3    3  502    0 -0.54858465103E+01  0.59441393355E+02 -0.94774363263E+02  0.11208490571E+03  0.41800000000E+01 0.  1.
         -5    1    3    3    0  502 -0.21200881923E+01 -0.51294718180E+02 -0.12323282283E+02  0.52962048425E+02  0.41800000000E+01 0.  1.
        -11    1    1    2    0    0  0.49465814394E+02 -0.11079323641E+02  0.55802189734E+02  0.75389008384E+02  0.00000000000E+00 0.  1.
         11    1    1    2    0    0 -0.41859879692E+02  0.29326484669E+01  0.24866367849E+02  0.48776902370E+02  0.00000000000E+00 0. -1.
</event>
<event>
 7    1  0.2714042E-009  0.1308270E+03  0.7561462E-02  0.1226234E+00
          1   -1    0    0  501    0  0.00000000000E+00  0.00000000000E+00  0.13973156108E+03  0.13973156108E+03  0.00000000000E+00 0. -1.
         -1   -1    0    0    0  501 -0.00000000000E+00 -0.00000000000E+00 -0.15344181505E+03  0.15344181505E+03  0.00000000000E+00 0.  1.
         25    2    1    2    0    0 -0.55215083699E+02  0.79363271660E+02  0.17240719337E+02  0.15904014591E+03  0.12509712727E+03 0.  0.
          5    1    3    3  502    0 -0.15320946540E+02 -0.31096288069E+02 -0.13715468346E+02  0.37513957489E+02  0.41800000000E+01 0. -1.
         -5    1    3    3    0  502 -0.39894137159E+02  0.11045955973E+03  0.30956187682E+02  0.12152618842E+03  0.41800000000E+01 0. -1.
        -11    1    1    2    0    0 -0.54354582454E+01 -0.31479645398E+02  0.23451613139E+02  0.39629413818E+02  0.00000000000E+00 0. -1.
         11    1    1    2    0    0  0.60650541944E+02 -0.47883626262E+02 -0.54402586451E+02  0.94503816403E+02  0.00000000000E+00 0.  1.
</event>
<event>
 7    1  0.2714042E-009  0.9529306E+02  0.7561462E-02  0.1290517E+00
         -2   -1    0    0    0  501 -0.00000000000E+00  0.00000000000E+00  0.15636105194E+02  0.15636105194E+02  0.00000000000E+00 0.  1.
          2   -1    0    0  501    0  0.00000000000E+00 -0.00000000000E+00 -0.11204516566E+04  0.11204516566E+04  0.00000000000E+00 0. -1.
         25    2    1    2    0    0  0.47389242458E+02 -0.53462969916E+02 -0.68567408462E+03  0.70064327230E+03  0.12509202708E+03 0.  0.
          5    1    3    3  502    0  0.34645586638E+02 -0.44227165862E+02 -0.68151078739E+03  0.68383534905E+03  0.41800000000E+01 0.  1.
         -5    1    3    3    0  502  0.12743655819E+02 -0.92358040542E+01 -0.41632972300E+01  0.16807923251E+02  0.41800000000E+01 0.  1.
        -11    1    1    2    0    0 -0.37877047427E+02  0.80682745144E+02 -0.31011441999E+03  0.32266907129E+03  0.00000000000E+00 0.  1.
         11    1    1    2    0    0 -0.95121950309E+01 -0.27219775227E+02 -0.10902704683E+03  0.11277541824E+03  0.00000000000E+00 0. -1.
</event>
<event>
 7    1  0.2714042E-009  0.1221322E+03  0.7561462E-02  0.1239621E+00
         -2   -1    0    0    0  501 -0.00000000000E+00  0.00000000000E+00  0.38011955008E+03  0.38011955008E+03  0.00000000000E+00 0.  1.
          2   -1    0    0  501    0  0.00000000000E+00 -0.00000000000E+00 -0.40103791848E+02  0.40103791848E+02  0.00000000000E+00 0. -1.
         25    2    1    2    0    0  0.97396498831E+01 -0.56837747222E+02  0.20207791789E+03  0.24455394638E+03  0.12508300246E+03 0.  0.
          5    1    3    3  502    0  0.41328549105E+02 -0.84476224985E+02  0.12255145700E+03  0.15453353543E+03  0.41800000000E+01 0. -1.
         -5    1    3    3    0  502 -0.31588899222E+02  0.27638477763E+02  0.79526460892E+02  0.90020410958E+02  0.41800000000E+01 0. -1.
        -11    1    1    2    0    0  0.24179960346E+02  0.68052980911E+02  0.10214766197E+03  0.12510005412E+03  0.00000000000E+00 0.  1.
         11    1    1    2    0    0 -0.33919610229E+02 -0.11215233689E+02  0.35790178365E+02  0.50569341425E+02  0.00000000000E+00 0. -1.
</event>
<event>
 7    1  0.2714042E-009  0.1438470E+03  0.7561462E-02  0.1208244E+00
         -2   -1    0    0    0  501 -0.00000000000E+00  0.00000000000E+00  0.20690631234E+03  0.20690631234E+03  0.00000000000E+00 0.  1.
          2   -1    0    0  501    0  0.00000000000E+00 -0.00000000000E+00 -0.14399790099E+03  0.14399790099E+03  0.00000000000E+00 0. -1.
         25    2    1    2    0    0 -0.11844796535E+03 -0.50605669917E+02  0.71947260747E+02  0.19342817781E+03  0.12508875777E+03 0.  0.
          5    1    3    3  502    0 -0.70774058639E+02 -0.46649358141E+02 -0.22215754791E+02  0.87727658991E+02  0.41800000000E+01 0.  1.
         -5    1    3    3    0  502 -0.47673906707E+02 -0.39563117763E+01  0.94163015539E+02  0.10570051882E+03  0.41800000000E+01 0.  1.
        -11    1    1    2    0    0  0.49126889940E+02  0.67472166488E+02  0.88324170440E+01  0.83928279839E+02  0.00000000000E+00 0.  1.
         11    1    1    2    0    0  0.69321075405E+02 -0.16866496571E+02 -0.17871266434E+02  0.73547755682E+02  0.00000000000E+00 0. -1.
</event>
<event>
 7    1  0.2714042E-009  0.8522526E+02  0.7561462E-02  0.1314844E+00
         -1   -1    0    0    0  501 -0.00000000000E+00  0.00000000000E+00  0.82252353860E+02  0.82252353860E+02  0.00000000000E+00 0.  1.
          1   -1    0    0  501    0  0.00000000000E+00 -0.00000000000E+00 -0.20836356982E+03  0.20836356982E+03  0.00000000000E+00 0. -1.
         25    2    1    2    0    0  0.92016115075E+01 -0.52328625458E+02 -0.20318357946E+02  0.13741745620E+03  0.12509103446E+03 0.  0.
          5    1    3    3  502    0 -0.91573619761E+01 -0.27596231961E+02  0.51428522639E+02  0.59226469063E+02  0.41800000000E+01 0.  1.
         -5    1    3    3    0  502  0.18358973484E+02 -0.24732393497E+02 -0.71746880586E+02  0.78190987136E+02  0.41800000000E+01 0.  1.
        -11    1    1    2    0    0 -0.52824982551E+02  0.32939747687E+02 -0.50593649348E+02  0.80219842393E+02  0.00000000000E+00 0.  1.
         11    1    1    2    0    0  0.43623371044E+02  0.19388877771E+02 -0.55199208666E+02  0.72978625088E+02  0.00000000000E+00 0. -1.
</event>
<event>
 7    1  0.2714042E-009  0.1080796E+03  0.7561462E-02  0.1264168E+00
          2   -1    0    0  501    0  0.00000000000E+00  0.00000000000E+00  0.27830499559E+03  0.27830499559E+03  0.00000000000E+00 0. -1.
         -2   -1    0    0    0  501 -0.00000000000E+00 -0.00000000000E+00 -0.47317284072E+02  0.47317284072E+02  0.00000000000E+00 0.  1.
         25    2    1    2    0    0 -0.25235499990E+02  0.13067756902E+02  0.97093767851E+02  0.16088075058E+03  0.12509124438E+03 0.  0.
          5    1    3    3  502    0 -0.73241748741E+02  0.17313006313E+02  0.79113795641E+02  0.10927286492E+03  0.41800000000E+01 0. -1.
         -5    1    3    3    0  502  0.48006248751E+02 -0.42452494111E+01  0.17979972210E+02  0.51607885661E+02  0.41800000000E+01 0. -1.
        -11    1    1    2    0    0 -0.23828001450E+02 -0.31932878229E+02  0.80467954017E+02  0.89791836982E+02  0.00000000000E+00 0.  1.
         11    1    1    2    0    0  0.49063501440E+02  0.18865121327E+02  0.53425989651E+02  0.74949692103E+02  0.00000000000E+00 0. -1.
</event>
<event>
 7    1  0.2714042E-009  0.2036779E+03  0.7561462E-02  0.1146673E+00
         -2   -1    0    0    0  501 -0.00000000000E+00  0.00000000000E+00  0.22712222464E+03  0.22712222464E+03  0.00000000000E+00 0.  1.
          2   -1    0    0  501    0  0.00000000000E+00 -0.00000000000E+00 -0.33737177630E+03  0.33737177630E+03  0.00000000000E+00 0. -1.
         25    2    1    2    0    0  0.17628162034E+03  0.80365894799E+02 -0.22441027022E+03  0.32177938231E+03  0.12509242497E+03 0.  0.
          5    1    3    3  502    0  0.51442761732E+02  0.82482308043E+01 -0.15130302231E+03  0.16007644425E+03  0.41800000000E+01 0. -1.
         -5    1    3    3    0  502  0.12483885861E+03  0.72117663994E+02 -0.73107247912E+02  0.16170293806E+03  0.41800000000E+01 0. -1.
        -11    1    1    2    0    0 -0.15430287511E+03 -0.31796821213E+02  0.65789125300E+02  0.17072968141E+03  0.00000000000E+00 0. -1.
         11    1    1    2    0    0 -0.21978745229E+02 -0.48569073586E+02  0.48371593262E+02  0.71984937213E+02  0.00000000000E+00 0.  1.
</event>
<event>
 7    1  0.2714042E-009  0.6858287E+02  0.7561462E-02  0.1364979E+00
         -1   -1    0    0    0  501 -0.00000000000E+00  0.00000000000E+00  0.98829470072E+02  0.98829470072E+02  0.00000000000E+00 0.  1.
          1   -1    0    0  501    0  0.00000000000E+00 -0.00000000000E+00 -0.12620016403E+03  0.12620016403E+03  0.00000000000E+00 0. -1.
         25    2    1    2    0    0  0.49333864081E+01 -0.30467917266E+02 -0.80258510994E+01  0.12908921546E+03  0.12508788502E+03 0.  0.
          5    1    3    3  502    0 -0.24164164335E+02 -0.39336110075E+02  0.47039953336E+02  0.66041396137E+02  0.41800000000E+01 0. -1.
         -5    1    3    3    0  502  0.29097550744E+02  0.88681928096E+01 -0.55065804435E+02  0.63047819321E+02  0.41800000000E+01 0. -1.
        -11    1    1    2    0    0  0.53613439289E+01  0.43314029675E+02 -0.46759209392E+02  0.63963058388E+02  0.00000000000E+00 0. -1.
         11    1    1    2    0    0 -0.10294730337E+02 -0.12846112409E+02  0.27414366532E+02  0.31977360258E+02  0.00000000000E+00 0.  1.
</event>
<event>
 7    1  0.2714042E-009  0.1125802E+03  0.7561462E-02  0.1255865E+00
         -1   -1    0    0    0  501 -0.00000000000E+00  0.00000000000E+00  0.73482833637E+02  0.73482833637E+02  0.00000000000E+00 0.  1.
          1   -1    0    0  501    0  0.00000000000E+00 -0.00000000000E+00 -0.23508701002E+03  0.23508701002E+03  0.00000000000E+00 0. -1.
         25    2    1    2    0    0  0.55338267249E+02 -0.24853246022E+02 -0.37887363416E+02  0.14409749646E+03  0.12509447837E+03 0.  0.
          5    1    3    3  502    0  0.17956972647E+02 -0.61613019170E+02 -0.59141232192E+02  0.87371475569E+02  0.41800000000E+01 0. -1.
         -5    1    3    3    0  502  0.37381294602E+02  0.36759773149E+02  0.21253868775E+02  0.56726020890E+02  0.41800000000E+01 0. -1.
        -11    1    1    2    0    0 -0.78460206055E+02  0.64915541090E+01 -0.93380675888E+02  0.12213965301E+03  0.00000000000E+00 0. -1.
         11    1    1    2    0    0  0.23121938806E+02  0.18361691913E+02 -0.30336137073E+02  0.42332694180E+02  0.00000000000E+00 0.  1.
</event>
<event>
 7    1  0.2714042E-009  0.8233893E+02  0.7561462E-02  0.1322542E+00
         -1   -1    0    0    0  501 -0.00000000000E+00  0.00000000000E+00  0.33338538664E+03  0.33338538664E+03  0.00000000000E+00 0.  1.
          1   -1    0    0  501    0  0.00000000000E+00 -0.00000000000E+00 -0.38267073400E+02  0.38267073400E+02  0.00000000000E+00 0. -1.
         25    2    1    2    0    0 -0.12381934597E+02 -0.21481873039E+02  0.16031828668E+03  0.20484714650E+03  0.12508244166E+03 0.  0.
          5    1    3    3  502    0 -0.66459181225E+02 -0.29236785221E+02  0.91513041241E+02  0.11689192229E+03  0.41800000000E+01 0.  1.
         -5    1    3    3    0  502  0.54077246628E+02  0.77549121823E+01  0.68805245439E+02  0.87955224209E+02  0.41800000000E+01 0.  1.
        -11    1    1    2    0    0  0.28076491083E+01  0.26295778862E+02  0.14769202164E+03  0.15004094153E+03  0.00000000000E+00 0.  1.
         11    1    1    2    0    0  0.95742854885E+01 -0.48139058230E+01 -0.12891995078E+02  0.16764372013E+02  0.00000000000E+00 0. -1.
</event>
<event>
 7    1  0.2714042E-009  0.1353877E+03  0.7561462E-02  0.1219673E+00
          1   -1    0    0  501    0  0.00000000000E+00  0.00000000000E+00  0.63280553416E+03  0.63280553416E+03  0.00000000000E+00 0. -1.
         -1   -1    0    0    0  501 -0.00000000000E+00 -0.00000000000E+00 -0.37696949627E+02  0.37696949627E+02  0.00000000000E+00 0.  1.
         25    2    1    2    0    0  0.83170298090E+02 -0.23660340692E+02  0.17470394158E+03  0.23161614654E+03  0.12508981544E+03 0.  0.
          5    1    3    3  502    0  0.81931220738E+02  0.34213049133E+02  0.75226902885E+02  0.11644662717E+03  0.41800000000E+01 0. -1.
         -5    1    3    3    0  502  0.12390773524E+01 -0.57873389826E+02  0.99477038699E+02  0.11516951937E+03  0.41800000000E+01 0. -1.
        -11    1    1    2    0    0 -0.55495819329E+02  0.57650072678E+02  0.23070129673E+03  0.24418518620E+03  0.00000000000E+00 0.  1.
         11    1    1    2    0    0 -0.27674478761E+02 -0.33989731986E+02  0.18970334622E+03  0.19470115106E+03  0.00000000000E+00 0. -1.
</event>
<event>
 7    1  0.2714042E-009  0.1586030E+03  0.7561462E-02  0.1190283E+00
          2   -1    0    0  501    0  0.00000000000E+00  0.00000000000E+00  0.40391132934E+03  0.40391132934E+03  0.00000000000E+00 0. -1.
         -2   -1    0    0    0  501 -0.00000000000E+00 -0.00000000000E+00 -0.88419348024E+02  0.88419348024E+02  0.00000000000E+00 0.  1.
         25    2    1    2    0    0  0.13240767631E+03 -0.74168862179E+02  0.13261027737E+03  0.23720291804E+03  0.12508767246E+03 0.  0.
          5    1    3    3  502    0  0.44008846026E+02 -0.44972352291E+01 -0.19005676511E+02  0.48328995364E+02  0.41800000000E+01 0. -1.
         -5    1    3    3    0  502  0.88398830286E+02 -0.69671626950E+02  0.15161595388E+03  0.18887392268E+03  0.41800000000E+01 0. -1.
        -11    1    1    2    0    0 -0.52033390827E+02  0.58426307407E+02  0.34211121788E+02  0.85390327392E+02  0.00000000000E+00 0. -1.
         11    1    1    2    0    0 -0.80374285485E+02  0.15742554772E+02  0.14867058215E+03  0.16973743192E+03  0.00000000000E+00 0.  1.
</event>
<event>
 7    1  0.2714042E-009  0.1254583E+03  0.7561462E-02  0.1234355E+00
          1   -1    0    0  501    0  0.00000000000E+00  0.00000000000E+00  0.21136583628E+03  0.21136583628E+03  0.00000000000E+00 0. -1.
         -1   -1    0    0    0  501 -0.00000000000E+00 -0.00000000000E+00 -0.87971080474E+02  0.87971080474E+02  0.00000000000E+00 0.  1.
         25    2    1    2    0    0  0.24938756469E+02 -0.63122557492E+02  0.17368731549E+02  0.14337211701E+03  0.12508993669E+03 0.  0.
          5    1    3    3  502    0 -0.67181180024E+01  0.33817245441E+02 -0.12686877952E+02  0.36975241322E+02  0.41800000000E+01 0. -1.
         -5    1    3    3    0  502  0.31656874471E+02 -0.96939802932E+02  0.30055609501E+02  0.10639687569E+03  0.41800000000E+01 0. -1.
        -11    1    1    2    0    0  0.84827241240E+01 -0.21514125211E+02  0.17394207809E+02  0.28937392030E+02  0.00000000000E+00 0.  1.
         11    1    1    2    0    0 -0.33421480593E+02  0.84636682702E+02  0.88631816451E+02  0.12702740772E+03  0.00000000000E+00 0. -1.
</event>
<event>
 7    1  0.2714042E-009  0.1840556E+03  0.7561462E-02  0.1163935E+00
         -1   -1    0    0    0  501 -0.00000000000E+00  0.00000000000E+00  0.11423458160E+03  0.11423458160E+03  0.00000000000E+00 0.  1.
          1   -1    0    0  501    0  0.00000000000E+00 -0.00000000000E+00 -0.32378837517E+03  0.32378837517E+03  0.00000000000E+00 0. -1.
         25    2    1    2    0    0  0.39542932484E+02  0.15313265880E+03 -0.10614817690E+03  0.22787762824E+03  0.12509006072E+03 0.  0.
          5    1    3    3  502    0  0.37798242950E+02  0.64099889886E+01  0.10962855753E+02  0.40093038488E+02  0.41800000000E+01 0. -1.
         -5    1    3    3    0  502  0.17446895343E+01  0.14672266981E+03 -0.11711103265E+03  0.18778458975E+03  0.41800000000E+01 0. -1.
        -11    1    1    2    0    0 -0.66272385521E+02 -0.13519058586E+03 -0.88770684853E+02  0.17478203019E+03  0.00000000000E+00 0.  1.
         11    1    1    2    0    0  0.26729453037E+02 -0.17942072946E+02 -0.14634931817E+02  0.35363298355E+02  0.00000000000E+00 0. -1.
</event>
<event>
 7    1  0.2714042E-009  0.1434245E+03  0.7561462E-02  0.1208794E+00
          1   -1    0    0  501    0  0.00000000000E+00  0.00000000000E+00  0.49238073696E+03  0.49238073696E+03  0.00000000000E+00 0. -1.
         -1   -1    0    0    0  501 -0.00000000000E+00 -0.00000000000E+00 -0.43204962175E+02  0.43204962175E+02  0.00000000000E+00 0.  1.
         25    2    1    2    0    0 -0.17304751378E+02  0.94071228823E+02  0.28296631027E+03  0.32383090951E+03  0.12509066590E+03 0.  0.
          5    1    3    3  502    0 -0.30273670003E+02  0.12136215629E+03  0.20595244600E+03  0.24099616280E+03  0.41800000000E+01 0.  1.
         -5    1    3    3    0  502  0.12968918625E+02 -0.27290927463E+02  0.77013864270E+02  0.82834746706E+02  0.41800000000E+01 0.  1.
        -11    1    1    2    0    0 -0.33538684377E+02 -0.63648696259E+02  0.89880444515E+02  0.11512816420E+03  0.00000000000E+00 0. -1.
         11    1    1    2    0    0  0.50843435755E+02 -0.30422532564E+02  0.76329020006E+02  0.96626625431E+02  0.00000000000E+00 0.  1.
</event>
<event>
 7    1  0.2714042E-009  0.1684472E+03  0.7561462E-02  0.1179477E+00
          1   -1    0    0  501    0  0.00000000000E+00  0.00000000000E+00  0.60463402051E+03  0.60463402051E+03  0.00000000000E+00 0. -1.
         -1   -1    0    0    0  501 -0.00000000000E+00 -0.00000000000E+00 -0.60544528338E+02  0.60544528338E+02  0.00000000000E+00 0.  1.
         25    2    1    2    0    0  0.14380561923E+03  0.60894418393E+02  0.25579819558E+03  0.32475912580E+03  0.12509031381E+03 0.  0.
          5    1    3    3  502    0  0.12491882796E+03  0.53380352035E+02  0.10292846858E+03  0.17048729456E+03  0.41800000000E+01 0.  1.
         -5    1    3    3    0  502  0.18886791264E+02  0.75140663582E+01  0.15286972700E+03  0.15427183123E+03  0.41800000000E+01 0.  1.
        -11    1    1    2    0    0 -0.75149602349E+02  0.16327748097E+02  0.13903487527E+03  0.15888597997E+03  0.00000000000E+00 0. -1.
         11    1    1    2    0    0 -0.68656016879E+02 -0.77222166490E+02  0.14925642131E+03  0.18153344307E+03  0.00000000000E+00 0.  1.
</event>
<event>
 7    1  0.2714042E-009  0.1051686E+03  0.7561462E-02  0.1269788E+00
          1   -1    0    0  501    0  0.00000000000E+00  0.00000000000E+00  0.23498200727E+03  0.23498200727E+03  0.00000000000E+00 0. -1.
         -1   -1    0    0    0  501 -0.00000000000E+00 -0.00000000000E+00 -0.86177009126E+02  0.86177009126E+02  0.00000000000E+00 0.  1.
         25    2    1    2    0    0  0.79854333955E+02  0.32854045583E+02  0.11719270750E+03  0.19192509725E+03  0.12508001160E+03 0.  0.
          5    1    3    3  502    0 -0.89884117404E+01  0.66089894803E+01  0.96084867985E+02  0.96820682414E+02  0.41800000000E+01 0.  1.
         -5    1    3    3    0  502  0.88842745696E+02  0.26245056103E+02  0.21107839516E+02  0.95104414837E+02  0.41800000000E+01 0.  1.
        -11    1    1    2    0    0 -0.27847744541E+02 -0.44407070932E+02 -0.18997145014E+02  0.55752814668E+02  0.00000000000E+00 0.  1.
         11    1    1    2    0    0 -0.52006589414E+02  0.11553025349E+02  0.50609435656E+02  0.73481104474E+02  0.00000000000E+00 0. -1.
</event>
<event>
 7    1  0.2714042E-009  0.2522695E+03  0.7561462E-02  0.1111879E+00
         -1   -1    0    0    0  501 -0.00000000000E+00  0.00000000000E+00  0.11090134608E+03  0.11090134608E+03  0.00000000000E+00 0.  1.
          1   -1    0    0  501    0  0.00000000000E+00 -0.00000000000E+00 -0.69290856304E+03  0.69290856304E+03  0.00000000000E+00 0. -1.
         25    2    1    2    0    0  0.10891009373E+03  0.21776535236E+03 -0.19169745588E+03  0.33418234189E+03  0.12508703304E+03 0.  0.
          5    1    3    3  502    0  0.41574964531E+02  0.64402826037E+02 -0.13857033746E+03  0.15841531649E+03  0.41800000000E+01 0.  1.
         -5    1    3    3    0  502  0.67335129202E+02  0.15336252632E+03 -0.53127118422E+02  0.17576702540E+03  0.41800000000E+01 0.  1.
        -11    1    1    2    0    0 -0.32874214428E+02 -0.16359230221E+03 -0.23073837199E+03  0.28475138564E+03  0.00000000000E+00 0. -1.
         11    1    1    2    0    0 -0.76035879306E+02 -0.54173050151E+02 -0.15957138909E+03  0.18487618159E+03  0.00000000000E+00 0.  1.
</event>
<event>
 7    1  0.2714042E-009  0.1348386E+03  0.7561462E-02  0.1220448E+00
         -2   -1    0    0    0  501 -0.00000000000E+00  0.00000000000E+00  0.91957233574E+02  0.91957233574E+02  0.00000000000E+00 0. -1.
          2   -1    0    0  501    0  0.00000000000E+00 -0.00000000000E+00 -0.21957612387E+03  0.21957612387E+03  0.00000000000E+00 0.  1.
         25    2    1    2    0    0 -0.74195956772E+01 -0.83309152724E+02 -0.28830178160E+02  0.15321536182E+03  0.12509317566E+03 0.  0.
          5    1    3    3  502    0 -0.40828067390E+02  0.14951512987E+02  0.50251548698E+01  0.43968209071E+02  0.41800000000E+01 0. -1.
         -5    1    3    3    0  502  0.33408471713E+02 -0.98260665712E+02 -0.33855333030E+02  0.10924715274E+03  0.41800000000E+01 0. -1.
        -11    1    1    2    0    0  0.34411954143E+02 -0.15034030028E+00 -0.16981009593E+02  0.38373947894E+02  0.00000000000E+00 0.  1.
         11    1    1    2    0    0 -0.26992358466E+02  0.83459493024E+02 -0.81807702539E+02  0.11994404773E+03  0.00000000000E+00 0. -1.
</event>
<event>
 7    1  0.2714042E-009  0.1571666E+03  0.7561462E-02  0.1191933E+00
          2   -1    0    0  501    0  0.00000000000E+00  0.00000000000E+00  0.17909209712E+03  0.17909209712E+03  0.00000000000E+00 0. -1.
         -2   -1    0    0    0  501 -0.00000000000E+00 -0.00000000000E+00 -0.18072374109E+03  0.18072374109E+03  0.00000000000E+00 0.  1.
         25    2    1    2    0    0 -0.39076717925E+02 -0.11094482431E+03  0.81578551968E+02  0.19009432132E+03  0.12508016203E+03 0.  0.
          5    1    3    3  502    0 -0.59672136535E+02 -0.12961505994E+03  0.60916191629E+02  0.15520657990E+03  0.41800000000E+01 0.  1.
         -5    1    3    3    0  502  0.20595418610E+02  0.18670235636E+02  0.20662360339E+02  0.34887741417E+02  0.41800000000E+01 0.  1.
        -11    1    1    2    0    0  0.13303727782E+01  0.10529446352E+03 -0.78335430321E+02  0.13124455640E+03  0.00000000000E+00 0.  1.
         11    1    1    2    0    0  0.37746345147E+02  0.56503607824E+01 -0.48747656259E+01  0.38476960494E+02  0.00000000000E+00 0. -1.
</event>
<event>
 7    1  0.2714042E-009  0.1048149E+03  0.7561462E-02  0.1270485E+00
         -2   -1    0    0    0  501 -0.00000000000E+00  0.00000000000E+00  0.27767897474E+02  0.27767897474E+02  0.00000000000E+00 0. -1.
          2   -1    0    0  501    0  0.00000000000E+00 -0.00000000000E+00 -0.54326440210E+03  0.54326440210E+03  0.00000000000E+00 0.  1.
         25    2    1    2    0    0 -0.28892925857E+02  0.47933761901E+02 -0.25402223298E+03  0.28862967309E+03  0.12508935464E+03 0.  0.
          5    1    3    3  502    0 -0.48760780802E+02  0.65112469557E+02 -0.24844375436E+03  0.26145557733E+03  0.41800000000E+01 0. -1.
         -5    1    3    3    0  502  0.19867854944E+02 -0.17178707656E+02 -0.55784786248E+01  0.27174095764E+02  0.41800000000E+01 0. -1.
        -11    1    1    2    0    0 -0.21233293836E+02  0.11243968192E+02 -0.10562508253E+03  0.10832330150E+03  0.00000000000E+00 0.  1.
         11    1    1    2    0    0  0.50126219693E+02 -0.59177730093E+02 -0.15584918911E+03  0.17407932498E+03  0.00000000000E+00 0. -1.
</event>
<event>
 7    1  0.2714042E-009  0.2418270E+03  0.7561462E-02  0.1118582E+00
         -2   -1    0    0    0  501 -0.00000000000E+00  0.00000000000E+00  0.51849027714E+02  0.51849027714E+02  0.00000000000E+00 0.  1.
          2   -1    0    0  501    0  0.00000000000E+00 -0.00000000000E+00 -0.12942710453E+04  0.12942710453E+04  0.00000000000E+00 0. -1.
         25    2    1    2    0    0 -0.25630736210E+02  0.23230043243E+03 -0.68773876225E+03  0.73705668638E+03  0.12509008072E+03 0.  0.
          5    1    3    3  502    0 -0.54093385261E+02  0.18021447512E+03 -0.61460160649E+03  0.64277208906E+03  0.41800000000E+01 0.  1.
         -5    1    3    3    0  502  0.28462649052E+02  0.52085957312E+02 -0.73137155759E+02  0.94284597325E+02  0.41800000000E+01 0.  1.
        -11    1    1    2    0    0  0.33477377501E+02 -0.18794058451E+03 -0.51421750537E+03  0.54850892512E+03  0.00000000000E+00 0. -1.
         11    1    1    2    0    0 -0.78466412910E+01 -0.44359847918E+02 -0.40465749930E+02  0.60554461472E+02  0.00000000000E+00 0.  1.
</event>
<event>
 7    1  0.2714042E-009  0.2495048E+03  0.7561462E-02  0.1113618E+00
          2   -1    0    0  501    0  0.00000000000E+00  0.00000000000E+00  0.93436471158E+02  0.93436471158E+02  0.00000000000E+00 0. -1.
         -2   -1    0    0    0  501 -0.00000000000E+00 -0.00000000000E+00 -0.82505894062E+03  0.82505894062E+03  0.00000000000E+00 0.  1.
         25    2    1    2    0    0  0.61158232918E+01 -0.22812978118E+03 -0.18592335174E+03  0.31983433840E+03  0.12508361580E+03 0.  0.
          5    1    3    3  502    0  0.47559527468E+02 -0.40039665385E+02 -0.19593919966E+02  0.65318278887E+02  0.41800000000E+01 0.  1.
         -5    1    3    3    0  502 -0.41443704176E+02 -0.18809011579E+03 -0.16632943178E+03  0.25451605951E+03  0.41800000000E+01 0.  1.
        -11    1    1    2    0    0 -0.46321394985E+02  0.12996005383E+03 -0.34687430715E+03  0.37330560160E+03  0.00000000000E+00 0.  1.
         11    1    1    2    0    0  0.40205571694E+02  0.98169727344E+02 -0.19882481057E+03  0.22535547178E+03  0.00000000000E+00 0. -1.
</event>
<event>
 7    1  0.2714042E-009  0.1287239E+03  0.7561462E-02  0.1229362E+00
         -2   -1    0    0    0  501 -0.00000000000E+00  0.00000000000E+00  0.58049804129E+02  0.58049804129E+02  0.00000000000E+00 0.  1.
          2   -1    0    0  501    0  0.00000000000E+00 -0.00000000000E+00 -0.47642839182E+03  0.47642839182E+03  0.00000000000E+00 0. -1.
         25    2    1    2    0    0 -0.93531356995E+02  0.25230853077E+02 -0.35030116171E+03  0.38437292804E+03  0.12508770212E+03 0.  0.
          5    1    3    3  502    0 -0.17905185110E+02 -0.26713980521E+02 -0.23372676976E+03  0.23596590371E+03  0.41800000000E+01 0.  1.
         -5    1    3    3    0  502 -0.75626171885E+02  0.51944833598E+02 -0.11657439195E+03  0.14840702433E+03  0.41800000000E+01 0.  1.
        -11    1    1    2    0    0  0.44413424453E+02  0.34213540527E+02 -0.21668305672E+02  0.60105191936E+02  0.00000000000E+00 0. -1.
         11    1    1    2    0    0  0.49117932542E+02 -0.59444393603E+02 -0.46409120305E+02  0.90000075975E+02  0.00000000000E+00 0.  1.
</event>
<event>
 7    1  0.2714042E-009  0.2555344E+03  0.7561462E-02  0.1109856E+00
         -2   -1    0    0    0  501 -0.00000000000E+00  0.00000000000E+00  0.49555885470E+03  0.49555885470E+03  0.00000000000E+00 0.  1.
          2   -1    0    0  501    0  0.00000000000E+00 -0.00000000000E+00 -0.16077827057E+03  0.16077827057E+03  0.00000000000E+00 0. -1.
         25    2    1    2    0    0 -0.73805373344E+02 -0.22551786162E+03  0.29575647637E+03  0.39928007263E+03  0.12508854479E+03 0.  0.
          5    1    3    3  502    0  0.32854084784E+02 -0.71864931519E+02  0.11119481395E+03  0.13647607233E+03  0.41800000000E+01 0. -1.
         -5    1    3    3    0  502 -0.10665945813E+03 -0.15365293010E+03  0.18456166243E+03  0.26280400030E+03  0.41800000000E+01 0. -1.
        -11    1    1    2    0    0  0.70224441917E+02  0.11831385403E+03  0.55836791815E+02  0.14848362744E+03  0.00000000000E+00 0.  1.
         11    1    1    2    0    0  0.35809314266E+01  0.10720400759E+03 -0.16812684055E+02  0.10857342520E+03  0.00000000000E+00 0. -1.
</event>
<event>
 7    1  0.2714042E-009  0.1080435E+03  0.7561462E-02  0.1264236E+00
         -1   -1    0    0    0  501 -0.00000000000E+00  0.00000000000E+00  0.19341482611E+02  0.19341482611E+02  0.00000000000E+00 0.  1.
          1   -1    0    0  501    0  0.00000000000E+00 -0.00000000000E+00 -0.81075064772E+03  0.81075064772E+03  0.00000000000E+00 0. -1.
         25    2    1    2    0    0 -0.51244724536E+02 -0.37876920414E+02 -0.46172584865E+03  0.48259553391E+03  0.12508799760E+03 0.  0.
          5    1    3    3  502    0 -0.16189889425E+02  0.37952167210E+02 -0.64673683009E+02  0.76828622202E+02  0.41800000000E+01 0.  1.
         -5    1    3    3    0  502 -0.35054835112E+02 -0.75829087624E+02 -0.39705216564E+03  0.40576691170E+03  0.41800000000E+01 0.  1.
        -11    1    1    2    0    0  0.23885792702E+01 -0.17189697640E+02 -0.11290536236E+02  0.20704280339E+02  0.00000000000E+00 0.  1.
         11    1    1    2    0    0  0.48856145266E+02  0.55066618054E+02 -0.31839278023E+03  0.32679231609E+03  0.00000000000E+00 0. -1.
</event>
<event>
 7    1  0.2714042E-009  0.1222973E+03  0.7561462E-02  0.1239355E+00
         -2   -1    0    0    0  501 -0.00000000000E+00  0.00000000000E+00  0.48966705216E+02  0.48966705216E+02  0.00000000000E+00 0.  1.
          2   -1    0    0  501    0  0.00000000000E+00 -0.00000000000E+00 -0.30660660903E+03  0.30660660903E+03  0.00000000000E+00 0. -1.
         25    2    1    2    0    0  0.22455715533E+00 -0.53895977140E+02 -0.14751421983E+03  0.20077980583E+03  0.12508900271E+03 0.  0.
          5    1    3    3  502    0  0.62322152232E+02 -0.25995597024E+02 -0.66322948416E+02  0.94741899971E+02  0.41800000000E+01 0. -1.
         -5    1    3    3    0  502 -0.62097595077E+02 -0.27900380116E+02 -0.81191271417E+02  0.10603790586E+03  0.41800000000E+01 0. -1.
        -11    1    1    2    0    0 -0.14048448298E+02  0.78911504796E+02 -0.79132357332E+02  0.11263354059E+03  0.00000000000E+00 0.  1.
         11    1    1    2    0    0  0.13823891143E+02 -0.25015527656E+02 -0.30993326648E+02  0.42159967824E+02  0.00000000000E+00 0. -1.
</event>
<event>
 7    1  0.2714042E-009  0.2674872E+03  0.7561462E-02  0.1102726E+00
         -1   -1    0    0    0  501 -0.00000000000E+00  0.00000000000E+00  0.22723858039E+03  0.22723858039E+03  0.00000000000E+00 0.  1.
          1   -1    0    0  501    0  0.00000000000E+00 -0.00000000000E+00 -0.34229160414E+03  0.34229160414E+03  0.00000000000E+00 0. -1.
         25    2    1    2    0    0  0.20345424448E+03 -0.15407706184E+03 -0.89950424211E+02  0.29811388622E+03  0.12508972683E+03 0.  0.
          5    1    3    3  502    0  0.70609545064E+02  0.13318294040E+01  0.83225450777E+01  0.71233550945E+02  0.41800000000E+01 0. -1.
         -5    1    3    3    0  502  0.13284469941E+03 -0.15540889125E+03 -0.98272969289E+02  0.22688033527E+03  0.41800000000E+01 0. -1.
        -11    1    1    2    0    0 -0.17265587018E+03  0.10586759077E+03  0.12570029308E+02  0.20291870766E+03  0.00000000000E+00 0.  1.
         11    1    1    2    0    0 -0.30798374300E+02  0.48209471071E+02 -0.37672628850E+02  0.68497590651E+02  0.00000000000E+00 0. -1.
</event>
<event>
 7    1  0.2714042E-009  0.1220281E+03  0.7561462E-02  0.1239788E+00
         -2   -1    0    0    0  501 -0.00000000000E+00  0.00000000000E+00  0.26262053288E+03  0.26262053288E+03  0.00000000000E+00 0.  1.
          2   -1    0    0  501    0  0.00000000000E+00 -0.00000000000E+00 -0.78478183722E+02  0.78478183722E+02  0.00000000000E+00 0. -1.
         25    2    1    2    0    0 -0.66088708765E+02 -0.61346631775E+02  0.79240794629E+02  0.17337127081E+03  0.12508943741E+03 0.  0.
          5    1    3    3  502    0 -0.29120989580E+02  0.16617645974E+02  0.80149752185E+02  0.86980649383E+02  0.41800000000E+01 0.  1.
         -5    1    3    3    0  502 -0.36967719185E+02 -0.77964277749E+02 -0.90895755597E+00  0.86390621427E+02  0.41800000000E+01 0.  1.
        -11    1    1    2    0    0  0.83529650558E+02  0.65268442441E+02  0.10587806902E+03  0.14982435583E+03  0.00000000000E+00 0. -1.
         11    1    1    2    0    0 -0.17440941793E+02 -0.39218106658E+01 -0.97651449297E+00  0.17903089959E+02  0.00000000000E+00 0.  1.
</event>
<event>
 7    1  0.2714042E-009  0.1346713E+03  0.7561462E-02  0.1220684E+00
         -2   -1    0    0    0  501 -0.00000000000E+00  0.00000000000E+00  0.13860404329E+02  0.13860404329E+02  0.00000000000E+00 0.  1.
          2   -1    0    0  501    0  0.00000000000E+00 -0.00000000000E+00 -0.16641153914E+04  0.16641153914E+04  0.00000000000E+00 0. -1.
         25    2    1    2    0    0  0.25264468235E+02  0.94279264506E+02 -0.11142789248E+04  0.11255186020E+04  0.12509087954E+03 0.  0.
          5    1    3    3  502    0 -0.44285237089E+02  0.77593292141E+01 -0.24002071248E+03  0.24423104682E+03  0.41800000000E+01 0.  1.
         -5    1    3    3    0  502  0.69549705324E+02  0.86519935292E+02 -0.87425821232E+03  0.88128755518E+03  0.41800000000E+01 0.  1.
        -11    1    1    2    0    0  0.37030214764E+01 -0.81257934836E+02 -0.48920979057E+03  0.49592618758E+03  0.00000000000E+00 0. -1.
         11    1    1    2    0    0 -0.28967489712E+02 -0.13021329670E+02 -0.46766271739E+02  0.56531006173E+02  0.00000000000E+00 0.  1.
</event>
<event>
 7    1  0.2714042E-009  0.1154929E+03  0.7561462E-02  0.1250723E+00
         -1   -1    0    0    0  501 -0.00000000000E+00  0.00000000000E+00  0.11286060040E+03  0.11286060040E+03  0.00000000000E+00 0.  1.
          1   -1    0    0  501    0  0.00000000000E+00 -0.00000000000E+00 -0.19171350368E+03  0.19171350368E+03  0.00000000000E+00 0. -1.
         25    2    1    2    0    0 -0.70711916728E+02 -0.58835756590E+01 -0.11630536099E+03  0.18495720645E+03  0.12508972617E+03 0.  0.
          5    1    3    3  502    0 -0.91513965055E+02 -0.23872016968E+02 -0.12408350916E+03  0.15607327971E+03  0.41800000000E+01 0. -1.
         -5    1    3    3    0  502  0.20802048326E+02  0.17988441309E+02  0.77781481640E+01  0.28883926744E+02  0.41800000000E+01 0. -1.
        -11    1    1    2    0    0  0.56211381667E+02 -0.34252427890E+02  0.39721747491E+02  0.76881502775E+02  0.00000000000E+00 0.  1.
         11    1    1    2    0    0  0.14500535061E+02  0.40136003549E+02 -0.22692897779E+01  0.42735394862E+02  0.00000000000E+00 0. -1.
</event>
<event>
 7    1  0.2714042E-009  0.7961555E+02  0.7561462E-02  0.1330146E+00
          2   -1    0    0  501    0  0.00000000000E+00  0.00000000000E+00  0.83593615615E+02  0.83593615615E+02  0.00000000000E+00 0.  1.
         -2   -1    0    0    0  501 -0.00000000000E+00 -0.00000000000E+00 -0.18018514358E+03  0.18018514358E+03  0.00000000000E+00 0. -1.
         25    2    1    2    0    0 -0.49569772799E+02 -0.16896922978E+02 -0.78783731252E+02  0.15683459102E+03  0.12509014449E+03 0.  0.
          5    1    3    3  502    0 -0.12459021148E+02  0.92599816174E+00 -0.10631776260E+03  0.10713087196E+03  0.41800000000E+01 0. -1.
         -5    1    3    3    0  502 -0.37110751652E+02 -0.17822921140E+02  0.27534031353E+02  0.49703719063E+02  0.41800000000E+01 0. -1.
        -11    1    1    2    0    0 -0.10314748170E+02 -0.27994377155E+02  0.71863779936E+00  0.29842848764E+02  0.00000000000E+00 0.  1.
         11    1    1    2    0    0  0.59884520970E+02  0.44891300133E+02 -0.18526434513E+02  0.77101319413E+02  0.00000000000E+00 0. -1.
</event>
<event>
 7    1  0.2714042E-009  0.2392219E+03  0.7561462E-02  0.1120312E+00
          1   -1    0    0  501    0  0.00000000000E+00  0.00000000000E+00  0.16219949273E+03  0.16219949273E+03  0.00000000000E+00 0. -1.
         -1   -1    0    0    0  501 -0.00000000000E+00 -0.00000000000E+00 -0.38552543051E+03  0.38552543051E+03  0.00000000000E+00 0.  1.
         25    2    1    2    0    0 -0.19598525070E+03  0.10588205885E+03 -0.15104271200E+03  0.29678951624E+03  0.12509551240E+03 0.  0.
          5    1    3    3  502    0  0.48255527371E+01 -0.74323941121E+01  0.11156174435E+02  0.14847864139E+02  0.41800000000E+01 0.  1.
         -5    1    3    3    0  502 -0.20081080344E+03  0.11331445296E+03 -0.16219888644E+03  0.28194165210E+03  0.41800000000E+01 0.  1.
        -11    1    1    2    0    0  0.18111505674E+03 -0.12021383611E+03 -0.75324094446E+02  0.23006031682E+03  0.00000000000E+00 0.  1.
         11    1    1    2    0    0  0.14870193958E+02  0.14331777263E+02  0.30408686625E+01  0.20875090181E+02  0.00000000000E+00 0. -1.
</event>
<event>
 7    1  0.2714042E-009  0.1146608E+03  0.7561462E-02  0.1252174E+00
          1   -1    0    0  501    0  0.00000000000E+00  0.00000000000E+00  0.22627126073E+02  0.22627126073E+02  0.00000000000E+00 0. -1.
         -1   -1    0    0    0  501 -0.00000000000E+00 -0.00000000000E+00 -0.11489592259E+04  0.11489592259E+04  0.00000000000E+00 0.  1.
         25    2    1    2    0    0 -0.24255723875E+02 -0.43398885295E+02 -0.99566604881E+03  0.10047239732E+04  0.12509028020E+03 0.  0.
          5    1    3    3  502    0 -0.63042833413E+02  0.13878963224E+02 -0.43274334928E+03  0.43755148636E+03  0.41800000000E+01 0. -1.
         -5    1    3    3    0  502  0.38787109538E+02 -0.57277848519E+02 -0.56292269953E+03  0.56717248685E+03  0.41800000000E+01 0. -1.
        -11    1    1    2    0    0  0.47420798107E+02  0.52225938879E+02 -0.12138045269E+03  0.14039050923E+03  0.00000000000E+00 0.  1.
         11    1    1    2    0    0 -0.23165074232E+02 -0.88270535840E+01 -0.92855982802E+01  0.26471869495E+02  0.00000000000E+00 0. -1.
</event>
<event>
 7    1  0.2714042E-009  0.1007983E+03  0.7561462E-02  0.1278626E+00
         -4   -1    0    0    0  501 -0.00000000000E+00  0.00000000000E+00  0.10253024543E+03  0.10253024543E+03  0.00000000000E+00 0.  1.
          4   -1    0    0  501    0  0.00000000000E+00 -0.00000000000E+00 -0.13928723977E+03  0.13928723977E+03  0.00000000000E+00 0. -1.
         25    2    1    2    0    0  0.46935807214E+02  0.67313450091E+01 -0.19981320537E+02  0.13525915160E+03  0.12508998328E+03 0.  0.
          5    1    3    3  502    0  0.76634911301E+01 -0.48060507055E+02  0.24237703268E+02  0.54529625842E+02  0.41800000000E+01 0.  1.
         -5    1    3    3    0  502  0.39272316084E+02  0.54791852064E+02 -0.44219023806E+02  0.80729525761E+02  0.41800000000E+01 0.  1.
        -11    1    1    2    0    0 -0.50741871457E+00  0.27512306639E+02  0.23511031690E+02  0.36193274258E+02  0.00000000000E+00 0.  1.
         11    1    1    2    0    0 -0.46428388499E+02 -0.34243651648E+02 -0.40286705485E+02  0.70365059338E+02  0.00000000000E+00 0. -1.
</event>
<event>
 7    1  0.2714042E-009  0.1746539E+03  0.7561462E-02  0.1173080E+00
          1   -1    0    0  501    0  0.00000000000E+00  0.00000000000E+00  0.80144493294E+03  0.80144493294E+03  0.00000000000E+00 0. -1.
         -1   -1    0    0    0  501 -0.00000000000E+00 -0.00000000000E+00 -0.61140106588E+02  0.61140106588E+02  0.00000000000E+00 0.  1.
         25    2    1    2    0    0  0.11037706288E+03  0.13285492177E+03  0.50279971465E+03  0.54615821361E+03  0.12509082694E+03 0.  0.
          5    1    3    3  502    0  0.38235847402E+02  0.22254278633E+02  0.26200510825E+02  0.51586549715E+02  0.41800000000E+01 0.  1.
         -5    1    3    3    0  502  0.72141215480E+02  0.11060064314E+03  0.47659920383E+03  0.49457166389E+03  0.41800000000E+01 0.  1.
        -11    1    1    2    0    0 -0.88433395124E+02 -0.10434823471E+03  0.87975331525E+02  0.16263049658E+03  0.00000000000E+00 0.  1.
         11    1    1    2    0    0 -0.21943667758E+02 -0.28506687065E+02  0.14952978017E+03  0.15379632935E+03  0.00000000000E+00 0. -1.
</event>
<event>
 7    1  0.2714042E-009  0.1423459E+03  0.7561462E-02  0.1210207E+00
         -2   -1    0    0    0  501 -0.00000000000E+00  0.00000000000E+00  0.26536891368E+02  0.26536891368E+02  0.00000000000E+00 0. -1.
          2   -1    0    0  501    0  0.00000000000E+00 -0.00000000000E+00 -0.11808266331E+04  0.11808266331E+04  0.00000000000E+00 0.  1.
         25    2    1    2    0    0  0.56145708122E+02 -0.12919927718E+03 -0.51717798211E+03  0.55042288791E+03  0.12508995398E+03 0.  0.
          5    1    3    3  502    0  0.30776309661E+02 -0.10041211622E+03 -0.49473086299E+03  0.50577255117E+03  0.41800000000E+01 0. -1.
         -5    1    3    3    0  502  0.25369398461E+02 -0.28787160954E+02 -0.22447119123E+02  0.44650336739E+02  0.41800000000E+01 0. -1.
        -11    1    1    2    0    0 -0.29303744758E+01  0.10594547416E+02 -0.58879147509E+01  0.12469926609E+02  0.00000000000E+00 0.  1.
         11    1    1    2    0    0 -0.53215333646E+02  0.11860472976E+03 -0.63122384490E+03  0.64447070999E+03  0.00000000000E+00 0. -1.
</event>
<event>
 7    1  0.2714042E-009  0.1261000E+03  0.7561462E-02  0.1233360E+00
         -1   -1    0    0    0  501 -0.00000000000E+00  0.00000000000E+00  0.21324579805E+02  0.21324579805E+02  0.00000000000E+00 0.  1.
          1   -1    0    0  501    0  0.00000000000E+00 -0.00000000000E+00 -0.14095043021E+04  0.14095043021E+04  0.00000000000E+00 0. -1.
         25    2    1    2    0    0 -0.70311243042E+02  0.75859910829E+02 -0.10921065347E+04  0.11041027086E+04  0.12509081129E+03 0.  0.
          5    1    3    3  502    0  0.10545511722E+01  0.28108426729E+02 -0.43452218171E+02  0.51930370645E+02  0.41800000000E+01 0. -1.
         -5    1    3    3    0  502 -0.71365794215E+02  0.47751484100E+02 -0.10486543165E+04  0.10521723379E+04  0.41800000000E+01 0. -1.
        -11    1    1    2    0    0  0.66968486124E+02 -0.53255409321E+01 -0.13233546453E+03  0.14841096553E+03  0.00000000000E+00 0.  1.
         11    1    1    2    0    0  0.33427569187E+01 -0.70534369897E+02 -0.16373772308E+03  0.17831520777E+03  0.00000000000E+00 0. -1.
</event>
<event>
 7    1  0.2714042E-009  0.8312630E+02  0.7561462E-02  0.1320406E+00
          2   -1    0    0  501    0  0.00000000000E+00  0.00000000000E+00  0.46993013929E+02  0.46993013929E+02  0.00000000000E+00 0. -1.
         -2   -1    0    0    0  501 -0.00000000000E+00 -0.00000000000E+00 -0.34940933659E+03  0.34940933659E+03  0.00000000000E+00 0.  1.
         25    2    1    2    0    0  0.54565869443E+02  0.35935200814E+02 -0.13466902962E+03  0.19508150543E+03  0.12510904626E+03 0.  0.
          5    1    3    3  502    0  0.29815859749E+02  0.23867506871E+02  0.16176206459E+02  0.41686753679E+02  0.41800000000E+01 0.  1.
         -5    1    3    3    0  502  0.24750009693E+02  0.12067693943E+02 -0.15084523608E+03  0.15339475176E+03  0.41800000000E+01 0.  1.
        -11    1    1    2    0    0  0.18350121174E+02 -0.16110218479E+02 -0.88564347468E+02  0.91868981321E+02  0.00000000000E+00 0.  1.
         11    1    1    2    0    0 -0.72915990617E+02 -0.19824982335E+02 -0.79182945569E+02  0.10945186376E+03  0.00000000000E+00 0. -1.
</event>
<event>
 7    1  0.2714042E-009  0.1172391E+03  0.7561462E-02  0.1247722E+00
         -1   -1    0    0    0  501 -0.00000000000E+00  0.00000000000E+00  0.47942359399E+02  0.47942359399E+02  0.00000000000E+00 0.  1.
          1   -1    0    0  501    0  0.00000000000E+00 -0.00000000000E+00 -0.29470467791E+03  0.29470467791E+03  0.00000000000E+00 0. -1.
         25    2    1    2    0    0  0.34512472459E+02 -0.33833139076E+02 -0.14373079835E+03  0.19657712835E+03  0.12509289725E+03 0.  0.
          5    1    3    3  502    0 -0.44972343462E+02 -0.29754083439E+02 -0.51516589661E+02  0.74694367713E+02  0.41800000000E+01 0.  1.
         -5    1    3    3    0  502  0.79484815922E+02 -0.40790556377E+01 -0.92214208691E+02  0.12188276064E+03  0.41800000000E+01 0.  1.
        -11    1    1    2    0    0 -0.49185941592E+02  0.55732165528E+02 -0.89804711160E+02  0.11657708725E+03  0.00000000000E+00 0. -1.
         11    1    1    2    0    0  0.14673469133E+02 -0.21899026451E+02 -0.13226809000E+02  0.29492821707E+02  0.00000000000E+00 0.  1.
</event>
<event>
 7    1  0.2714042E-009  0.1875190E+03  0.7561462E-02  0.1160718E+00
          2   -1    0    0  501    0  0.00000000000E+00  0.00000000000E+00  0.64489278513E+03  0.64489278513E+03  0.00000000000E+00 0. -1.
         -2   -1    0    0    0  501 -0.00000000000E+00 -0.00000000000E+00 -0.85548955741E+02  0.85548955741E+02  0.00000000000E+00 0.  1.
         25    2    1    2    0    0 -0.66571552166E+02  0.15856481161E+03  0.46816601735E+03  0.51419514768E+03  0.12507061630E+03 0.  0.
          5    1    3    3  502    0  0.75266666237E+01  0.20112835482E+02  0.21597459243E+03  0.21707987894E+03  0.41800000000E+01 0. -1.
         -5    1    3    3    0  502 -0.74098218790E+02  0.13845197613E+03  0.25219142492E+03  0.29711526875E+03  0.41800000000E+01 0. -1.
        -11    1    1    2    0    0 -0.22668387168E+02 -0.54230846774E+02  0.28513907666E+02  0.65329039860E+02  0.00000000000E+00 0.  1.
         11    1    1    2    0    0  0.89239939334E+02 -0.10433396484E+03  0.62663904370E+02  0.15091755333E+03  0.00000000000E+00 0. -1.
</event>
<event>
 7    1  0.2714042E-009  0.1407642E+03  0.7561462E-02  0.1212304E+00
          2   -1    0    0  501    0  0.00000000000E+00  0.00000000000E+00  0.12069931564E+04  0.12069931564E+04  0.00000000000E+00 0. -1.
         -2   -1    0    0    0  501 -0.00000000000E+00 -0.00000000000E+00 -0.21276676634E+02  0.21276676634E+02  0.00000000000E+00 0.  1.
         25    2    1    2    0    0  0.10411437022E+03 -0.35610796942E+02  0.54974220161E+03  0.57442803421E+03  0.12507256817E+03 0.  0.
          5    1    3    3  502    0  0.96237972628E+02 -0.54281858021E+02  0.54062701869E+03  0.55181818855E+03  0.41800000000E+01 0.  1.
         -5    1    3    3    0  502  0.78763975942E+01  0.18671061079E+02  0.91151829257E+01  0.22609845658E+02  0.41800000000E+01 0.  1.
        -11    1    1    2    0    0 -0.34078465967E+02  0.65722645065E+02  0.35988116388E+03  0.36741701109E+03  0.00000000000E+00 0.  1.
         11    1    1    2    0    0 -0.70035904255E+02 -0.30111848123E+02  0.27609311424E+03  0.28642478771E+03  0.00000000000E+00 0. -1.
</event>
<event>
 7    1  0.2714042E-009  0.1219975E+03  0.7561462E-02  0.1239838E+00
          1   -1    0    0  501    0  0.00000000000E+00  0.00000000000E+00  0.10360337655E+03  0.10360337655E+03  0.00000000000E+00 0. -1.
         -1   -1    0    0    0  501 -0.00000000000E+00 -0.00000000000E+00 -0.24653880053E+03  0.24653880053E+03  0.00000000000E+00 0.  1.
         25    2    1    2    0    0  0.78633725027E+02  0.59410850028E+02 -0.14974154227E+03  0.21859599639E+03  0.12509503726E+03 0.  0.
          5    1    3    3  502    0  0.45191764372E+02  0.89157751125E+02 -0.56042484171E+02  0.11467184739E+03  0.41800000000E+01 0.  1.
         -5    1    3    3    0  502  0.33441960655E+02 -0.29746901097E+02 -0.93699058096E+02  0.10392414900E+03  0.41800000000E+01 0.  1.
        -11    1    1    2    0    0 -0.35489843784E+02 -0.21026762758E+02 -0.39812831183E+02  0.57329881307E+02  0.00000000000E+00 0.  1.
         11    1    1    2    0    0 -0.43143881243E+02 -0.38384087270E+02  0.46618949464E+02  0.74216299378E+02  0.00000000000E+00 0. -1.
</event>
<event>
 7    1  0.2714042E-009  0.1594177E+03  0.7561462E-02  0.1189356E+00
         -4   -1    0    0    0  501 -0.00000000000E+00  0.00000000000E+00  0.42524897000E+02  0.42524897000E+02  0.00000000000E+00 0.  1.
          4   -1    0    0  501    0  0.00000000000E+00 -0.00000000000E+00 -0.84505420235E+03  0.84505420235E+03  0.00000000000E+00 0. -1.
         25    2    1    2    0    0  0.14977527337E+03  0.12240097546E+02 -0.50731297934E+03  0.54368747148E+03  0.12508858915E+03 0.  0.
          5    1    3    3  502    0  0.12819527853E+03  0.35458714989E+02 -0.48912262304E+03  0.50690212337E+03  0.41800000000E+01 0. -1.
         -5    1    3    3    0  502  0.21579994834E+02 -0.23218617443E+02 -0.18190356296E+02  0.36785348104E+02  0.41800000000E+01 0. -1.
        -11    1    1    2    0    0 -0.83413805415E+02 -0.23077581007E+02 -0.78011889140E+02  0.11651734861E+03  0.00000000000E+00 0.  1.
         11    1    1    2    0    0 -0.66361467951E+02  0.10837483460E+02 -0.21720443687E+03  0.22737427927E+03  0.00000000000E+00 0. -1.
</event>
<event>
 7    1  0.2714042E-009  0.1141271E+03  0.7561462E-02  0.1253113E+00
          1   -1    0    0  501    0  0.00000000000E+00  0.00000000000E+00  0.10871998235E+04  0.10871998235E+04  0.00000000000E+00 0. -1.
         -1   -1    0    0    0  501 -0.00000000000E+00 -0.00000000000E+00 -0.13261439258E+02  0.13261439258E+02  0.00000000000E+00 0.  1.
         25    2    1    2    0    0  0.16816970338E+01 -0.37440316085E+02  0.77142154620E+03  0.78239641647E+03  0.12509334588E+03 0.  0.
          5    1    3    3  502    0  0.43526048290E+02 -0.66016681886E+02  0.50436581898E+03  0.51054389715E+03  0.41800000000E+01 0. -1.
         -5    1    3    3    0  502 -0.41844351256E+02  0.28576365801E+02  0.26705572722E+03  0.27185251931E+03  0.41800000000E+01 0. -1.
        -11    1    1    2    0    0 -0.18288633641E+01  0.67820836579E+02  0.20988215696E+03  0.22057545290E+03  0.00000000000E+00 0.  1.
         11    1    1    2    0    0  0.14716633032E+00 -0.30380520494E+02  0.92634681115E+02  0.97489393417E+02  0.00000000000E+00 0. -1.
</event>
<event>
 7    1  0.2714042E-009  0.1947555E+03  0.7561462E-02  0.1154241E+00
         -2   -1    0    0    0  501 -0.00000000000E+00  0.00000000000E+00  0.20257565950E+03  0.20257565950E+03  0.00000000000E+00 0.  1.
          2   -1    0    0  501    0  0.00000000000E+00 -0.00000000000E+00 -0.27124155549E+03  0.27124155549E+03  0.00000000000E+00 0. -1.
         25    2    1    2    0    0  0.16023917938E+03  0.36964191476E+02 -0.15782123609E+03  0.25999439013E+03  0.12508634729E+03 0.  0.
          5    1    3    3  502    0  0.16771884265E+03  0.22336207820E+00 -0.13879733769E+03  0.21774258522E+03  0.41800000000E+01 0.  1.
         -5    1    3    3    0  502 -0.74796632686E+01  0.36740829398E+02 -0.19023898406E+02  0.42251804908E+02  0.41800000000E+01 0.  1.
        -11    1    1    2    0    0 -0.14565468366E+03 -0.14948558814E+01  0.96563924327E+02  0.17476301939E+03  0.00000000000E+00 0.  1.
         11    1    1    2    0    0 -0.14584495724E+02 -0.35469335595E+02 -0.74085842195E+01  0.39059805468E+02  0.00000000000E+00 0. -1.
</event>
<event>
 7    1  0.2714042E-009  0.1022254E+03  0.7561462E-02  0.1275685E+00
         -2   -1    0    0    0  501 -0.00000000000E+00  0.00000000000E+00  0.22902110313E+02  0.22902110313E+02  0.00000000000E+00 0.  1.
          2   -1    0    0  501    0  0.00000000000E+00 -0.00000000000E+00 -0.79072849150E+03  0.79072849150E+03  0.00000000000E+00 0. -1.
         25    2    1    2    0    0  0.63482241083E+02 -0.49393700546E+02 -0.46013043176E+03  0.48356690827E+03  0.12508880026E+03 0.  0.
          5    1    3    3  502    0  0.53060119573E+02 -0.19296351409E+02 -0.44404732858E+03  0.44764185225E+03  0.41800000000E+01 0.  1.
         -5    1    3    3    0  502  0.10422121510E+02 -0.30097349138E+02 -0.16083103185E+02  0.35925056019E+02  0.41800000000E+01 0.  1.
        -11    1    1    2    0    0 -0.35619313235E+02 -0.20059062028E+02 -0.15068096735E+03  0.15612768930E+03  0.00000000000E+00 0. -1.
         11    1    1    2    0    0 -0.27862927848E+02  0.69452762575E+02 -0.15701498208E+03  0.17393600425E+03  0.00000000000E+00 0.  1.
</event>
<event>
 7    1  0.2714042E-009  0.8640118E+02  0.7561462E-02  0.1311808E+00
          1   -1    0    0  501    0  0.00000000000E+00  0.00000000000E+00  0.57286588859E+03  0.57286588859E+03  0.00000000000E+00 0. -1.
         -1   -1    0    0    0  501 -0.00000000000E+00 -0.00000000000E+00 -0.21197320520E+02  0.21197320520E+02  0.00000000000E+00 0.  1.
         25    2    1    2    0    0 -0.12940207419E+02  0.20039494920E+02  0.31636218997E+03  0.34102933893E+03  0.12508774698E+03 0.  0.
          5    1    3    3  502    0  0.44948878987E+02  0.30020651799E+02  0.74728997004E+02  0.92323001737E+02  0.41800000000E+01 0. -1.
         -5    1    3    3    0  502 -0.57889086406E+02 -0.99811568792E+01  0.24163319296E+03  0.24870633719E+03  0.41800000000E+01 0. -1.
        -11    1    1    2    0    0  0.87755263891E+01 -0.39158438593E+02  0.22897917714E+03  0.23246904469E+03  0.00000000000E+00 0. -1.
         11    1    1    2    0    0  0.41646810299E+01  0.19118943674E+02  0.63272009608E+01  0.20564825486E+02  0.00000000000E+00 0.  1.
</event>
<event>
 7    1  0.2714042E-009  0.1256726E+03  0.7561462E-02  0.1234022E+00
          3   -1    0    0  501    0  0.00000000000E+00  0.00000000000E+00  0.33504833293E+03  0.33504833293E+03  0.00000000000E+00 0. -1.
         -3   -1    0    0    0  501 -0.00000000000E+00 -0.00000000000E+00 -0.53139579581E+02  0.53139579581E+02  0.00000000000E+00 0.  1.
         25    2    1    2    0    0 -0.60637020997E+02  0.27676167231E+02  0.21118129968E+03  0.25433397896E+03  0.12508162524E+03 0.  0.
          5    1    3    3  502    0  0.21044712162E+02 -0.31426785581E+02  0.82110059338E+02  0.90498933731E+02  0.41800000000E+01 0. -1.
         -5    1    3    3    0  502 -0.81681733159E+02  0.59102952813E+02  0.12907124034E+03  0.16383504523E+03  0.41800000000E+01 0. -1.
        -11    1    1    2    0    0  0.89563960034E+01  0.32122455847E+02  0.12211223928E+02  0.35513141072E+02  0.00000000000E+00 0.  1.
         11    1    1    2    0    0  0.51680624994E+02 -0.59798623078E+02  0.58516229744E+02  0.98340792478E+02  0.00000000000E+00 0. -1.
</event>
<event>
 7    1  0.2714042E-009  0.1729514E+03  0.7561462E-02  0.1174804E+00
         -1   -1    0    0    0  501 -0.00000000000E+00  0.00000000000E+00  0.81065791656E+02  0.81065791656E+02  0.00000000000E+00 0.  1.
          1   -1    0    0  501    0  0.00000000000E+00 -0.00000000000E+00 -0.43973777082E+03  0.43973777082E+03  0.00000000000E+00 0. -1.
         25    2    1    2    0    0 -0.78109255087E+02  0.12384932431E+03 -0.26271080809E+03  0.32573296712E+03  0.12508111894E+03 0.  0.
          5    1    3    3  502    0 -0.59231653922E+02 -0.23510726804E+01 -0.50066780521E+02  0.77705027385E+02  0.41800000000E+01 0.  1.
         -5    1    3    3    0  502 -0.18877601164E+02  0.12620039699E+03 -0.21264402757E+03  0.24802793973E+03  0.41800000000E+01 0.  1.
        -11    1    1    2    0    0  0.53768813264E+01 -0.65064374367E+02 -0.64260577495E+01  0.65601660671E+02  0.00000000000E+00 0. -1.
         11    1    1    2    0    0  0.72732373760E+02 -0.58784949940E+02 -0.89535113324E+02  0.12946893469E+03  0.00000000000E+00 0.  1.
</event>
<event>
 7    1  0.2714042E-009  0.1046637E+03  0.7561462E-02  0.1270784E+00
          2   -1    0    0  501    0  0.00000000000E+00  0.00000000000E+00  0.70387925578E+02  0.70387925578E+02  0.00000000000E+00 0. -1.
         -2   -1    0    0    0  501 -0.00000000000E+00 -0.00000000000E+00 -0.22937823632E+03  0.22937823632E+03  0.00000000000E+00 0.  1.
         25    2    1    2    0    0  0.31469846163E+02  0.16049321912E+02 -0.23130255521E+02  0.13201758686E+03  0.12508278286E+03 0.  0.
          5    1    3    3  502    0  0.32439825489E+02 -0.41809908893E+02 -0.45421894869E+02  0.69864380716E+02  0.41800000000E+01 0. -1.
         -5    1    3    3    0  502 -0.96997932598E+00  0.57859230805E+02  0.22291639348E+02  0.62153206144E+02  0.41800000000E+01 0. -1.
        -11    1    1    2    0    0  0.24515692354E+02  0.19998967722E+02 -0.48447880243E+02  0.57863416608E+02  0.00000000000E+00 0. -1.
         11    1    1    2    0    0 -0.55985538517E+02 -0.36048289633E+02 -0.87412174976E+02  0.10988515843E+03  0.00000000000E+00 0.  1.
</event>
<event>
 7    1  0.2714042E-009  0.6546717E+02  0.7561462E-02  0.1376223E+00
         -2   -1    0    0    0  501 -0.00000000000E+00  0.00000000000E+00  0.60433232537E+02  0.60433232537E+02  0.00000000000E+00 0.  1.
          2   -1    0    0  501    0  0.00000000000E+00 -0.00000000000E+00 -0.26717283624E+03  0.26717283624E+03  0.00000000000E+00 0. -1.
         25    2    1    2    0    0  0.25045852642E+02  0.15201700323E+02 -0.19625635206E+03  0.23456831645E+03  0.12508937977E+03 0.  0.
          5    1    3    3  502    0  0.51506676907E+02 -0.11591531986E+02 -0.18862542251E+03  0.19591917669E+03  0.41800000000E+01 0. -1.
         -5    1    3    3    0  502 -0.26460824265E+02  0.26793232310E+02 -0.76309295547E+01  0.38649139761E+02  0.41800000000E+01 0. -1.
        -11    1    1    2    0    0 -0.37573349511E+00 -0.15410313451E+02 -0.46721427698E+02  0.49198686390E+02  0.00000000000E+00 0. -1.
         11    1    1    2    0    0 -0.24670119147E+02  0.20861312802E+00  0.36238176057E+02  0.43839065935E+02  0.00000000000E+00 0.  1.
</event>
<event>
 7    1  0.2714042E-009  0.8122645E+02  0.7561462E-02  0.1325607E+00
         -1   -1    0    0    0  501 -0.00000000000E+00  0.00000000000E+00  0.13080465934E+03  0.13080465934E+03  0.00000000000E+00 0.  1.
          1   -1    0    0  501    0  0.00000000000E+00 -0.00000000000E+00 -0.97882213427E+02  0.97882213427E+02  0.00000000000E+00 0. -1.
         25    2    1    2    0    0 -0.15959875660E+02 -0.16514482143E+02  0.44687345810E+02  0.13480399265E+03  0.12509081424E+03 0.  0.
          5    1    3    3  502    0 -0.94373552884E+01  0.33007733634E+02 -0.29374076884E+02  0.45374915397E+02  0.41800000000E+01 0.  1.
         -5    1    3    3    0  502 -0.65225203720E+01 -0.49522215778E+02  0.74061422694E+02  0.89429077257E+02  0.41800000000E+01 0.  1.
        -11    1    1    2    0    0 -0.27221908150E+02 -0.76300703615E+01 -0.29938325116E+02  0.41177100041E+02  0.00000000000E+00 0. -1.
         11    1    1    2    0    0  0.43181783811E+02  0.24144552505E+02  0.18173425218E+02  0.52705780071E+02  0.00000000000E+00 0.  1.
</event>
<event>
 7    1  0.2714042E-009  0.1353866E+03  0.7561462E-02  0.1219675E+00
          3   -1    0    0  501    0  0.00000000000E+00  0.00000000000E+00  0.40769231327E+03  0.40769231327E+03  0.00000000000E+00 0. -1.
         -3   -1    0    0    0  501 -0.00000000000E+00 -0.00000000000E+00 -0.86591605105E+02  0.86591605105E+02  0.00000000000E+00 0.  1.
         25    2    1    2    0    0  0.13379419617E+02 -0.99902519322E+02  0.31998987304E+03  0.35804840059E+03  0.12508243714E+03 0.  0.
          5    1    3    3  502    0  0.60822259292E+02 -0.52067595196E+02  0.24183596174E+03  0.25477928975E+03  0.41800000000E+01 0. -1.
         -5    1    3    3    0  502 -0.47442839676E+02 -0.47834924126E+02  0.78153911304E+02  0.10326911085E+03  0.41800000000E+01 0. -1.
        -11    1    1    2    0    0 -0.27775123987E+02  0.64125670205E+01  0.25829406527E+02  0.38467346800E+02  0.00000000000E+00 0. -1.
         11    1    1    2    0    0  0.14395704370E+02  0.93489952302E+02 -0.24718571400E+02  0.97768170985E+02  0.00000000000E+00 0.  1.
</event>
<event>
 7    1  0.2714042E-009  0.1244438E+03  0.7561462E-02  0.1235941E+00
         -2   -1    0    0    0  501 -0.00000000000E+00  0.00000000000E+00  0.82985644415E+02  0.82985644415E+02  0.00000000000E+00 0.  1.
          2   -1    0    0  501    0  0.00000000000E+00 -0.00000000000E+00 -0.22100288571E+03  0.22100288571E+03  0.00000000000E+00 0. -1.
         25    2    1    2    0    0  0.36530036394E+01 -0.77860078747E+02 -0.43845503992E+02  0.15377578223E+03  0.12509606981E+03 0.  0.
          5    1    3    3  502    0  0.60798824022E+02 -0.62677418898E+02 -0.33413435769E+02  0.93588919921E+02  0.41800000000E+01 0.  1.
         -5    1    3    3    0  502 -0.57145820382E+02 -0.15182659849E+02 -0.10432068223E+02  0.60186862310E+02  0.41800000000E+01 0.  1.
        -11    1    1    2    0    0 -0.34841766160E+02  0.37565420977E+02 -0.83786357722E+02  0.98210301204E+02  0.00000000000E+00 0. -1.
         11    1    1    2    0    0  0.31188762521E+02  0.40294657770E+02 -0.10385379578E+02  0.52002446686E+02  0.00000000000E+00 0.  1.
</event>
<event>
 7    1  0.2714042E-009  0.1204666E+03  0.7561462E-02  0.1242329E+00
          3   -1    0    0  501    0  0.00000000000E+00  0.00000000000E+00  0.95997675655E+03  0.95997675655E+03  0.00000000000E+00 0. -1.
         -3   -1    0    0    0  501 -0.00000000000E+00 -0.00000000000E+00 -0.27376603200E+02  0.27376603200E+02  0.00000000000E+00 0.  1.
         25    2    1    2    0    0 -0.10613002948E+03  0.15421713869E+02  0.33695686000E+03  0.37508410425E+03  0.12508695913E+03 0.  0.
          5    1    3    3  502    0 -0.11253368216E+02 -0.19742642681E+01 -0.94938370814E+01  0.15431829384E+02  0.41800000000E+01 0.  1.
         -5    1    3    3    0  502 -0.94876661269E+02  0.17395978137E+02  0.34645069708E+03  0.35965227486E+03  0.41800000000E+01 0.  1.
        -11    1    1    2    0    0  0.91146720555E+02 -0.43040071900E+02  0.52991954529E+03  0.53942089034E+03  0.00000000000E+00 0. -1.
         11    1    1    2    0    0  0.14983308929E+02  0.27618358032E+02  0.65723748063E+02  0.72848365159E+02  0.00000000000E+00 0.  1.
</event>
<event>
 7    1  0.2714042E-009  0.1197434E+03  0.7561462E-02  0.1243521E+00
         -3   -1    0    0    0  501 -0.00000000000E+00  0.00000000000E+00  0.69697808776E+02  0.69697808776E+02  0.00000000000E+00 0.  1.
          3   -1    0    0  501    0  0.00000000000E+00 -0.00000000000E+00 -0.22521010571E+03  0.22521010571E+03  0.00000000000E+00 0. -1.
         25    2    1    2    0    0  0.43573860250E+02 -0.42740029941E+02 -0.11603537450E+03  0.18120987310E+03  0.12508964192E+03 0.  0.
          5    1    3    3  502    0  0.25447703222E+02  0.40861484085E+02 -0.66725190517E+02  0.82383068227E+02  0.41800000000E+01 0.  1.
         -5    1    3    3    0  502  0.18126157029E+02 -0.83601514025E+02 -0.49310183987E+02  0.98826804870E+02  0.41800000000E+01 0.  1.
        -11    1    1    2    0    0 -0.27966536684E+02 -0.24079023025E+02 -0.21714356429E+02  0.42818685162E+02  0.00000000000E+00 0. -1.
         11    1    1    2    0    0 -0.15607323566E+02  0.66819052965E+02 -0.17762566000E+02  0.70879356226E+02  0.00000000000E+00 0.  1.
</event>
<event>
 7    1  0.2714042E-009  0.8536257E+02  0.7561462E-02  0.1314487E+00
         -3   -1    0    0    0  501 -0.00000000000E+00  0.00000000000E+00  0.11694124496E+03  0.11694124496E+03  0.00000000000E+00 0.  1.
          3   -1    0    0  501    0  0.00000000000E+00 -0.00000000000E+00 -0.10943167803E+03  0.10943167803E+03  0.00000000000E+00 0. -1.
         25    2    1    2    0    0 -0.67355741487E+01  0.97450082469E+00 -0.16805280077E+02  0.12639106949E+03  0.12508384147E+03 0.  0.
          5    1    3    3  502    0 -0.10293924353E+02 -0.51644916208E+02 -0.42289083704E+02  0.67668317913E+02  0.41800000000E+01 0.  1.
         -5    1    3    3    0  502  0.35583502039E+01  0.52619417032E+02  0.25483803627E+02  0.58722751573E+02  0.41800000000E+01 0.  1.
        -11    1    1    2    0    0  0.34721953239E+02 -0.90188493399E+01  0.49738216758E+02  0.61325719616E+02  0.00000000000E+00 0.  1.
         11    1    1    2    0    0 -0.27986379090E+02  0.80443485152E+01 -0.25423369748E+02  0.38656133885E+02  0.00000000000E+00 0. -1.
</event>
<event>
 7    1  0.2714042E-009  0.1795212E+03  0.7561462E-02  0.1168267E+00
         -1   -1    0    0    0  501 -0.00000000000E+00  0.00000000000E+00  0.36600544625E+03  0.36600544625E+03  0.00000000000E+00 0.  1.
          1   -1    0    0  501    0  0.00000000000E+00 -0.00000000000E+00 -0.17073931607E+03  0.17073931607E+03  0.00000000000E+00 0. -1.
         25    2    1    2    0    0  0.10534478780E+03  0.14001579061E+03 -0.51237878520E+02  0.22130177663E+03  0.12508880929E+03 0.  0.
          5    1    3    3  502    0  0.98738270098E+02  0.94362239559E+02 -0.87690830038E+02  0.16235957720E+03  0.41800000000E+01 0. -1.
         -5    1    3    3    0  502  0.66065177019E+01  0.45653551048E+02  0.36452951517E+02  0.58942199431E+02  0.41800000000E+01 0. -1.
        -11    1    1    2    0    0 -0.76735303100E+02 -0.88324092784E+02  0.88344980399E+02  0.14660930281E+03  0.00000000000E+00 0. -1.
         11    1    1    2    0    0 -0.28609484699E+02 -0.51691697823E+02  0.15815902831E+03  0.16883368288E+03  0.00000000000E+00 0.  1.
</event>
<event>
 7    1  0.2714042E-009  0.9617831E+02  0.7561462E-02  0.1288544E+00
         -2   -1    0    0    0  501 -0.00000000000E+00  0.00000000000E+00  0.18908809920E+02  0.18908809920E+02  0.00000000000E+00 0.  1.
          2   -1    0    0  501    0  0.00000000000E+00 -0.00000000000E+00 -0.73229451654E+03  0.73229451654E+03  0.00000000000E+00 0. -1.
         25    2    1    2    0    0 -0.39202705283E+02  0.43627829698E+01 -0.34211827226E+03  0.36639826413E+03  0.12508752843E+03 0.  0.
          5    1    3    3  502    0  0.68834475681E+01  0.41660561588E+02 -0.39410077374E+02  0.57910369027E+02  0.41800000000E+01 0.  1.
         -5    1    3    3    0  502 -0.46086152851E+02 -0.37297778618E+02 -0.30270819489E+03  0.30848789510E+03  0.41800000000E+01 0.  1.
        -11    1    1    2    0    0 -0.12122528229E+02  0.27517418425E+02 -0.53742076827E+02  0.61582260670E+02  0.00000000000E+00 0.  1.
         11    1    1    2    0    0  0.51325233512E+02 -0.31880201395E+02 -0.31752535754E+03  0.32322280166E+03  0.00000000000E+00 0. -1.
</event>
<event>
 7    1  0.2714042E-009  0.1552493E+03  0.7561462E-02  0.1194167E+00
         -2   -1    0    0    0  501 -0.00000000000E+00  0.00000000000E+00  0.35566236306E+03  0.35566236306E+03  0.00000000000E+00 0.  1.
          2   -1    0    0  501    0  0.00000000000E+00 -0.00000000000E+00 -0.90708450463E+02  0.90708450463E+02  0.00000000000E+00 0. -1.
         25    2    1    2    0    0  0.22376797075E+02 -0.11166313577E+03  0.24629202676E+03  0.29879793945E+03  0.12510423348E+03 0.  0.
          5    1    3    3  502    0 -0.17820142986E+02 -0.12373769410E+03  0.16328425413E+03  0.20568858617E+03  0.41800000000E+01 0. -1.
         -5    1    3    3    0  502  0.40196940061E+02  0.12074558332E+02  0.83007772636E+02  0.93109353274E+02  0.41800000000E+01 0. -1.
        -11    1    1    2    0    0  0.26931097374E+02  0.80548006512E+02  0.25968423853E+02  0.88812298677E+02  0.00000000000E+00 0.  1.
         11    1    1    2    0    0 -0.49307894449E+02  0.31115129255E+02 -0.73065380155E+01  0.58760575400E+02  0.00000000000E+00 0. -1.
</event>
<event>
 7    1  0.2714042E-009  0.1024746E+03  0.7561462E-02  0.1275177E+00
          1   -1    0    0  501    0  0.00000000000E+00  0.00000000000E+00  0.13087357382E+03  0.13087357382E+03  0.00000000000E+00 0. -1.
         -1   -1    0    0    0  501 -0.00000000000E+00 -0.00000000000E+00 -0.89834543461E+02  0.89834543461E+02  0.00000000000E+00 0.  1.
         25    2    1    2    0    0  0.70829647206E+01  0.11208877250E+01  0.35238005029E+02  0.13015739530E+03  0.12509118984E+03 0.  0.
          5    1    3    3  502    0 -0.53905699146E+02 -0.22923531845E+02  0.24333545980E+02  0.63568125445E+02  0.41800000000E+01 0. -1.
         -5    1    3    3    0  502  0.60988663867E+02  0.24044419570E+02  0.10904459049E+02  0.66589269855E+02  0.41800000000E+01 0. -1.
        -11    1    1    2    0    0  0.23518342606E+02 -0.30227809030E+02  0.23306343722E+02  0.44833230258E+02  0.00000000000E+00 0. -1.
         11    1    1    2    0    0 -0.30601307326E+02  0.29106921305E+02 -0.17505318388E+02  0.45717491727E+02  0.00000000000E+00 0.  1.
</event>
<event>
 7    1  0.2714042E-009  0.1341422E+03  0.7561462E-02  0.1221436E+00
          4   -1    0    0  501    0  0.00000000000E+00  0.00000000000E+00  0.40439814338E+03  0.40439814338E+03  0.00000000000E+00 0. -1.
         -4   -1    0    0    0  501 -0.00000000000E+00 -0.00000000000E+00 -0.56646556290E+02  0.56646556290E+02  0.00000000000E+00 0.  1.
         25    2    1    2    0    0  0.77019213572E+02  0.71658346727E+02  0.19549413212E+03  0.25481814042E+03  0.12508977209E+03 0.  0.
          5    1    3    3  502    0 -0.19957795906E+02 -0.19872440128E+02  0.22137450725E+02  0.36066142276E+02  0.41800000000E+01 0.  1.
         -5    1    3    3    0  502  0.96977009479E+02  0.91530786855E+02  0.17335668139E+03  0.21875199815E+03  0.41800000000E+01 0.  1.
        -11    1    1    2    0    0 -0.66100287354E+02 -0.52781701589E+02  0.43144548563E+02  0.94955821736E+02  0.00000000000E+00 0.  1.
         11    1    1    2    0    0 -0.10918926218E+02 -0.18876645139E+02  0.10911290641E+03  0.11127073751E+03  0.00000000000E+00 0. -1.
</event>
<event>
 7    1  0.2714042E-009  0.8680443E+02  0.7561462E-02  0.1310780E+00
         -1   -1    0    0    0  501 -0.00000000000E+00  0.00000000000E+00  0.26998371801E+02  0.26998371801E+02  0.00000000000E+00 0.  1.
          1   -1    0    0  501    0  0.00000000000E+00 -0.00000000000E+00 -0.71570874027E+03  0.71570874027E+03  0.00000000000E+00 0. -1.
         25    2    1    2    0    0 -0.74523848587E+00  0.18752071769E+02 -0.60160700609E+03  0.61476129450E+03  0.12509302086E+03 0.  0.
          5    1    3    3  502    0 -0.61151021362E+02 -0.46584897032E+01 -0.30507655537E+03  0.31120785012E+03  0.41800000000E+01 0. -1.
         -5    1    3    3    0  502  0.60405782876E+02  0.23410561472E+02 -0.29653045072E+03  0.30355344438E+03  0.41800000000E+01 0. -1.
        -11    1    1    2    0    0  0.82133669083E+01  0.12572501329E+02  0.14794313638E+02  0.21080770898E+02  0.00000000000E+00 0.  1.
         11    1    1    2    0    0 -0.74681284225E+01 -0.31324573098E+02 -0.10189767602E+03  0.10686504667E+03  0.00000000000E+00 0. -1.
</event>
<event>
 7    1  0.2714042E-009  0.1516716E+03  0.7561462E-02  0.1198434E+00
          3   -1    0    0  501    0  0.00000000000E+00  0.00000000000E+00  0.14530687114E+03  0.14530687114E+03  0.00000000000E+00 0. -1.
         -3   -1    0    0    0  501 -0.00000000000E+00 -0.00000000000E+00 -0.19730001878E+03  0.19730001878E+03  0.00000000000E+00 0.  1.
         25    2    1    2    0    0 -0.11332747661E+02  0.12518152627E+03  0.46994645551E+01  0.17740460961E+03  0.12510581463E+03 0.  0.
          5    1    3    3  502    0  0.14666990115E+02  0.14104051960E+03 -0.12092175886E+02  0.14237711152E+03  0.41800000000E+01 0.  1.
         -5    1    3    3    0  502 -0.25999737776E+02 -0.15858993326E+02  0.16791640441E+02  0.35027498090E+02  0.41800000000E+01 0.  1.
        -11    1    1    2    0    0  0.22953885694E+02 -0.54915809777E+02 -0.70907835113E+02  0.92577254833E+02  0.00000000000E+00 0.  1.
         11    1    1    2    0    0 -0.11621138033E+02 -0.70265716495E+02  0.14215222915E+02  0.72625025482E+02  0.00000000000E+00 0. -1.
</event>
<event>
 7    1  0.2714042E-009  0.1626156E+03  0.7561462E-02  0.1185775E+00
         -1   -1    0    0    0  501 -0.00000000000E+00  0.00000000000E+00  0.16914423711E+03  0.16914423711E+03  0.00000000000E+00 0.  1.
          1   -1    0    0  501    0  0.00000000000E+00 -0.00000000000E+00 -0.27971783108E+03  0.27971783108E+03  0.00000000000E+00 0. -1.
         25    2    1    2    0    0  0.37332406143E+01 -0.14701923270E+03  0.63729306350E+02  0.20331986597E+03  0.12509576948E+03 0.  0.
          5    1    3    3  502    0 -0.25868531432E+02 -0.78541992454E+02  0.91689335287E+02  0.12354121621E+03  0.41800000000E+01 0. -1.
         -5    1    3    3    0  502  0.29601772046E+02 -0.68477240241E+02 -0.27960028936E+02  0.79778649759E+02  0.41800000000E+01 0. -1.
        -11    1    1    2    0    0 -0.42104368929E+02  0.83232457148E+02 -0.12614015837E+03  0.15688135441E+03  0.00000000000E+00 0.  1.
         11    1    1    2    0    0  0.38371128315E+02  0.63786775548E+02 -0.48162741944E+02  0.88660847810E+02  0.00000000000E+00 0. -1.
</event>
<event>
 7    1  0.2714042E-009  0.1264552E+03  0.7561462E-02  0.1232812E+00
         -2   -1    0    0    0  501 -0.00000000000E+00  0.00000000000E+00  0.75307701691E+02  0.75307701691E+02  0.00000000000E+00 0.  1.
          2   -1    0    0  501    0  0.00000000000E+00 -0.00000000000E+00 -0.27954674061E+03  0.27954674061E+03  0.00000000000E+00 0. -1.
         25    2    1    2    0    0  0.27087021318E+01  0.72253078092E+02 -0.19111839205E+03  0.23958740265E+03  0.12509212353E+03 0.  0.
          5    1    3    3  502    0 -0.50656628890E+02  0.72809574721E+02 -0.13853206379E+03  0.16454766276E+03  0.41800000000E+01 0. -1.
         -5    1    3    3    0  502  0.53365331022E+02 -0.55649662939E+00 -0.52586328254E+02  0.75039739890E+02  0.41800000000E+01 0. -1.
        -11    1    1    2    0    0  0.39501274059E+02 -0.46999421257E+02 -0.22129604161E+02  0.65261134154E+02  0.00000000000E+00 0.  1.
         11    1    1    2    0    0 -0.42209976191E+02 -0.25253656834E+02  0.90089572841E+01  0.50005905500E+02  0.00000000000E+00 0. -1.
</event>
<event>
 7    1  0.2714042E-009  0.2147846E+03  0.7561462E-02  0.1137832E+00
         -4   -1    0    0    0  501 -0.00000000000E+00  0.00000000000E+00  0.80233694443E+03  0.80233694443E+03  0.00000000000E+00 0. -1.
          4   -1    0    0  501    0  0.00000000000E+00 -0.00000000000E+00 -0.98717360211E+02  0.98717360211E+02  0.00000000000E+00 0.  1.
         25    2    1    2    0    0  0.19882960851E+03 -0.27986128565E+02  0.97256629005E+02  0.25577506485E+03  0.12508235406E+03 0.  0.
          5    1    3    3  502    0  0.15177040019E+03  0.19134156537E+02  0.21026558187E+02  0.15446669178E+03  0.41800000000E+01 0. -1.
         -5    1    3    3    0  502  0.47059208323E+02 -0.47120285101E+02  0.76230070818E+02  0.10130837306E+03  0.41800000000E+01 0. -1.
        -11    1    1    2    0    0 -0.14453613379E+03  0.47468059661E+02  0.51698379562E+03  0.53890273296E+03  0.00000000000E+00 0. -1.
         11    1    1    2    0    0 -0.54293474723E+02 -0.19481931096E+02  0.89379159595E+02  0.10637650684E+03  0.00000000000E+00 0.  1.
</event>
<event>
 7    1  0.2714042E-009  0.7787724E+02  0.7561462E-02  0.1335186E+00
         -1   -1    0    0    0  501 -0.00000000000E+00  0.00000000000E+00  0.18152837822E+02  0.18152837822E+02  0.00000000000E+00 0.  1.
          1   -1    0    0  501    0  0.00000000000E+00 -0.00000000000E+00 -0.64873346585E+03  0.64873346585E+03  0.00000000000E+00 0. -1.
         25    2    1    2    0    0  0.17118993543E+01 -0.12393573146E+02 -0.34136234809E+03  0.36377606243E+03  0.12509292408E+03 0.  0.
          5    1    3    3  502    0 -0.95334032699E+01  0.28456114961E+02 -0.13518296574E+02  0.33179104853E+02  0.41800000000E+01 0.  1.
         -5    1    3    3    0  502  0.11245302624E+02 -0.40849688107E+02 -0.32784405151E+03  0.33059695758E+03  0.41800000000E+01 0.  1.
        -11    1    1    2    0    0  0.32947617976E+02 -0.17323341834E+02 -0.19366849370E+03  0.19721341018E+03  0.00000000000E+00 0.  1.
         11    1    1    2    0    0 -0.34659517330E+02  0.29716914980E+02 -0.95549786240E+02  0.10589683106E+03  0.00000000000E+00 0. -1.
</event>
<event>
 7    1  0.2714042E-009  0.1183916E+03  0.7561462E-02  0.1245774E+00
          3   -1    0    0  501    0  0.00000000000E+00  0.00000000000E+00  0.54952201745E+02  0.54952201745E+02  0.00000000000E+00 0. -1.
         -3   -1    0    0    0  501 -0.00000000000E+00 -0.00000000000E+00 -0.38771780966E+03  0.38771780966E+03  0.00000000000E+00 0.  1.
         25    2    1    2    0    0 -0.82755505522E+02  0.49941102097E+02 -0.17657030745E+03  0.23699575572E+03  0.12508927766E+03 0.  0.
          5    1    3    3  502    0 -0.22711312384E+02 -0.31337118445E+02 -0.69949186832E+01  0.39550221112E+02  0.41800000000E+01 0.  1.
         -5    1    3    3    0  502 -0.60044193137E+02  0.81278220542E+02 -0.16957538876E+03  0.19744553461E+03  0.41800000000E+01 0.  1.
        -11    1    1    2    0    0  0.25386903545E+02 -0.13484718891E+02 -0.12949293808E+03  0.13264521675E+03  0.00000000000E+00 0.  1.
         11    1    1    2    0    0  0.57368601976E+02 -0.36456383206E+02 -0.26702362385E+02  0.73029038924E+02  0.00000000000E+00 0. -1.
</event>
<event>
 7    1  0.2970603E-009  0.1175381E+03  0.7561462E-02  0.1247215E+00
         -2   -1    0    0    0  501 -0.00000000000E+00  0.00000000000E+00  0.23821445220E+02  0.23821445220E+02  0.00000000000E+00 0.  1.
          2   -1    0    0  501    0  0.00000000000E+00 -0.00000000000E+00 -0.80822211782E+03  0.80822211782E+03  0.00000000000E+00 0. -1.
         25    2    1    2    0    0  0.59457643461E+02 -0.59288884351E+02 -0.36653767164E+03  0.39629245797E+03  0.12508982508E+03 0.  0.
          5    1    3    3  502    0 -0.25917595199E+02 -0.25537132815E+02 -0.22208427795E+03  0.22508390837E+03  0.41800000000E+01 0. -1.
         -5    1    3    3    0  502  0.85375238659E+02 -0.33751751536E+02 -0.14445339369E+03  0.17120854960E+03  0.41800000000E+01 0. -1.
        -11    1    1    2    0    0 -0.41256583080E+02 -0.32826808348E+01 -0.65987720527E+02  0.77892624177E+02  0.00000000000E+00 0.  1.
         11    1    1    2    0    0 -0.18201060380E+02  0.62571565186E+02 -0.35187528043E+03  0.35785848089E+03  0.00000000000E+00 0. -1.
</event>
<event>
 7    1  0.2714042E-009  0.1125367E+03  0.7561462E-02  0.1255943E+00
          2   -1    0    0  501    0  0.00000000000E+00  0.00000000000E+00  0.39669415631E+03  0.39669415631E+03  0.00000000000E+00 0. -1.
         -2   -1    0    0    0  501 -0.00000000000E+00 -0.00000000000E+00 -0.42018817958E+02  0.42018817958E+02  0.00000000000E+00 0.  1.
         25    2    1    2    0    0 -0.48854621482E+02  0.47262702048E+02  0.21464251469E+03  0.25756432391E+03  0.12508970699E+03 0.  0.
          5    1    3    3  502    0  0.33205194403E+02  0.42403886900E+02  0.50537823826E+02  0.73974445565E+02  0.41800000000E+01 0. -1.
         -5    1    3    3    0  502 -0.82059815885E+02  0.48588151476E+01  0.16410469087E+03  0.18358987835E+03  0.41800000000E+01 0. -1.
        -11    1    1    2    0    0  0.33506057746E+02  0.53567009072E+01  0.36060223721E+01  0.34122625157E+02  0.00000000000E+00 0.  1.
         11    1    1    2    0    0  0.15348563736E+02 -0.52619402955E+02  0.13642680129E+03  0.14702602520E+03  0.00000000000E+00 0. -1.
</event>
<event>
 7    1  0.2714042E-009  0.2202970E+03  0.7561462E-02  0.1133662E+00
         -1   -1    0    0    0  501 -0.00000000000E+00  0.00000000000E+00  0.31220189643E+02  0.31220189643E+02  0.00000000000E+00 0.  1.
          1   -1    0    0  501    0  0.00000000000E+00 -0.00000000000E+00 -0.22951007302E+04  0.22951007302E+04  0.00000000000E+00 0. -1.
         25    2    1    2    0    0  0.51094279548E+01 -0.21147842710E+03 -0.16945010882E+04  0.17122296959E+04  0.12508941589E+03 0.  0.
          5    1    3    3  502    0  0.18901470164E+02 -0.12781359190E+03 -0.56757735946E+03  0.58211262761E+03  0.41800000000E+01 0.  1.
         -5    1    3    3    0  502 -0.13792042209E+02 -0.83664835206E+02 -0.11269237288E+04  0.11301170683E+04  0.41800000000E+01 0.  1.
        -11    1    1    2    0    0 -0.38164325058E+02  0.58012559256E+02 -0.22812790163E+03  0.23846239167E+03  0.00000000000E+00 0. -1.
         11    1    1    2    0    0  0.33054897103E+02  0.15346586785E+03 -0.34125155070E+03  0.37562883232E+03  0.00000000000E+00 0.  1.
</event>
<event>
 7    1  0.2714042E-009  0.1395187E+03  0.7561462E-02  0.1213978E+00
          1   -1    0    0  501    0  0.00000000000E+00  0.00000000000E+00  0.10414934331E+03  0.10414934331E+03  0.00000000000E+00 0. -1.
         -1   -1    0    0    0  501 -0.00000000000E+00 -0.00000000000E+00 -0.22940259261E+03  0.22940259261E+03  0.00000000000E+00 0.  1.
         25    2    1    2    0    0 -0.61393377950E+02  0.25616474832E+02 -0.66313564438E+02  0.15643104436E+03  0.12509129534E+03 0.  0.
          5    1    3    3  502    0 -0.79688707625E+02  0.58794652479E+02 -0.29444850040E+02  0.10340006227E+03  0.41800000000E+01 0. -1.
         -5    1    3    3    0  502  0.18295329675E+02 -0.33178177647E+02 -0.36868714398E+02  0.53030982088E+02  0.41800000000E+01 0. -1.
        -11    1    1    2    0    0  0.26316733422E+02  0.51081458404E+02 -0.71633495563E+02  0.91832693183E+02  0.00000000000E+00 0.  1.
         11    1    1    2    0    0  0.35076644528E+02 -0.76697933236E+02  0.12693810697E+02  0.85288198386E+02  0.00000000000E+00 0. -1.
</event>
<event>
 7    1  0.2714042E-009  0.1382377E+03  0.7561462E-02  0.1215720E+00
         -1   -1    0    0    0  501 -0.00000000000E+00  0.00000000000E+00  0.27920624332E+02  0.27920624332E+02  0.00000000000E+00 0.  1.
          1   -1    0    0  501    0  0.00000000000E+00 -0.00000000000E+00 -0.10709179140E+04  0.10709179140E+04  0.00000000000E+00 0. -1.
         25    2    1    2    0    0 -0.64834801732E+02 -0.10410416149E+03 -0.72782682392E+03  0.74861340141E+03  0.12509560818E+03 0.  0.
          5    1    3    3  502    0  0.15267957242E+02 -0.39449842067E+02 -0.45502063775E+03  0.45700180934E+03  0.41800000000E+01 0.  1.
         -5    1    3    3    0  502 -0.80102758973E+02 -0.64654319425E+02 -0.27280618617E+03  0.29161159207E+03  0.41800000000E+01 0.  1.
        -11    1    1    2    0    0  0.55256313730E+02  0.45549119196E+02 -0.78607977504E+02  0.10633530267E+03  0.00000000000E+00 0. -1.
         11    1    1    2    0    0  0.95784880015E+01  0.58555042296E+02 -0.23656248819E+03  0.24388983421E+03  0.00000000000E+00 0.  1.
</event>
<event>
 7    1  0.2714042E-009  0.1119098E+03  0.7561462E-02  0.1257074E+00
          2   -1    0    0  501    0  0.00000000000E+00  0.00000000000E+00  0.34944001953E+03  0.34944001953E+03  0.00000000000E+00 0. -1.
         -2   -1    0    0    0  501 -0.00000000000E+00 -0.00000000000E+00 -0.37988225726E+02  0.37988225726E+02  0.00000000000E+00 0.  1.
         25    2    1    2    0    0 -0.10874324179E+02 -0.23175906884E+02  0.22043072922E+03  0.25473918061E+03  0.12508784980E+03 0.  0.
          5    1    3    3  502    0 -0.62419887982E+01  0.51741595230E+02  0.97834910024E+02  0.11092924376E+03  0.41800000000E+01 0.  1.
         -5    1    3    3    0  502 -0.46323353812E+01 -0.74917502113E+02  0.12259581920E+03  0.14380993685E+03  0.41800000000E+01 0.  1.
        -11    1    1    2    0    0  0.77395866583E+01 -0.36140241449E+02  0.38995827358E+02  0.53727951803E+02  0.00000000000E+00 0.  1.
         11    1    1    2    0    0  0.31347375211E+01  0.59316148333E+02  0.52025237222E+02  0.78961112836E+02  0.00000000000E+00 0. -1.
</event>
<event>
 7    1  0.2970950E-009  0.1180858E+03  0.7561462E-02  0.1246289E+00
         -1   -1    0    0    0  501 -0.00000000000E+00  0.00000000000E+00  0.29132604683E+02  0.29132604683E+02  0.00000000000E+00 0.  1.
          1   -1    0    0  501    0  0.00000000000E+00 -0.00000000000E+00 -0.74861705978E+03  0.74861705978E+03  0.00000000000E+00 0. -1.
         25    2    1    2    0    0 -0.81939281932E+02 -0.36436275096E+02 -0.50681752051E+03  0.52967427102E+03  0.12509670746E+03 0.  0.
          5    1    3    3  502    0 -0.10179536499E+03 -0.55082179352E+02 -0.30984736430E+03  0.33078573787E+03  0.41800000000E+01 0.  1.
         -5    1    3    3    0  502  0.19856083057E+02  0.18645904256E+02 -0.19697015621E+03  0.19888853315E+03  0.41800000000E+01 0.  1.
        -11    1    1    2    0    0  0.37509569807E+02  0.38684163097E+01 -0.11382783608E+02  0.39389087760E+02  0.00000000000E+00 0.  1.
         11    1    1    2    0    0  0.44429712125E+02  0.32567858786E+02 -0.20128415098E+03  0.20868630569E+03  0.00000000000E+00 0. -1.
</event>
<event>
 7    1  0.2714042E-009  0.6326395E+02  0.7561462E-02  0.1384623E+00
         -2   -1    0    0    0  501 -0.00000000000E+00  0.00000000000E+00  0.89937803468E+02  0.89937803468E+02  0.00000000000E+00 0.  1.
          2   -1    0    0  501    0  0.00000000000E+00 -0.00000000000E+00 -0.13743195606E+03  0.13743195606E+03  0.00000000000E+00 0. -1.
         25    2    1    2    0    0  0.24544283770E+02  0.75876663534E+01 -0.28509411317E+02  0.13084272273E+03  0.12508811699E+03 0.  0.
          5    1    3    3  502    0  0.10578964608E+01 -0.40487131458E+01  0.48772546086E+02  0.49129877618E+02  0.41800000000E+01 0. -1.
         -5    1    3    3    0  502  0.23486387309E+02  0.11636379499E+02 -0.77281957403E+02  0.81712845115E+02  0.41800000000E+01 0. -1.
        -11    1    1    2    0    0 -0.56504711259E+02 -0.19775908542E+02 -0.17144395764E+02  0.62271978122E+02  0.00000000000E+00 0.  1.
         11    1    1    2    0    0  0.31960427489E+02  0.12188242189E+02 -0.18403455078E+01  0.34255058671E+02  0.00000000000E+00 0. -1.
</event>
<event>
 7    1  0.2714042E-009  0.9499997E+02  0.7561462E-02  0.1291176E+00
         -1   -1    0    0    0  501 -0.00000000000E+00  0.00000000000E+00  0.15965461503E+02  0.15965461503E+02  0.00000000000E+00 0.  1.
          1   -1    0    0  501    0  0.00000000000E+00 -0.00000000000E+00 -0.62817530452E+03  0.62817530452E+03  0.00000000000E+00 0. -1.
         25    2    1    2    0    0 -0.15474170254E+02 -0.19642759341E+02 -0.40839217344E+03  0.42785151885E+03  0.12508983537E+03 0.  0.
          5    1    3    3  502    0  0.96021401191E+01 -0.66241731024E+02 -0.15382356435E+03  0.16780741751E+03  0.41800000000E+01 0.  1.
         -5    1    3    3    0  502 -0.25076310373E+02  0.46598971683E+02 -0.25456860909E+03  0.26004410134E+03  0.41800000000E+01 0.  1.
        -11    1    1    2    0    0  0.12059028363E+02  0.43813180339E+02 -0.10336121971E+03  0.11290950658E+03  0.00000000000E+00 0.  1.
         11    1    1    2    0    0  0.34151418905E+01 -0.24170420998E+02 -0.10045644986E+03  0.10337974059E+03  0.00000000000E+00 0. -1.
</event>
<event>
 7    1  0.2714042E-009  0.1040624E+03  0.7561462E-02  0.1271978E+00
          2   -1    0    0  501    0  0.00000000000E+00  0.00000000000E+00  0.90706292243E+03  0.90706292243E+03  0.00000000000E+00 0. -1.
         -2   -1    0    0    0  501 -0.00000000000E+00 -0.00000000000E+00 -0.17310250930E+02  0.17310250930E+02  0.00000000000E+00 0.  1.
         25    2    1    2    0    0 -0.43036184222E+02  0.97404332234E+01  0.66589954663E+03  0.67898123693E+03  0.12508526978E+03 0.  0.
          5    1    3    3  502    0 -0.72215088968E+02 -0.25630289910E+02  0.52920832637E+03  0.53474372921E+03  0.41800000000E+01 0.  1.
         -5    1    3    3    0  502  0.29178904746E+02  0.35370723133E+02  0.13669122026E+03  0.14423750772E+03  0.41800000000E+01 0.  1.
        -11    1    1    2    0    0  0.22039686420E+02 -0.41661393254E+02  0.18496323969E+03  0.19087383137E+03  0.00000000000E+00 0. -1.
         11    1    1    2    0    0  0.20996497802E+02  0.31920960030E+02  0.38889885177E+02  0.54518105050E+02  0.00000000000E+00 0.  1.
</event>
<event>
 7    1  0.2714042E-009  0.1219176E+03  0.7561462E-02  0.1239967E+00
         -1   -1    0    0    0  501 -0.00000000000E+00  0.00000000000E+00  0.19098822786E+03  0.19098822786E+03  0.00000000000E+00 0.  1.
          1   -1    0    0  501    0  0.00000000000E+00 -0.00000000000E+00 -0.14862912117E+03  0.14862912117E+03  0.00000000000E+00 0. -1.
         25    2    1    2    0    0 -0.70494344212E+02 -0.53305075760E+02 -0.70414321519E+02  0.16857596797E+03  0.12509515032E+03 0.  0.
          5    1    3    3  502    0 -0.70962112781E+02 -0.90854852269E+02 -0.51806485056E+02  0.12645793737E+03  0.41800000000E+01 0.  1.
         -5    1    3    3    0  502  0.46776856957E+00  0.37549776508E+02 -0.18607836463E+02  0.42118030594E+02  0.41800000000E+01 0.  1.
        -11    1    1    2    0    0  0.39323318353E+02  0.16999231273E+02 -0.57485167195E+01  0.43224329661E+02  0.00000000000E+00 0. -1.
         11    1    1    2    0    0  0.31171025859E+02  0.36305844487E+02  0.11852194493E+03  0.12781705139E+03  0.00000000000E+00 0.  1.
</event>
<event>
 7    1  0.2714042E-009  0.1569713E+03  0.7561462E-02  0.1192159E+00
         -2   -1    0    0    0  501 -0.00000000000E+00  0.00000000000E+00  0.16381480826E+03  0.16381480826E+03  0.00000000000E+00 0.  1.
          2   -1    0    0  501    0  0.00000000000E+00 -0.00000000000E+00 -0.27434304505E+03  0.27434304505E+03  0.00000000000E+00 0. -1.
         25    2    1    2    0    0  0.13217729880E+03 -0.65657203187E+02 -0.16719705931E+03  0.25570817136E+03  0.12510038213E+03 0.  0.
          5    1    3    3  502    0  0.60566452681E+02 -0.23667595510E+02 -0.15942451864E+03  0.17222688470E+03  0.41800000000E+01 0. -1.
         -5    1    3    3    0  502  0.71610846115E+02 -0.41989607678E+02 -0.77725406684E+01  0.83481286662E+02  0.41800000000E+01 0. -1.
        -11    1    1    2    0    0 -0.13209517454E+02  0.42443840953E+02 -0.78452287064E+01  0.45138881241E+02  0.00000000000E+00 0. -1.
         11    1    1    2    0    0 -0.11896778134E+03  0.23213362235E+02  0.64514051230E+02  0.13731080070E+03  0.00000000000E+00 0.  1.
</event>
<event>
 7    1  0.2714042E-009  0.7812542E+02  0.7561462E-02  0.1334457E+00
          1   -1    0    0  501    0  0.00000000000E+00  0.00000000000E+00  0.55994965269E+03  0.55994965269E+03  0.00000000000E+00 0. -1.
         -1   -1    0    0    0  501 -0.00000000000E+00 -0.00000000000E+00 -0.20713741428E+02  0.20713741428E+02  0.00000000000E+00 0.  1.
         25    2    1    2    0    0  0.13624718792E+01  0.17531019571E+02  0.37762857757E+03  0.39819559223E+03  0.12508874488E+03 0.  0.
          5    1    3    3  502    0  0.26212016384E+02  0.53026950389E+02  0.93271781389E+02  0.11052612756E+03  0.41800000000E+01 0.  1.
         -5    1    3    3    0  502 -0.24849544504E+02 -0.35495930818E+02  0.28435679618E+03  0.28766946467E+03  0.41800000000E+01 0.  1.
        -11    1    1    2    0    0 -0.23575609253E+02  0.22420130995E+01  0.65314274081E+01  0.24566145778E+02  0.00000000000E+00 0.  1.
         11    1    1    2    0    0  0.22213137374E+02 -0.19773032670E+02  0.15507590628E+03  0.15790165611E+03  0.00000000000E+00 0. -1.
</event>
<event>
 7    1  0.2714042E-009  0.9669842E+02  0.7561462E-02  0.1287396E+00
         -1   -1    0    0    0  501 -0.00000000000E+00  0.00000000000E+00  0.15193019776E+03  0.15193019776E+03  0.00000000000E+00 0.  1.
          1   -1    0    0  501    0  0.00000000000E+00 -0.00000000000E+00 -0.10459108910E+03  0.10459108910E+03  0.00000000000E+00 0. -1.
         25    2    1    2    0    0  0.50331969416E+02 -0.38019745753E+02  0.36652758350E+02  0.14480537938E+03  0.12508543077E+03 0.  0.
          5    1    3    3  502    0  0.72193754984E+01 -0.37977218080E+02  0.76586334434E+02  0.85891370333E+02  0.41800000000E+01 0.  1.
         -5    1    3    3    0  502  0.43112593918E+02 -0.42527673725E-01 -0.39933576084E+02  0.58914009045E+02  0.41800000000E+01 0.  1.
        -11    1    1    2    0    0 -0.75470416034E+00 -0.28348364052E+02  0.31494595095E+01  0.28532760435E+02  0.00000000000E+00 0.  1.
         11    1    1    2    0    0 -0.49577265256E+02  0.66368109806E+02  0.75368907991E+01  0.83183147045E+02  0.00000000000E+00 0. -1.
</event>
<event>
 7    1  0.2714042E-009  0.1076919E+03  0.7561462E-02  0.1264905E+00
         -2   -1    0    0    0  501 -0.00000000000E+00  0.00000000000E+00  0.11787193245E+02  0.11787193245E+02  0.00000000000E+00 0.  1.
          2   -1    0    0  501    0  0.00000000000E+00 -0.00000000000E+00 -0.12537321799E+04  0.12537321799E+04  0.00000000000E+00 0. -1.
         25    2    1    2    0    0  0.12900997460E+02  0.53464168270E+02 -0.74873217205E+03  0.76109911550E+03  0.12508854912E+03 0.  0.
          5    1    3    3  502    0  0.45254941772E+02  0.66422232680E+02 -0.67099116168E+03  0.67580066158E+03  0.41800000000E+01 0.  1.
         -5    1    3    3    0  502 -0.32353944311E+02 -0.12958064410E+02 -0.77741010375E+02  0.85298453913E+02  0.41800000000E+01 0.  1.
        -11    1    1    2    0    0 -0.13973685266E+02  0.21056278148E+02 -0.64432581023E+02  0.69211185705E+02  0.00000000000E+00 0.  1.
         11    1    1    2    0    0  0.10726878053E+01 -0.74520446418E+02 -0.42878023361E+03  0.43520907198E+03  0.00000000000E+00 0. -1.
</event>
<event>
 7    1  0.2714042E-009  0.1358231E+03  0.7561462E-02  0.1219062E+00
         -2   -1    0    0    0  501 -0.00000000000E+00  0.00000000000E+00  0.36379247296E+03  0.36379247296E+03  0.00000000000E+00 0.  1.
          2   -1    0    0  501    0  0.00000000000E+00 -0.00000000000E+00 -0.59083477253E+02  0.59083477253E+02  0.00000000000E+00 0. -1.
         25    2    1    2    0    0  0.91133753873E+02  0.30871865143E+02  0.19146121920E+03  0.24812045116E+03  0.12509167308E+03 0.  0.
          5    1    3    3  502    0 -0.29763903347E+02  0.17093995182E+02  0.57520054293E+02  0.67112768231E+02  0.41800000000E+01 0. -1.
         -5    1    3    3    0  502  0.12089765722E+03  0.13777869961E+02  0.13394116490E+03  0.18100768293E+03  0.41800000000E+01 0. -1.
        -11    1    1    2    0    0 -0.34303892270E+02 -0.45166994746E+02  0.99553844887E+02  0.11457653543E+03  0.00000000000E+00 0.  1.
         11    1    1    2    0    0 -0.56829861603E+02  0.14295129603E+02  0.13693931626E+02  0.60178963630E+02  0.00000000000E+00 0. -1.
</event>
<event>
 7    1  0.2714042E-009  0.1340609E+03  0.7561462E-02  0.1221552E+00
         -1   -1    0    0    0  501 -0.00000000000E+00  0.00000000000E+00  0.14705811996E+02  0.14705811996E+02  0.00000000000E+00 0.  1.
          1   -1    0    0  501    0  0.00000000000E+00 -0.00000000000E+00 -0.22625306064E+04  0.22625306064E+04  0.00000000000E+00 0. -1.
         25    2    1    2    0    0  0.57030366848E+02  0.68419690118E+02 -0.19115171011E+04  0.19176753810E+04  0.12509005592E+03 0.  0.
          5    1    3    3  502    0  0.82734845584E+02  0.77872196881E+02 -0.17584168974E+04  0.17620887013E+04  0.41800000000E+01 0. -1.
         -5    1    3    3    0  502 -0.25704478736E+02 -0.94525067628E+01 -0.15310020369E+03  0.15558667964E+03  0.41800000000E+01 0. -1.
        -11    1    1    2    0    0  0.10940792673E+02 -0.56702406019E+02 -0.13777010593E+03  0.14938361985E+03  0.00000000000E+00 0.  1.
         11    1    1    2    0    0 -0.67971159522E+02 -0.11717284099E+02 -0.19853758735E+03  0.21017741759E+03  0.00000000000E+00 0. -1.
</event>
<event>
 7    1  0.2714042E-009  0.1110970E+03  0.7561462E-02  0.1258552E+00
         -1   -1    0    0    0  501 -0.00000000000E+00  0.00000000000E+00  0.17773027527E+02  0.17773027527E+02  0.00000000000E+00 0.  1.
          1   -1    0    0  501    0  0.00000000000E+00 -0.00000000000E+00 -0.77174735819E+03  0.77174735819E+03  0.00000000000E+00 0. -1.
         25    2    1    2    0    0 -0.36698454281E+02 -0.13101817492E+02 -0.50073523551E+03  0.51759221637E+03  0.12508993646E+03 0.  0.
          5    1    3    3  502    0 -0.78853245033E+02 -0.23956856968E+02 -0.25569302053E+03  0.26867854101E+03  0.41800000000E+01 0. -1.
         -5    1    3    3    0  502  0.42154790752E+02  0.10855039477E+02 -0.24504221498E+03  0.24891367537E+03  0.41800000000E+01 0. -1.
        -11    1    1    2    0    0 -0.29119708419E+02  0.61431207739E+01 -0.50030180517E+02  0.58212664549E+02  0.00000000000E+00 0.  1.
         11    1    1    2    0    0  0.65818162701E+02  0.69586967177E+01 -0.20320891464E+03  0.21371550480E+03  0.00000000000E+00 0. -1.
</event>
<event>
 7    1  0.2714042E-009  0.1046388E+03  0.7561462E-02  0.1270833E+00
          2   -1    0    0  501    0  0.00000000000E+00  0.00000000000E+00  0.17260934525E+03  0.17260934525E+03  0.00000000000E+00 0. -1.
         -2   -1    0    0    0  501 -0.00000000000E+00 -0.00000000000E+00 -0.10531623197E+03  0.10531623197E+03  0.00000000000E+00 0.  1.
         25    2    1    2    0    0 -0.31666437878E+02  0.25871513703E+02 -0.34216593599E+02  0.13598126927E+03  0.12509209330E+03 0.  0.
          5    1    3    3  502    0 -0.33728538007E+02  0.66002079873E+02 -0.53210753986E+02  0.91338631277E+02  0.41800000000E+01 0.  1.
         -5    1    3    3    0  502  0.20621001282E+01 -0.40130566171E+02  0.18994160388E+02  0.44642637993E+02  0.41800000000E+01 0.  1.
        -11    1    1    2    0    0  0.48874141598E+02 -0.46715626146E+02  0.51109898139E+02  0.84754074421E+02  0.00000000000E+00 0.  1.
         11    1    1    2    0    0 -0.17207703719E+02  0.20844112444E+02  0.50399808735E+02  0.57190233531E+02  0.00000000000E+00 0. -1.
</event>
<event>
 7    1  0.2714042E-009  0.9961285E+02  0.7561462E-02  0.1281112E+00
         -2   -1    0    0    0  501 -0.00000000000E+00  0.00000000000E+00  0.17733616627E+03  0.17733616627E+03  0.00000000000E+00 0.  1.
          2   -1    0    0  501    0  0.00000000000E+00 -0.00000000000E+00 -0.10562757927E+03  0.10562757927E+03  0.00000000000E+00 0. -1.
         25    2    1    2    0    0 -0.53777923679E+01  0.69100014251E+02 -0.78122249043E+01  0.14322076209E+03  0.12508966070E+03 0.  0.
          5    1    3    3  502    0 -0.12076273728E+02 -0.13958404653E+02  0.41987717296E+02  0.46055556140E+02  0.41800000000E+01 0. -1.
         -5    1    3    3    0  502  0.66984813601E+01  0.83058418904E+02 -0.49799942200E+02  0.97165205946E+02  0.41800000000E+01 0. -1.
        -11    1    1    2    0    0  0.31037173562E+02 -0.10280697003E+02  0.66728137666E+02  0.74307760227E+02  0.00000000000E+00 0.  1.
         11    1    1    2    0    0 -0.25659381195E+02 -0.58819317248E+02  0.12792674234E+02  0.65435223228E+02  0.00000000000E+00 0. -1.
</event>
<event>
 7    1  0.2714042E-009  0.1326316E+03  0.7561462E-02  0.1223602E+00
         -2   -1    0    0    0  501 -0.00000000000E+00  0.00000000000E+00  0.82576296478E+02  0.82576296478E+02  0.00000000000E+00 0.  1.
          2   -1    0    0  501    0  0.00000000000E+00 -0.00000000000E+00 -0.24919651329E+03  0.24919651329E+03  0.00000000000E+00 0. -1.
         25    2    1    2    0    0  0.87951705257E+02  0.10746919987E+02 -0.12630330193E+03  0.19862264285E+03  0.12508969353E+03 0.  0.
          5    1    3    3  502    0  0.76089407885E+02  0.62645151088E+02 -0.93701149366E+02  0.13605657184E+03  0.41800000000E+01 0.  1.
         -5    1    3    3    0  502  0.11862297372E+02 -0.51898231101E+02 -0.32602152562E+02  0.62566071013E+02  0.41800000000E+01 0.  1.
        -11    1    1    2    0    0 -0.60070841107E+02  0.27350882745E+02 -0.52564041438E+02  0.84377456649E+02  0.00000000000E+00 0. -1.
         11    1    1    2    0    0 -0.27880864151E+02 -0.38097802732E+02  0.12247126550E+02  0.48772710275E+02  0.00000000000E+00 0.  1.
</event>
<event>
 7    1  0.2714042E-009  0.1710967E+03  0.7561462E-02  0.1176709E+00
         -1   -1    0    0    0  501 -0.00000000000E+00  0.00000000000E+00  0.71469842814E+02  0.71469842814E+02  0.00000000000E+00 0.  1.
          1   -1    0    0  501    0  0.00000000000E+00 -0.00000000000E+00 -0.55459262302E+03  0.55459262302E+03  0.00000000000E+00 0. -1.
         25    2    1    2    0    0  0.55343362883E+02  0.15173158936E+03 -0.18800555887E+03  0.27763173120E+03  0.12509166631E+03 0.  0.
          5    1    3    3  502    0  0.73565324379E+01  0.12090378850E+03 -0.18396441884E+03  0.22030030514E+03  0.41800000000E+01 0. -1.
         -5    1    3    3    0  502  0.47986830445E+02  0.30827800854E+02 -0.40411400280E+01  0.57331426063E+02  0.41800000000E+01 0. -1.
        -11    1    1    2    0    0 -0.35430618123E+02 -0.57872558497E+02 -0.20816008749E+03  0.21894105086E+03  0.00000000000E+00 0. -1.
         11    1    1    2    0    0 -0.19912744760E+02 -0.93859030859E+02 -0.86957133850E+02  0.12948968378E+03  0.00000000000E+00 0.  1.
</event>
<event>
 7    1  0.2714042E-009  0.1305592E+03  0.7561462E-02  0.1226628E+00
         -1   -1    0    0    0  501 -0.00000000000E+00  0.00000000000E+00  0.29042771067E+03  0.29042771067E+03  0.00000000000E+00 0.  1.
          1   -1    0    0  501    0  0.00000000000E+00 -0.00000000000E+00 -0.75075952679E+02  0.75075952679E+02  0.00000000000E+00 0. -1.
         25    2    1    2    0    0 -0.78582816996E+02 -0.34119157346E+02  0.50311094999E+02  0.15974493128E+03  0.12509140963E+03 0.  0.
          5    1    3    3  502    0  0.28045928755E+01  0.37307964926E+02 -0.51742730003E+01  0.37999940647E+02  0.41800000000E+01 0. -1.
         -5    1    3    3    0  502 -0.81387409871E+02 -0.71427122273E+02  0.55485367999E+02  0.12174499063E+03  0.41800000000E+01 0. -1.
        -11    1    1    2    0    0 -0.15588528700E+02  0.71442329322E+01  0.58799930975E+02  0.61249278966E+02  0.00000000000E+00 0.  1.
         11    1    1    2    0    0  0.94171345696E+02  0.26974924414E+02  0.10624073202E+03  0.14450945311E+03  0.00000000000E+00 0. -1.
</event>
<event>
 7    1  0.2714042E-009  0.1083698E+03  0.7561462E-02  0.1263619E+00
         -1   -1    0    0    0  501 -0.00000000000E+00  0.00000000000E+00  0.17325884586E+03  0.17325884586E+03  0.00000000000E+00 0.  1.
          1   -1    0    0  501    0  0.00000000000E+00 -0.00000000000E+00 -0.88866632657E+02  0.88866632657E+02  0.00000000000E+00 0. -1.
         25    2    1    2    0    0  0.15774043017E+02 -0.24409506911E+02 -0.82300412134E+01  0.12868835031E+03  0.12509321911E+03 0.  0.
          5    1    3    3  502    0 -0.39996700370E+02 -0.49079742205E+02 -0.19816095911E+02  0.66473357013E+02  0.41800000000E+01 0. -1.
         -5    1    3    3    0  502  0.55770743387E+02  0.24670235294E+02  0.11586054697E+02  0.62214993296E+02  0.41800000000E+01 0. -1.
        -11    1    1    2    0    0  0.16283442457E+02  0.49079881213E+02  0.70192141821E+02  0.87183266809E+02  0.00000000000E+00 0.  1.
         11    1    1    2    0    0 -0.32057485474E+02 -0.24670374302E+02  0.22430112592E+02  0.46253861395E+02  0.00000000000E+00 0. -1.
</event>
<event>
 7    1  0.2714042E-009  0.2043740E+03  0.7561462E-02  0.1146100E+00
         -2   -1    0    0    0  501 -0.00000000000E+00  0.00000000000E+00  0.10988725617E+03  0.10988725617E+03  0.00000000000E+00 0.  1.
          2   -1    0    0  501    0  0.00000000000E+00 -0.00000000000E+00 -0.48285244905E+03  0.48285244905E+03  0.00000000000E+00 0. -1.
         25    2    1    2    0    0 -0.19697834184E+03  0.28689966667E+02 -0.14582125075E+03  0.27665015982E+03  0.12509153616E+03 0.  0.
          5    1    3    3  502    0 -0.15878309940E+03  0.83478963830E+01 -0.42625002464E+02  0.16466973997E+03  0.41800000000E+01 0. -1.
         -5    1    3    3    0  502 -0.38195242443E+02  0.20342070284E+02 -0.10319624829E+03  0.11198041985E+03  0.41800000000E+01 0. -1.
        -11    1    1    2    0    0  0.35300911543E+02 -0.27143505823E+02 -0.10479864021E+02  0.45746604399E+02  0.00000000000E+00 0.  1.
         11    1    1    2    0    0  0.16167743029E+03 -0.15464608443E+01 -0.21666407811E+03  0.27034294100E+03  0.00000000000E+00 0. -1.
</event>
<event>
 7    1  0.2714042E-009  0.4450081E+02  0.7561462E-02  0.1477482E+00
         -4   -1    0    0    0  501 -0.00000000000E+00  0.00000000000E+00  0.22330022090E+03  0.22330022090E+03  0.00000000000E+00 0.  1.
          4   -1    0    0  501    0  0.00000000000E+00 -0.00000000000E+00 -0.57218931181E+02  0.57218931181E+02  0.00000000000E+00 0. -1.
         25    2    1    2    0    0 -0.22673029906E+02 -0.28413394057E+01  0.12176150025E+03  0.17605558890E+03  0.12509023921E+03 0.  0.
          5    1    3    3  502    0 -0.73747294089E+01  0.37606708820E+01  0.14602907566E+03  0.14632324701E+03  0.41800000000E+01 0.  1.
         -5    1    3    3    0  502 -0.15298300498E+02 -0.66020102878E+01 -0.24267575409E+02  0.29732341889E+02  0.41800000000E+01 0.  1.
        -11    1    1    2    0    0 -0.19157593182E+02  0.72579761891E+01 -0.19332882646E+02  0.28168279079E+02  0.00000000000E+00 0. -1.
         11    1    1    2    0    0  0.41830623089E+02 -0.44166367834E+01  0.63652672121E+02  0.76295284104E+02  0.00000000000E+00 0.  1.
</event>
<event>
 7    1  0.2714042E-009  0.1787531E+03  0.7561462E-02  0.1169015E+00
          1   -1    0    0  501    0  0.00000000000E+00  0.00000000000E+00  0.10902193625E+03  0.10902193625E+03  0.00000000000E+00 0. -1.
         -1   -1    0    0    0  501 -0.00000000000E+00 -0.00000000000E+00 -0.32226579026E+03  0.32226579026E+03  0.00000000000E+00 0.  1.
         25    2    1    2    0    0  0.14676155963E+03 -0.38927031279E+02 -0.10969850163E+03  0.22524656624E+03  0.12509190699E+03 0.  0.
          5    1    3    3  502    0  0.15964595745E+03 -0.59172187361E+01 -0.99025222498E+02  0.18800349012E+03  0.41800000000E+01 0. -1.
         -5    1    3    3    0  502 -0.12884397822E+02 -0.33009812543E+02 -0.10673279133E+02  0.37243076119E+02  0.41800000000E+01 0. -1.
        -11    1    1    2    0    0 -0.13766613299E+03  0.17545850510E+02 -0.11490755297E+03  0.18017648785E+03  0.00000000000E+00 0.  1.
         11    1    1    2    0    0 -0.90954266340E+01  0.21381180770E+02  0.11362200593E+02  0.25864672414E+02  0.00000000000E+00 0. -1.
</event>
<event>
 7    1  0.2714042E-009  0.1427348E+03  0.7561462E-02  0.1209696E+00
         -3   -1    0    0    0  501 -0.00000000000E+00  0.00000000000E+00  0.71840253175E+03  0.71840253175E+03  0.00000000000E+00 0.  1.
          3   -1    0    0  501    0  0.00000000000E+00 -0.00000000000E+00 -0.45925292915E+02  0.45925292915E+02  0.00000000000E+00 0. -1.
         25    2    1    2    0    0 -0.62880928201E+02  0.98622382741E+02  0.17486144624E+03  0.24475395722E+03  0.12509032212E+03 0.  0.
          5    1    3    3  502    0  0.12523367068E+02  0.36844322112E+02 -0.56664509975E+01  0.39546426659E+02  0.41800000000E+01 0. -1.
         -5    1    3    3    0  502 -0.75404295270E+02  0.61778060629E+02  0.18052789723E+03  0.20520753056E+03  0.41800000000E+01 0. -1.
        -11    1    1    2    0    0 -0.13149261626E+02  0.97566398833E+01  0.72263975236E+02  0.74095730107E+02  0.00000000000E+00 0.  1.
         11    1    1    2    0    0  0.76030189827E+02 -0.10837902262E+03  0.42535181736E+03  0.44547813734E+03  0.00000000000E+00 0. -1.
</event>
<event>
 7    1  0.2714042E-009  0.1286689E+03  0.7561462E-02  0.1229444E+00
          1   -1    0    0  501    0  0.00000000000E+00  0.00000000000E+00  0.28374746735E+03  0.28374746735E+03  0.00000000000E+00 0. -1.
         -1   -1    0    0    0  501 -0.00000000000E+00 -0.00000000000E+00 -0.77585754665E+02  0.77585754665E+02  0.00000000000E+00 0.  1.
         25    2    1    2    0    0 -0.92593751949E+02  0.50771174298E+02  0.10267873910E+03  0.19324001184E+03  0.12508982242E+03 0.  0.
          5    1    3    3  502    0 -0.57486985428E+02  0.84624674740E+02  0.10165231466E+03  0.14428012525E+03  0.41800000000E+01 0.  1.
         -5    1    3    3    0  502 -0.35106766521E+02 -0.33853500442E+02  0.10264244457E+01  0.48959886590E+02  0.41800000000E+01 0.  1.
        -11    1    1    2    0    0  0.55110023711E+02 -0.25027293295E+02  0.10652407978E+03  0.12251881364E+03  0.00000000000E+00 0. -1.
         11    1    1    2    0    0  0.37483728238E+02 -0.25743881003E+02 -0.30411062021E+01  0.45574396525E+02  0.00000000000E+00 0.  1.
</event>
<event>
 7    1  0.2714042E-009  0.1263599E+03  0.7561462E-02  0.1232959E+00
          1   -1    0    0  501    0  0.00000000000E+00  0.00000000000E+00  0.66273074196E+03  0.66273074196E+03  0.00000000000E+00 0. -1.
         -1   -1    0    0    0  501 -0.00000000000E+00 -0.00000000000E+00 -0.30339009997E+02  0.30339009997E+02  0.00000000000E+00 0.  1.
         25    2    1    2    0    0  0.77801089093E+02  0.39599083348E+02  0.28285134158E+03  0.32136231232E+03  0.12509099680E+03 0.  0.
          5    1    3    3  502    0 -0.24281422972E+02  0.19452944086E+02  0.14632399774E+03  0.14965356411E+03  0.41800000000E+01 0.  1.
         -5    1    3    3    0  502  0.10208251206E+03  0.20146139262E+02  0.13652734384E+03  0.17170874821E+03  0.41800000000E+01 0.  1.
        -11    1    1    2    0    0 -0.92670677446E+02 -0.24184180113E+02  0.32646724905E+03  0.34022579816E+03  0.00000000000E+00 0. -1.
         11    1    1    2    0    0  0.14869588354E+02 -0.15414903235E+02  0.23073141330E+02  0.31481641482E+02  0.00000000000E+00 0.  1.
</event>
<event>
 7    1  0.2714042E-009  0.1158430E+03  0.7561462E-02  0.1250117E+00
         -2   -1    0    0    0  501 -0.00000000000E+00  0.00000000000E+00  0.33719426606E+02  0.33719426606E+02  0.00000000000E+00 0.  1.
          2   -1    0    0  501    0  0.00000000000E+00 -0.00000000000E+00 -0.64085044937E+03  0.64085044937E+03  0.00000000000E+00 0. -1.
         25    2    1    2    0    0  0.72579675065E+02 -0.10874768245E+02 -0.17736125547E+03  0.22910490994E+03  0.12508387186E+03 0.  0.
          5    1    3    3  502    0 -0.17612623534E+02  0.13899653348E+02  0.56705486705E+01  0.23516640772E+02  0.41800000000E+01 0. -1.
         -5    1    3    3    0  502  0.90192298599E+02 -0.24774421593E+02 -0.18303180414E+03  0.20558826917E+03  0.41800000000E+01 0. -1.
        -11    1    1    2    0    0  0.25677026653E+01 -0.29716651205E+02 -0.78907459099E+02  0.84356739845E+02  0.00000000000E+00 0.  1.
         11    1    1    2    0    0 -0.75147377730E+02  0.40591419450E+02 -0.35086230820E+03  0.36110822620E+03  0.00000000000E+00 0. -1.
</event>
<event>
 7    1  0.2714042E-009  0.1178814E+03  0.7561462E-02  0.1246634E+00
         -2   -1    0    0    0  501 -0.00000000000E+00  0.00000000000E+00  0.29969107180E+02  0.29969107180E+02  0.00000000000E+00 0.  1.
          2   -1    0    0  501    0  0.00000000000E+00 -0.00000000000E+00 -0.55952959812E+03  0.55952959812E+03  0.00000000000E+00 0. -1.
         25    2    1    2    0    0  0.43692221561E+02  0.37670595766E+02 -0.20148877720E+03  0.24407503265E+03  0.12508721044E+03 0.  0.
          5    1    3    3  502    0 -0.21604246533E+02 -0.29478004737E+02 -0.96732759637E+02  0.10349104028E+03  0.41800000000E+01 0. -1.
         -5    1    3    3    0  502  0.65296468094E+02  0.67148600503E+02 -0.10475601756E+03  0.14058399237E+03  0.41800000000E+01 0. -1.
        -11    1    1    2    0    0 -0.70969428212E+02 -0.26983718199E+02 -0.26864386654E+03  0.27916716823E+03  0.00000000000E+00 0. -1.
         11    1    1    2    0    0  0.27277206652E+02 -0.10686877567E+02 -0.59427847204E+02  0.66256504422E+02  0.00000000000E+00 0.  1.
</event>
<event>
 7    1  0.2714042E-009  0.8239170E+02  0.7561462E-02  0.1322398E+00
          3   -1    0    0  501    0  0.00000000000E+00  0.00000000000E+00  0.73762080943E+02  0.73762080943E+02  0.00000000000E+00 0. -1.
         -3   -1    0    0    0  501 -0.00000000000E+00 -0.00000000000E+00 -0.17727293997E+03  0.17727293997E+03  0.00000000000E+00 0.  1.
         25    2    1    2    0    0 -0.30557403736E+02  0.11575995244E+02 -0.80936855564E+02  0.15253088520E+03  0.12508851971E+03 0.  0.
          5    1    3    3  502    0  0.47019750066E+02  0.18088972477E+02 -0.40070334354E+02  0.64507146245E+02  0.41800000000E+01 0.  1.
         -5    1    3    3    0  502 -0.77577153802E+02 -0.65129772325E+01 -0.40866521210E+02  0.88023738959E+02  0.41800000000E+01 0.  1.
        -11    1    1    2    0    0  0.67565815261E+01 -0.10446666320E+02  0.34489941026E+02  0.36665245985E+02  0.00000000000E+00 0. -1.
         11    1    1    2    0    0  0.23800822210E+02 -0.11293289242E+01 -0.57063944485E+02  0.61838889721E+02  0.00000000000E+00 0.  1.
</event>
<event>
 7    1  0.2714042E-009  0.8989879E+02  0.7561462E-02  0.1303097E+00
          4   -1    0    0  501    0  0.00000000000E+00  0.00000000000E+00  0.86989331072E+02  0.86989331072E+02  0.00000000000E+00 0. -1.
         -4   -1    0    0    0  501 -0.00000000000E+00 -0.00000000000E+00 -0.21431411006E+03  0.21431411006E+03  0.00000000000E+00 0.  1.
         25    2    1    2    0    0  0.47270210798E+02 -0.23243425609E+01 -0.14449944468E+03  0.19689529106E+03  0.12509112972E+03 0.  0.
          5    1    3    3  502    0  0.65740560756E+02  0.24045805385E+02 -0.27248738502E+02  0.75232893305E+02  0.41800000000E+01 0.  1.
         -5    1    3    3    0  502 -0.18470349958E+02 -0.26370147946E+02 -0.11725070617E+03  0.12166239776E+03  0.41800000000E+01 0.  1.
        -11    1    1    2    0    0 -0.48201623269E+02  0.25146023617E+02 -0.22331651067E+02  0.58774327975E+02  0.00000000000E+00 0.  1.
         11    1    1    2    0    0  0.93141247152E+00 -0.22821681056E+02  0.39506316754E+02  0.45633822094E+02  0.00000000000E+00 0. -1.
</event>
<event>
 7    1  0.2714042E-009  0.9838202E+02  0.7561462E-02  0.1283736E+00
          2   -1    0    0  501    0  0.00000000000E+00  0.00000000000E+00  0.37099234306E+03  0.37099234306E+03  0.00000000000E+00 0. -1.
         -2   -1    0    0    0  501 -0.00000000000E+00 -0.00000000000E+00 -0.32540582841E+02  0.32540582841E+02  0.00000000000E+00 0.  1.
         25    2    1    2    0    0  0.32279699121E+01 -0.18910080888E+02  0.17573908730E+03  0.21656250530E+03  0.12508829261E+03 0.  0.
          5    1    3    3  502    0 -0.32086759265E+02 -0.53933884890E+02  0.47091476154E+02  0.78571646195E+02  0.41800000000E+01 0.  1.
         -5    1    3    3    0  502  0.35314729177E+02  0.35023804001E+02  0.12864761114E+03  0.13799085910E+03  0.41800000000E+01 0.  1.
        -11    1    1    2    0    0  0.15163301290E+02 -0.28951492575E+02  0.10403230587E+03  0.10904510669E+03  0.00000000000E+00 0.  1.
         11    1    1    2    0    0 -0.18391271202E+02  0.47861573464E+02  0.58680367051E+02  0.77925313911E+02  0.00000000000E+00 0. -1.
</event>
<event>
 7    1  0.2714042E-009  0.8996821E+02  0.7561462E-02  0.1302929E+00
         -1   -1    0    0    0  501 -0.00000000000E+00  0.00000000000E+00  0.16671958786E+03  0.16671958786E+03  0.00000000000E+00 0.  1.
          1   -1    0    0  501    0  0.00000000000E+00 -0.00000000000E+00 -0.99380521312E+02  0.99380521312E+02  0.00000000000E+00 0. -1.
         25    2    1    2    0    0 -0.61042313526E+02  0.19035075679E+02  0.50261777507E+02  0.14920674327E+03  0.12509159769E+03 0.  0.
          5    1    3    3  502    0 -0.32797253970E+02  0.12406309155E+02  0.91805495957E+02  0.98363091974E+02  0.41800000000E+01 0.  1.
         -5    1    3    3    0  502 -0.28245059556E+02  0.66287665238E+01 -0.41543718449E+02  0.50843651301E+02  0.41800000000E+01 0.  1.
        -11    1    1    2    0    0  0.58267354434E+02  0.30452644935E+02  0.53715093128E+01  0.65964394097E+02  0.00000000000E+00 0.  1.
         11    1    1    2    0    0  0.27749590925E+01 -0.49487720613E+02  0.11705779726E+02  0.50928971799E+02  0.00000000000E+00 0. -1.
</event>
<event>
 7    1  0.2714042E-009  0.2154721E+03  0.7561462E-02  0.1137304E+00
         -1   -1    0    0    0  501 -0.00000000000E+00  0.00000000000E+00  0.61558081945E+02  0.61558081945E+02  0.00000000000E+00 0.  1.
          1   -1    0    0  501    0  0.00000000000E+00 -0.00000000000E+00 -0.12259745521E+04  0.12259745521E+04  0.00000000000E+00 0. -1.
         25    2    1    2    0    0  0.64943097803E+01  0.20182122395E+03 -0.24306075369E+03  0.33985285125E+03  0.12508975986E+03 0.  0.
          5    1    3    3  502    0  0.15028088680E+02  0.20151004887E+03 -0.25449113607E+03  0.32498515964E+03  0.41800000000E+01 0. -1.
         -5    1    3    3    0  502 -0.85337788997E+01  0.31117507350E+00  0.11430382386E+02  0.14867691607E+02  0.41800000000E+01 0. -1.
        -11    1    1    2    0    0 -0.30159241362E+02 -0.20504894510E+02 -0.10688948814E+03  0.11293977693E+03  0.00000000000E+00 0.  1.
         11    1    1    2    0    0  0.23664931582E+02 -0.18131632944E+03 -0.81446622833E+03  0.83474000587E+03  0.00000000000E+00 0. -1.
</event>
<event>
 7    1  0.2714042E-009  0.8306132E+02  0.7561462E-02  0.1320582E+00
          2   -1    0    0  501    0  0.00000000000E+00  0.00000000000E+00  0.12036370260E+03  0.12036370260E+03  0.00000000000E+00 0.  1.
         -2   -1    0    0    0  501 -0.00000000000E+00 -0.00000000000E+00 -0.14106628779E+03  0.14106628779E+03  0.00000000000E+00 0. -1.
         25    2    1    2    0    0  0.16819459941E+02  0.98688783484E+01  0.58148237880E+02  0.13931601368E+03  0.12508974820E+03 0.  0.
          5    1    3    3  502    0  0.54160586162E+02 -0.29513450288E+02  0.30973200312E+01  0.61898938866E+02  0.41800000000E+01 0. -1.
         -5    1    3    3    0  502 -0.37341126222E+02  0.39382328637E+02  0.55050917848E+02  0.77417074811E+02  0.41800000000E+01 0. -1.
        -11    1    1    2    0    0 -0.75583603277E+01 -0.28273455789E+02  0.99830442890E+01  0.30922132630E+02  0.00000000000E+00 0.  1.
         11    1    1    2    0    0 -0.92610996130E+01  0.18404577440E+02 -0.88833867356E+02  0.91191844077E+02  0.00000000000E+00 0. -1.
</event>
<event>
 7    1  0.2714042E-009  0.1003854E+03  0.7561462E-02  0.1279488E+00
          4   -1    0    0  501    0  0.00000000000E+00  0.00000000000E+00  0.11160307334E+03  0.11160307334E+03  0.00000000000E+00 0. -1.
         -4   -1    0    0    0  501 -0.00000000000E+00 -0.00000000000E+00 -0.13228737474E+03  0.13228737474E+03  0.00000000000E+00 0.  1.
         25    2    1    2    0    0  0.31484113042E+02  0.45406959711E+02 -0.11632388221E+02  0.13724601507E+03  0.12509242516E+03 0.  0.
          5    1    3    3  502    0  0.32102595158E+02  0.70992800149E+02 -0.48723024413E+02  0.91988911271E+02  0.41800000000E+01 0. -1.
         -5    1    3    3    0  502 -0.61848211537E+00 -0.25585840438E+02  0.37090636192E+02  0.45257103798E+02  0.41800000000E+01 0. -1.
        -11    1    1    2    0    0 -0.49385108393E+02 -0.15125156804E+01 -0.26579046097E+02  0.56103674800E+02  0.00000000000E+00 0.  1.
         11    1    1    2    0    0  0.17900995350E+02 -0.43894444031E+02  0.17527132921E+02  0.50540758203E+02  0.00000000000E+00 0. -1.
</event>
<event>
 7    1  0.2714042E-009  0.7906420E+02  0.7561462E-02  0.1331728E+00
         -3   -1    0    0    0  501 -0.00000000000E+00  0.00000000000E+00  0.84839024619E+03  0.84839024619E+03  0.00000000000E+00 0.  1.
          3   -1    0    0  501    0  0.00000000000E+00 -0.00000000000E+00 -0.16209632352E+02  0.16209632352E+02  0.00000000000E+00 0. -1.
         25    2    1    2    0    0 -0.25949143763E+02  0.36375532005E+02  0.45396082498E+03  0.47299504985E+03  0.12508936477E+03 0.  0.
          5    1    3    3  502    0 -0.26800949771E+01 -0.61879167607E+01  0.40090961990E+03  0.40098811572E+03  0.41800000000E+01 0.  1.
         -5    1    3    3    0  502 -0.23269048786E+02  0.42563448766E+02  0.53051205078E+02  0.72006934128E+02  0.41800000000E+01 0.  1.
        -11    1    1    2    0    0 -0.16436320491E+02  0.23174892588E+02  0.10447674181E+03  0.10827103887E+03  0.00000000000E+00 0. -1.
         11    1    1    2    0    0  0.42385464254E+02 -0.59550424593E+02  0.27374304705E+03  0.28333378983E+03  0.00000000000E+00 0.  1.
</event>
<event>
 7    1  0.2714042E-009  0.1055152E+03  0.7561462E-02  0.1269108E+00
         -2   -1    0    0    0  501 -0.00000000000E+00  0.00000000000E+00  0.31475712540E+03  0.31475712540E+03  0.00000000000E+00 0.  1.
          2   -1    0    0  501    0  0.00000000000E+00 -0.00000000000E+00 -0.56815753705E+02  0.56815753705E+02  0.00000000000E+00 0. -1.
         25    2    1    2    0    0 -0.32328648448E+02 -0.44385891633E+02  0.64438004873E+02  0.15104478676E+03  0.12508805798E+03 0.  0.
          5    1    3    3  502    0 -0.62909327198E+02 -0.13934150720E+02  0.81908680967E+02  0.10429884190E+03  0.41800000000E+01 0. -1.
         -5    1    3    3    0  502  0.30580678750E+02 -0.30451740914E+02 -0.17470676094E+02  0.46745944858E+02  0.41800000000E+01 0. -1.
        -11    1    1    2    0    0 -0.14207798546E+01  0.64034391805E+02  0.14298457111E+03  0.15667485288E+03  0.00000000000E+00 0.  1.
         11    1    1    2    0    0  0.33749428303E+02 -0.19648500172E+02  0.50518795707E+02  0.63853239460E+02  0.00000000000E+00 0. -1.
</event>
<event>
 7    1  0.2995094E-009  0.1516632E+03  0.7561462E-02  0.1198444E+00
         -1   -1    0    0    0  501 -0.00000000000E+00  0.00000000000E+00  0.31745041276E+02  0.31745041276E+02  0.00000000000E+00 0.  1.
          1   -1    0    0  501    0  0.00000000000E+00 -0.00000000000E+00 -0.99682553459E+03  0.99682553459E+03  0.00000000000E+00 0. -1.
         25    2    1    2    0    0 -0.66150224471E+02  0.12402226022E+03 -0.50224445355E+03  0.53633590991E+03  0.12509733774E+03 0.  0.
          5    1    3    3  502    0 -0.14357853459E+02  0.27051993160E+02 -0.10822255397E+02  0.32749838194E+02  0.41800000000E+01 0. -1.
         -5    1    3    3    0  502 -0.51792371011E+02  0.96970267060E+02 -0.49142219815E+03  0.50358607172E+03  0.41800000000E+01 0. -1.
        -11    1    1    2    0    0  0.10180683950E+02 -0.10159889027E+03 -0.34608858698E+03  0.36083693112E+03  0.00000000000E+00 0.  1.
         11    1    1    2    0    0  0.55969540520E+02 -0.22423369953E+02 -0.11674745279E+03  0.13139773483E+03  0.00000000000E+00 0. -1.
</event>
<event>
 7    1  0.2714042E-009  0.1458731E+03  0.7561462E-02  0.1205638E+00
         -1   -1    0    0    0  501 -0.00000000000E+00  0.00000000000E+00  0.50002178774E+02  0.50002178774E+02  0.00000000000E+00 0.  1.
          1   -1    0    0  501    0  0.00000000000E+00 -0.00000000000E+00 -0.47649516770E+03  0.47649516770E+03  0.00000000000E+00 0. -1.
         25    2    1    2    0    0 -0.20475693661E+02  0.10767337294E+03 -0.24148890531E+03  0.29321739645E+03  0.12508693346E+03 0.  0.
          5    1    3    3  502    0  0.49397586729E+02  0.55149550646E+02 -0.77028472278E+02  0.10692264705E+03  0.41800000000E+01 0. -1.
         -5    1    3    3    0  502 -0.69873280390E+02  0.52523822295E+02 -0.16446043304E+03  0.18629474940E+03  0.41800000000E+01 0. -1.
        -11    1    1    2    0    0  0.30441255383E+02 -0.10212453750E+02 -0.11647871831E+02  0.34156070604E+02  0.00000000000E+00 0.  1.
         11    1    1    2    0    0 -0.99655617222E+01 -0.97460919191E+02 -0.17335621178E+03  0.19912387942E+03  0.00000000000E+00 0. -1.
</event>
<event>
 7    1  0.2714042E-009  0.1006314E+03  0.7561462E-02  0.1278974E+00
         -1   -1    0    0    0  501 -0.00000000000E+00  0.00000000000E+00  0.47100804847E+03  0.47100804847E+03  0.00000000000E+00 0.  1.
          1   -1    0    0  501    0  0.00000000000E+00 -0.00000000000E+00 -0.27244434886E+02  0.27244434886E+02  0.00000000000E+00 0. -1.
         25    2    1    2    0    0  0.85527729834E+00  0.11224580307E+02  0.19858292429E+03  0.23496718117E+03  0.12509066994E+03 0.  0.
          5    1    3    3  502    0 -0.54585855423E+02  0.32874991876E+02  0.81306561991E+02  0.10338573463E+03  0.41800000000E+01 0. -1.
         -5    1    3    3    0  502  0.55441132722E+02 -0.21650411568E+02  0.11727636229E+03  0.13158144653E+03  0.41800000000E+01 0. -1.
        -11    1    1    2    0    0 -0.37348835106E+02  0.52203253702E+01  0.43060859622E+02  0.57240063873E+02  0.00000000000E+00 0. -1.
         11    1    1    2    0    0  0.36493557808E+02 -0.16444905678E+02  0.20211982968E+03  0.20604523832E+03  0.00000000000E+00 0.  1.
</event>
<event>
 7    1  0.2714042E-009  0.9278964E+02  0.7561462E-02  0.1296233E+00
          1   -1    0    0  501    0  0.00000000000E+00  0.00000000000E+00  0.33161107371E+03  0.33161107371E+03  0.00000000000E+00 0. -1.
         -1   -1    0    0    0  501 -0.00000000000E+00 -0.00000000000E+00 -0.62614595049E+02  0.62614595049E+02  0.00000000000E+00 0.  1.
         25    2    1    2    0    0  0.12063747584E+02 -0.42722464663E+02  0.31996997407E+02  0.13653426114E+03  0.12508818342E+03 0.  0.
          5    1    3    3  502    0  0.42557014083E+02 -0.16505676344E+02  0.68261218106E+02  0.82222886696E+02  0.41800000000E+01 0. -1.
         -5    1    3    3    0  502 -0.30493266499E+02 -0.26216788318E+02 -0.36264220699E+02  0.54311374448E+02  0.41800000000E+01 0. -1.
        -11    1    1    2    0    0  0.97708028112E+01 -0.25697541683E+02  0.89653492949E+02  0.93774095751E+02  0.00000000000E+00 0.  1.
         11    1    1    2    0    0 -0.21834550395E+02  0.68420006346E+02  0.14734598830E+03  0.16391731186E+03  0.00000000000E+00 0. -1.
</event>
<event>
 7    1  0.2737821E-009  0.1486386E+03  0.7561462E-02  0.1202156E+00
          1   -1    0    0  501    0  0.00000000000E+00  0.00000000000E+00  0.21068587335E+03  0.21068587335E+03  0.00000000000E+00 0. -1.
         -1   -1    0    0    0  501 -0.00000000000E+00 -0.00000000000E+00 -0.11680361680E+03  0.11680361680E+03  0.00000000000E+00 0.  1.
         25    2    1    2    0    0  0.51412086434E+02  0.10074264787E+03  0.53230950882E+02  0.17684280435E+03  0.12509020580E+03 0.  0.
          5    1    3    3  502    0 -0.22459499869E+02 -0.10621299905E+02 -0.12195902441E+02  0.27990240842E+02  0.41800000000E+01 0. -1.
         -5    1    3    3    0  502  0.73871586303E+02  0.11136394777E+03  0.65426853322E+02  0.14885256351E+03  0.41800000000E+01 0. -1.
        -11    1    1    2    0    0 -0.53348488890E+02 -0.19023316174E+02  0.39219152748E+02  0.68891870111E+02  0.00000000000E+00 0. -1.
         11    1    1    2    0    0  0.19364024560E+01 -0.81719331694E+02  0.14321529146E+01  0.81754815693E+02  0.00000000000E+00 0.  1.
</event>
<event>
 7    1  0.2714042E-009  0.1030007E+03  0.7561462E-02  0.1274109E+00
         -2   -1    0    0    0  501 -0.00000000000E+00  0.00000000000E+00  0.36155212653E+02  0.36155212653E+02  0.00000000000E+00 0. -1.
          2   -1    0    0  501    0  0.00000000000E+00 -0.00000000000E+00 -0.74149970470E+03  0.74149970470E+03  0.00000000000E+00 0.  1.
         25    2    1    2    0    0  0.47155932749E+02 -0.69567024421E+02 -0.58776213635E+03  0.60677406374E+03  0.12508869903E+03 0.  0.
          5    1    3    3  502    0  0.54856086550E+02 -0.38698076734E+02 -0.11728138577E+03  0.13520032257E+03  0.41800000000E+01 0. -1.
         -5    1    3    3    0  502 -0.77001538005E+01 -0.30868947687E+02 -0.47048075058E+03  0.47157374118E+03  0.41800000000E+01 0. -1.
        -11    1    1    2    0    0  0.13371074265E+02  0.33793506569E+02 -0.30246031830E+01  0.36468273028E+02  0.00000000000E+00 0. -1.
         11    1    1    2    0    0 -0.60527007014E+02  0.35773517853E+02 -0.11455775252E+03  0.13441258058E+03  0.00000000000E+00 0.  1.
</event>
<event>
 7    1  0.2714042E-009  0.2072223E+03  0.7561462E-02  0.1143785E+00
         -2   -1    0    0    0  501 -0.00000000000E+00  0.00000000000E+00  0.19249435030E+03  0.19249435030E+03  0.00000000000E+00 0.  1.
          2   -1    0    0  501    0  0.00000000000E+00 -0.00000000000E+00 -0.27011582372E+03  0.27011582372E+03  0.00000000000E+00 0. -1.
         25    2    1    2    0    0 -0.14936557132E+03 -0.13161541670E+03 -0.47602783782E+02  0.23988763161E+03  0.12508940389E+03 0.  0.
          5    1    3    3  502    0 -0.46569428784E+02 -0.42029065643E+02 -0.77939519357E+02  0.10013588335E+03  0.41800000000E+01 0. -1.
         -5    1    3    3    0  502 -0.10279614254E+03 -0.89586351055E+02  0.30336735575E+02  0.13975174826E+03  0.41800000000E+01 0. -1.
        -11    1    1    2    0    0 -0.93802311414E+00  0.38149033505E+02  0.13461690564E+02  0.40465364913E+02  0.00000000000E+00 0.  1.
         11    1    1    2    0    0  0.15030359444E+03  0.93466383193E+02 -0.43480380209E+02  0.18225717750E+03  0.00000000000E+00 0. -1.
</event>
<event>
 7    1  0.2714042E-009  0.1001268E+03  0.7561462E-02  0.1280030E+00
          2   -1    0    0  501    0  0.00000000000E+00  0.00000000000E+00  0.62268889852E+02  0.62268889852E+02  0.00000000000E+00 0. -1.
         -2   -1    0    0    0  501 -0.00000000000E+00 -0.00000000000E+00 -0.20080896152E+03  0.20080896152E+03  0.00000000000E+00 0.  1.
         25    2    1    2    0    0 -0.63023543712E+01  0.26281325409E+02 -0.83906638370E+02  0.15302847617E+03  0.12508782044E+03 0.  0.
          5    1    3    3  502    0 -0.34658848205E+02 -0.34507837079E+02 -0.68168397826E+02  0.84002556157E+02  0.41800000000E+01 0.  1.
         -5    1    3    3    0  502  0.28356493834E+02  0.60789162489E+02 -0.15738240545E+02  0.69025920016E+02  0.41800000000E+01 0.  1.
        -11    1    1    2    0    0  0.35660269084E+02 -0.38214596159E+02 -0.68547464380E+01  0.52716199593E+02  0.00000000000E+00 0. -1.
         11    1    1    2    0    0 -0.29357914713E+02  0.11933270750E+02 -0.47778686863E+02  0.57333175610E+02  0.00000000000E+00 0.  1.
</event>
<event>
 7    1  0.2714042E-009  0.1495383E+03  0.7561462E-02  0.1201042E+00
         -1   -1    0    0    0  501 -0.00000000000E+00  0.00000000000E+00  0.30251493173E+02  0.30251493173E+02  0.00000000000E+00 0.  1.
          1   -1    0    0  501    0  0.00000000000E+00 -0.00000000000E+00 -0.76542420716E+03  0.76542420716E+03  0.00000000000E+00 0. -1.
         25    2    1    2    0    0  0.93938683800E+02 -0.36776734497E+02 -0.32243154168E+03  0.36025870898E+03  0.12508890365E+03 0.  0.
          5    1    3    3  502    0  0.11037517519E+03  0.99059894586E+01 -0.22938160169E+03  0.25478265153E+03  0.41800000000E+01 0.  1.
         -5    1    3    3    0  502 -0.16436491388E+02 -0.46682723956E+02 -0.93049939986E+02  0.10547605746E+03  0.41800000000E+01 0.  1.
        -11    1    1    2    0    0 -0.32204694093E+02  0.63532246387E+02 -0.22303734806E+03  0.23413489122E+03  0.00000000000E+00 0. -1.
         11    1    1    2    0    0 -0.61733989707E+02 -0.26755511890E+02 -0.18970382424E+03  0.20128210013E+03  0.00000000000E+00 0.  1.
</event>
<event>
 7    1  0.2714042E-009  0.2611829E+03  0.7561462E-02  0.1106435E+00
         -2   -1    0    0    0  501 -0.00000000000E+00  0.00000000000E+00  0.16116201545E+03  0.16116201545E+03  0.00000000000E+00 0.  1.
          2   -1    0    0  501    0  0.00000000000E+00 -0.00000000000E+00 -0.47659228997E+03  0.47659228997E+03  0.00000000000E+00 0. -1.
         25    2    1    2    0    0 -0.11213159698E+03  0.21918721486E+03 -0.23750590500E+03  0.36424316749E+03  0.12508996746E+03 0.  0.
          5    1    3    3  502    0 -0.12939006399E+03  0.13308876793E+03 -0.18363712157E+03  0.26114071614E+03  0.41800000000E+01 0. -1.
         -5    1    3    3    0  502  0.17258467010E+02  0.86098446931E+02 -0.53868783427E+02  0.10310245135E+03  0.41800000000E+01 0. -1.
        -11    1    1    2    0    0  0.46403656781E+02 -0.12974354711E+03  0.17346404447E+00  0.13779229830E+03  0.00000000000E+00 0.  1.
         11    1    1    2    0    0  0.65727940194E+02 -0.89443667747E+02 -0.78097833569E+02  0.13571883963E+03  0.00000000000E+00 0. -1.
</event>
<event>
 7    1  0.2714042E-009  0.1249879E+03  0.7561462E-02  0.1235088E+00
         -2   -1    0    0    0  501 -0.00000000000E+00  0.00000000000E+00  0.35709009688E+03  0.35709009688E+03  0.00000000000E+00 0.  1.
          2   -1    0    0  501    0  0.00000000000E+00 -0.00000000000E+00 -0.68050329337E+02  0.68050329337E+02  0.00000000000E+00 0. -1.
         25    2    1    2    0    0 -0.89163823982E+02  0.31745549955E+02  0.74633589201E+02  0.17371148006E+03  0.12509012038E+03 0.  0.
          5    1    3    3  502    0 -0.93200945081E+02  0.45651079912E+02  0.66501247388E+01  0.10407753754E+03  0.41800000000E+01 0. -1.
         -5    1    3    3    0  502  0.40371210994E+01 -0.13905529957E+02  0.67983464463E+02  0.69633942517E+02  0.41800000000E+01 0. -1.
        -11    1    1    2    0    0  0.10154294016E+03 -0.51137070544E+01  0.15917412776E+03  0.18887435412E+03  0.00000000000E+00 0. -1.
         11    1    1    2    0    0 -0.12379116183E+02 -0.26631842900E+02  0.55232050581E+02  0.62554592038E+02  0.00000000000E+00 0.  1.
</event>
<event>
 7    1  0.2714042E-009  0.1098846E+03  0.7561462E-02  0.1260784E+00
          1   -1    0    0  501    0  0.00000000000E+00  0.00000000000E+00  0.56035111259E+03  0.56035111259E+03  0.00000000000E+00 0. -1.
         -1   -1    0    0    0  501 -0.00000000000E+00 -0.00000000000E+00 -0.24569793075E+02  0.24569793075E+02  0.00000000000E+00 0.  1.
         25    2    1    2    0    0 -0.15691408132E+02 -0.10447339917E+02  0.20402694706E+03  0.24006196663E+03  0.12508950993E+03 0.  0.
          5    1    3    3  502    0 -0.58104412686E+02  0.31663340083E+02  0.11519408006E+03  0.13291289764E+03  0.41800000000E+01 0. -1.
         -5    1    3    3    0  502  0.42413004554E+02 -0.42110680000E+02  0.88832867002E+02  0.10714906899E+03  0.41800000000E+01 0. -1.
        -11    1    1    2    0    0 -0.14755976885E+01  0.50215255668E+02  0.19755443970E+03  0.20384186502E+03  0.00000000000E+00 0.  1.
         11    1    1    2    0    0  0.17167005820E+02 -0.39767915751E+02  0.13419993275E+03  0.14101707401E+03  0.00000000000E+00 0. -1.
</event>
<event>
 7    1  0.2714042E-009  0.6695152E+02  0.7561462E-02  0.1370777E+00
          2   -1    0    0  501    0  0.00000000000E+00  0.00000000000E+00  0.16134394260E+03  0.16134394260E+03  0.00000000000E+00 0. -1.
         -2   -1    0    0    0  501 -0.00000000000E+00 -0.00000000000E+00 -0.10920129644E+03  0.10920129644E+03  0.00000000000E+00 0.  1.
         25    2    1    2    0    0  0.48345332658E+02  0.34127301305E+01  0.87964722237E+02  0.16041904565E+03  0.12509020718E+03 0.  0.
          5    1    3    3  502    0  0.20277341756E+02  0.36047302062E+02  0.10577341279E+03  0.11364887077E+03  0.41800000000E+01 0.  1.
         -5    1    3    3    0  502  0.28067990902E+02 -0.32634571932E+02 -0.17808690555E+02  0.46770174874E+02  0.41800000000E+01 0.  1.
        -11    1    1    2    0    0 -0.26491769145E+02  0.20164115377E+01 -0.66765030109E+02  0.71857142954E+02  0.00000000000E+00 0.  1.
         11    1    1    2    0    0 -0.21853563513E+02 -0.54291416681E+01  0.30942954030E+02  0.38269050439E+02  0.00000000000E+00 0. -1.
</event>
<event>
 7    1  0.2714042E-009  0.1055457E+03  0.7561462E-02  0.1269048E+00
         -1   -1    0    0    0  501 -0.00000000000E+00  0.00000000000E+00  0.86361878503E+01  0.86361878503E+01  0.00000000000E+00 0.  1.
          1   -1    0    0  501    0  0.00000000000E+00 -0.00000000000E+00 -0.15205772907E+04  0.15205772907E+04  0.00000000000E+00 0. -1.
         25    2    1    2    0    0 -0.27128869066E+02  0.79236285697E+01 -0.10115471272E+04  0.10196444272E+04  0.12509359611E+03 0.  0.
          5    1    3    3  502    0  0.12956567917E+02 -0.45881755739E+02 -0.21484256613E+03  0.22010862951E+03  0.41800000000E+01 0. -1.
         -5    1    3    3    0  502 -0.40085436983E+02  0.53805384309E+02 -0.79670456111E+03  0.79953579766E+03  0.41800000000E+01 0. -1.
        -11    1    1    2    0    0 -0.32096582897E+02 -0.16622510283E+02 -0.17071848468E+03  0.17450300712E+03  0.00000000000E+00 0. -1.
         11    1    1    2    0    0  0.59225451963E+02  0.86988817130E+01 -0.32967549093E+03  0.33506604427E+03  0.00000000000E+00 0.  1.
</event>
<event>
 7    1  0.2714042E-009  0.8306127E+02  0.7561462E-02  0.1320582E+00
         -1   -1    0    0    0  501 -0.00000000000E+00  0.00000000000E+00  0.87388563752E+02  0.87388563752E+02  0.00000000000E+00 0.  1.
          1   -1    0    0  501    0  0.00000000000E+00 -0.00000000000E+00 -0.14293952228E+03  0.14293952228E+03  0.00000000000E+00 0. -1.
         25    2    1    2    0    0  0.93722254686E+01 -0.26977327464E+02 -0.52613487889E+02  0.13867694307E+03  0.12508997012E+03 0.  0.
          5    1    3    3  502    0  0.29889323161E+02  0.11837609642E+02 -0.80304875420E+02  0.86601651585E+02  0.41800000000E+01 0.  1.
         -5    1    3    3    0  502 -0.20517097692E+02 -0.38814937106E+02  0.27691387531E+02  0.52075291489E+02  0.41800000000E+01 0.  1.
        -11    1    1    2    0    0  0.23684313725E+02  0.45800077634E+02 -0.11106141828E+02  0.52744101227E+02  0.00000000000E+00 0. -1.
         11    1    1    2    0    0 -0.33056539194E+02 -0.18822750170E+02  0.81686711872E+01  0.38907041733E+02  0.00000000000E+00 0.  1.
</event>
<event>
 7    1  0.4251447E-009  0.1401624E+03  0.7561462E-02  0.1213111E+00
          2   -1    0    0  501    0  0.00000000000E+00  0.00000000000E+00  0.49080949438E+03  0.49080949438E+03  0.00000000000E+00 0. -1.
         -2   -1    0    0    0  501 -0.00000000000E+00 -0.00000000000E+00 -0.47705551918E+02  0.47705551918E+02  0.00000000000E+00 0.  1.
         25    2    1    2    0    0 -0.27676651613E+02  0.10419836686E+03  0.23994682613E+03  0.29128223428E+03  0.12509022320E+03 0.  0.
          5    1    3    3  502    0 -0.37262222122E+02  0.12974204504E+03  0.21597824742E+03  0.25472641639E+03  0.41800000000E+01 0.  1.
         -5    1    3    3    0  502  0.95855705093E+01 -0.25543678175E+02  0.23968578708E+02  0.36555817895E+02  0.41800000000E+01 0.  1.
        -11    1    1    2    0    0 -0.10656487507E+02 -0.50998458317E+02  0.25791504406E+02  0.58134371728E+02  0.00000000000E+00 0. -1.
         11    1    1    2    0    0  0.38333139120E+02 -0.53199908544E+02  0.17736561192E+03  0.18909844028E+03  0.00000000000E+00 0.  1.
</event>
<event>
 7    1  0.2714042E-009  0.1193509E+03  0.7561462E-02  0.1244172E+00
         -1   -1    0    0    0  501 -0.00000000000E+00  0.00000000000E+00  0.33134075074E+02  0.33134075074E+02  0.00000000000E+00 0.  1.
          1   -1    0    0  501    0  0.00000000000E+00 -0.00000000000E+00 -0.45681468270E+03  0.45681468270E+03  0.00000000000E+00 0. -1.
         25    2    1    2    0    0 -0.55211135933E+02 -0.61113175574E+01 -0.27478894617E+03  0.30698102828E+03  0.12507105603E+03 0.  0.
          5    1    3    3  502    0 -0.64410736097E+02 -0.54143591986E+02 -0.20521724976E+03  0.22183747086E+03  0.41800000000E+01 0. -1.
         -5    1    3    3    0  502  0.91996001640E+01  0.48032274429E+02 -0.69571696408E+02  0.85143557426E+02  0.41800000000E+01 0. -1.
        -11    1    1    2    0    0  0.23032555822E+02  0.47591338557E+02 -0.87041284654E+02  0.10184114771E+03  0.00000000000E+00 0.  1.
         11    1    1    2    0    0  0.32178580111E+02 -0.41480021000E+02 -0.61850376808E+02  0.81126581781E+02  0.00000000000E+00 0. -1.
</event>
<event>
 7    1  0.2714042E-009  0.9065134E+02  0.7561462E-02  0.1301282E+00
          1   -1    0    0  501    0  0.00000000000E+00  0.00000000000E+00  0.39177432609E+03  0.39177432609E+03  0.00000000000E+00 0. -1.
         -1   -1    0    0    0  501 -0.00000000000E+00 -0.00000000000E+00 -0.32555661107E+02  0.32555661107E+02  0.00000000000E+00 0.  1.
         25    2    1    2    0    0 -0.84081887841E+01  0.13076687982E+02  0.26771242128E+03  0.29590397029E+03  0.12509005444E+03 0.  0.
          5    1    3    3  502    0 -0.61919580368E+02  0.15216332736E+02  0.90900807699E+02  0.11111255759E+03  0.41800000000E+01 0. -1.
         -5    1    3    3    0  502  0.53511391584E+02 -0.21396447549E+01  0.17681161358E+03  0.18479141269E+03  0.41800000000E+01 0. -1.
        -11    1    1    2    0    0 -0.20796095840E+02  0.13008226286E+02  0.85328367499E+02  0.88784130639E+02  0.00000000000E+00 0. -1.
         11    1    1    2    0    0  0.29204284624E+02 -0.26084914268E+02  0.61778762097E+01  0.39641886272E+02  0.00000000000E+00 0.  1.
</event>
<event>
 7    1  0.2714042E-009  0.1669062E+03  0.7561462E-02  0.1181113E+00
         -2   -1    0    0    0  501 -0.00000000000E+00  0.00000000000E+00  0.24157102606E+02  0.24157102606E+02  0.00000000000E+00 0.  1.
          2   -1    0    0  501    0  0.00000000000E+00 -0.00000000000E+00 -0.14062820445E+04  0.14062820445E+04  0.00000000000E+00 0. -1.
         25    2    1    2    0    0  0.28223486661E+02  0.14545975648E+03 -0.68311513091E+03  0.71010496017E+03  0.12509063280E+03 0.  0.
          5    1    3    3  502    0  0.43538277587E+02  0.46115616665E+02 -0.10081444172E+03  0.11917741302E+03  0.41800000000E+01 0. -1.
         -5    1    3    3    0  502 -0.15314790926E+02  0.99344139811E+02 -0.58230068920E+03  0.59092754715E+03  0.41800000000E+01 0. -1.
        -11    1    1    2    0    0 -0.43380337643E+02 -0.28939740346E+02 -0.14751939407E+03  0.15646512037E+03  0.00000000000E+00 0.  1.
         11    1    1    2    0    0  0.15156850982E+02 -0.11652001613E+03 -0.55149041688E+03  0.56386906654E+03  0.00000000000E+00 0. -1.
</event>
<event>
 7    1  0.2714042E-009  0.1374473E+03  0.7561462E-02  0.1216806E+00
          2   -1    0    0  501    0  0.00000000000E+00  0.00000000000E+00  0.28701406232E+03  0.28701406232E+03  0.00000000000E+00 0.  1.
         -2   -1    0    0    0  501 -0.00000000000E+00 -0.00000000000E+00 -0.76882626663E+02  0.76882626663E+02  0.00000000000E+00 0. -1.
         25    2    1    2    0    0 -0.10080530339E+02 -0.94861832735E+02  0.75258209669E+02  0.17438845994E+03  0.12508857836E+03 0.  0.
          5    1    3    3  502    0  0.57006113916E+02 -0.33223922574E+02  0.31387488240E+02  0.73185878918E+02  0.41800000000E+01 0. -1.
         -5    1    3    3    0  502 -0.67086644255E+02 -0.61637910161E+02  0.43870721429E+02  0.10120258102E+03  0.41800000000E+01 0. -1.
        -11    1    1    2    0    0  0.36206310036E+02  0.79294939999E+02  0.13302318424E+03  0.15904009539E+03  0.00000000000E+00 0.  1.
         11    1    1    2    0    0 -0.26125779698E+02  0.15566892736E+02  0.18500417523E+01  0.30468133660E+02  0.00000000000E+00 0. -1.
</event>
<event>
 7    1  0.2714042E-009  0.1220646E+03  0.7561462E-02  0.1239729E+00
          2   -1    0    0  501    0  0.00000000000E+00  0.00000000000E+00  0.63690256980E+03  0.63690256980E+03  0.00000000000E+00 0. -1.
         -2   -1    0    0    0  501 -0.00000000000E+00 -0.00000000000E+00 -0.29117772300E+02  0.29117772300E+02  0.00000000000E+00 0.  1.
         25    2    1    2    0    0  0.39037831918E+02 -0.46264466790E+02  0.47052019402E+03  0.49061360581E+03  0.12509238192E+03 0.  0.
          5    1    3    3  502    0  0.78814307325E+02 -0.54148978465E+02  0.36907356869E+03  0.38128280634E+03  0.41800000000E+01 0.  1.
         -5    1    3    3    0  502 -0.39776475407E+02  0.78845116757E+01  0.10144662533E+03  0.10933079946E+03  0.41800000000E+01 0.  1.
        -11    1    1    2    0    0 -0.61710058264E+02  0.55663883938E+02  0.92457945754E+02  0.12431842582E+03  0.00000000000E+00 0.  1.
         11    1    1    2    0    0  0.22672226347E+02 -0.93994171484E+01  0.44806657727E+02  0.51088310472E+02  0.00000000000E+00 0. -1.
</event>
<event>
 7    1  0.2714042E-009  0.1083168E+03  0.7561462E-02  0.1263719E+00
          2   -1    0    0  501    0  0.00000000000E+00  0.00000000000E+00  0.11188426782E+04  0.11188426782E+04  0.00000000000E+00 0. -1.
         -2   -1    0    0    0  501 -0.00000000000E+00 -0.00000000000E+00 -0.20631773311E+02  0.20631773311E+02  0.00000000000E+00 0.  1.
         25    2    1    2    0    0  0.19148996056E+02  0.44382195799E+02  0.94887146909E+03  0.95830101785E+03  0.12508921858E+03 0.  0.
          5    1    3    3  502    0  0.66292569100E+02  0.24650479913E+02  0.73330592753E+03  0.73672071142E+03  0.41800000000E+01 0. -1.
         -5    1    3    3    0  502 -0.47143573044E+02  0.19731715886E+02  0.21556554156E+03  0.22158030643E+03  0.41800000000E+01 0. -1.
        -11    1    1    2    0    0 -0.25886391729E+02  0.18147779971E+02  0.20152454424E+02  0.37490913752E+02  0.00000000000E+00 0.  1.
         11    1    1    2    0    0  0.67373956730E+01 -0.62529975771E+02  0.12918698137E+03  0.14368251990E+03  0.00000000000E+00 0. -1.
</event>
<event>
 7    1  0.2714042E-009  0.1232547E+03  0.7561462E-02  0.1237822E+00
         -2   -1    0    0    0  501 -0.00000000000E+00  0.00000000000E+00  0.22831371113E+02  0.22831371113E+02  0.00000000000E+00 0.  1.
          2   -1    0    0  501    0  0.00000000000E+00 -0.00000000000E+00 -0.86543547929E+03  0.86543547929E+03  0.00000000000E+00 0. -1.
         25    2    1    2    0    0 -0.93805204949E+01  0.89009154412E+02 -0.45127470637E+03  0.47676211704E+03  0.12507050772E+03 0.  0.
          5    1    3    3  502    0 -0.26416765362E+02 -0.13670577734E+02 -0.28721698080E+02  0.41558856197E+02  0.41800000000E+01 0.  1.
         -5    1    3    3    0  502  0.17036244867E+02  0.10267973215E+03 -0.42255300829E+03  0.43520326084E+03  0.41800000000E+01 0.  1.
        -11    1    1    2    0    0 -0.28697225720E+02 -0.50903939226E+02 -0.29859474305E+03  0.30425903827E+03  0.00000000000E+00 0. -1.
         11    1    1    2    0    0  0.38077746215E+02 -0.38105215186E+02 -0.92734658762E+02  0.10724569510E+03  0.00000000000E+00 0.  1.
</event>
<event>
 7    1  0.2714042E-009  0.1336339E+03  0.7561462E-02  0.1222161E+00
         -2   -1    0    0    0  501 -0.00000000000E+00  0.00000000000E+00  0.58337205514E+02  0.58337205514E+02  0.00000000000E+00 0.  1.
          2   -1    0    0  501    0  0.00000000000E+00 -0.00000000000E+00 -0.34660249939E+03  0.34660249939E+03  0.00000000000E+00 0. -1.
         25    2    1    2    0    0  0.69241019743E+02  0.45170829876E+02 -0.13213563147E+03  0.19985321456E+03  0.12508700804E+03 0.  0.
          5    1    3    3  502    0  0.68213276165E+02 -0.19027857732E+02 -0.11173643604E+03  0.13235412329E+03  0.41800000000E+01 0.  1.
         -5    1    3    3    0  502  0.10277435779E+01  0.64198687608E+02 -0.20399195437E+02  0.67499091267E+02  0.41800000000E+01 0.  1.
        -11    1    1    2    0    0  0.18241381753E+02 -0.40451954266E+02 -0.64726673554E+02  0.78477072331E+02  0.00000000000E+00 0.  1.
         11    1    1    2    0    0 -0.87482401496E+02 -0.47188756098E+01 -0.91402988847E+02  0.12660941801E+03  0.00000000000E+00 0. -1.
</event>
<event>
 7    1  0.2714042E-009  0.1310377E+03  0.7561462E-02  0.1225924E+00
          1   -1    0    0  501    0  0.00000000000E+00  0.00000000000E+00  0.55538689790E+03  0.55538689790E+03  0.00000000000E+00 0. -1.
         -1   -1    0    0    0  501 -0.00000000000E+00 -0.00000000000E+00 -0.46462213674E+02  0.46462213674E+02  0.00000000000E+00 0.  1.
         25    2    1    2    0    0  0.11108128961E+03  0.16489087065E+02  0.20302648144E+03  0.26358465800E+03  0.12508467881E+03 0.  0.
          5    1    3    3  502    0  0.38136688722E+02 -0.25690188671E+02  0.16446699326E+03  0.17082522382E+03  0.41800000000E+01 0.  1.
         -5    1    3    3    0  502  0.72944600890E+02  0.42179275736E+02  0.38559488175E+02  0.92759434177E+02  0.41800000000E+01 0.  1.
        -11    1    1    2    0    0 -0.78801665389E+02  0.21504783546E+02  0.25170596841E+03  0.26462814045E+03  0.00000000000E+00 0.  1.
         11    1    1    2    0    0 -0.32279624223E+02 -0.37993870611E+02  0.54192234374E+02  0.73636313124E+02  0.00000000000E+00 0. -1.
</event>
<event>
 7    1  0.2714042E-009  0.9754110E+02  0.7561462E-02  0.1285553E+00
          1   -1    0    0  501    0  0.00000000000E+00  0.00000000000E+00  0.11898246141E+03  0.11898246141E+03  0.00000000000E+00 0. -1.
         -1   -1    0    0    0  501 -0.00000000000E+00 -0.00000000000E+00 -0.19499441991E+03  0.19499441991E+03  0.00000000000E+00 0.  1.
         25    2    1    2    0    0 -0.25771315670E+02  0.21019327718E+02  0.63057422145E+02  0.14398962275E+03  0.12510315792E+03 0.  0.
          5    1    3    3  502    0  0.47521640025E+02 -0.92434757397E+01  0.13669455198E+02  0.50478455997E+02  0.41800000000E+01 0.  1.
         -5    1    3    3    0  502 -0.73292955695E+02  0.30262803458E+02  0.49387966947E+02  0.93511166749E+02  0.41800000000E+01 0.  1.
        -11    1    1    2    0    0  0.43208108033E+02 -0.51613132624E+01 -0.13979044922E+03  0.14640679441E+03  0.00000000000E+00 0.  1.
         11    1    1    2    0    0 -0.17436792363E+02 -0.15858014456E+02  0.72106857085E+00  0.23580464166E+02  0.00000000000E+00 0. -1.
</event>
<event>
 7    1  0.2714042E-009  0.2135940E+03  0.7561462E-02  0.1138751E+00
         -4   -1    0    0    0  501 -0.00000000000E+00  0.00000000000E+00  0.23347738764E+03  0.23347738764E+03  0.00000000000E+00 0.  1.
          4   -1    0    0  501    0  0.00000000000E+00 -0.00000000000E+00 -0.22350705029E+03  0.22350705029E+03  0.00000000000E+00 0. -1.
         25    2    1    2    0    0  0.18295755822E+03 -0.72524723443E+02  0.40728423844E+02  0.23672398261E+03  0.12508451467E+03 0.  0.
          5    1    3    3  502    0  0.17244731626E+03 -0.16706742768E+02  0.14170037835E+02  0.17388345094E+03  0.41800000000E+01 0. -1.
         -5    1    3    3    0  502  0.10510241964E+02 -0.55817980675E+02  0.26558386010E+02  0.62840531667E+02  0.41800000000E+01 0. -1.
        -11    1    1    2    0    0 -0.48174090851E+02  0.22412730527E+02  0.33443234536E+02  0.62781553463E+02  0.00000000000E+00 0.  1.
         11    1    1    2    0    0 -0.13478346737E+03  0.50111992916E+02 -0.64201321027E+02  0.15747890186E+03  0.00000000000E+00 0. -1.
</event>
<event>
 7    1  0.2714042E-009  0.1238680E+03  0.7561462E-02  0.1236849E+00
         -1   -1    0    0    0  501 -0.00000000000E+00  0.00000000000E+00  0.46024939908E+02  0.46024939908E+02  0.00000000000E+00 0.  1.
          1   -1    0    0  501    0  0.00000000000E+00 -0.00000000000E+00 -0.50985174552E+03  0.50985174552E+03  0.00000000000E+00 0. -1.
         25    2    1    2    0    0  0.47337144538E+02  0.88166661729E+02 -0.31983469593E+03  0.35771018228E+03  0.12509267083E+03 0.  0.
          5    1    3    3  502    0  0.65974487984E+02  0.54604885705E+02 -0.30419323837E+03  0.31604639735E+03  0.41800000000E+01 0.  1.
         -5    1    3    3    0  502 -0.18637343447E+02  0.33561776024E+02 -0.15641457565E+02  0.41663784938E+02  0.41800000000E+01 0.  1.
        -11    1    1    2    0    0  0.75576876670E+01  0.90144137718E+01 -0.52629292562E+02  0.53927921656E+02  0.00000000000E+00 0. -1.
         11    1    1    2    0    0 -0.54894832205E+02 -0.97181075501E+02 -0.91362817123E+02  0.14423858149E+03  0.00000000000E+00 0.  1.
</event>
<event>
 7    1  0.2714042E-009  0.1532630E+03  0.7561462E-02  0.1196520E+00
          1   -1    0    0  501    0  0.00000000000E+00  0.00000000000E+00  0.68714650640E+03  0.68714650640E+03  0.00000000000E+00 0. -1.
         -1   -1    0    0    0  501 -0.00000000000E+00 -0.00000000000E+00 -0.38886155229E+02  0.38886155229E+02  0.00000000000E+00 0.  1.
         25    2    1    2    0    0 -0.75146900598E+02  0.78528120569E+02  0.24966182352E+03  0.29965423139E+03  0.12509160594E+03 0.  0.
          5    1    3    3  502    0 -0.10554727876E+03  0.37277703460E+02  0.14675830946E+03  0.18462212495E+03  0.41800000000E+01 0. -1.
         -5    1    3    3    0  502  0.30400378160E+02  0.41250417109E+02  0.10290351407E+03  0.11503210644E+03  0.41800000000E+01 0. -1.
        -11    1    1    2    0    0  0.77745731339E+01 -0.75245721173E+02  0.27896482948E+03  0.28903933751E+03  0.00000000000E+00 0. -1.
         11    1    1    2    0    0  0.67372327464E+02 -0.32823993956E+01  0.11963369817E+03  0.13733909273E+03  0.00000000000E+00 0.  1.
</event>
<event>
 7    1  0.2714042E-009  0.1211179E+03  0.7561462E-02  0.1241264E+00
          1   -1    0    0  501    0  0.00000000000E+00  0.00000000000E+00  0.74840113239E+03  0.74840113239E+03  0.00000000000E+00 0. -1.
         -1   -1    0    0    0  501 -0.00000000000E+00 -0.00000000000E+00 -0.21609371839E+02  0.21609371839E+02  0.00000000000E+00 0.  1.
         25    2    1    2    0    0  0.48824470030E+02  0.33873959144E+02  0.31832119595E+03  0.34714321913E+03  0.12509499116E+03 0.  0.
          5    1    3    3  502    0  0.85420950002E+02  0.42218875771E+02  0.17937110744E+03  0.20315176287E+03  0.41800000000E+01 0. -1.
         -5    1    3    3    0  502 -0.36596479972E+02 -0.83449166271E+01  0.13895008851E+03  0.14399145626E+03  0.41800000000E+01 0. -1.
        -11    1    1    2    0    0  0.27437114088E+02 -0.88061146439E+01  0.12245629332E+03  0.12580098035E+03  0.00000000000E+00 0.  1.
         11    1    1    2    0    0 -0.76261584118E+02 -0.25067844500E+02  0.28601427128E+03  0.29706630475E+03  0.00000000000E+00 0. -1.
</event>
<event>
 7    1  0.2714042E-009  0.1552065E+03  0.7561462E-02  0.1194217E+00
         -4   -1    0    0    0  501 -0.00000000000E+00  0.00000000000E+00  0.48609414010E+03  0.48609414010E+03  0.00000000000E+00 0.  1.
          4   -1    0    0  501    0  0.00000000000E+00 -0.00000000000E+00 -0.59989857871E+02  0.59989857871E+02  0.00000000000E+00 0. -1.
         25    2    1    2    0    0 -0.11772678392E+03  0.40457214194E+02  0.15837944514E+03  0.23712389720E+03  0.12508921675E+03 0.  0.
          5    1    3    3  502    0 -0.44718687120E+02 -0.31516922928E+02  0.11159743503E+03  0.12435649285E+03  0.41800000000E+01 0.  1.
         -5    1    3    3    0  502 -0.73008096800E+02  0.71974137121E+02  0.46782010104E+02  0.11276740434E+03  0.41800000000E+01 0.  1.
        -11    1    1    2    0    0  0.51617135588E+02  0.27199876040E+02  0.12187041496E+03  0.13511683827E+03  0.00000000000E+00 0.  1.
         11    1    1    2    0    0  0.66109648332E+02 -0.67657090234E+02  0.14585442213E+03  0.17384326250E+03  0.00000000000E+00 0. -1.
</event>
<event>
 7    1  0.2714042E-009  0.8346623E+02  0.7561462E-02  0.1319493E+00
          2   -1    0    0  501    0  0.00000000000E+00  0.00000000000E+00  0.27144596556E+03  0.27144596556E+03  0.00000000000E+00 0.  1.
         -2   -1    0    0    0  501 -0.00000000000E+00 -0.00000000000E+00 -0.54871069756E+02  0.54871069756E+02  0.00000000000E+00 0. -1.
         25    2    1    2    0    0  0.12586962982E+01 -0.31101012189E+01  0.19974054566E+03  0.23569953121E+03  0.12508687535E+03 0.  0.
          5    1    3    3  502    0 -0.77621286801E+01 -0.62206521034E+02  0.79287453039E+02  0.10116261419E+03  0.41800000000E+01 0.  1.
         -5    1    3    3    0  502  0.90208249783E+01  0.59096419815E+02  0.12045309262E+03  0.13453691702E+03  0.41800000000E+01 0.  1.
        -11    1    1    2    0    0 -0.22537049067E+02  0.39590155677E+01 -0.30840822986E+02  0.38402457569E+02  0.00000000000E+00 0. -1.
         11    1    1    2    0    0  0.21278352769E+02 -0.84891434882E+00  0.47675173131E+02  0.52215046540E+02  0.00000000000E+00 0.  1.
</event>
<event>
 7    1  0.2714042E-009  0.6506907E+02  0.7561462E-02  0.1377712E+00
          2   -1    0    0  501    0  0.00000000000E+00  0.00000000000E+00  0.73483976558E+03  0.73483976558E+03  0.00000000000E+00 0. -1.
         -2   -1    0    0    0  501 -0.00000000000E+00 -0.00000000000E+00 -0.17325834499E+02  0.17325834499E+02  0.00000000000E+00 0.  1.
         25    2    1    2    0    0 -0.19961155220E+02 -0.58162276202E+01  0.32928526399E+03  0.35285833989E+03  0.12509175324E+03 0.  0.
          5    1    3    3  502    0 -0.33749149427E+01 -0.16650165495E+02 -0.48143646371E+01  0.18145758974E+02  0.41800000000E+01 0. -1.
         -5    1    3    3    0  502 -0.16586240277E+02  0.10833937875E+02  0.33409962862E+03  0.33471258092E+03  0.41800000000E+01 0. -1.
        -11    1    1    2    0    0 -0.27225398783E+00 -0.41204934380E+02  0.14446182659E+03  0.15022363357E+03  0.00000000000E+00 0. -1.
         11    1    1    2    0    0  0.20233409208E+02  0.47021162000E+02  0.24376684049E+03  0.24908362662E+03  0.00000000000E+00 0.  1.
</event>
<event>
 7    1  0.2714042E-009  0.3106695E+03  0.7561462E-02  0.1080025E+00
         -2   -1    0    0    0  501 -0.00000000000E+00  0.00000000000E+00  0.34117602272E+02  0.34117602272E+02  0.00000000000E+00 0.  1.
          2   -1    0    0  501    0  0.00000000000E+00 -0.00000000000E+00 -0.32325563006E+04  0.32325563006E+04  0.00000000000E+00 0. -1.
         25    2    1    2    0    0 -0.30803325028E+03 -0.25509498925E+02 -0.17136327281E+04  0.17457715047E+04  0.12508318054E+03 0.  0.
          5    1    3    3  502    0 -0.10262538307E+03 -0.81248176179E+01 -0.92159891047E+03  0.92734028603E+03  0.41800000000E+01 0.  1.
         -5    1    3    3    0  502 -0.20540786720E+03 -0.17384681307E+02 -0.79203381758E+03  0.81843121864E+03  0.41800000000E+01 0.  1.
        -11    1    1    2    0    0  0.69569515738E+02 -0.12396568226E+02 -0.16988562460E+03  0.18399651592E+03  0.00000000000E+00 0.  1.
         11    1    1    2    0    0  0.23846373454E+03  0.37906067151E+02 -0.13149203457E+04  0.13369058823E+04  0.00000000000E+00 0. -1.
</event>
<event>
 7    1  0.2714042E-009  0.8642610E+02  0.7561462E-02  0.1311745E+00
         -1   -1    0    0    0  501 -0.00000000000E+00  0.00000000000E+00  0.89930019064E+02  0.89930019064E+02  0.00000000000E+00 0.  1.
          1   -1    0    0  501    0  0.00000000000E+00 -0.00000000000E+00 -0.24603312925E+03  0.24603312925E+03  0.00000000000E+00 0. -1.
         25    2    1    2    0    0  0.78590120299E+01  0.14913573868E+02 -0.19639077546E+03  0.23345568057E+03  0.12509212345E+03 0.  0.
          5    1    3    3  502    0 -0.40818038036E+02  0.25254388878E+02 -0.17055518194E+03  0.17722990400E+03  0.41800000000E+01 0. -1.
         -5    1    3    3    0  502  0.48677050066E+02 -0.10340815010E+02 -0.25835593520E+02  0.56225776568E+02  0.41800000000E+01 0. -1.
        -11    1    1    2    0    0  0.12169542685E+02  0.26262067698E+02 -0.13442198286E+02  0.31913737852E+02  0.00000000000E+00 0.  1.
         11    1    1    2    0    0 -0.20028554715E+02 -0.41175641566E+02  0.53729863556E+02  0.70593729892E+02  0.00000000000E+00 0. -1.
</event>
<event>
 7    1  0.2714042E-009  0.7867047E+02  0.7561462E-02  0.1332867E+00
         -1   -1    0    0    0  501 -0.00000000000E+00  0.00000000000E+00  0.62665931849E+02  0.62665931849E+02  0.00000000000E+00 0.  1.
          1   -1    0    0  501    0  0.00000000000E+00 -0.00000000000E+00 -0.43925061240E+03  0.43925061240E+03  0.00000000000E+00 0. -1.
         25    2    1    2    0    0 -0.65258876727E+02 -0.56080220691E+01 -0.35865274025E+03  0.38544671057E+03  0.12508879926E+03 0.  0.
          5    1    3    3  502    0 -0.30090989135E+02 -0.87501562052E+01 -0.34640061455E+03  0.34784032403E+03  0.41800000000E+01 0.  1.
         -5    1    3    3    0  502 -0.35167887592E+02  0.31421341362E+01 -0.12252125696E+02  0.37606386541E+02  0.41800000000E+01 0.  1.
        -11    1    1    2    0    0  0.60703820781E+02 -0.20190777819E+02 -0.45450383839E+02  0.78475211102E+02  0.00000000000E+00 0. -1.
         11    1    1    2    0    0  0.45550559456E+01  0.25798799888E+02  0.27518443533E+02  0.37994622577E+02  0.00000000000E+00 0.  1.
</event>
<event>
 7    1  0.2714042E-009  0.2090855E+03  0.7561462E-02  0.1142292E+00
         -2   -1    0    0    0  501 -0.00000000000E+00  0.00000000000E+00  0.39294158477E+02  0.39294158477E+02  0.00000000000E+00 0.  1.
          2   -1    0    0  501    0  0.00000000000E+00 -0.00000000000E+00 -0.13708893686E+04  0.13708893686E+04  0.00000000000E+00 0. -1.
         25    2    1    2    0    0  0.17527894897E+03  0.76514278816E+02 -0.90781075593E+03  0.93613093407E+03  0.12507442716E+03 0.  0.
          5    1    3    3  502    0 -0.16046652289E+02  0.18099226554E+02 -0.16616766122E+03  0.16797095311E+03  0.41800000000E+01 0. -1.
         -5    1    3    3    0  502  0.19132560126E+03  0.58415052262E+02 -0.74164309471E+03  0.76815998097E+03  0.41800000000E+01 0. -1.
        -11    1    1    2    0    0 -0.10245326270E+03 -0.60457194486E+02 -0.15662701596E+03  0.19668188918E+03  0.00000000000E+00 0.  1.
         11    1    1    2    0    0 -0.72825686269E+02 -0.16057084330E+02 -0.26715743827E+03  0.27737070386E+03  0.00000000000E+00 0. -1.
</event>
<event>
 7    1  0.2714042E-009  0.7845831E+02  0.7561462E-02  0.1333484E+00
          1   -1    0    0  501    0  0.00000000000E+00  0.00000000000E+00  0.65730466615E+03  0.65730466615E+03  0.00000000000E+00 0. -1.
         -1   -1    0    0    0  501 -0.00000000000E+00 -0.00000000000E+00 -0.26408307943E+02  0.26408307943E+02  0.00000000000E+00 0.  1.
         25    2    1    2    0    0  0.12180135624E+01  0.31522907498E+01  0.53624719188E+03  0.55065420894E+03  0.12509031346E+03 0.  0.
          5    1    3    3  502    0 -0.29846037246E+02  0.92174676083E+01  0.30358331734E+02  0.43758980268E+02  0.41800000000E+01 0. -1.
         -5    1    3    3    0  502  0.31064050808E+02 -0.60651768585E+01  0.50588886015E+03  0.50689522867E+03  0.41800000000E+01 0. -1.
        -11    1    1    2    0    0 -0.57548491550E+01 -0.48027883599E+02  0.46910506770E+02  0.67382427511E+02  0.00000000000E+00 0.  1.
         11    1    1    2    0    0  0.45368355926E+01  0.44875592849E+02  0.47738659557E+02  0.65676337650E+02  0.00000000000E+00 0. -1.
</event>
<event>
 7    1  0.2714042E-009  0.7317402E+02  0.7561462E-02  0.1349621E+00
         -2   -1    0    0    0  501 -0.00000000000E+00  0.00000000000E+00  0.48699199904E+02  0.48699199904E+02  0.00000000000E+00 0.  1.
          2   -1    0    0  501    0  0.00000000000E+00 -0.00000000000E+00 -0.27696391324E+03  0.27696391324E+03  0.00000000000E+00 0. -1.
         25    2    1    2    0    0 -0.27603651156E+02 -0.24897025838E+02 -0.16919767669E+03  0.21367642116E+03  0.12509170921E+03 0.  0.
          5    1    3    3  502    0 -0.38182438076E+02  0.11909910892E+02 -0.17045188288E+03  0.17513155436E+03  0.41800000000E+01 0. -1.
         -5    1    3    3    0  502  0.10578786920E+02 -0.36806936730E+02  0.12542061878E+01  0.38544866809E+02  0.41800000000E+01 0. -1.
        -11    1    1    2    0    0  0.11395069719E+02  0.42311209089E+02 -0.72464967264E+02  0.84683277623E+02  0.00000000000E+00 0. -1.
         11    1    1    2    0    0  0.16208581436E+02 -0.17414183251E+02  0.13397930619E+02  0.27303414354E+02  0.00000000000E+00 0.  1.
</event>
<event>
 7    1  0.2714042E-009  0.1433342E+03  0.7561462E-02  0.1208912E+00
         -2   -1    0    0    0  501 -0.00000000000E+00  0.00000000000E+00  0.87629151309E+02  0.87629151309E+02  0.00000000000E+00 0.  1.
          2   -1    0    0  501    0  0.00000000000E+00 -0.00000000000E+00 -0.43820409386E+03  0.43820409386E+03  0.00000000000E+00 0. -1.
         25    2    1    2    0    0  0.86555612982E+02  0.38777171869E+02 -0.36155125082E+03  0.39416011624E+03  0.12508935633E+03 0.  0.
          5    1    3    3  502    0 -0.31548095910E+02  0.15902294759E+01 -0.55706676255E+02  0.64175675803E+02  0.41800000000E+01 0. -1.
         -5    1    3    3    0  502  0.11810370889E+03  0.37186942393E+02 -0.30584457457E+03  0.32998444044E+03  0.41800000000E+01 0. -1.
        -11    1    1    2    0    0  0.18777071981E+02 -0.31670785982E+00  0.47214183022E+01  0.19364155722E+02  0.00000000000E+00 0. -1.
         11    1    1    2    0    0 -0.10533268496E+03 -0.38460464009E+02  0.62548899738E+01  0.11230897320E+03  0.00000000000E+00 0.  1.
</event>
<event>
 7    1  0.2714042E-009  0.1184650E+03  0.7561462E-02  0.1245651E+00
         -2   -1    0    0    0  501 -0.00000000000E+00  0.00000000000E+00  0.36956771544E+03  0.36956771544E+03  0.00000000000E+00 0.  1.
          2   -1    0    0  501    0  0.00000000000E+00 -0.00000000000E+00 -0.38101799744E+02  0.38101799744E+02  0.00000000000E+00 0. -1.
         25    2    1    2    0    0 -0.16612253498E+02  0.45888553256E+02  0.19491449982E+03  0.23668801605E+03  0.12509128034E+03 0.  0.
          5    1    3    3  502    0  0.15402509163E+02  0.83255785175E+02  0.11831357149E+03  0.14554839969E+03  0.41800000000E+01 0.  1.
         -5    1    3    3    0  502 -0.32014762661E+02 -0.37367231920E+02  0.76600928331E+02  0.91139616363E+02  0.41800000000E+01 0.  1.
        -11    1    1    2    0    0 -0.25979776216E+02  0.13823841978E+02  0.42982162160E+02  0.52091397017E+02  0.00000000000E+00 0. -1.
         11    1    1    2    0    0  0.42592029715E+02 -0.59712395233E+02  0.93569253719E+02  0.11889010212E+03  0.00000000000E+00 0.  1.
</event>
<event>
 7    1  0.2714042E-009  0.9650321E+02  0.7561462E-02  0.1287826E+00
          3   -1    0    0  501    0  0.00000000000E+00  0.00000000000E+00  0.10123377746E+03  0.10123377746E+03  0.00000000000E+00 0. -1.
         -3   -1    0    0    0  501 -0.00000000000E+00 -0.00000000000E+00 -0.20383851068E+03  0.20383851068E+03  0.00000000000E+00 0.  1.
         25    2    1    2    0    0 -0.26380421283E+02 -0.62543899085E+02  0.10880139096E+02  0.14273646902E+03  0.12509059206E+03 0.  0.
          5    1    3    3  502    0 -0.31266397448E+02 -0.31574821472E+01  0.58371242419E+02  0.66424631308E+02  0.41800000000E+01 0.  1.
         -5    1    3    3    0  502  0.48859761646E+01 -0.59386416938E+02 -0.47491103323E+02  0.76311837710E+02  0.41800000000E+01 0.  1.
        -11    1    1    2    0    0  0.47997528961E+02  0.16585688772E+02 -0.96032012104E+02  0.10863238563E+03  0.00000000000E+00 0.  1.
         11    1    1    2    0    0 -0.21617107678E+02  0.45958210313E+02 -0.17452860219E+02  0.53703433497E+02  0.00000000000E+00 0. -1.
</event>
<event>
 7    1  0.2714042E-009  0.1117326E+03  0.7561462E-02  0.1257395E+00
          1   -1    0    0  501    0  0.00000000000E+00  0.00000000000E+00  0.38233286084E+03  0.38233286084E+03  0.00000000000E+00 0. -1.
         -1   -1    0    0    0  501 -0.00000000000E+00 -0.00000000000E+00 -0.44304223347E+02  0.44304223347E+02  0.00000000000E+00 0.  1.
         25    2    1    2    0    0  0.59149356985E+02  0.14874663710E+02  0.24778339254E+03  0.28418965309E+03  0.12508895737E+03 0.  0.
          5    1    3    3  502    0  0.34102697891E+02  0.68198751973E+02  0.10641518669E+03  0.13097987682E+03  0.41800000000E+01 0. -1.
         -5    1    3    3    0  502  0.25046659094E+02 -0.53324088263E+02  0.14136820585E+03  0.15320977627E+03  0.41800000000E+01 0. -1.
        -11    1    1    2    0    0  0.13200006115E+02  0.29518759886E+01 -0.10512229196E+02  0.17130694556E+02  0.00000000000E+00 0.  1.
         11    1    1    2    0    0 -0.72349363100E+02 -0.17826539699E+02  0.10075747415E+03  0.12531673654E+03  0.00000000000E+00 0. -1.
</event>
<event>
 7    1  0.2714042E-009  0.9375427E+02  0.7561462E-02  0.1294007E+00
          2   -1    0    0  501    0  0.00000000000E+00  0.00000000000E+00  0.12066347934E+04  0.12066347934E+04  0.00000000000E+00 0. -1.
         -2   -1    0    0    0  501 -0.00000000000E+00 -0.00000000000E+00 -0.15590341714E+02  0.15590341714E+02  0.00000000000E+00 0.  1.
         25    2    1    2    0    0  0.14434895895E+02 -0.13216327254E+02  0.10108286366E+04  0.10187286214E+04  0.12510169397E+03 0.  0.
          5    1    3    3  502    0  0.53924604564E+02 -0.42498484604E+02  0.75911081536E+03  0.76222089093E+03  0.41800000000E+01 0. -1.
         -5    1    3    3    0  502 -0.39489708669E+02  0.29282157350E+02  0.25171782127E+03  0.25650773044E+03  0.41800000000E+01 0. -1.
        -11    1    1    2    0    0 -0.37714253160E+02  0.22953478937E+02  0.35653899392E+02  0.56748811693E+02  0.00000000000E+00 0.  1.
         11    1    1    2    0    0  0.23279357265E+02 -0.97371516827E+01  0.14456191570E+03  0.14674770209E+03  0.00000000000E+00 0. -1.
</event>
<event>
 7    1  0.2714042E-009  0.1135931E+03  0.7561462E-02  0.1254057E+00
         -2   -1    0    0    0  501 -0.00000000000E+00  0.00000000000E+00  0.35436035154E+02  0.35436035154E+02  0.00000000000E+00 0.  1.
          2   -1    0    0  501    0  0.00000000000E+00 -0.00000000000E+00 -0.57035011958E+03  0.57035011958E+03  0.00000000000E+00 0. -1.
         25    2    1    2    0    0  0.29220809155E+02 -0.18816566508E+02 -0.11091907326E+03  0.17075484237E+03  0.12508499717E+03 0.  0.
          5    1    3    3  502    0  0.28880038520E+02  0.51601181135E+02 -0.50457620973E+02  0.77847173575E+02  0.41800000000E+01 0.  1.
         -5    1    3    3    0  502  0.34077063497E+00 -0.70417747643E+02 -0.60461452285E+02  0.92907668791E+02  0.41800000000E+01 0.  1.
        -11    1    1    2    0    0 -0.61795542402E+02  0.50592672287E+01 -0.27206940937E+03  0.27904488664E+03  0.00000000000E+00 0.  1.
         11    1    1    2    0    0  0.32574733247E+02  0.13757299279E+02 -0.15192560180E+03  0.15598642573E+03  0.00000000000E+00 0. -1.
</event>
<event>
 7    1  0.2714042E-009  0.1515272E+03  0.7561462E-02  0.1198609E+00
          1   -1    0    0  501    0  0.00000000000E+00  0.00000000000E+00  0.12099947928E+03  0.12099947928E+03  0.00000000000E+00 0. -1.
         -1   -1    0    0    0  501 -0.00000000000E+00 -0.00000000000E+00 -0.25305847864E+03  0.25305847864E+03  0.00000000000E+00 0.  1.
         25    2    1    2    0    0 -0.13314589121E+03 -0.50129077858E+01 -0.98981258397E+02  0.20784075143E+03  0.12509009093E+03 0.  0.
          5    1    3    3  502    0 -0.94308706032E+02  0.46002073045E+02 -0.21512456106E+02  0.10719412729E+03  0.41800000000E+01 0.  1.
         -5    1    3    3    0  502 -0.38837185173E+02 -0.51014980831E+02 -0.77468802291E+02  0.10064662414E+03  0.41800000000E+01 0.  1.
        -11    1    1    2    0    0  0.11892608214E+03  0.82279258787E+01 -0.61599883662E+02  0.13418516104E+03  0.00000000000E+00 0.  1.
         11    1    1    2    0    0  0.14219809065E+02 -0.32150180929E+01  0.28522142701E+02  0.32032045446E+02  0.00000000000E+00 0. -1.
</event>
<event>
 7    1  0.2714042E-009  0.2997171E+03  0.7561462E-02  0.1085382E+00
         -2   -1    0    0    0  501 -0.00000000000E+00  0.00000000000E+00  0.32700265922E+02  0.32700265922E+02  0.00000000000E+00 0.  1.
          2   -1    0    0  501    0  0.00000000000E+00 -0.00000000000E+00 -0.29354426859E+04  0.29354426859E+04  0.00000000000E+00 0. -1.
         25    2    1    2    0    0  0.28345502662E+03 -0.72398090364E+02 -0.15121659131E+04  0.15452779495E+04  0.12509978712E+03 0.  0.
          5    1    3    3  502    0  0.14080177500E+03 -0.83029480538E+02 -0.10087239118E+04  0.10218906189E+04  0.41800000000E+01 0. -1.
         -5    1    3    3    0  502  0.14265325162E+03  0.10631390174E+02 -0.50344200136E+03  0.52338733055E+03  0.41800000000E+01 0. -1.
        -11    1    1    2    0    0 -0.12968932908E+03  0.26828764305E+02 -0.46477184702E+03  0.48327215361E+03  0.00000000000E+00 0. -1.
         11    1    1    2    0    0 -0.15376569753E+03  0.45569326059E+02 -0.92580465983E+03  0.93959284872E+03  0.00000000000E+00 0.  1.
</event>
<event>
 7    1  0.2714042E-009  0.9263210E+02  0.7561462E-02  0.1296600E+00
          2   -1    0    0  501    0  0.00000000000E+00  0.00000000000E+00  0.72871842931E+03  0.72871842931E+03  0.00000000000E+00 0. -1.
         -2   -1    0    0    0  501 -0.00000000000E+00 -0.00000000000E+00 -0.24705704140E+02  0.24705704140E+02  0.00000000000E+00 0.  1.
         25    2    1    2    0    0 -0.50587858642E+02 -0.10426770241E+02  0.55576933601E+03  0.57200981237E+03  0.12509125320E+03 0.  0.
          5    1    3    3  502    0  0.15711153562E+02  0.11403259945E+02  0.40850323730E+03  0.40898562562E+03  0.41800000000E+01 0. -1.
         -5    1    3    3    0  502 -0.66299012204E+02 -0.21830030186E+02  0.14726609871E+03  0.16302418675E+03  0.41800000000E+01 0. -1.
        -11    1    1    2    0    0  0.31140572973E+02  0.45641389576E+02  0.47239175755E+02  0.72693957475E+02  0.00000000000E+00 0.  1.
         11    1    1    2    0    0  0.19447285669E+02 -0.35214619335E+02  0.10100421341E+03  0.10872036360E+03  0.00000000000E+00 0. -1.
</event>
<event>
 7    1  0.2714042E-009  0.1171275E+03  0.7561462E-02  0.1247912E+00
          1   -1    0    0  501    0  0.00000000000E+00  0.00000000000E+00  0.62459690901E+03  0.62459690901E+03  0.00000000000E+00 0. -1.
         -1   -1    0    0    0  501 -0.00000000000E+00 -0.00000000000E+00 -0.29689594764E+02  0.29689594764E+02  0.00000000000E+00 0.  1.
         25    2    1    2    0    0 -0.43113383565E+02  0.87408171384E+01  0.49120179300E+03  0.50878488513E+03  0.12509073573E+03 0.  0.
          5    1    3    3  502    0  0.38494438240E+02 -0.22500603004E+02  0.14964320213E+03  0.15620070184E+03  0.41800000000E+01 0. -1.
         -5    1    3    3    0  502 -0.81607821805E+02  0.31241420143E+02  0.34155859087E+03  0.35258418329E+03  0.41800000000E+01 0. -1.
        -11    1    1    2    0    0 -0.65257444159E+01 -0.41826913678E+02  0.40398944280E+02  0.58516243445E+02  0.00000000000E+00 0.  1.
         11    1    1    2    0    0  0.49639127981E+02  0.33086096540E+02  0.63306576967E+02  0.86985375197E+02  0.00000000000E+00 0. -1.
</event>
<event>
 7    1  0.2714042E-009  0.1310117E+03  0.7561462E-02  0.1225962E+00
          2   -1    0    0  501    0  0.00000000000E+00  0.00000000000E+00  0.58346147447E+03  0.58346147447E+03  0.00000000000E+00 0. -1.
         -2   -1    0    0    0  501 -0.00000000000E+00 -0.00000000000E+00 -0.42205533082E+02  0.42205533082E+02  0.00000000000E+00 0.  1.
         25    2    1    2    0    0  0.57817256400E+02  0.86437866419E+02  0.20127592571E+03  0.25879242557E+03  0.12508869402E+03 0.  0.
          5    1    3    3  502    0  0.52834547548E+02  0.16891780959E+02  0.11817164284E+02  0.56867736462E+02  0.41800000000E+01 0.  1.
         -5    1    3    3    0  502  0.49827088519E+01  0.69546085459E+02  0.18945876142E+03  0.20192468911E+03  0.41800000000E+01 0.  1.
        -11    1    1    2    0    0 -0.29682290663E+02  0.13584761958E+02  0.10474970080E+03  0.10971820247E+03  0.00000000000E+00 0. -1.
         11    1    1    2    0    0 -0.28134965737E+02 -0.10002262838E+03  0.23523031488E+03  0.25715637951E+03  0.00000000000E+00 0.  1.
</event>
<event>
 7    1  0.2714042E-009  0.1348535E+03  0.7561462E-02  0.1220427E+00
         -3   -1    0    0    0  501 -0.00000000000E+00  0.00000000000E+00  0.44592983927E+03  0.44592983927E+03  0.00000000000E+00 0.  1.
          3   -1    0    0  501    0  0.00000000000E+00 -0.00000000000E+00 -0.48471627363E+02  0.48471627363E+02  0.00000000000E+00 0. -1.
         25    2    1    2    0    0 -0.30531095416E+02 -0.87974575978E+02  0.26194136338E+03  0.30484883724E+03  0.12509141422E+03 0.  0.
          5    1    3    3  502    0  0.25414722096E+02 -0.87463574933E+02  0.20760996098E+03  0.22674909777E+03  0.41800000000E+01 0. -1.
         -5    1    3    3    0  502 -0.55945817512E+02 -0.51100104447E+00  0.54331402399E+02  0.78099739473E+02  0.41800000000E+01 0. -1.
        -11    1    1    2    0    0 -0.12986158234E+02  0.76262387065E+02  0.11821914908E+03  0.14128113531E+03  0.00000000000E+00 0.  1.
         11    1    1    2    0    0  0.43517253650E+02  0.11712188912E+02  0.17297699445E+02  0.48271494077E+02  0.00000000000E+00 0. -1.
</event>
<event>
 7    1  0.2714042E-009  0.1122721E+03  0.7561462E-02  0.1256419E+00
         -2   -1    0    0    0  501 -0.00000000000E+00  0.00000000000E+00  0.22914543928E+02  0.22914543928E+02  0.00000000000E+00 0.  1.
          2   -1    0    0  501    0  0.00000000000E+00 -0.00000000000E+00 -0.57408036730E+03  0.57408036730E+03  0.00000000000E+00 0. -1.
         25    2    1    2    0    0 -0.31685032243E+02 -0.12117151171E+02 -0.26668124916E+03  0.29650835647E+03  0.12509016819E+03 0.  0.
          5    1    3    3  502    0 -0.30293338643E+02  0.54401137740E+02 -0.14245642637E+03  0.15552644781E+03  0.41800000000E+01 0.  1.
         -5    1    3    3    0  502 -0.13916936003E+01 -0.66518288911E+02 -0.12422482279E+03  0.14098190865E+03  0.41800000000E+01 0.  1.
        -11    1    1    2    0    0  0.12276222139E+02  0.50763498080E+02 -0.13104047940E+03  0.14106468591E+03  0.00000000000E+00 0.  1.
         11    1    1    2    0    0  0.19408810104E+02 -0.38646346909E+02 -0.15344409480E+03  0.15942186886E+03  0.00000000000E+00 0. -1.
</event>
<event>
 7    1  0.2714042E-009  0.2180487E+03  0.7561462E-02  0.1135346E+00
          2   -1    0    0  501    0  0.00000000000E+00  0.00000000000E+00  0.15201497755E+04  0.15201497755E+04  0.00000000000E+00 0. -1.
         -2   -1    0    0    0  501 -0.00000000000E+00 -0.00000000000E+00 -0.58881318957E+02  0.58881318957E+02  0.00000000000E+00 0.  1.
         25    2    1    2    0    0 -0.20177920068E+03 -0.19388634561E+02  0.12622415906E+04  0.12845196744E+04  0.12508475525E+03 0.  0.
          5    1    3    3  502    0 -0.21135265805E+03 -0.86242837048E+01  0.12384685887E+04  0.12564100612E+04  0.41800000000E+01 0.  1.
         -5    1    3    3    0  502  0.95734573785E+01 -0.10764350856E+02  0.23773001863E+02  0.28109613180E+02  0.41800000000E+01 0.  1.
        -11    1    1    2    0    0  0.40850949817E+02 -0.17474503765E+02  0.14109814794E+02  0.46618078643E+02  0.00000000000E+00 0. -1.
         11    1    1    2    0    0  0.16092825086E+03  0.36863138326E+02  0.18491705113E+03  0.24789334136E+03  0.00000000000E+00 0.  1.
</event>
<event>
 7    1  0.2714042E-009  0.2826876E+03  0.7561462E-02  0.1094230E+00
         -1   -1    0    0    0  501 -0.00000000000E+00  0.00000000000E+00  0.13732947163E+03  0.13732947163E+03  0.00000000000E+00 0.  1.
          1   -1    0    0  501    0  0.00000000000E+00 -0.00000000000E+00 -0.65226835809E+03  0.65226835809E+03  0.00000000000E+00 0. -1.
         25    2    1    2    0    0  0.16882719157E+02  0.26789588723E+03 -0.36028697742E+03  0.46637739209E+03  0.12509169900E+03 0.  0.
          5    1    3    3  502    0  0.20146247204E+02 -0.25717684930E+01 -0.53376327168E+02  0.57262465643E+02  0.41800000000E+01 0.  1.
         -5    1    3    3    0  502 -0.32635280470E+01  0.27046765572E+03 -0.30691065025E+03  0.40911492645E+03  0.41800000000E+01 0.  1.
        -11    1    1    2    0    0 -0.19985565469E+02 -0.29087919908E+02 -0.52963934585E+02  0.63645174824E+02  0.00000000000E+00 0. -1.
         11    1    1    2    0    0  0.31028463119E+01 -0.23880796732E+03 -0.10168797446E+03  0.25957526281E+03  0.00000000000E+00 0.  1.
</event>
<event>
 7    1  0.2714042E-009  0.1174228E+03  0.7561462E-02  0.1247410E+00
          1   -1    0    0  501    0  0.00000000000E+00  0.00000000000E+00  0.44030937954E+03  0.44030937954E+03  0.00000000000E+00 0. -1.
         -1   -1    0    0    0  501 -0.00000000000E+00 -0.00000000000E+00 -0.46850668078E+02  0.46850668078E+02  0.00000000000E+00 0.  1.
         25    2    1    2    0    0  0.18102558162E+02 -0.54652327601E+02  0.87685512567E+02  0.16324643822E+03  0.12508425541E+03 0.  0.
          5    1    3    3  502    0 -0.32079527483E+02 -0.69680236298E+02  0.23593877409E+02  0.80365259069E+02  0.41800000000E+01 0. -1.
         -5    1    3    3    0  502  0.50182085645E+02  0.15027908696E+02  0.64091635158E+02  0.82881179146E+02  0.41800000000E+01 0. -1.
        -11    1    1    2    0    0  0.36019463161E+02  0.23814401778E+02  0.10014496068E+03  0.10905751056E+03  0.00000000000E+00 0.  1.
         11    1    1    2    0    0 -0.54122021323E+02  0.30837925823E+02  0.20562823822E+03  0.21485609885E+03  0.00000000000E+00 0. -1.
</event>
<event>
 7    1  0.2714042E-009  0.1609680E+03  0.7561462E-02  0.1187608E+00
          2   -1    0    0  501    0  0.00000000000E+00  0.00000000000E+00  0.42734825173E+03  0.42734825173E+03  0.00000000000E+00 0. -1.
         -2   -1    0    0    0  501 -0.00000000000E+00 -0.00000000000E+00 -0.65369101936E+02  0.65369101936E+02  0.00000000000E+00 0.  1.
         25    2    1    2    0    0  0.75158238389E+01 -0.12682287919E+03  0.19428046812E+03  0.26369179724E+03  0.12509169975E+03 0.  0.
          5    1    3    3  502    0 -0.38059998698E+02  0.25968526744E+01  0.25238635499E+02  0.45932213822E+02  0.41800000000E+01 0.  1.
         -5    1    3    3    0  502  0.45575822537E+02 -0.12941973186E+03  0.16904183262E+03  0.21775958342E+03  0.41800000000E+01 0.  1.
        -11    1    1    2    0    0 -0.37591046152E+02  0.42394721487E+02  0.28385671993E+02  0.63373066324E+02  0.00000000000E+00 0.  1.
         11    1    1    2    0    0  0.30075222313E+02  0.84428157702E+02  0.13931300969E+03  0.16565249011E+03  0.00000000000E+00 0. -1.
</event>
<event>
 7    1  0.2714042E-009  0.1099253E+03  0.7561462E-02  0.1260708E+00
          1   -1    0    0  501    0  0.00000000000E+00  0.00000000000E+00  0.49267849927E+02  0.49267849927E+02  0.00000000000E+00 0. -1.
         -1   -1    0    0    0  501 -0.00000000000E+00 -0.00000000000E+00 -0.30843721667E+03  0.30843721667E+03  0.00000000000E+00 0.  1.
         25    2    1    2    0    0  0.20093169772E+02 -0.45972981940E+02 -0.19601833650E+03  0.23788353927E+03  0.12509252364E+03 0.  0.
          5    1    3    3  502    0  0.22271111561E+02 -0.84235776820E+02 -0.91201093431E+02  0.12620134845E+03  0.41800000000E+01 0.  1.
         -5    1    3    3    0  502 -0.21779417885E+01  0.38262794880E+02 -0.10481724307E+03  0.11168219082E+03  0.41800000000E+01 0.  1.
        -11    1    1    2    0    0  0.29241696064E+02  0.30759582447E+02 -0.60971707673E+01  0.42876615915E+02  0.00000000000E+00 0. -1.
         11    1    1    2    0    0 -0.49334865836E+02  0.15213399493E+02 -0.57053859473E+02  0.76944911410E+02  0.00000000000E+00 0.  1.
</event>
<event>
 7    1  0.2714042E-009  0.7857747E+02  0.7561462E-02  0.1333138E+00
         -2   -1    0    0    0  501 -0.00000000000E+00  0.00000000000E+00  0.47653276706E+02  0.47653276706E+02  0.00000000000E+00 0.  1.
          2   -1    0    0  501    0  0.00000000000E+00 -0.00000000000E+00 -0.25981726041E+03  0.25981726041E+03  0.00000000000E+00 0. -1.
         25    2    1    2    0    0 -0.42940393309E+01  0.11082441863E+02 -0.99797239945E+02  0.16046863753E+03  0.12509770276E+03 0.  0.
          5    1    3    3  502    0 -0.46644623298E+02 -0.28623119456E+02 -0.83682368912E+02  0.10007604667E+03  0.41800000000E+01 0.  1.
         -5    1    3    3    0  502  0.42350583967E+02  0.39705561319E+02 -0.16114871033E+02  0.60392590857E+02  0.41800000000E+01 0.  1.
        -11    1    1    2    0    0 -0.19130807917E+02 -0.64392242374E+01 -0.12018943371E+03  0.12187268519E+03  0.00000000000E+00 0. -1.
         11    1    1    2    0    0  0.23424847248E+02 -0.46432176255E+01  0.78226899465E+01  0.25129214403E+02  0.00000000000E+00 0.  1.
</event>
<event>
 7    1  0.2714042E-009  0.2107256E+03  0.7561462E-02  0.1140993E+00
          3   -1    0    0  501    0  0.00000000000E+00  0.00000000000E+00  0.51669840733E+02  0.51669840733E+02  0.00000000000E+00 0. -1.
         -3   -1    0    0    0  501 -0.00000000000E+00 -0.00000000000E+00 -0.10138559674E+04  0.10138559674E+04  0.00000000000E+00 0.  1.
         25    2    1    2    0    0  0.19993696788E+03 -0.11515060475E+02 -0.45537815815E+03  0.51295684775E+03  0.12509225791E+03 0.  0.
          5    1    3    3  502    0  0.17635981992E+03  0.69062177043E-01 -0.45313477436E+03  0.48626267283E+03  0.41800000000E+01 0. -1.
         -5    1    3    3    0  502  0.23577147962E+02 -0.11584122652E+02 -0.22433837840E+01  0.26694174916E+02  0.41800000000E+01 0. -1.
        -11    1    1    2    0    0 -0.16963295300E+03  0.42735040056E+02 -0.43124571469E+03  0.46537564271E+03  0.00000000000E+00 0.  1.
         11    1    1    2    0    0 -0.30304014882E+02 -0.31219979581E+02 -0.75562253846E+02  0.87193317686E+02  0.00000000000E+00 0. -1.
</event>
<event>
 7    1  0.2714042E-009  0.1044027E+03  0.7561462E-02  0.1271301E+00
          2   -1    0    0  501    0  0.00000000000E+00  0.00000000000E+00  0.86463964879E+03  0.86463964879E+03  0.00000000000E+00 0. -1.
         -2   -1    0    0    0  501 -0.00000000000E+00 -0.00000000000E+00 -0.17319136634E+02  0.17319136634E+02  0.00000000000E+00 0.  1.
         25    2    1    2    0    0 -0.30135616671E+02  0.28502917438E+01  0.64495350284E+03  0.65766728740E+03  0.12507981667E+03 0.  0.
          5    1    3    3  502    0  0.20150713526E+02  0.50485383616E+02  0.37477954161E+03  0.37872417724E+03  0.41800000000E+01 0.  1.
         -5    1    3    3    0  502 -0.50286330197E+02 -0.47635091872E+02  0.27017396123E+03  0.27894311016E+03  0.41800000000E+01 0.  1.
        -11    1    1    2    0    0 -0.98183016570E+01  0.31006882322E+02  0.30372633064E+02  0.44500816150E+02  0.00000000000E+00 0.  1.
         11    1    1    2    0    0  0.39953918328E+02 -0.33857174066E+02  0.17199437625E+03  0.17979068187E+03  0.00000000000E+00 0. -1.
</event>
<event>
 7    1  0.2714042E-009  0.1129476E+03  0.7561462E-02  0.1255207E+00
          1   -1    0    0  501    0  0.00000000000E+00  0.00000000000E+00  0.32055981890E+03  0.32055981890E+03  0.00000000000E+00 0. -1.
         -1   -1    0    0    0  501 -0.00000000000E+00 -0.00000000000E+00 -0.60991223739E+02  0.60991223739E+02  0.00000000000E+00 0.  1.
         25    2    1    2    0    0  0.80301548093E+02  0.31497090577E+02  0.11718321116E+03  0.19188631895E+03  0.12509216235E+03 0.  0.
          5    1    3    3  502    0  0.23309448756E+02 -0.18166683687E+02  0.11210014780E+03  0.11600549269E+03  0.41800000000E+01 0.  1.
         -5    1    3    3    0  502  0.56992099337E+02  0.49663774264E+02  0.50830633608E+01  0.75880826261E+02  0.41800000000E+01 0.  1.
        -11    1    1    2    0    0 -0.66454754396E+02  0.18074461791E+02  0.10684515386E+03  0.12711729802E+03  0.00000000000E+00 0. -1.
         11    1    1    2    0    0 -0.13846793697E+02 -0.49571552368E+02  0.35540230136E+02  0.62547425670E+02  0.00000000000E+00 0.  1.
</event>
<event>
 7    1  0.2714042E-009  0.1281058E+03  0.7561462E-02  0.1230294E+00
          1   -1    0    0  501    0  0.00000000000E+00  0.00000000000E+00  0.62215011269E+03  0.62215011269E+03  0.00000000000E+00 0. -1.
         -1   -1    0    0    0  501 -0.00000000000E+00 -0.00000000000E+00 -0.53144844831E+02  0.53144844831E+02  0.00000000000E+00 0.  1.
         25    2    1    2    0    0  0.11629941841E+03 -0.34765164245E+02  0.45002816738E+03  0.48260567279E+03  0.12509481447E+03 0.  0.
          5    1    3    3  502    0  0.84219574858E+02 -0.45509978888E+02  0.13394760532E+03  0.16469222307E+03  0.41800000000E+01 0.  1.
         -5    1    3    3    0  502  0.32079843550E+02  0.10744814644E+02  0.31608056206E+03  0.31791344973E+03  0.41800000000E+01 0.  1.
        -11    1    1    2    0    0 -0.43489171889E+02  0.30977117592E+02  0.28692884480E+00  0.53394496103E+02  0.00000000000E+00 0.  1.
         11    1    1    2    0    0 -0.72810246519E+02  0.37880466524E+01  0.11869017163E+03  0.13929478862E+03  0.00000000000E+00 0. -1.
</event>
<event>
 7    1  0.2714042E-009  0.1260565E+03  0.7561462E-02  0.1233427E+00
         -3   -1    0    0    0  501 -0.00000000000E+00  0.00000000000E+00  0.71091322278E+02  0.71091322278E+02  0.00000000000E+00 0.  1.
          3   -1    0    0  501    0  0.00000000000E+00 -0.00000000000E+00 -0.24484070711E+03  0.24484070711E+03  0.00000000000E+00 0. -1.
         25    2    1    2    0    0  0.60861533394E+02 -0.42411506153E+02 -0.81323951650E+02  0.16661067149E+03  0.12507065459E+03 0.  0.
          5    1    3    3  502    0  0.98896101896E+02 -0.39169681472E+02 -0.66082126758E+02  0.12529574132E+03  0.41800000000E+01 0. -1.
         -5    1    3    3    0  502 -0.38034568502E+02 -0.32418246809E+01 -0.15241824892E+02  0.41314930164E+02  0.41800000000E+01 0. -1.
        -11    1    1    2    0    0 -0.16101807401E+02 -0.22953735692E+02 -0.59953662905E+00  0.28044636349E+02  0.00000000000E+00 0.  1.
         11    1    1    2    0    0 -0.44759725993E+02  0.65365241845E+02 -0.91825896549E+02  0.12127672155E+03  0.00000000000E+00 0. -1.
</event>
<event>
 7    1  0.2714042E-009  0.1673062E+03  0.7561462E-02  0.1180687E+00
         -2   -1    0    0    0  501 -0.00000000000E+00  0.00000000000E+00  0.32151344985E+03  0.32151344985E+03  0.00000000000E+00 0.  1.
          2   -1    0    0  501    0  0.00000000000E+00 -0.00000000000E+00 -0.22077012102E+03  0.22077012102E+03  0.00000000000E+00 0. -1.
         25    2    1    2    0    0 -0.38416203388E+02  0.13705230988E+03  0.25199505975E+03  0.31529155330E+03  0.12509241829E+03 0.  0.
          5    1    3    3  502    0  0.41159761044E+02  0.75752115255E+02  0.14283458928E+03  0.16688828955E+03  0.41800000000E+01 0.  1.
         -5    1    3    3    0  502 -0.79575964432E+02  0.61300194625E+02  0.10916047047E+03  0.14840326375E+03  0.41800000000E+01 0.  1.
        -11    1    1    2    0    0  0.39312498984E+02 -0.66833284882E+02 -0.13378045790E+03  0.15462655483E+03  0.00000000000E+00 0. -1.
         11    1    1    2    0    0 -0.89629559601E+00 -0.70219024998E+02 -0.17471273027E+02  0.72365462748E+02  0.00000000000E+00 0.  1.
</event>
<event>
 7    1  0.2714042E-009  0.2195234E+03  0.7561462E-02  0.1134239E+00
         -2   -1    0    0    0  501 -0.00000000000E+00  0.00000000000E+00  0.14718560575E+03  0.14718560575E+03  0.00000000000E+00 0.  1.
          2   -1    0    0  501    0  0.00000000000E+00 -0.00000000000E+00 -0.44666866954E+03  0.44666866954E+03  0.00000000000E+00 0. -1.
         25    2    1    2    0    0 -0.13038255973E+03  0.15047904131E+03 -0.28803949184E+03  0.37183100506E+03  0.12509194101E+03 0.  0.
          5    1    3    3  502    0 -0.85831813867E+02  0.27545714020E+02 -0.18306233860E+03  0.20409595499E+03  0.41800000000E+01 0.  1.
         -5    1    3    3    0  502 -0.44550745859E+02  0.12293332729E+03 -0.10497715325E+03  0.16773505006E+03  0.41800000000E+01 0.  1.
        -11    1    1    2    0    0  0.35217797187E+02 -0.10831305332E+03  0.14327696978E+02  0.11479239373E+03  0.00000000000E+00 0.  1.
         11    1    1    2    0    0  0.95164762540E+02 -0.42165987995E+02 -0.25771268930E+02  0.10723087650E+03  0.00000000000E+00 0. -1.
</event>
<event>
 7    1  0.2714042E-009  0.2928588E+03  0.7561462E-02  0.1088866E+00
         -1   -1    0    0    0  501 -0.00000000000E+00  0.00000000000E+00  0.95476872125E+03  0.95476872125E+03  0.00000000000E+00 0.  1.
          1   -1    0    0  501    0  0.00000000000E+00 -0.00000000000E+00 -0.10143663824E+03  0.10143663824E+03  0.00000000000E+00 0. -1.
         25    2    1    2    0    0  0.18197998795E+03 -0.21756799746E+03  0.32064744467E+03  0.44600060203E+03  0.12509677737E+03 0.  0.
          5    1    3    3  502    0  0.63499795922E+02 -0.18995916682E+02  0.25740041608E+02  0.71225634955E+02  0.41800000000E+01 0.  1.
         -5    1    3    3    0  502  0.11848019202E+03 -0.19857208078E+03  0.29490740306E+03  0.37477496708E+03  0.41800000000E+01 0.  1.
        -11    1    1    2    0    0 -0.55815904696E+02  0.34210998892E+02  0.19564644867E+03  0.20630884746E+03  0.00000000000E+00 0.  1.
         11    1    1    2    0    0 -0.12616408325E+03  0.18335699857E+03  0.33703818967E+03  0.40389591001E+03  0.00000000000E+00 0. -1.
</event>
<event>
 7    1  0.2714042E-009  0.1089433E+03  0.7561462E-02  0.1262539E+00
         -1   -1    0    0    0  501 -0.00000000000E+00  0.00000000000E+00  0.40121255729E+03  0.40121255729E+03  0.00000000000E+00 0.  1.
          1   -1    0    0  501    0  0.00000000000E+00 -0.00000000000E+00 -0.57548098041E+02  0.57548098041E+02  0.00000000000E+00 0. -1.
         25    2    1    2    0    0 -0.86657095461E+02 -0.35855939810E+02  0.14231215582E+03  0.21140850523E+03  0.12508279568E+03 0.  0.
          5    1    3    3  502    0 -0.54933434092E+02  0.19516320597E+02  0.34750821532E+01  0.58550128495E+02  0.41800000000E+01 0. -1.
         -5    1    3    3    0  502 -0.31723661369E+02 -0.55372260407E+02  0.13883707367E+03  0.15285837674E+03  0.41800000000E+01 0. -1.
        -11    1    1    2    0    0  0.24667252753E+02  0.19311118841E+02  0.17534540491E+03  0.17812187875E+03  0.00000000000E+00 0.  1.
         11    1    1    2    0    0  0.61989842708E+02  0.16544820969E+02  0.26006898517E+02  0.69230271344E+02  0.00000000000E+00 0. -1.
</event>
<event>
 7    1  0.2714042E-009  0.1177516E+03  0.7561462E-02  0.1246853E+00
         -1   -1    0    0    0  501 -0.00000000000E+00  0.00000000000E+00  0.62563723889E+03  0.62563723889E+03  0.00000000000E+00 0.  1.
          1   -1    0    0  501    0  0.00000000000E+00 -0.00000000000E+00 -0.33849027232E+02  0.33849027232E+02  0.00000000000E+00 0. -1.
         25    2    1    2    0    0  0.98814484071E+02 -0.97258165111E+01  0.30859937361E+03  0.34747682832E+03  0.12509068334E+03 0.  0.
          5    1    3    3  502    0  0.56779188380E+02  0.13501195951E+02  0.28993888106E+03  0.29578401863E+03  0.41800000000E+01 0. -1.
         -5    1    3    3    0  502  0.42035295692E+02 -0.23227012462E+02  0.18660492551E+02  0.51692809694E+02  0.41800000000E+01 0. -1.
        -11    1    1    2    0    0 -0.34660602228E+02  0.44029119786E+02  0.15199772131E+03  0.16199761733E+03  0.00000000000E+00 0.  1.
         11    1    1    2    0    0 -0.64153881844E+02 -0.34303303275E+02  0.13119111674E+03  0.15001182048E+03  0.00000000000E+00 0. -1.
</event>
<event>
 7    1  0.2714042E-009  0.7330255E+02  0.7561462E-02  0.1349210E+00
          3   -1    0    0  501    0  0.00000000000E+00  0.00000000000E+00  0.10819970484E+03  0.10819970484E+03  0.00000000000E+00 0. -1.
         -3   -1    0    0    0  501 -0.00000000000E+00 -0.00000000000E+00 -0.11994239525E+03  0.11994239525E+03  0.00000000000E+00 0.  1.
         25    2    1    2    0    0 -0.20401495202E+02 -0.29407905948E+02 -0.41740035979E+01  0.13017675159E+03  0.12509004121E+03 0.  0.
          5    1    3    3  502    0 -0.50257422175E+02 -0.23861998726E+02  0.45374332096E+02  0.71913182936E+02  0.41800000000E+01 0.  1.
         -5    1    3    3    0  502  0.29855926973E+02 -0.55459072222E+01 -0.49548335694E+02  0.58263568654E+02  0.41800000000E+01 0.  1.
        -11    1    1    2    0    0  0.36199618942E+02  0.16605847561E+02  0.33562282051E+02  0.52082562928E+02  0.00000000000E+00 0. -1.
         11    1    1    2    0    0 -0.15798123740E+02  0.12802058387E+02 -0.41130968856E+02  0.45882785570E+02  0.00000000000E+00 0.  1.
</event>
<event>
 7    1  0.2714042E-009  0.1076724E+03  0.7561462E-02  0.1264942E+00
          2   -1    0    0  501    0  0.00000000000E+00  0.00000000000E+00  0.69086047934E+03  0.69086047934E+03  0.00000000000E+00 0. -1.
         -2   -1    0    0    0  501 -0.00000000000E+00 -0.00000000000E+00 -0.18633786854E+02  0.18633786854E+02  0.00000000000E+00 0.  1.
         25    2    1    2    0    0  0.13845819878E+01  0.54959482867E+01  0.27616905693E+03  0.30323104543E+03  0.12509035292E+03 0.  0.
          5    1    3    3  502    0  0.80459332769E+01  0.64723685974E+02  0.13776076555E+03  0.15247751799E+03  0.41800000000E+01 0.  1.
         -5    1    3    3    0  502 -0.66613512891E+01 -0.59227737687E+02  0.13840829138E+03  0.15075352744E+03  0.41800000000E+01 0.  1.
        -11    1    1    2    0    0  0.32853884297E+02 -0.32818586460E+02  0.18878805682E+03  0.19441545136E+03  0.00000000000E+00 0.  1.
         11    1    1    2    0    0 -0.34238466284E+02  0.27322638174E+02  0.20726957874E+03  0.21184776941E+03  0.00000000000E+00 0. -1.
</event>
<event>
 7    1  0.2714042E-009  0.1020119E+03  0.7561462E-02  0.1276121E+00
         -3   -1    0    0    0  501 -0.00000000000E+00  0.00000000000E+00  0.54701391243E+03  0.54701391243E+03  0.00000000000E+00 0.  1.
          3   -1    0    0  501    0  0.00000000000E+00 -0.00000000000E+00 -0.27558051087E+02  0.27558051087E+02  0.00000000000E+00 0. -1.
         25    2    1    2    0    0  0.42514671431E+02  0.24321745321E+02  0.35954629836E+03  0.38382314621E+03  0.12509045654E+03 0.  0.
          5    1    3    3  502    0 -0.31843068157E+02  0.33202682236E+02  0.64133962675E+02  0.79038197511E+02  0.41800000000E+01 0. -1.
         -5    1    3    3    0  502  0.74357739588E+02 -0.88809369148E+01  0.29541233569E+03  0.30478494870E+03  0.41800000000E+01 0. -1.
        -11    1    1    2    0    0 -0.52490534376E+02 -0.38779462444E+02  0.16040865413E+03  0.17317632409E+03  0.00000000000E+00 0.  1.
         11    1    1    2    0    0  0.99758629458E+01  0.14457717124E+02 -0.49909114469E+00  0.17572493218E+02  0.00000000000E+00 0. -1.
</event>
<event>
 7    1  0.2714042E-009  0.1677507E+03  0.7561462E-02  0.1180214E+00
          2   -1    0    0  501    0  0.00000000000E+00  0.00000000000E+00  0.54815611135E+03  0.54815611135E+03  0.00000000000E+00 0. -1.
         -2   -1    0    0    0  501 -0.00000000000E+00 -0.00000000000E+00 -0.67471090659E+02  0.67471090659E+02  0.00000000000E+00 0.  1.
         25    2    1    2    0    0  0.84866520775E+02  0.11736689213E+03  0.14824966245E+03  0.24208092710E+03  0.12509156298E+03 0.  0.
          5    1    3    3  502    0  0.77874890085E+02  0.16302016677E+02  0.10510800253E+03  0.13189169363E+03  0.41800000000E+01 0.  1.
         -5    1    3    3    0  502  0.69916306902E+01  0.10106487546E+03  0.43141659922E+02  0.11018923346E+03  0.41800000000E+01 0.  1.
        -11    1    1    2    0    0 -0.24213438201E+02 -0.79093804116E+02  0.97257725323E+02  0.12767609633E+03  0.00000000000E+00 0.  1.
         11    1    1    2    0    0 -0.60653082574E+02 -0.38273088017E+02  0.23517763292E+03  0.24587017859E+03  0.00000000000E+00 0. -1.
</event>
<event>
 7    1  0.2714042E-009  0.1148364E+03  0.7561462E-02  0.1251867E+00
          1   -1    0    0  501    0  0.00000000000E+00  0.00000000000E+00  0.38080721651E+03  0.38080721651E+03  0.00000000000E+00 0. -1.
         -1   -1    0    0    0  501 -0.00000000000E+00 -0.00000000000E+00 -0.39797699652E+02  0.39797699652E+02  0.00000000000E+00 0.  1.
         25    2    1    2    0    0 -0.25210935551E+02  0.32730261171E+02  0.25811185280E+03  0.28978629086E+03  0.12508998581E+03 0.  0.
          5    1    3    3  502    0 -0.40477492635E+02  0.73950353534E+02  0.19764249435E+03  0.21491186605E+03  0.41800000000E+01 0.  1.
         -5    1    3    3    0  502  0.15266557084E+02 -0.41220092363E+02  0.60469358447E+02  0.74874424810E+02  0.41800000000E+01 0.  1.
        -11    1    1    2    0    0  0.26492178411E+01  0.32232838925E+02  0.23979275623E+02  0.40261394906E+02  0.00000000000E+00 0.  1.
         11    1    1    2    0    0  0.22561717710E+02 -0.64963100096E+02  0.58918388436E+02  0.90557230391E+02  0.00000000000E+00 0. -1.
</event>
<event>
 7    1  0.2714042E-009  0.3729860E+03  0.7561462E-02  0.1053557E+00
          1   -1    0    0  501    0  0.00000000000E+00  0.00000000000E+00  0.74144114113E+03  0.74144114113E+03  0.00000000000E+00 0. -1.
         -1   -1    0    0    0  501 -0.00000000000E+00 -0.00000000000E+00 -0.19695519696E+03  0.19695519696E+03  0.00000000000E+00 0.  1.
         25    2    1    2    0    0  0.24765035054E+03 -0.26378705911E+03  0.20598721263E+03  0.43473269203E+03  0.12508986000E+03 0.  0.
          5    1    3    3  502    0  0.22386056397E+03 -0.16784384175E+03  0.17900370028E+03  0.33218203508E+03  0.41800000000E+01 0. -1.
         -5    1    3    3    0  502  0.23789786571E+02 -0.95943217359E+02  0.26983512348E+02  0.10255065695E+03  0.41800000000E+01 0. -1.
        -11    1    1    2    0    0 -0.61886535681E+02  0.10928565204E+03  0.15925891803E+03  0.20282184304E+03  0.00000000000E+00 0. -1.
         11    1    1    2    0    0 -0.18576381486E+03  0.15450140707E+03  0.17923981351E+03  0.30084180302E+03  0.00000000000E+00 0.  1.
</event>
<event>
 7    1  0.2714042E-009  0.1082678E+03  0.7561462E-02  0.1263812E+00
          1   -1    0    0  501    0  0.00000000000E+00  0.00000000000E+00  0.15332695318E+03  0.15332695318E+03  0.00000000000E+00 0. -1.
         -1   -1    0    0    0  501 -0.00000000000E+00 -0.00000000000E+00 -0.11438730168E+03  0.11438730168E+03  0.00000000000E+00 0.  1.
         25    2    1    2    0    0 -0.38351291822E+02 -0.52824281465E+02 -0.12033389315E+02  0.14160950818E+03  0.12508886461E+03 0.  0.
          5    1    3    3  502    0  0.41994622421E+02 -0.25387676506E+02  0.16506046201E+02  0.51942317929E+02  0.41800000000E+01 0. -1.
         -5    1    3    3    0  502 -0.80345914243E+02 -0.27436604959E+02 -0.28539435516E+02  0.89667190247E+02  0.41800000000E+01 0. -1.
        -11    1    1    2    0    0  0.20228466317E+02 -0.56994716249E+01 -0.22267169405E+02  0.30618648887E+02  0.00000000000E+00 0.  1.
         11    1    1    2    0    0  0.18122825505E+02  0.58523753090E+02  0.73240210222E+02  0.95486097801E+02  0.00000000000E+00 0. -1.
</event>
<event>
 7    1  0.2714042E-009  0.1248828E+03  0.7561462E-02  0.1235253E+00
         -1   -1    0    0    0  501 -0.00000000000E+00  0.00000000000E+00  0.23285725405E+02  0.23285725405E+02  0.00000000000E+00 0.  1.
          1   -1    0    0  501    0  0.00000000000E+00 -0.00000000000E+00 -0.76917852670E+03  0.76917852670E+03  0.00000000000E+00 0. -1.
         25    2    1    2    0    0 -0.39992967767E+02 -0.54322689611E+02 -0.52947846079E+03  0.54822146381E+03  0.12509572678E+03 0.  0.
          5    1    3    3  502    0  0.23737747277E+02  0.25041361014E+02 -0.21110450040E+03  0.21394656552E+03  0.41800000000E+01 0.  1.
         -5    1    3    3    0  502 -0.63730715043E+02 -0.79364050625E+02 -0.31837396039E+03  0.33427489829E+03  0.41800000000E+01 0.  1.
        -11    1    1    2    0    0  0.48112136241E+02 -0.92969918895E+01 -0.89070728900E+02  0.10166025014E+03  0.00000000000E+00 0.  1.
         11    1    1    2    0    0 -0.81191684743E+01  0.63619681501E+02 -0.12734361160E+03  0.14258253815E+03  0.00000000000E+00 0. -1.
</event>
<event>
 7    1  0.2714042E-009  0.8512689E+02  0.7561462E-02  0.1315101E+00
         -3   -1    0    0    0  501 -0.00000000000E+00  0.00000000000E+00  0.13824139025E+04  0.13824139025E+04  0.00000000000E+00 0.  1.
          3   -1    0    0  501    0  0.00000000000E+00 -0.00000000000E+00 -0.10582490278E+02  0.10582490278E+02  0.00000000000E+00 0. -1.
         25    2    1    2    0    0  0.16037229157E+02 -0.20808354589E+02  0.10419130034E+04  0.10497242835E+04  0.12509270250E+03 0.  0.
          5    1    3    3  502    0  0.26921639823E+02 -0.46142696385E+02  0.98387794870E+03  0.98533609163E+03  0.41800000000E+01 0. -1.
         -5    1    3    3    0  502 -0.10884410666E+02  0.25334341796E+02  0.58035054738E+02  0.64388191838E+02  0.41800000000E+01 0. -1.
        -11    1    1    2    0    0 -0.47929468748E+02 -0.43956687587E+01  0.23720918276E+03  0.24204287278E+03  0.00000000000E+00 0.  1.
         11    1    1    2    0    0  0.31892239591E+02  0.25204023348E+02  0.92709226008E+02  0.10122923652E+03  0.00000000000E+00 0. -1.
</event>
<event>
 7    1  0.2714042E-009  0.1826314E+03  0.7561462E-02  0.1165280E+00
         -2   -1    0    0    0  501 -0.00000000000E+00  0.00000000000E+00  0.32192286146E+02  0.32192286146E+02  0.00000000000E+00 0.  1.
          2   -1    0    0  501    0  0.00000000000E+00 -0.00000000000E+00 -0.14829759843E+04  0.14829759843E+04  0.00000000000E+00 0. -1.
         25    2    1    2    0    0 -0.16902562854E+03 -0.32876894035E+01 -0.10557600223E+04  0.10765025807E+04  0.12509240380E+03 0.  0.
          5    1    3    3  502    0 -0.16281830829E+03  0.65182180843E+01 -0.63582621467E+03  0.65638764183E+03  0.41800000000E+01 0.  1.
         -5    1    3    3    0  502 -0.62073202587E+01 -0.98059074878E+01 -0.41993380764E+03  0.42011493886E+03  0.41800000000E+01 0.  1.
        -11    1    1    2    0    0  0.12697129780E+03 -0.36415281076E+02 -0.25535141911E+03  0.28749283540E+03  0.00000000000E+00 0.  1.
         11    1    1    2    0    0  0.42054330743E+02  0.39702970480E+02 -0.13967225673E+03  0.15117285437E+03  0.00000000000E+00 0. -1.
</event>
<event>
 7    1  0.2714042E-009  0.1415178E+03  0.7561462E-02  0.1211301E+00
          2   -1    0    0  501    0  0.00000000000E+00  0.00000000000E+00  0.51457384840E+03  0.51457384840E+03  0.00000000000E+00 0. -1.
         -2   -1    0    0    0  501 -0.00000000000E+00 -0.00000000000E+00 -0.49425335477E+02  0.49425335477E+02  0.00000000000E+00 0.  1.
         25    2    1    2    0    0  0.94044461936E+02 -0.62661129929E+02  0.29969087114E+03  0.34384935087E+03  0.12508788840E+03 0.  0.
          5    1    3    3  502    0  0.38480810362E+02  0.35314722793E+02  0.64941201297E+02  0.83443001133E+02  0.41800000000E+01 0. -1.
         -5    1    3    3    0  502  0.55563651574E+02 -0.97975852722E+02  0.23474966984E+03  0.26040634974E+03  0.41800000000E+01 0. -1.
        -11    1    1    2    0    0 -0.91547695436E+02  0.48604441061E+02  0.17470606582E+03  0.20313931590E+03  0.00000000000E+00 0. -1.
         11    1    1    2    0    0 -0.24967664999E+01  0.14056688868E+02 -0.92484240389E+01  0.17010517102E+02  0.00000000000E+00 0.  1.
</event>
<event>
 7    1  0.2714042E-009  0.8680107E+02  0.7561462E-02  0.1310789E+00
          2   -1    0    0  501    0  0.00000000000E+00  0.00000000000E+00  0.43480161497E+03  0.43480161497E+03  0.00000000000E+00 0. -1.
         -2   -1    0    0    0  501 -0.00000000000E+00 -0.00000000000E+00 -0.29982873561E+02  0.29982873561E+02  0.00000000000E+00 0.  1.
         25    2    1    2    0    0 -0.21200103721E+02  0.17859866430E+02  0.18517159844E+03  0.22517625082E+03  0.12508958324E+03 0.  0.
          5    1    3    3  502    0 -0.21175803167E+02  0.58404467222E+02  0.17106525424E+03  0.18204474736E+03  0.41800000000E+01 0.  1.
         -5    1    3    3    0  502 -0.24300554428E-01 -0.40544600792E+02  0.14106344200E+02  0.43131503459E+02  0.41800000000E+01 0.  1.
        -11    1    1    2    0    0  0.23435685321E+02 -0.41055869559E+02  0.20847010973E+03  0.21376295849E+03  0.00000000000E+00 0. -1.
         11    1    1    2    0    0 -0.22355815998E+01  0.23196003129E+02  0.11177033237E+02  0.25845279225E+02  0.00000000000E+00 0.  1.
</event>
<event>
 7    1  0.2714042E-009  0.8119100E+02  0.7561462E-02  0.1325705E+00
          2   -1    0    0  501    0  0.00000000000E+00  0.00000000000E+00  0.69897801521E+03  0.69897801521E+03  0.00000000000E+00 0. -1.
         -2   -1    0    0    0  501 -0.00000000000E+00 -0.00000000000E+00 -0.19283700494E+02  0.19283700494E+02  0.00000000000E+00 0.  1.
         25    2    1    2    0    0  0.24505523165E+02  0.32101624694E+02  0.38167163989E+03  0.40366764955E+03  0.12507316108E+03 0.  0.
          5    1    3    3  502    0  0.23468903300E+02 -0.12014934425E+02  0.34529644398E+03  0.34632680331E+03  0.41800000000E+01 0.  1.
         -5    1    3    3    0  502  0.10366198646E+01  0.44116559120E+02  0.36375195917E+02  0.57340846238E+02  0.41800000000E+01 0.  1.
        -11    1    1    2    0    0  0.22383326345E+02 -0.38000092674E+02  0.78483240730E+02  0.90025770850E+02  0.00000000000E+00 0.  1.
         11    1    1    2    0    0 -0.46888849510E+02  0.58984679800E+01  0.21953943409E+03  0.22456829530E+03  0.00000000000E+00 0. -1.
</event>
<event>
 7    1  0.2714042E-009  0.9687357E+02  0.7561462E-02  0.1287011E+00
          1   -1    0    0  501    0  0.00000000000E+00  0.00000000000E+00  0.48110733179E+02  0.48110733179E+02  0.00000000000E+00 0. -1.
         -1   -1    0    0    0  501 -0.00000000000E+00 -0.00000000000E+00 -0.33052734183E+03  0.33052734183E+03  0.00000000000E+00 0.  1.
         25    2    1    2    0    0 -0.81959849581E+01  0.61523362311E+02 -0.18485782798E+03  0.23167061160E+03  0.12508620002E+03 0.  0.
          5    1    3    3  502    0 -0.30969803202E+02  0.71220467323E+02 -0.45576683813E+02  0.90145383594E+02  0.41800000000E+01 0.  1.
         -5    1    3    3    0  502  0.22773818244E+02 -0.96971050119E+01 -0.13928114416E+03  0.14152522801E+03  0.41800000000E+01 0.  1.
        -11    1    1    2    0    0 -0.21659642809E+02 -0.56609860996E+02 -0.20179640250E+02  0.63882974017E+02  0.00000000000E+00 0. -1.
         11    1    1    2    0    0  0.29855627767E+02 -0.49135013145E+01 -0.77379140428E+02  0.83084489394E+02  0.00000000000E+00 0.  1.
</event>
<event>
 7    1  0.2714042E-009  0.1409361E+03  0.7561462E-02  0.1212075E+00
          2   -1    0    0  501    0  0.00000000000E+00  0.00000000000E+00  0.68573236277E+03  0.68573236277E+03  0.00000000000E+00 0. -1.
         -2   -1    0    0    0  501 -0.00000000000E+00 -0.00000000000E+00 -0.31712578181E+02  0.31712578181E+02  0.00000000000E+00 0.  1.
         25    2    1    2    0    0  0.82547077547E+02 -0.55908944673E+02  0.35074142813E+03  0.38549614616E+03  0.12509156322E+03 0.  0.
          5    1    3    3  502    0  0.21658806172E+01  0.31818860805E+02  0.13806806218E+03  0.14176527479E+03  0.41800000000E+01 0.  1.
         -5    1    3    3    0  502  0.80381196929E+02 -0.87727805478E+02  0.21267336596E+03  0.24373087137E+03  0.41800000000E+01 0.  1.
        -11    1    1    2    0    0  0.11158523179E+02  0.32074122793E+02  0.12021666281E+03  0.12492120721E+03  0.00000000000E+00 0.  1.
         11    1    1    2    0    0 -0.93705600725E+02  0.23834821880E+02  0.18306169365E+03  0.20702758759E+03  0.00000000000E+00 0. -1.
</event>
<event>
 7    1  0.2714042E-009  0.6676277E+02  0.7561462E-02  0.1371461E+00
          1   -1    0    0  501    0  0.00000000000E+00  0.00000000000E+00  0.71630128640E+03  0.71630128640E+03  0.00000000000E+00 0. -1.
         -1   -1    0    0    0  501 -0.00000000000E+00 -0.00000000000E+00 -0.19348483994E+02  0.19348483994E+02  0.00000000000E+00 0.  1.
         25    2    1    2    0    0  0.21196946174E+02 -0.36214857989E+02  0.53559939907E+03  0.55161076768E+03  0.12508755442E+03 0.  0.
          5    1    3    3  502    0  0.48871747542E+02 -0.21259461205E+02  0.88545994547E+02  0.10343248014E+03  0.41800000000E+01 0.  1.
         -5    1    3    3    0  502 -0.27674801368E+02 -0.14955396783E+02  0.44705340452E+03  0.44817828753E+03  0.41800000000E+01 0.  1.
        -11    1    1    2    0    0 -0.73199035057E+01  0.33374581888E+02  0.16572848971E+03  0.16921399471E+03  0.00000000000E+00 0. -1.
         11    1    1    2    0    0 -0.13877042669E+02  0.28402761008E+01 -0.43750863734E+01  0.14825008005E+02  0.00000000000E+00 0.  1.
</event>
<event>
 7    1  0.2714042E-009  0.8974419E+02  0.7561462E-02  0.1303472E+00
         -1   -1    0    0    0  501 -0.00000000000E+00  0.00000000000E+00  0.43321943073E+02  0.43321943073E+02  0.00000000000E+00 0.  1.
          1   -1    0    0  501    0  0.00000000000E+00 -0.00000000000E+00 -0.32825226975E+03  0.32825226975E+03  0.00000000000E+00 0. -1.
         25    2    1    2    0    0 -0.36687835614E+02  0.33054602556E+02 -0.17120624200E+03  0.21771209168E+03  0.12509345919E+03 0.  0.
          5    1    3    3  502    0 -0.34032481572E+02  0.49448181645E+02 -0.16959269396E+02  0.62517371093E+02  0.41800000000E+01 0. -1.
         -5    1    3    3    0  502 -0.26553540426E+01 -0.16393579089E+02 -0.15424697260E+03  0.15519472059E+03  0.41800000000E+01 0. -1.
        -11    1    1    2    0    0  0.28484063621E+02  0.28380634647E+02 -0.57603177074E+02  0.70249044921E+02  0.00000000000E+00 0. -1.
         11    1    1    2    0    0  0.82037719929E+01 -0.61435237204E+02 -0.56120907605E+02  0.83613076224E+02  0.00000000000E+00 0.  1.
</event>
<event>
 7    1  0.2714042E-009  0.1295184E+03  0.7561462E-02  0.1228172E+00
         -3   -1    0    0    0  501 -0.00000000000E+00  0.00000000000E+00  0.24456123644E+02  0.24456123644E+02  0.00000000000E+00 0.  1.
          3   -1    0    0  501    0  0.00000000000E+00 -0.00000000000E+00 -0.12166170694E+04  0.12166170694E+04  0.00000000000E+00 0. -1.
         25    2    1    2    0    0  0.88589165010E+02  0.35834251469E+02 -0.97670923744E+03  0.98931340936E+03  0.12509178115E+03 0.  0.
          5    1    3    3  502    0 -0.24972591044E+02  0.23605862854E+02 -0.39285626742E+03  0.39437848105E+03  0.41800000000E+01 0. -1.
         -5    1    3    3    0  502  0.11356175605E+03  0.12228388615E+02 -0.58385297002E+03  0.59493492832E+03  0.41800000000E+01 0. -1.
        -11    1    1    2    0    0 -0.41599763436E+02 -0.46029582992E+02 -0.18431241675E+03  0.19447449652E+03  0.00000000000E+00 0. -1.
         11    1    1    2    0    0 -0.46989401574E+02  0.10195331523E+02 -0.31139291554E+02  0.57285287148E+02  0.00000000000E+00 0.  1.
</event>
<event>
 7    1  0.2714042E-009  0.7379211E+02  0.7561462E-02  0.1347653E+00
         -2   -1    0    0    0  501 -0.00000000000E+00  0.00000000000E+00  0.46143055821E+03  0.46143055821E+03  0.00000000000E+00 0.  1.
          2   -1    0    0  501    0  0.00000000000E+00 -0.00000000000E+00 -0.64259468438E+02  0.64259468438E+02  0.00000000000E+00 0. -1.
         25    2    1    2    0    0 -0.40510880008E+02  0.12613624950E+02  0.40178658112E+03  0.42294186513E+03  0.12508848700E+03 0.  0.
          5    1    3    3  502    0 -0.16171496887E+02 -0.11686099452E+01  0.39295812621E+03  0.39331468866E+03  0.41800000000E+01 0.  1.
         -5    1    3    3    0  502 -0.24339383121E+02  0.13782234895E+02  0.88284549036E+01  0.29627176467E+02  0.41800000000E+01 0.  1.
        -11    1    1    2    0    0  0.63020964877E+01 -0.50858385400E+02 -0.21269154231E+00  0.51247800181E+02  0.00000000000E+00 0. -1.
         11    1    1    2    0    0  0.34208783521E+02  0.38244760450E+02 -0.44027998025E+01  0.51500361338E+02  0.00000000000E+00 0.  1.
</event>
<event>
 7    1  0.2714042E-009  0.9552642E+02  0.7561462E-02  0.1289995E+00
          2   -1    0    0  501    0  0.00000000000E+00  0.00000000000E+00  0.18029169200E+03  0.18029169200E+03  0.00000000000E+00 0. -1.
         -2   -1    0    0    0  501 -0.00000000000E+00 -0.00000000000E+00 -0.86226229292E+02  0.86226229292E+02  0.00000000000E+00 0.  1.
         25    2    1    2    0    0 -0.45842866222E+02  0.19392054203E+02  0.88296353342E+02  0.16100299722E+03  0.12509236168E+03 0.  0.
          5    1    3    3  502    0 -0.81164601347E+02  0.23774696490E+02  0.25044309456E+02  0.88304125278E+02  0.41800000000E+01 0. -1.
         -5    1    3    3    0  502  0.35321735125E+02 -0.43826422869E+01  0.63252043886E+02  0.72698871941E+02  0.41800000000E+01 0. -1.
        -11    1    1    2    0    0  0.35492826604E+02  0.12013093254E+02 -0.36188960393E+02  0.52093147382E+02  0.00000000000E+00 0.  1.
         11    1    1    2    0    0  0.10350039618E+02 -0.31405147457E+02  0.41958069757E+02  0.53421776689E+02  0.00000000000E+00 0. -1.
</event>
<event>
 7    1  0.2714042E-009  0.9954754E+02  0.7561462E-02  0.1281250E+00
          1   -1    0    0  501    0  0.00000000000E+00  0.00000000000E+00  0.56952775871E+03  0.56952775871E+03  0.00000000000E+00 0. -1.
         -1   -1    0    0    0  501 -0.00000000000E+00 -0.00000000000E+00 -0.31887321331E+02  0.31887321331E+02  0.00000000000E+00 0.  1.
         25    2    1    2    0    0 -0.32166560201E+02 -0.18970108365E+02  0.45403921702E+03  0.47243418820E+03  0.12509156239E+03 0.  0.
          5    1    3    3  502    0  0.10237604218E+02 -0.63907514824E+02  0.17567924835E+03  0.18726892345E+03  0.41800000000E+01 0. -1.
         -5    1    3    3    0  502 -0.42404164420E+02  0.44937406460E+02  0.27835996868E+03  0.28516526475E+03  0.41800000000E+01 0. -1.
        -11    1    1    2    0    0 -0.75279638296E+01  0.30147107505E+02 -0.47932532412E+01  0.31440318176E+02  0.00000000000E+00 0.  1.
         11    1    1    2    0    0  0.39694524031E+02 -0.11176999141E+02  0.88394473592E+02  0.97540573658E+02  0.00000000000E+00 0. -1.
</event>
<event>
 7    1  0.2714042E-009  0.9387853E+02  0.7561462E-02  0.1293722E+00
          1   -1    0    0  501    0  0.00000000000E+00  0.00000000000E+00  0.86943306067E+02  0.86943306067E+02  0.00000000000E+00 0. -1.
         -1   -1    0    0    0  501 -0.00000000000E+00 -0.00000000000E+00 -0.49360299237E+03  0.49360299237E+03  0.00000000000E+00 0.  1.
         25    2    1    2    0    0  0.51540504343E+02 -0.18062226302E+02 -0.44651857215E+03  0.46691427735E+03  0.12508972582E+03 0.  0.
          5    1    3    3  502    0  0.59733642587E+02  0.41241367764E+02 -0.18918500280E+03  0.20267559339E+03  0.41800000000E+01 0. -1.
         -5    1    3    3    0  502 -0.81931382436E+01 -0.59303594066E+02 -0.25733356936E+03  0.26423868396E+03  0.41800000000E+01 0. -1.
        -11    1    1    2    0    0 -0.16920993080E+02  0.25944272965E+01 -0.29774053181E+02  0.34344509061E+02  0.00000000000E+00 0.  1.
         11    1    1    2    0    0 -0.34619511264E+02  0.15467799006E+02  0.69632939029E+02  0.79287512031E+02  0.00000000000E+00 0. -1.
</event>
<event>
 7    1  0.2714042E-009  0.1630340E+03  0.7561462E-02  0.1185313E+00
          1   -1    0    0  501    0  0.00000000000E+00  0.00000000000E+00  0.67968319724E+03  0.67968319724E+03  0.00000000000E+00 0. -1.
         -1   -1    0    0    0  501 -0.00000000000E+00 -0.00000000000E+00 -0.63498656282E+02  0.63498656282E+02  0.00000000000E+00 0.  1.
         25    2    1    2    0    0  0.13461322379E+03 -0.47232619080E+02  0.50040674097E+03  0.53516981273E+03  0.12509269254E+03 0.  0.
          5    1    3    3  502    0  0.11657882706E+03 -0.76594488016E+02  0.46539728247E+03  0.48586977828E+03  0.41800000000E+01 0. -1.
         -5    1    3    3    0  502  0.18034396723E+02  0.29361868936E+02  0.35009458499E+02  0.49300034452E+02  0.41800000000E+01 0. -1.
        -11    1    1    2    0    0 -0.32670688175E+02  0.36985767693E+02 -0.50340067127E+01  0.49605061246E+02  0.00000000000E+00 0. -1.
         11    1    1    2    0    0 -0.10194253561E+03  0.10246851388E+02  0.12081180670E+03  0.15840697954E+03  0.00000000000E+00 0.  1.
</event>
<event>
 7    1  0.2714042E-009  0.1035376E+03  0.7561462E-02  0.1273028E+00
          1   -1    0    0  501    0  0.00000000000E+00  0.00000000000E+00  0.16215297219E+03  0.16215297219E+03  0.00000000000E+00 0. -1.
         -1   -1    0    0    0  501 -0.00000000000E+00 -0.00000000000E+00 -0.91054604364E+02  0.91054604364E+02  0.00000000000E+00 0.  1.
         25    2    1    2    0    0  0.28992119685E+02  0.46969165928E+02  0.48086932248E+02  0.14493516782E+03  0.12508878553E+03 0.  0.
          5    1    3    3  502    0 -0.23584277613E+02  0.55138556464E+02 -0.15338431602E+02  0.62042069949E+02  0.41800000000E+01 0. -1.
         -5    1    3    3    0  502  0.52576397298E+02 -0.81693905360E+01  0.63425363850E+02  0.82893097868E+02  0.41800000000E+01 0. -1.
        -11    1    1    2    0    0  0.10692394278E+02 -0.52448028618E+02 -0.12241772618E+02  0.54908869941E+02  0.00000000000E+00 0.  1.
         11    1    1    2    0    0 -0.39684513963E+02  0.54788626898E+01  0.35253208197E+02  0.53363538797E+02  0.00000000000E+00 0. -1.
</event>
<event>
 7    1  0.2714042E-009  0.1055240E+03  0.7561462E-02  0.1269091E+00
         -2   -1    0    0    0  501 -0.00000000000E+00  0.00000000000E+00  0.84148335598E+02  0.84148335598E+02  0.00000000000E+00 0. -1.
          2   -1    0    0  501    0  0.00000000000E+00 -0.00000000000E+00 -0.21563522239E+03  0.21563522239E+03  0.00000000000E+00 0.  1.
         25    2    1    2    0    0  0.38290609082E+02 -0.35495663773E+01  0.51057632625E+01  0.13096624219E+03  0.12508923858E+03 0.  0.
          5    1    3    3  502    0 -0.41114637766E+02 -0.14526394330E+02  0.21875911215E+02  0.48963838313E+02  0.41800000000E+01 0. -1.
         -5    1    3    3    0  502  0.79405246848E+02  0.10976827953E+02 -0.16770147953E+02  0.82002403875E+02  0.41800000000E+01 0. -1.
        -11    1    1    2    0    0  0.55466945044E+01 -0.30791193847E+02 -0.92926457215E+02  0.98051975447E+02  0.00000000000E+00 0. -1.
         11    1    1    2    0    0 -0.43837303587E+02  0.34340760224E+02 -0.43666192843E+02  0.70765340358E+02  0.00000000000E+00 0.  1.
</event>
<event>
 7    1  0.2714042E-009  0.1452321E+03  0.7561462E-02  0.1206457E+00
         -3   -1    0    0    0  501 -0.00000000000E+00  0.00000000000E+00  0.39585128677E+03  0.39585128677E+03  0.00000000000E+00 0.  1.
          3   -1    0    0  501    0  0.00000000000E+00 -0.00000000000E+00 -0.57986020151E+02  0.57986020151E+02  0.00000000000E+00 0. -1.
         25    2    1    2    0    0 -0.78428402693E+02 -0.68292143786E+02  0.16477699269E+03  0.23154623286E+03  0.12508944552E+03 0.  0.
          5    1    3    3  502    0  0.23740737730E+02  0.16967644795E+02  0.32272822097E+02  0.43709621869E+02  0.41800000000E+01 0. -1.
         -5    1    3    3    0  502 -0.10216914042E+03 -0.85259788581E+02  0.13250417059E+03  0.18783661099E+03  0.41800000000E+01 0. -1.
        -11    1    1    2    0    0  0.83316171632E+02  0.28946861040E+02  0.15580872523E+03  0.17904151495E+03  0.00000000000E+00 0.  1.
         11    1    1    2    0    0 -0.48877689384E+01  0.39345282746E+02  0.17279548697E+02  0.43249559104E+02  0.00000000000E+00 0. -1.
</event>
<event>
 7    1  0.2714042E-009  0.6516828E+02  0.7561462E-02  0.1377340E+00
         -1   -1    0    0    0  501 -0.00000000000E+00  0.00000000000E+00  0.45413100288E+03  0.45413100288E+03  0.00000000000E+00 0.  1.
          1   -1    0    0  501    0  0.00000000000E+00 -0.00000000000E+00 -0.24310117289E+02  0.24310117289E+02  0.00000000000E+00 0. -1.
         25    2    1    2    0    0 -0.87959449446E+01  0.94128394357E+01  0.25867757892E+03  0.28762456331E+03  0.12509128424E+03 0.  0.
          5    1    3    3  502    0  0.26075302118E+02  0.22824141530E+02  0.10264173176E+02  0.36382529710E+02  0.41800000000E+01 0.  1.
         -5    1    3    3    0  502 -0.34871247063E+02 -0.13411302094E+02  0.24841340575E+03  0.25124203360E+03  0.41800000000E+01 0.  1.
        -11    1    1    2    0    0  0.17440547957E+02 -0.30451391104E+02  0.16287894977E+03  0.16661636238E+03  0.00000000000E+00 0.  1.
         11    1    1    2    0    0 -0.86446030123E+01  0.21038551668E+02  0.82643568919E+01  0.24200194470E+02  0.00000000000E+00 0. -1.
</event>
<event>
 7    1  0.2714042E-009  0.1117920E+03  0.7561462E-02  0.1257287E+00
         -3   -1    0    0    0  501 -0.00000000000E+00  0.00000000000E+00  0.20946096651E+03  0.20946096651E+03  0.00000000000E+00 0.  1.
          3   -1    0    0  501    0  0.00000000000E+00 -0.00000000000E+00 -0.65396647864E+02  0.65396647864E+02  0.00000000000E+00 0. -1.
         25    2    1    2    0    0 -0.38341934083E+02  0.28551688531E+02  0.74661692089E+02  0.15331677300E+03  0.12508541798E+03 0.  0.
          5    1    3    3  502    0  0.43526546080E+02  0.55418779941E+01  0.71433079028E+01  0.44651672681E+02  0.41800000000E+01 0. -1.
         -5    1    3    3    0  502 -0.81868480163E+02  0.23009810537E+02  0.67518384186E+02  0.10866510032E+03  0.41800000000E+01 0. -1.
        -11    1    1    2    0    0  0.50522372919E+02  0.12079654204E+02  0.57489111263E+02  0.77481779309E+02  0.00000000000E+00 0. -1.
         11    1    1    2    0    0 -0.12180438836E+02 -0.40631342736E+02  0.11913515291E+02  0.44059062057E+02  0.00000000000E+00 0.  1.
</event>
<event>
 7    1  0.2714042E-009  0.2777071E+03  0.7561462E-02  0.1096948E+00
         -1   -1    0    0    0  501 -0.00000000000E+00  0.00000000000E+00  0.77524041469E+02  0.77524041469E+02  0.00000000000E+00 0.  1.
          1   -1    0    0  501    0  0.00000000000E+00 -0.00000000000E+00 -0.11830264053E+04  0.11830264053E+04  0.00000000000E+00 0. -1.
         25    2    1    2    0    0 -0.10868198681E+03 -0.23927558607E+03 -0.35006738990E+03  0.45525784107E+03  0.12509174249E+03 0.  0.
          5    1    3    3  502    0 -0.90964869235E+02 -0.71933544032E+02 -0.19201114817E+03  0.22435417449E+03  0.41800000000E+01 0. -1.
         -5    1    3    3    0  502 -0.17717117578E+02 -0.16734204203E+03 -0.15805624173E+03  0.23090366657E+03  0.41800000000E+01 0. -1.
        -11    1    1    2    0    0  0.85923488087E+02  0.10901608552E+03 -0.29117399774E+03  0.32256727929E+03  0.00000000000E+00 0.  1.
         11    1    1    2    0    0  0.22758498725E+02  0.13025950054E+03 -0.46426097620E+03  0.48272532642E+03  0.00000000000E+00 0. -1.
</event>
<event>
 7    1  0.2714042E-009  0.1021230E+03  0.7561462E-02  0.1275894E+00
         -1   -1    0    0    0  501 -0.00000000000E+00  0.00000000000E+00  0.27545829766E+02  0.27545829766E+02  0.00000000000E+00 0.  1.
          1   -1    0    0  501    0  0.00000000000E+00 -0.00000000000E+00 -0.66707634312E+03  0.66707634312E+03  0.00000000000E+00 0. -1.
         25    2    1    2    0    0 -0.33936442234E+02  0.59561983771E+02 -0.46185213693E+03  0.48337838506E+03  0.12509178521E+03 0.  0.
          5    1    3    3  502    0  0.35379712766E+02  0.41808599641E+02 -0.96286255048E+02  0.11085214653E+03  0.41800000000E+01 0.  1.
         -5    1    3    3    0  502 -0.69316154999E+02  0.17753384130E+02 -0.36556588188E+03  0.37252623853E+03  0.41800000000E+01 0.  1.
        -11    1    1    2    0    0  0.27178951998E+01 -0.41471565232E+02 -0.14335693561E+02  0.43963505172E+02  0.00000000000E+00 0.  1.
         11    1    1    2    0    0  0.31218547034E+02 -0.18090418539E+02 -0.16334268286E+03  0.16728028265E+03  0.00000000000E+00 0. -1.
</event>
<event>
 7    1  0.2714042E-009  0.9247663E+02  0.7561462E-02  0.1296963E+00
          1   -1    0    0  501    0  0.00000000000E+00  0.00000000000E+00  0.80917167428E+02  0.80917167428E+02  0.00000000000E+00 0. -1.
         -1   -1    0    0    0  501 -0.00000000000E+00 -0.00000000000E+00 -0.15689992714E+03  0.15689992714E+03  0.00000000000E+00 0.  1.
         25    2    1    2    0    0  0.12198085428E+02 -0.21483489277E+02 -0.18825538243E+02  0.12888440038E+03  0.12508578725E+03 0.  0.
          5    1    3    3  502    0 -0.12231102165E+02  0.39358559867E+02  0.26402399394E+02  0.49124893778E+02  0.41800000000E+01 0.  1.
         -5    1    3    3    0  502  0.24429187593E+02 -0.60842049144E+02 -0.45227937638E+02  0.79759506602E+02  0.41800000000E+01 0.  1.
        -11    1    1    2    0    0  0.29579233048E+02 -0.24542774039E+01  0.52172140632E+01  0.30135922549E+02  0.00000000000E+00 0.  1.
         11    1    1    2    0    0 -0.41777318476E+02  0.23937766681E+02 -0.62374435533E+02  0.78796771639E+02  0.00000000000E+00 0. -1.
</event>
<event>
 7    1  0.2714042E-009  0.9802274E+02  0.7561462E-02  0.1284510E+00
         -3   -1    0    0    0  501 -0.00000000000E+00  0.00000000000E+00  0.61717878333E+03  0.61717878333E+03  0.00000000000E+00 0.  1.
          3   -1    0    0  501    0  0.00000000000E+00 -0.00000000000E+00 -0.27390929177E+02  0.27390929177E+02  0.00000000000E+00 0. -1.
         25    2    1    2    0    0 -0.57869559260E+02 -0.47997643470E+02  0.33071860744E+03  0.36148918743E+03  0.12508787173E+03 0.  0.
          5    1    3    3  502    0 -0.73132354809E+02 -0.40351603954E+02  0.33338360235E+03  0.34371309545E+03  0.41800000000E+01 0.  1.
         -5    1    3    3    0  502  0.15262795548E+02 -0.76460395157E+01 -0.26649949182E+01  0.17776091982E+02  0.41800000000E+01 0.  1.
        -11    1    1    2    0    0  0.55603756311E-01  0.35740772229E+02  0.18451008783E+03  0.18793982654E+03  0.00000000000E+00 0.  1.
         11    1    1    2    0    0  0.57813955504E+02  0.12256871241E+02  0.74559158887E+02  0.95140698534E+02  0.00000000000E+00 0. -1.
</event>
<event>
 7    1  0.2714042E-009  0.9393009E+02  0.7561462E-02  0.1293604E+00
         -2   -1    0    0    0  501 -0.00000000000E+00  0.00000000000E+00  0.17365880938E+03  0.17365880938E+03  0.00000000000E+00 0.  1.
          2   -1    0    0  501    0  0.00000000000E+00 -0.00000000000E+00 -0.26194949833E+03  0.26194949833E+03  0.00000000000E+00 0. -1.
         25    2    1    2    0    0  0.64822654811E+02  0.11121335651E+02 -0.21956835989E+03  0.26112026083E+03  0.12509142763E+03 0.  0.
          5    1    3    3  502    0  0.76100828894E+02 -0.52611907284E+00 -0.50963760616E+02  0.91686368975E+02  0.41800000000E+01 0.  1.
         -5    1    3    3    0  502 -0.11278174083E+02  0.11647454724E+02 -0.16860459927E+03  0.16943389185E+03  0.41800000000E+01 0.  1.
        -11    1    1    2    0    0  0.14526844163E+02 -0.47976981802E+01 -0.54803718420E+01  0.16250587210E+02  0.00000000000E+00 0. -1.
         11    1    1    2    0    0 -0.79349498974E+02 -0.63236374708E+01  0.13675804278E+03  0.15823745967E+03  0.00000000000E+00 0.  1.
</event>
<event>
 7    1  0.2714042E-009  0.9595073E+02  0.7561462E-02  0.1289049E+00
         -2   -1    0    0    0  501 -0.00000000000E+00  0.00000000000E+00  0.14374701852E+02  0.14374701852E+02  0.00000000000E+00 0. -1.
          2   -1    0    0  501    0  0.00000000000E+00 -0.00000000000E+00 -0.70975975674E+03  0.70975975674E+03  0.00000000000E+00 0.  1.
         25    2    1    2    0    0 -0.27858041396E+02  0.48733511446E+02 -0.42302506672E+03  0.44468911349E+03  0.12508866846E+03 0.  0.
          5    1    3    3  502    0  0.28476377117E+02 -0.24868785796E+02 -0.19196049266E+03  0.19569277887E+03  0.41800000000E+01 0. -1.
         -5    1    3    3    0  502 -0.56334418513E+02  0.73602297243E+02 -0.23106457407E+03  0.24899633463E+03  0.41800000000E+01 0. -1.
        -11    1    1    2    0    0  0.59478689322E+01 -0.34378315811E+02 -0.18425183644E+03  0.18752595814E+03  0.00000000000E+00 0. -1.
         11    1    1    2    0    0  0.21910172464E+02 -0.14355195635E+02 -0.88108151722E+02  0.91919386959E+02  0.00000000000E+00 0.  1.
</event>
<event>
 7    1  0.2714042E-009  0.1380012E+03  0.7561462E-02  0.1216044E+00
          1   -1    0    0  501    0  0.00000000000E+00  0.00000000000E+00  0.26653796708E+03  0.26653796708E+03  0.00000000000E+00 0. -1.
         -1   -1    0    0    0  501 -0.00000000000E+00 -0.00000000000E+00 -0.84392534099E+02  0.84392534099E+02  0.00000000000E+00 0.  1.
         25    2    1    2    0    0 -0.77730982615E+02 -0.67158808766E+02  0.97535996796E+02  0.18898157074E+03  0.12509337375E+03 0.  0.
          5    1    3    3  502    0 -0.90140119947E+02 -0.80853452592E+02  0.11211455689E+03  0.16507473546E+03  0.41800000000E+01 0. -1.
         -5    1    3    3    0  502  0.12409137332E+02  0.13694643826E+02 -0.14578560096E+02  0.23906835285E+02  0.41800000000E+01 0. -1.
        -11    1    1    2    0    0  0.36800106800E+02  0.83943299587E+02  0.43093228671E+02  0.10128055965E+03  0.00000000000E+00 0.  1.
         11    1    1    2    0    0  0.40930875815E+02 -0.16784490822E+02  0.41516207515E+02  0.60668370784E+02  0.00000000000E+00 0. -1.
</event>
<event>
 7    1  0.2714042E-009  0.3315849E+03  0.7561462E-02  0.1070438E+00
          2   -1    0    0  501    0  0.00000000000E+00  0.00000000000E+00  0.70544739487E+03  0.70544739487E+03  0.00000000000E+00 0. -1.
         -2   -1    0    0    0  501 -0.00000000000E+00 -0.00000000000E+00 -0.17633120329E+03  0.17633120329E+03  0.00000000000E+00 0.  1.
         25    2    1    2    0    0  0.25378657150E+03  0.19606473495E+03  0.39106953029E+03  0.52099388654E+03  0.12510095176E+03 0.  0.
          5    1    3    3  502    0  0.16399902804E+03  0.71918111495E+02  0.14216430252E+03  0.22868331218E+03  0.41800000000E+01 0.  1.
         -5    1    3    3    0  502  0.89787543466E+02  0.12414662345E+03  0.24890522776E+03  0.29231057436E+03  0.41800000000E+01 0.  1.
        -11    1    1    2    0    0 -0.20576085850E+03 -0.11279415795E+03  0.11775862683E+03  0.26253980108E+03  0.00000000000E+00 0.  1.
         11    1    1    2    0    0 -0.48025713004E+02 -0.83270577000E+02  0.20288034464E+02  0.98244910534E+02  0.00000000000E+00 0. -1.
</event>
<event>
 7    1  0.2714042E-009  0.2147344E+03  0.7561462E-02  0.1137871E+00
         -1   -1    0    0    0  501 -0.00000000000E+00  0.00000000000E+00  0.18523851167E+03  0.18523851167E+03  0.00000000000E+00 0.  1.
          1   -1    0    0  501    0  0.00000000000E+00 -0.00000000000E+00 -0.27029756401E+03  0.27029756401E+03  0.00000000000E+00 0. -1.
         25    2    1    2    0    0 -0.16617799717E+03  0.10127231003E+03 -0.75671897726E+02  0.24340291640E+03  0.12509011185E+03 0.  0.
          5    1    3    3  502    0 -0.15590340854E+03  0.45931635446E+02 -0.19456750446E+02  0.16374255851E+03  0.41800000000E+01 0. -1.
         -5    1    3    3    0  502 -0.10274588628E+02  0.55340674588E+02 -0.56215147279E+02  0.79660357889E+02  0.41800000000E+01 0. -1.
        -11    1    1    2    0    0  0.19491120229E+02 -0.52276309228E+02 -0.13588924799E+02  0.57422775546E+02  0.00000000000E+00 0. -1.
         11    1    1    2    0    0  0.14668687694E+03 -0.48996000806E+02  0.42017701778E+01  0.15471038373E+03  0.00000000000E+00 0.  1.
</event>
<event>
 7    1  0.2714042E-009  0.1032720E+03  0.7561462E-02  0.1273562E+00
         -1   -1    0    0    0  501 -0.00000000000E+00  0.00000000000E+00  0.53176650301E+02  0.53176650301E+02  0.00000000000E+00 0.  1.
          1   -1    0    0  501    0  0.00000000000E+00 -0.00000000000E+00 -0.25189453200E+03  0.25189453200E+03  0.00000000000E+00 0. -1.
         25    2    1    2    0    0  0.33133229130E+02  0.29416421945E+02 -0.12598425903E+03  0.18298089430E+03  0.12508731911E+03 0.  0.
          5    1    3    3  502    0  0.30402470976E+02 -0.45560568576E+02 -0.35684251561E+02  0.65505067437E+02  0.41800000000E+01 0. -1.
         -5    1    3    3    0  502  0.27307581539E+01  0.74976990522E+02 -0.90300007468E+02  0.11747582686E+03  0.41800000000E+01 0. -1.
        -11    1    1    2    0    0 -0.34668614965E+02  0.10731341265E+02  0.29420798554E+01  0.36410580644E+02  0.00000000000E+00 0.  1.
         11    1    1    2    0    0  0.15353858356E+01 -0.40147763210E+02 -0.75675702530E+02  0.85679707363E+02  0.00000000000E+00 0. -1.
</event>
<event>
 7    1  0.2714042E-009  0.1066670E+03  0.7561462E-02  0.1266870E+00
          2   -1    0    0  501    0  0.00000000000E+00  0.00000000000E+00  0.43443834334E+03  0.43443834334E+03  0.00000000000E+00 0.  1.
         -2   -1    0    0    0  501 -0.00000000000E+00 -0.00000000000E+00 -0.31155271266E+02  0.31155271266E+02  0.00000000000E+00 0. -1.
         25    2    1    2    0    0  0.73622547526E+01  0.34074391866E+02  0.20210922556E+03  0.24024009583E+03  0.12510754418E+03 0.  0.
          5    1    3    3  502    0 -0.57797769060E+02  0.24314053204E+02  0.83645318847E+02  0.10462201994E+03  0.41800000000E+01 0.  1.
         -5    1    3    3    0  502  0.65160023812E+02  0.97603386620E+01  0.11846390672E+03  0.13561807589E+03  0.41800000000E+01 0.  1.
        -11    1    1    2    0    0 -0.14024288183E+02 -0.57981634562E+02  0.18803789577E+03  0.19727341648E+03  0.00000000000E+00 0.  1.
         11    1    1    2    0    0  0.66620334301E+01  0.23907242695E+02  0.13135950740E+02  0.28080102289E+02  0.00000000000E+00 0. -1.
</event>
<event>
 7    1  0.2714042E-009  0.5756442E+02  0.7561462E-02  0.1408347E+00
         -1   -1    0    0    0  501 -0.00000000000E+00  0.00000000000E+00  0.24226091403E+03  0.24226091403E+03  0.00000000000E+00 0.  1.
          1   -1    0    0  501    0  0.00000000000E+00 -0.00000000000E+00 -0.54213886091E+02  0.54213886091E+02  0.00000000000E+00 0. -1.
         25    2    1    2    0    0 -0.61426584320E+01  0.20461477822E+02  0.66987992041E+02  0.14349865276E+03  0.12509223773E+03 0.  0.
          5    1    3    3  502    0  0.20203833776E+02  0.10805850725E+02 -0.32534511930E+02  0.40011600513E+02  0.41800000000E+01 0. -1.
         -5    1    3    3    0  502 -0.26346492207E+02  0.96556270972E+01  0.99522503971E+02  0.10348705225E+03  0.41800000000E+01 0. -1.
        -11    1    1    2    0    0 -0.25597045342E+02  0.19793595595E+00  0.11083033182E+03  0.11374801255E+03  0.00000000000E+00 0.  1.
         11    1    1    2    0    0  0.31739703774E+02 -0.20659413778E+02  0.10228704082E+02  0.39228134808E+02  0.00000000000E+00 0. -1.
</event>
<event>
 7    1  0.2714042E-009  0.1117584E+03  0.7561462E-02  0.1257348E+00
          4   -1    0    0  501    0  0.00000000000E+00  0.00000000000E+00  0.12681767606E+03  0.12681767606E+03  0.00000000000E+00 0. -1.
         -4   -1    0    0    0  501 -0.00000000000E+00 -0.00000000000E+00 -0.23973303331E+03  0.23973303331E+03  0.00000000000E+00 0.  1.
         25    2    1    2    0    0  0.16491684249E+02 -0.44530536008E+02 -0.19284580028E+03  0.23471659843E+03  0.12508970624E+03 0.  0.
          5    1    3    3  502    0 -0.35286203321E+02  0.21333973685E+02 -0.10674609304E+03  0.11450962998E+03  0.41800000000E+01 0. -1.
         -5    1    3    3    0  502  0.51777887570E+02 -0.65864509693E+02 -0.86099707240E+02  0.12020696845E+03  0.41800000000E+01 0. -1.
        -11    1    1    2    0    0  0.12327434558E+02 -0.22259302420E+02  0.24574434068E+01  0.25563278645E+02  0.00000000000E+00 0.  1.
         11    1    1    2    0    0 -0.28819118807E+02  0.66789838428E+02  0.77472999623E+02  0.10627083230E+03  0.00000000000E+00 0. -1.
</event>
<event>
 7    1  0.2714042E-009  0.8768837E+02  0.7561462E-02  0.1308548E+00
         -1   -1    0    0    0  501 -0.00000000000E+00  0.00000000000E+00  0.23886087127E+03  0.23886087127E+03  0.00000000000E+00 0.  1.
          1   -1    0    0  501    0  0.00000000000E+00 -0.00000000000E+00 -0.99150914601E+02  0.99150914601E+02  0.00000000000E+00 0. -1.
         25    2    1    2    0    0  0.18659548331E+02  0.32326975640E+02 -0.36631682496E+02  0.13558413688E+03  0.12509182992E+03 0.  0.
          5    1    3    3  502    0  0.18859322431E+02  0.65478157248E+02  0.18845259186E+02  0.70821460822E+02  0.41800000000E+01 0. -1.
         -5    1    3    3    0  502 -0.19977410060E+00 -0.33151181608E+02 -0.55476941682E+02  0.64762676057E+02  0.41800000000E+01 0. -1.
        -11    1    1    2    0    0 -0.14290310702E+02  0.18109635900E+02  0.13530938622E+03  0.13726180055E+03  0.00000000000E+00 0.  1.
         11    1    1    2    0    0 -0.43692376288E+01 -0.50436611540E+02  0.41032252951E+02  0.65165848443E+02  0.00000000000E+00 0. -1.
</event>
<event>
 7    1  0.2714042E-009  0.1674768E+03  0.7561462E-02  0.1180505E+00
         -2   -1    0    0    0  501 -0.00000000000E+00  0.00000000000E+00  0.53786690155E+02  0.53786690155E+02  0.00000000000E+00 0.  1.
          2   -1    0    0  501    0  0.00000000000E+00 -0.00000000000E+00 -0.74796345054E+03  0.74796345054E+03  0.00000000000E+00 0. -1.
         25    2    1    2    0    0  0.16541042221E+03 -0.15921400486E+01 -0.29133399799E+03  0.35761146812E+03  0.12508925237E+03 0.  0.
          5    1    3    3  502    0  0.14480676218E+03 -0.29696402042E-01 -0.12919513290E+03  0.19410784122E+03  0.41800000000E+01 0. -1.
         -5    1    3    3    0  502  0.20603660023E+02 -0.15624436465E+01 -0.16213886509E+03  0.16350362690E+03  0.41800000000E+01 0. -1.
        -11    1    1    2    0    0 -0.74222245573E+02  0.17948937652E+02 -0.90839282019E+02  0.11867131607E+03  0.00000000000E+00 0.  1.
         11    1    1    2    0    0 -0.91188176634E+02 -0.16356797603E+02 -0.31200348037E+03  0.32546735651E+03  0.00000000000E+00 0. -1.
</event>
<event>
 7    1  0.2714042E-009  0.9038162E+02  0.7561462E-02  0.1301930E+00
          1   -1    0    0  501    0  0.00000000000E+00  0.00000000000E+00  0.55097676818E+03  0.55097676818E+03  0.00000000000E+00 0. -1.
         -1   -1    0    0    0  501 -0.00000000000E+00 -0.00000000000E+00 -0.39724218225E+02  0.39724218225E+02  0.00000000000E+00 0.  1.
         25    2    1    2    0    0 -0.80926287606E+01 -0.26836203874E+02  0.46508338576E+03  0.48242729629E+03  0.12509143860E+03 0.  0.
          5    1    3    3  502    0  0.27593395637E+02  0.16480198551E+02  0.37371081711E+03  0.37511363565E+03  0.41800000000E+01 0.  1.
         -5    1    3    3    0  502 -0.35686024397E+02 -0.43316402425E+02  0.91372568653E+02  0.10731366063E+03  0.41800000000E+01 0.  1.
        -11    1    1    2    0    0  0.31417486028E+02  0.50096532395E+02  0.11110980456E+02  0.60167889052E+02  0.00000000000E+00 0.  1.
         11    1    1    2    0    0 -0.23324857267E+02 -0.23260328520E+02  0.35058183732E+02  0.48105801064E+02  0.00000000000E+00 0. -1.
</event>
<event>
 7    1  0.2714042E-009  0.8574500E+02  0.7561462E-02  0.1313496E+00
          1   -1    0    0  501    0  0.00000000000E+00  0.00000000000E+00  0.53781907210E+02  0.53781907210E+02  0.00000000000E+00 0. -1.
         -1   -1    0    0    0  501 -0.00000000000E+00 -0.00000000000E+00 -0.30220283362E+03  0.30220283362E+03  0.00000000000E+00 0.  1.
         25    2    1    2    0    0  0.19614825986E+02 -0.31443094730E+02 -0.21321326015E+03  0.24996233194E+03  0.12509142049E+03 0.  0.
          5    1    3    3  502    0 -0.71210096764E+01 -0.45986024949E+02 -0.21418942161E+03  0.21922592000E+03  0.41800000000E+01 0.  1.
         -5    1    3    3    0  502  0.26735835663E+02  0.14542930219E+02  0.97616146092E+00  0.30736411943E+02  0.41800000000E+01 0.  1.
        -11    1    1    2    0    0 -0.33648944894E+02  0.56249878576E+02 -0.69940175068E+01  0.65918257055E+02  0.00000000000E+00 0. -1.
         11    1    1    2    0    0  0.14034118908E+02 -0.24806783846E+02 -0.28213648759E+02  0.40104151838E+02  0.00000000000E+00 0.  1.
</event>
<event>
 7    1  0.2714042E-009  0.9061425E+02  0.7561462E-02  0.1301371E+00
         -3   -1    0    0    0  501 -0.00000000000E+00  0.00000000000E+00  0.17182333723E+03  0.17182333723E+03  0.00000000000E+00 0.  1.
          3   -1    0    0  501    0  0.00000000000E+00 -0.00000000000E+00 -0.83245815813E+02  0.83245815813E+02  0.00000000000E+00 0. -1.
         25    2    1    2    0    0 -0.41154769059E+02 -0.15143715596E+02  0.18289081792E+02  0.13381525918E+03  0.12509590696E+03 0.  0.
          5    1    3    3  502    0 -0.39411801522E+02  0.36247536772E+02  0.49898744539E+02  0.73311193742E+02  0.41800000000E+01 0. -1.
         -5    1    3    3    0  502 -0.17429675363E+01 -0.51391252368E+02 -0.31609662747E+02  0.60504065440E+02  0.41800000000E+01 0. -1.
        -11    1    1    2    0    0  0.36208200409E+02 -0.19369343885E+02 -0.18780903572E+01  0.41106355747E+02  0.00000000000E+00 0. -1.
         11    1    1    2    0    0  0.49465686492E+01  0.34513059481E+02  0.72166529981E+02  0.80147538114E+02  0.00000000000E+00 0.  1.
</event>
<event>
 7    1  0.2714042E-009  0.7966513E+02  0.7561462E-02  0.1330004E+00
         -1   -1    0    0    0  501 -0.00000000000E+00  0.00000000000E+00  0.12744475174E+03  0.12744475174E+03  0.00000000000E+00 0.  1.
          1   -1    0    0  501    0  0.00000000000E+00 -0.00000000000E+00 -0.10903730661E+03  0.10903730661E+03  0.00000000000E+00 0. -1.
         25    2    1    2    0    0  0.22724968291E+02  0.18146068247E+02  0.36846764578E+02  0.13359651494E+03  0.12507853839E+03 0.  0.
          5    1    3    3  502    0  0.42116319067E+02  0.33292481811E+02 -0.30421453374E+02  0.61847480969E+02  0.41800000000E+01 0.  1.
         -5    1    3    3    0  502 -0.19391350775E+02 -0.15146413563E+02  0.67268217953E+02  0.71749033967E+02  0.41800000000E+01 0.  1.
        -11    1    1    2    0    0 -0.32969329509E+02  0.21642021526E+02  0.22065234710E+02  0.45191020864E+02  0.00000000000E+00 0.  1.
         11    1    1    2    0    0  0.10244361217E+02 -0.39788089773E+02 -0.40504554154E+02  0.57694522546E+02  0.00000000000E+00 0. -1.
</event>
<event>
 7    1  0.2714042E-009  0.1050189E+03  0.7561462E-02  0.1270082E+00
          2   -1    0    0  501    0  0.00000000000E+00  0.00000000000E+00  0.25746256911E+03  0.25746256911E+03  0.00000000000E+00 0. -1.
         -2   -1    0    0    0  501 -0.00000000000E+00 -0.00000000000E+00 -0.94154566696E+02  0.94154566696E+02  0.00000000000E+00 0.  1.
         25    2    1    2    0    0  0.51957838490E+01  0.20187225640E+02  0.20535301640E+03  0.24135351360E+03  0.12508851640E+03 0.  0.
          5    1    3    3  502    0 -0.15391101515E+02  0.63071992320E+02  0.60532446927E+02  0.88862881745E+02  0.41800000000E+01 0.  1.
         -5    1    3    3    0  502  0.20586885364E+02 -0.42884766679E+02  0.14482056947E+03  0.15249063185E+03  0.41800000000E+01 0.  1.
        -11    1    1    2    0    0 -0.18582620028E+02  0.35437536056E+02 -0.13189393783E+01  0.40035888025E+02  0.00000000000E+00 0.  1.
         11    1    1    2    0    0  0.13386836179E+02 -0.55624761697E+02 -0.40726074600E+02  0.70227734187E+02  0.00000000000E+00 0. -1.
</event>
<event>
 7    1  0.2714042E-009  0.1242056E+03  0.7561462E-02  0.1236316E+00
          2   -1    0    0  501    0  0.00000000000E+00  0.00000000000E+00  0.66449316650E+02  0.66449316650E+02  0.00000000000E+00 0. -1.
         -2   -1    0    0    0  501 -0.00000000000E+00 -0.00000000000E+00 -0.33170664804E+03  0.33170664804E+03  0.00000000000E+00 0.  1.
         25    2    1    2    0    0 -0.99814943273E+02  0.10307430899E+02 -0.13374340083E+03  0.20881520899E+03  0.12508888124E+03 0.  0.
          5    1    3    3  502    0 -0.36262112524E+02  0.55940093198E+02 -0.18233836115E+02  0.69240017412E+02  0.41800000000E+01 0. -1.
         -5    1    3    3    0  502 -0.63552830748E+02 -0.45632662299E+02 -0.11550956471E+03  0.13957519158E+03  0.41800000000E+01 0. -1.
        -11    1    1    2    0    0  0.55472896248E+02 -0.17875079505E+02 -0.13206578601E+03  0.14435419121E+03  0.00000000000E+00 0.  1.
         11    1    1    2    0    0  0.44342047024E+02  0.75676486053E+01  0.55185544994E+00  0.44986564485E+02  0.00000000000E+00 0. -1.
</event>
<event>
 7    1  0.2714042E-009  0.9551751E+02  0.7561462E-02  0.1290015E+00
         -2   -1    0    0    0  501 -0.00000000000E+00  0.00000000000E+00  0.12866631348E+03  0.12866631348E+03  0.00000000000E+00 0.  1.
          2   -1    0    0  501    0  0.00000000000E+00 -0.00000000000E+00 -0.14354650834E+03  0.14354650834E+03  0.00000000000E+00 0. -1.
         25    2    1    2    0    0 -0.20431295104E+02 -0.59243193347E+02 -0.61573673565E+02  0.15285927795E+03  0.12508975898E+03 0.  0.
          5    1    3    3  502    0 -0.51695995420E+02 -0.54354105530E+02 -0.84867652521E+02  0.11334388195E+03  0.41800000000E+01 0. -1.
         -5    1    3    3    0  502  0.31264700316E+02 -0.48890878169E+01  0.23293978955E+02  0.39515396001E+02  0.41800000000E+01 0. -1.
        -11    1    1    2    0    0 -0.18874915258E+02  0.11332077643E+02 -0.18972429063E+02  0.29062544181E+02  0.00000000000E+00 0. -1.
         11    1    1    2    0    0  0.39306210362E+02  0.47911115704E+02  0.65665907768E+02  0.90290999684E+02  0.00000000000E+00 0.  1.
</event>
<event>
 7    1  0.2714042E-009  0.1123053E+03  0.7561462E-02  0.1256359E+00
         -2   -1    0    0    0  501 -0.00000000000E+00  0.00000000000E+00  0.16993039756E+02  0.16993039756E+02  0.00000000000E+00 0.  1.
          2   -1    0    0  501    0  0.00000000000E+00 -0.00000000000E+00 -0.87458862731E+03  0.87458862731E+03  0.00000000000E+00 0. -1.
         25    2    1    2    0    0  0.43919246309E+02 -0.27265704270E+02 -0.40536082447E+03  0.42735985502E+03  0.12508688518E+03 0.  0.
          5    1    3    3  502    0 -0.13100565723E+02  0.36275718005E+02 -0.21796255238E+03  0.22138811888E+03  0.41800000000E+01 0. -1.
         -5    1    3    3    0  502  0.57019812032E+02 -0.63541422275E+02 -0.18739827208E+03  0.20597173614E+03  0.41800000000E+01 0. -1.
        -11    1    1    2    0    0  0.21908376866E+02 -0.10664279184E+02 -0.61145495635E+02  0.65821542551E+02  0.00000000000E+00 0.  1.
         11    1    1    2    0    0 -0.65827623175E+02  0.37929983454E+02 -0.39108926745E+03  0.39840026950E+03  0.00000000000E+00 0. -1.
</event>
<event>
 7    1  0.2714042E-009  0.9255614E+02  0.7561462E-02  0.1296777E+00
          2   -1    0    0  501    0  0.00000000000E+00  0.00000000000E+00  0.66915174041E+03  0.66915174041E+03  0.00000000000E+00 0. -1.
         -2   -1    0    0    0  501 -0.00000000000E+00 -0.00000000000E+00 -0.21317588774E+02  0.21317588774E+02  0.00000000000E+00 0.  1.
         25    2    1    2    0    0  0.26449601261E+01  0.17242350095E+02  0.51181477873E+03  0.52716357220E+03  0.12507105853E+03 0.  0.
          5    1    3    3  502    0  0.62933439730E+02  0.37614042419E+01  0.22251700729E+03  0.23131376296E+03  0.41800000000E+01 0. -1.
         -5    1    3    3    0  502 -0.60288479604E+02  0.13480945853E+02  0.28929777144E+03  0.29584980925E+03  0.41800000000E+01 0. -1.
        -11    1    1    2    0    0  0.10095044770E+02  0.19042618719E+02  0.11953933214E+03  0.12146679869E+03  0.00000000000E+00 0. -1.
         11    1    1    2    0    0 -0.12740004896E+02 -0.36284968814E+02  0.16480040762E+02  0.41838958282E+02  0.00000000000E+00 0.  1.
</event>
<event>
 7    1  0.2714042E-009  0.1013423E+03  0.7561462E-02  0.1277498E+00
         -1   -1    0    0    0  501 -0.00000000000E+00  0.00000000000E+00  0.29204449156E+02  0.29204449156E+02  0.00000000000E+00 0.  1.
          1   -1    0    0  501    0  0.00000000000E+00 -0.00000000000E+00 -0.51650995522E+03  0.51650995522E+03  0.00000000000E+00 0. -1.
         25    2    1    2    0    0  0.52592478395E+02  0.24269732965E+02 -0.26947033522E+03  0.30268335728E+03  0.12509182424E+03 0.  0.
          5    1    3    3  502    0  0.61268557575E+02  0.47915375975E+02 -0.26569113114E+03  0.27687356134E+03  0.41800000000E+01 0.  1.
         -5    1    3    3    0  502 -0.86760791795E+01 -0.23645643010E+02 -0.37792040781E+01  0.25809795945E+02  0.41800000000E+01 0.  1.
        -11    1    1    2    0    0 -0.17110332290E+02 -0.51670768367E+02 -0.16496447842E+03  0.17371214959E+03  0.00000000000E+00 0. -1.
         11    1    1    2    0    0 -0.35482146106E+02  0.27401035402E+02 -0.52870692427E+02  0.69318897503E+02  0.00000000000E+00 0.  1.
</event>
<event>
 7    1  0.2714042E-009  0.1436808E+03  0.7561462E-02  0.1208460E+00
         -2   -1    0    0    0  501 -0.00000000000E+00  0.00000000000E+00  0.22183038702E+02  0.22183038702E+02  0.00000000000E+00 0.  1.
          2   -1    0    0  501    0  0.00000000000E+00 -0.00000000000E+00 -0.97912552713E+03  0.97912552713E+03  0.00000000000E+00 0. -1.
         25    2    1    2    0    0  0.78318075747E+02  0.62186859927E+02 -0.54206701263E+03  0.56522950101E+03  0.12508723390E+03 0.  0.
          5    1    3    3  502    0 -0.81190214086E+01 -0.27603525621E+02 -0.17893010374E+03  0.18127693609E+03  0.41800000000E+01 0. -1.
         -5    1    3    3    0  502  0.86437097156E+02  0.89790385548E+02 -0.36313690889E+03  0.38395256491E+03  0.41800000000E+01 0. -1.
        -11    1    1    2    0    0 -0.31023599956E+02 -0.77816132598E+02 -0.23744009579E+03  0.25178485526E+03  0.00000000000E+00 0.  1.
         11    1    1    2    0    0 -0.47294475791E+02  0.15629272670E+02 -0.17743538000E+03  0.18429420957E+03  0.00000000000E+00 0. -1.
</event>
<event>
 7    1  0.2714042E-009  0.2439288E+03  0.7561462E-02  0.1117203E+00
          1   -1    0    0  501    0  0.00000000000E+00  0.00000000000E+00  0.72367219460E+03  0.72367219460E+03  0.00000000000E+00 0. -1.
         -1   -1    0    0    0  501 -0.00000000000E+00 -0.00000000000E+00 -0.92643337688E+02  0.92643337688E+02  0.00000000000E+00 0.  1.
         25    2    1    2    0    0  0.20875392459E+03  0.65568867108E+02  0.45375456771E+03  0.51905415800E+03  0.12508610576E+03 0.  0.
          5    1    3    3  502    0  0.16879342631E+03 -0.59232576601E+01  0.28225537381E+03  0.32895573288E+03  0.41800000000E+01 0.  1.
         -5    1    3    3    0  502  0.39960498280E+02  0.71492124768E+02  0.17149919390E+03  0.19009842512E+03  0.41800000000E+01 0.  1.
        -11    1    1    2    0    0 -0.13922189800E+03 -0.86963626029E+02  0.10590208533E+03  0.19534753854E+03  0.00000000000E+00 0.  1.
         11    1    1    2    0    0 -0.69532026595E+02  0.21394758921E+02  0.71372203865E+02  0.10191383575E+03  0.00000000000E+00 0. -1.
</event>
<event>
 7    1  0.2714042E-009  0.1153343E+03  0.7561462E-02  0.1250999E+00
          2   -1    0    0  501    0  0.00000000000E+00  0.00000000000E+00  0.49858381623E+03  0.49858381623E+03  0.00000000000E+00 0. -1.
         -2   -1    0    0    0  501 -0.00000000000E+00 -0.00000000000E+00 -0.27110082117E+02  0.27110082117E+02  0.00000000000E+00 0.  1.
         25    2    1    2    0    0 -0.42805665603E+02 -0.32215171851E+01  0.25475870723E+03  0.28703982165E+03  0.12508859710E+03 0.  0.
          5    1    3    3  502    0 -0.86866649858E+02 -0.33627325664E+01  0.18459604449E+03  0.20408403874E+03  0.41800000000E+01 0.  1.
         -5    1    3    3    0  502  0.44060984255E+02  0.14121538129E+00  0.70162662743E+02  0.82955782912E+02  0.41800000000E+01 0.  1.
        -11    1    1    2    0    0  0.56260272084E+02 -0.29839338632E+02  0.12626354873E+03  0.14141459643E+03  0.00000000000E+00 0.  1.
         11    1    1    2    0    0 -0.13454606481E+02  0.33060855817E+02  0.90451478155E+02  0.97239480271E+02  0.00000000000E+00 0. -1.
</event>
<event>
 7    1  0.2714042E-009  0.1157299E+03  0.7561462E-02  0.1250312E+00
          1   -1    0    0  501    0  0.00000000000E+00  0.00000000000E+00  0.86563050669E+03  0.86563050669E+03  0.00000000000E+00 0. -1.
         -1   -1    0    0    0  501 -0.00000000000E+00 -0.00000000000E+00 -0.23633676596E+02  0.23633676596E+02  0.00000000000E+00 0.  1.
         25    2    1    2    0    0 -0.92257590257E+02  0.19572654936E+01  0.46936491633E+03  0.49443574688E+03  0.12509192322E+03 0.  0.
          5    1    3    3  502    0 -0.69832931497E+02  0.29824606706E+02  0.44380616068E+03  0.45027494506E+03  0.41800000000E+01 0. -1.
         -5    1    3    3    0  502 -0.22424658761E+02 -0.27867341213E+02  0.25558755652E+02  0.44160801819E+02  0.41800000000E+01 0. -1.
        -11    1    1    2    0    0  0.14836017452E+02 -0.32845822778E+02  0.50212380096E+02  0.61808078781E+02  0.00000000000E+00 0.  1.
         11    1    1    2    0    0  0.77421572805E+02  0.30888557284E+02  0.32241953366E+03  0.33302035763E+03  0.00000000000E+00 0. -1.
</event>
<event>
 7    1  0.2714042E-009  0.1280279E+03  0.7561462E-02  0.1230412E+00
         -1   -1    0    0    0  501 -0.00000000000E+00  0.00000000000E+00  0.90338776168E+02  0.90338776168E+02  0.00000000000E+00 0.  1.
          1   -1    0    0  501    0  0.00000000000E+00 -0.00000000000E+00 -0.24350081297E+03  0.24350081297E+03  0.00000000000E+00 0. -1.
         25    2    1    2    0    0  0.51734424368E+02  0.68658114803E+02 -0.14195855282E+03  0.20782165097E+03  0.12508885043E+03 0.  0.
          5    1    3    3  502    0 -0.30811470954E+02  0.53384928115E+02 -0.89470897006E+02  0.10872815230E+03  0.41800000000E+01 0.  1.
         -5    1    3    3    0  502  0.82545895322E+02  0.15273186688E+02 -0.52487655809E+02  0.99093498669E+02  0.41800000000E+01 0.  1.
        -11    1    1    2    0    0 -0.24605432536E+02 -0.77799026400E+02 -0.35004374721E+02  0.88788637047E+02  0.00000000000E+00 0. -1.
         11    1    1    2    0    0 -0.27128991831E+02  0.91409115962E+01  0.23800890730E+02  0.37229301123E+02  0.00000000000E+00 0.  1.
</event>
<event>
 7    1  0.2714042E-009  0.9981625E+02  0.7561462E-02  0.1280683E+00
          1   -1    0    0  501    0  0.00000000000E+00  0.00000000000E+00  0.37863074415E+03  0.37863074415E+03  0.00000000000E+00 0. -1.
         -1   -1    0    0    0  501 -0.00000000000E+00 -0.00000000000E+00 -0.34872072210E+02  0.34872072210E+02  0.00000000000E+00 0.  1.
         25    2    1    2    0    0 -0.25693820699E+02 -0.24778196014E+02  0.15656477452E+03  0.20355032302E+03  0.12508426744E+03 0.  0.
          5    1    3    3  502    0  0.10985486072E+02 -0.62478635307E+02  0.38734695156E+02  0.74445347624E+02  0.41800000000E+01 0.  1.
         -5    1    3    3    0  502 -0.36679306771E+02  0.37700439293E+02  0.11783007936E+03  0.12910497539E+03  0.41800000000E+01 0.  1.
        -11    1    1    2    0    0  0.39112069485E+02  0.44622653695E+02  0.77140442231E+02  0.97322058290E+02  0.00000000000E+00 0.  1.
         11    1    1    2    0    0 -0.13418248786E+02 -0.19844457681E+02  0.11005345519E+03  0.11263043505E+03  0.00000000000E+00 0. -1.
</event>
<event>
 7    1  0.2714042E-009  0.7153425E+02  0.7561462E-02  0.1354952E+00
         -2   -1    0    0    0  501 -0.00000000000E+00  0.00000000000E+00  0.57156033074E+02  0.57156033074E+02  0.00000000000E+00 0.  1.
          2   -1    0    0  501    0  0.00000000000E+00 -0.00000000000E+00 -0.23301365298E+03  0.23301365298E+03  0.00000000000E+00 0. -1.
         25    2    1    2    0    0  0.26110378345E+02 -0.33996989648E+02 -0.86877695353E+02  0.15821359827E+03  0.12508501735E+03 0.  0.
          5    1    3    3  502    0 -0.21651472572E+02  0.39843819898E+01 -0.94000490507E+02  0.96634497876E+02  0.41800000000E+01 0. -1.
         -5    1    3    3    0  502  0.47761850917E+02 -0.37981371637E+02  0.71227951532E+01  0.61579100393E+02  0.41800000000E+01 0. -1.
        -11    1    1    2    0    0 -0.68454371438E+01  0.38995311400E+02  0.11962429663E+01  0.39609661929E+02  0.00000000000E+00 0.  1.
         11    1    1    2    0    0 -0.19264941202E+02 -0.49983217522E+01 -0.90176167515E+02  0.92346425851E+02  0.00000000000E+00 0. -1.
</event>
<event>
 7    1  0.2714042E-009  0.2777570E+03  0.7561462E-02  0.1096920E+00
         -1   -1    0    0    0  501 -0.00000000000E+00  0.00000000000E+00  0.16329769252E+03  0.16329769252E+03  0.00000000000E+00 0.  1.
          1   -1    0    0  501    0  0.00000000000E+00 -0.00000000000E+00 -0.52595364741E+03  0.52595364741E+03  0.00000000000E+00 0. -1.
         25    2    1    2    0    0  0.15327099261E+03  0.22421652144E+03 -0.17666378399E+03  0.34730807141E+03  0.12509099980E+03 0.  0.
          5    1    3    3  502    0  0.12705728995E+03  0.14554128309E+03 -0.18016441563E+03  0.26420164472E+03  0.41800000000E+01 0. -1.
         -5    1    3    3    0  502  0.26213702661E+02  0.78675238347E+02  0.35006316306E+01  0.83106426695E+02  0.41800000000E+01 0. -1.
        -11    1    1    2    0    0 -0.59476552846E+02 -0.14407072971E+03 -0.14232986826E+03  0.21107256311E+03  0.00000000000E+00 0.  1.
         11    1    1    2    0    0 -0.93794439761E+02 -0.80145791727E+02 -0.43662302636E+02  0.13087070540E+03  0.00000000000E+00 0. -1.
</event>
<event>
 7    1  0.2714042E-009  0.6159431E+02  0.7561462E-02  0.1391260E+00
          1   -1    0    0  501    0  0.00000000000E+00  0.00000000000E+00  0.28379512146E+03  0.28379512146E+03  0.00000000000E+00 0. -1.
         -1   -1    0    0    0  501 -0.00000000000E+00 -0.00000000000E+00 -0.44911239765E+02  0.44911239765E+02  0.00000000000E+00 0.  1.
         25    2    1    2    0    0 -0.26222652387E+01 -0.18334353529E+02  0.99104271121E+02  0.16066522782E+03  0.12509450061E+03 0.  0.
          5    1    3    3  502    0 -0.74052462411E+01  0.20244384343E+02 -0.23390466272E+02  0.32082067916E+02  0.41800000000E+01 0.  1.
         -5    1    3    3    0  502  0.47829810024E+01 -0.38578737872E+02  0.12249473739E+03  0.12858315991E+03  0.41800000000E+01 0.  1.
        -11    1    1    2    0    0 -0.26788135387E+02 -0.12182721744E+01  0.12804955341E+03  0.13082727741E+03  0.00000000000E+00 0. -1.
         11    1    1    2    0    0  0.29410400626E+02  0.19552625703E+02  0.11730057161E+02  0.37213855993E+02  0.00000000000E+00 0.  1.
</event>
<event>
 7    1  0.3145986E-009  0.7962562E+02  0.7561462E-02  0.1330117E+00
         -1   -1    0    0    0  501 -0.00000000000E+00  0.00000000000E+00  0.68064310651E+02  0.68064310651E+02  0.00000000000E+00 0.  1.
          1   -1    0    0  501    0  0.00000000000E+00 -0.00000000000E+00 -0.25609663627E+03  0.25609663627E+03  0.00000000000E+00 0. -1.
         25    2    1    2    0    0 -0.10677807200E+02  0.60235669343E+02 -0.50491845092E+02  0.14811970301E+03  0.12509064142E+03 0.  0.
          5    1    3    3  502    0 -0.16430386575E+02  0.58930927460E+02 -0.89475202829E+02  0.10847163747E+03  0.41800000000E+01 0.  1.
         -5    1    3    3    0  502  0.57525793750E+01  0.13047418829E+01  0.38983357736E+02  0.39648065542E+02  0.41800000000E+01 0.  1.
        -11    1    1    2    0    0 -0.28500879818E+02 -0.28164604619E+02 -0.11276669582E+03  0.11967402722E+03  0.00000000000E+00 0. -1.
         11    1    1    2    0    0  0.39178687018E+02 -0.32071064724E+02 -0.24773784706E+02  0.56367216693E+02  0.00000000000E+00 0.  1.
</event>
<event>
 7    1  0.2714042E-009  0.1640824E+03  0.7561462E-02  0.1184163E+00
          1   -1    0    0  501    0  0.00000000000E+00  0.00000000000E+00  0.61422358730E+02  0.61422358730E+02  0.00000000000E+00 0. -1.
         -1   -1    0    0    0  501 -0.00000000000E+00 -0.00000000000E+00 -0.71543220880E+03  0.71543220880E+03  0.00000000000E+00 0.  1.
         25    2    1    2    0    0 -0.15915062409E+02 -0.14609927593E+03 -0.15182903715E+03  0.24555656903E+03  0.12509070484E+03 0.  0.
          5    1    3    3  502    0 -0.21439633632E+02 -0.57484058141E+01 -0.88655536212E+02  0.91487586922E+02  0.41800000000E+01 0.  1.
         -5    1    3    3    0  502  0.55245712223E+01 -0.14035087011E+03 -0.63173500935E+02  0.15406898211E+03  0.41800000000E+01 0.  1.
        -11    1    1    2    0    0  0.45257559692E+02  0.68560797645E+02 -0.16832158303E+03  0.18729918579E+03  0.00000000000E+00 0. -1.
         11    1    1    2    0    0 -0.29342497283E+02  0.77538478281E+02 -0.33385922989E+03  0.34399881271E+03  0.00000000000E+00 0.  1.
</event>
<event>
 7    1  0.2714042E-009  0.1890128E+03  0.7561462E-02  0.1159355E+00
          1   -1    0    0  501    0  0.00000000000E+00  0.00000000000E+00  0.51994243350E+02  0.51994243350E+02  0.00000000000E+00 0. -1.
         -1   -1    0    0    0  501 -0.00000000000E+00 -0.00000000000E+00 -0.78301232800E+03  0.78301232800E+03  0.00000000000E+00 0.  1.
         25    2    1    2    0    0 -0.11858206339E+03  0.11587052376E+03 -0.45704603997E+03  0.50202279361E+03  0.12509244031E+03 0.  0.
          5    1    3    3  502    0 -0.13700897051E+03  0.12605861257E+03 -0.40981305056E+03  0.45014046765E+03  0.41800000000E+01 0.  1.
         -5    1    3    3    0  502  0.18426907113E+02 -0.10188088812E+02 -0.47232989404E+02  0.51882325964E+02  0.41800000000E+01 0.  1.
        -11    1    1    2    0    0  0.33345395403E+02 -0.10827853059E+02 -0.13325620986E+03  0.13779105654E+03  0.00000000000E+00 0.  1.
         11    1    1    2    0    0  0.85236667992E+02 -0.10504267070E+03 -0.14071583483E+03  0.19519272120E+03  0.00000000000E+00 0. -1.
</event>
<event>
 7    1  0.2714042E-009  0.1354698E+03  0.7561462E-02  0.1219558E+00
         -1   -1    0    0    0  501 -0.00000000000E+00  0.00000000000E+00  0.45898362419E+02  0.45898362419E+02  0.00000000000E+00 0.  1.
          1   -1    0    0  501    0  0.00000000000E+00 -0.00000000000E+00 -0.45756769099E+03  0.45756769099E+03  0.00000000000E+00 0. -1.
         25    2    1    2    0    0 -0.71198081452E+02 -0.62142107813E+02 -0.21837806474E+03  0.26882640819E+03  0.12509136747E+03 0.  0.
          5    1    3    3  502    0 -0.53867486445E+02  0.26927961828E+02 -0.12355944019E+03  0.13751810384E+03  0.41800000000E+01 0. -1.
         -5    1    3    3    0  502 -0.17330595007E+02 -0.89070069640E+02 -0.94818624551E+02  0.13130830435E+03  0.41800000000E+01 0. -1.
        -11    1    1    2    0    0  0.67197453766E+00 -0.15113893694E+02 -0.75945443462E+02  0.77437663414E+02  0.00000000000E+00 0. -1.
         11    1    1    2    0    0  0.70526106914E+02  0.77256001506E+02 -0.11734582036E+03  0.15720198180E+03  0.00000000000E+00 0.  1.
</event>
<event>
 7    1  0.2714042E-009  0.1055889E+03  0.7561462E-02  0.1268964E+00
         -2   -1    0    0    0  501 -0.00000000000E+00  0.00000000000E+00  0.35340783426E+02  0.35340783426E+02  0.00000000000E+00 0. -1.
          2   -1    0    0  501    0  0.00000000000E+00 -0.00000000000E+00 -0.46667548834E+03  0.46667548834E+03  0.00000000000E+00 0.  1.
         25    2    1    2    0    0  0.16381242494E+02  0.32050161810E+02 -0.12659349613E+03  0.18157059366E+03  0.12508560765E+03 0.  0.
          5    1    3    3  502    0  0.27743564100E+02  0.76679037415E+02 -0.96455411885E+02  0.12637443970E+03  0.41800000000E+01 0.  1.
         -5    1    3    3    0  502 -0.11362321605E+02 -0.44628875605E+02 -0.30138084247E+02  0.55196153961E+02  0.41800000000E+01 0.  1.
        -11    1    1    2    0    0  0.42745770524E+01  0.23569379874E+02 -0.25561673666E+02  0.35031226602E+02  0.00000000000E+00 0. -1.
         11    1    1    2    0    0 -0.20655819547E+02 -0.55619541685E+02 -0.27917953511E+03  0.28541445150E+03  0.00000000000E+00 0.  1.
</event>
<event>
 7    1  0.2714042E-009  0.1570753E+03  0.7561462E-02  0.1192039E+00
          2   -1    0    0  501    0  0.00000000000E+00  0.00000000000E+00  0.94730281491E+03  0.94730281491E+03  0.00000000000E+00 0. -1.
         -2   -1    0    0    0  501 -0.00000000000E+00 -0.00000000000E+00 -0.26459691221E+02  0.26459691221E+02  0.00000000000E+00 0.  1.
         25    2    1    2    0    0 -0.99612584751E+02 -0.57084284785E+02  0.49629255695E+03  0.52453303526E+03  0.12508924970E+03 0.  0.
          5    1    3    3  502    0 -0.10923806191E+03 -0.85671249634E+02  0.39153391691E+03  0.41543807923E+03  0.41800000000E+01 0. -1.
         -5    1    3    3    0  502  0.96254771547E+01  0.28586964849E+02  0.10475864003E+03  0.10909495603E+03  0.41800000000E+01 0. -1.
        -11    1    1    2    0    0  0.10086705223E+03  0.14146962867E+02  0.26208617093E+03  0.28118225367E+03  0.00000000000E+00 0.  1.
         11    1    1    2    0    0 -0.12544674799E+01  0.42937321919E+02  0.16246439581E+03  0.16804721719E+03  0.00000000000E+00 0. -1.
</event>
<event>
 7    1  0.2714042E-009  0.8950866E+02  0.7561462E-02  0.1304046E+00
          1   -1    0    0  501    0  0.00000000000E+00  0.00000000000E+00  0.33487853406E+03  0.33487853406E+03  0.00000000000E+00 0. -1.
         -1   -1    0    0    0  501 -0.00000000000E+00 -0.00000000000E+00 -0.46863869661E+02  0.46863869661E+02  0.00000000000E+00 0.  1.
         25    2    1    2    0    0 -0.22096199286E+02  0.34478048308E+02  0.87079308187E+02  0.15782743712E+03  0.12509882556E+03 0.  0.
          5    1    3    3  502    0 -0.60202410995E+02  0.49793087944E+02  0.22903688536E+02  0.81521366802E+02  0.41800000000E+01 0.  1.
         -5    1    3    3    0  502  0.38106211710E+02 -0.15315039636E+02  0.64175619650E+02  0.76306070318E+02  0.41800000000E+01 0.  1.
        -11    1    1    2    0    0  0.35217355247E+02 -0.22972585556E+02  0.20209743770E+03  0.20642523131E+03  0.00000000000E+00 0. -1.
         11    1    1    2    0    0 -0.13121155962E+02 -0.11505462752E+02 -0.11620814916E+01  0.17489735284E+02  0.00000000000E+00 0.  1.
</event>
<event>
 7    1  0.2714042E-009  0.1619306E+03  0.7561462E-02  0.1186534E+00
          2   -1    0    0  501    0  0.00000000000E+00  0.00000000000E+00  0.82873994882E+02  0.82873994882E+02  0.00000000000E+00 0. -1.
         -2   -1    0    0    0  501 -0.00000000000E+00 -0.00000000000E+00 -0.35042142873E+03  0.35042142873E+03  0.00000000000E+00 0.  1.
         25    2    1    2    0    0 -0.47078866692E+02 -0.11741204652E+03 -0.16590520536E+03  0.24325812734E+03  0.12509185024E+03 0.  0.
          5    1    3    3  502    0 -0.60783914582E+02 -0.32020937440E+01 -0.74368128710E+02  0.96192664191E+02  0.41800000000E+01 0. -1.
         -5    1    3    3    0  502  0.13705047890E+02 -0.11420995277E+03 -0.91537076645E+02  0.14706546315E+03  0.41800000000E+01 0. -1.
        -11    1    1    2    0    0  0.67737267471E+02  0.99691680827E+02 -0.10827963725E+03  0.16202237029E+03  0.00000000000E+00 0.  1.
         11    1    1    2    0    0 -0.20658400779E+02  0.17720365691E+02  0.66374087595E+01  0.28014925986E+02  0.00000000000E+00 0. -1.
</event>
<event>
 7    1  0.2714042E-009  0.1398500E+03  0.7561462E-02  0.1213531E+00
          1   -1    0    0  501    0  0.00000000000E+00  0.00000000000E+00  0.26341832268E+04  0.26341832268E+04  0.00000000000E+00 0. -1.
         -1   -1    0    0    0  501 -0.00000000000E+00 -0.00000000000E+00 -0.10075913363E+02  0.10075913363E+02  0.00000000000E+00 0.  1.
         25    2    1    2    0    0 -0.80114250398E+02  0.62658260297E+02  0.19229610156E+04  0.19297071874E+04  0.12508561338E+03 0.  0.
          5    1    3    3  502    0  0.22386532394E+02 -0.59337441932E+01  0.10697587157E+03  0.10953390184E+03  0.41800000000E+01 0. -1.
         -5    1    3    3    0  502 -0.10250078279E+03  0.68592004490E+02  0.18159851441E+04  0.18201732855E+04  0.41800000000E+01 0. -1.
        -11    1    1    2    0    0  0.59674616477E+02 -0.84111521655E+02  0.61149765712E+03  0.62013320552E+03  0.00000000000E+00 0.  1.
         11    1    1    2    0    0  0.20439633921E+02  0.21453261358E+02  0.89648640628E+02  0.94418747207E+02  0.00000000000E+00 0. -1.
</event>
<event>
 7    1  0.2714042E-009  0.1384698E+03  0.7561462E-02  0.1215403E+00
          1   -1    0    0  501    0  0.00000000000E+00  0.00000000000E+00  0.83627686424E+03  0.83627686424E+03  0.00000000000E+00 0. -1.
         -1   -1    0    0    0  501 -0.00000000000E+00 -0.00000000000E+00 -0.28896862949E+02  0.28896862949E+02  0.00000000000E+00 0.  1.
         25    2    1    2    0    0  0.76546955290E+02 -0.38185055333E+02  0.23902318666E+03  0.28301520545E+03  0.12509191796E+03 0.  0.
          5    1    3    3  502    0  0.92164151750E+01 -0.73942910067E+02  0.10600322536E+03  0.12964047379E+03  0.41800000000E+01 0.  1.
         -5    1    3    3    0  502  0.67330540115E+02  0.35757854734E+02  0.13301996130E+03  0.15337473166E+03  0.41800000000E+01 0.  1.
        -11    1    1    2    0    0 -0.56707316274E+02 -0.23331621087E+02  0.26803437222E+03  0.27495910414E+03  0.00000000000E+00 0.  1.
         11    1    1    2    0    0 -0.19839639016E+02  0.61516676419E+02  0.30032244242E+03  0.30719941760E+03  0.00000000000E+00 0. -1.
</event>
<event>
 7    1  0.2714042E-009  0.1394837E+03  0.7561462E-02  0.1214025E+00
         -1   -1    0    0    0  501 -0.00000000000E+00  0.00000000000E+00  0.66090076394E+02  0.66090076394E+02  0.00000000000E+00 0.  1.
          1   -1    0    0  501    0  0.00000000000E+00 -0.00000000000E+00 -0.40111434932E+03  0.40111434932E+03  0.00000000000E+00 0. -1.
         25    2    1    2    0    0  0.23093720321E+02  0.11369756134E+03 -0.22935381025E+03  0.28585158452E+03  0.12508997849E+03 0.  0.
          5    1    3    3  502    0  0.48577825933E+02  0.87887618834E+02 -0.22816549521E+03  0.24932108679E+03  0.41800000000E+01 0. -1.
         -5    1    3    3    0  502 -0.25484105612E+02  0.25809942511E+02 -0.11883150452E+01  0.36530497723E+02  0.41800000000E+01 0. -1.
        -11    1    1    2    0    0 -0.33725657015E+02 -0.66491441223E+01 -0.63847835949E+01  0.34962787650E+02  0.00000000000E+00 0.  1.
         11    1    1    2    0    0  0.10631936695E+02 -0.10704841722E+03 -0.99285679077E+02  0.14639005355E+03  0.00000000000E+00 0. -1.
</event>
<event>
 7    1  0.2714042E-009  0.8899947E+02  0.7561462E-02  0.1305293E+00
          1   -1    0    0  501    0  0.00000000000E+00  0.00000000000E+00  0.33454094833E+03  0.33454094833E+03  0.00000000000E+00 0. -1.
         -1   -1    0    0    0  501 -0.00000000000E+00 -0.00000000000E+00 -0.37647935622E+02  0.37647935622E+02  0.00000000000E+00 0.  1.
         25    2    1    2    0    0 -0.21233518896E+02  0.17051738087E+02  0.17871180394E+03  0.21983263445E+03  0.12508738627E+03 0.  0.
          5    1    3    3  502    0  0.37882430940E+02 -0.12499482347E+02  0.13413739987E+03  0.14000582158E+03  0.41800000000E+01 0.  1.
         -5    1    3    3    0  502 -0.59115949836E+02  0.29551220434E+02  0.44574404065E+02  0.79826812863E+02  0.41800000000E+01 0.  1.
        -11    1    1    2    0    0  0.23448405384E+02  0.22236776404E+02  0.10651976902E+03  0.11131380477E+03  0.00000000000E+00 0. -1.
         11    1    1    2    0    0 -0.22148864875E+01 -0.39288514490E+02  0.11661439753E+02  0.41042444739E+02  0.00000000000E+00 0.  1.
</event>
<event>
 7    1  0.2714042E-009  0.2032132E+03  0.7561462E-02  0.1147056E+00
         -4   -1    0    0    0  501 -0.00000000000E+00  0.00000000000E+00  0.25530211937E+03  0.25530211937E+03  0.00000000000E+00 0.  1.
          4   -1    0    0  501    0  0.00000000000E+00 -0.00000000000E+00 -0.27896466984E+03  0.27896466984E+03  0.00000000000E+00 0. -1.
         25    2    1    2    0    0 -0.13817331949E+01 -0.18292890441E+03 -0.17262530390E+03  0.28091266976E+03  0.12509012442E+03 0.  0.
          5    1    3    3  502    0  0.43221080572E+02 -0.10005230929E+03 -0.14743571097E+03  0.18339380488E+03  0.41800000000E+01 0. -1.
         -5    1    3    3    0  502 -0.44602813767E+02 -0.82876595122E+02 -0.25189592937E+02  0.97518864879E+02  0.41800000000E+01 0. -1.
        -11    1    1    2    0    0  0.42927142046E+02  0.63065374499E+02  0.40086119658E+02  0.86179336120E+02  0.00000000000E+00 0.  1.
         11    1    1    2    0    0 -0.41545408851E+02  0.11986352991E+03  0.10887663378E+03  0.16717478333E+03  0.00000000000E+00 0. -1.
</event>
<event>
 7    1  0.3897614E-009  0.1332910E+03  0.7561462E-02  0.1222653E+00
          1   -1    0    0  501    0  0.00000000000E+00  0.00000000000E+00  0.78905197545E+03  0.78905197545E+03  0.00000000000E+00 0. -1.
         -1   -1    0    0    0  501 -0.00000000000E+00 -0.00000000000E+00 -0.24472328750E+02  0.24472328750E+02  0.00000000000E+00 0.  1.
         25    2    1    2    0    0 -0.78286331762E+02  0.28380909613E+02  0.35311097022E+03  0.38375685490E+03  0.12509092942E+03 0.  0.
          5    1    3    3  502    0 -0.84758706214E+02  0.65143822216E+02  0.20846755145E+03  0.23431591551E+03  0.41800000000E+01 0. -1.
         -5    1    3    3    0  502  0.64723744521E+01 -0.36762912603E+02  0.14464341877E+03  0.14944093939E+03  0.41800000000E+01 0. -1.
        -11    1    1    2    0    0  0.44332520145E+02  0.30679688237E+02  0.22103848642E+03  0.22751841264E+03  0.00000000000E+00 0.  1.
         11    1    1    2    0    0  0.33953811617E+02 -0.59060597850E+02  0.19043019006E+03  0.20224903666E+03  0.00000000000E+00 0. -1.
</event>
<event>
 7    1  0.2714042E-009  0.1310103E+03  0.7561462E-02  0.1225964E+00
          3   -1    0    0  501    0  0.00000000000E+00  0.00000000000E+00  0.40972212165E+02  0.40972212165E+02  0.00000000000E+00 0. -1.
         -3   -1    0    0    0  501 -0.00000000000E+00 -0.00000000000E+00 -0.44401953747E+03  0.44401953747E+03  0.00000000000E+00 0.  1.
         25    2    1    2    0    0  0.78738157871E+01 -0.79621249044E+02 -0.20565900911E+03  0.25366338990E+03  0.12509175460E+03 0.  0.
          5    1    3    3  502    0  0.62217843621E+02 -0.38167407334E+02 -0.67690041754E+02  0.99635461560E+02  0.41800000000E+01 0. -1.
         -5    1    3    3    0  502 -0.54344027834E+02 -0.41453841710E+02 -0.13796896736E+03  0.15402792834E+03  0.41800000000E+01 0. -1.
        -11    1    1    2    0    0  0.41135352353E+02  0.40452283299E+02 -0.88012364627E+02  0.10523630915E+03  0.00000000000E+00 0.  1.
         11    1    1    2    0    0 -0.49009168140E+02  0.39168965745E+02 -0.10937595157E+03  0.12609205058E+03  0.00000000000E+00 0. -1.
</event>
<event>
 7    1  0.4001112E-009  0.9514499E+02  0.7561462E-02  0.1290850E+00
         -2   -1    0    0    0  501 -0.00000000000E+00  0.00000000000E+00  0.40453029153E+02  0.40453029153E+02  0.00000000000E+00 0.  1.
          2   -1    0    0  501    0  0.00000000000E+00 -0.00000000000E+00 -0.33969027382E+03  0.33969027382E+03  0.00000000000E+00 0. -1.
         25    2    1    2    0    0 -0.34620252092E+02 -0.28362016896E+02 -0.16756404544E+03  0.21384105564E+03  0.12508925572E+03 0.  0.
          5    1    3    3  502    0 -0.11325704310E+02 -0.58207174138E+02 -0.22016557413E+02  0.63392017633E+02  0.41800000000E+01 0. -1.
         -5    1    3    3    0  502 -0.23294547782E+02  0.29845157242E+02 -0.14554748802E+03  0.15044903801E+03  0.41800000000E+01 0. -1.
        -11    1    1    2    0    0  0.24044362976E+02 -0.27136848425E+02 -0.20635769535E+02  0.41717800969E+02  0.00000000000E+00 0. -1.
         11    1    1    2    0    0  0.10575889116E+02  0.55498865321E+02 -0.11103742970E+03  0.12458444637E+03  0.00000000000E+00 0.  1.
</event>
<event>
 7    1  0.2714042E-009  0.1039687E+03  0.7561462E-02  0.1272165E+00
          1   -1    0    0  501    0  0.00000000000E+00  0.00000000000E+00  0.58813048102E+03  0.58813048102E+03  0.00000000000E+00 0. -1.
         -1   -1    0    0    0  501 -0.00000000000E+00 -0.00000000000E+00 -0.22438110559E+02  0.22438110559E+02  0.00000000000E+00 0.  1.
         25    2    1    2    0    0 -0.25985722764E+02 -0.12055048214E+02  0.40540490867E+03  0.42523097855E+03  0.12509061985E+03 0.  0.
          5    1    3    3  502    0  0.38514817199E+02 -0.40879302508E+02  0.15083732170E+03  0.16100893930E+03  0.41800000000E+01 0.  1.
         -5    1    3    3    0  502 -0.64500539964E+02  0.28824254294E+02  0.25456758697E+03  0.26422203925E+03  0.41800000000E+01 0.  1.
        -11    1    1    2    0    0  0.94454457274E+00 -0.31012519583E+02  0.11101293396E+03  0.11526725485E+03  0.00000000000E+00 0. -1.
         11    1    1    2    0    0  0.25041178192E+02  0.43067567797E+02  0.49274527836E+02  0.70070358174E+02  0.00000000000E+00 0.  1.
</event>
<event>
 7    1  0.2714042E-009  0.9752621E+02  0.7561462E-02  0.1285586E+00
         -2   -1    0    0    0  501 -0.00000000000E+00  0.00000000000E+00  0.10862877868E+03  0.10862877868E+03  0.00000000000E+00 0.  1.
          2   -1    0    0  501    0  0.00000000000E+00 -0.00000000000E+00 -0.28726585142E+03  0.28726585142E+03  0.00000000000E+00 0. -1.
         25    2    1    2    0    0  0.38756799450E+02 -0.85359039325E+02  0.23626504735E+02  0.15809336849E+03  0.12508815427E+03 0.  0.
          5    1    3    3  502    0  0.44499475727E+02 -0.71354783512E+02  0.69771923640E+02  0.10934944992E+03  0.41800000000E+01 0. -1.
         -5    1    3    3    0  502 -0.57426762772E+01 -0.14004255813E+02 -0.46145418905E+02  0.48743918571E+02  0.41800000000E+01 0. -1.
        -11    1    1    2    0    0 -0.20852320299E+02  0.27036638500E+02 -0.92491302561E+01  0.35374362097E+02  0.00000000000E+00 0.  1.
         11    1    1    2    0    0 -0.17904479151E+02  0.58322400825E+02 -0.19301444722E+03  0.20242689951E+03  0.00000000000E+00 0. -1.
</event>
<event>
 7    1  0.2714042E-009  0.1316577E+03  0.7561462E-02  0.1225017E+00
         -2   -1    0    0    0  501 -0.00000000000E+00  0.00000000000E+00  0.27278582473E+02  0.27278582473E+02  0.00000000000E+00 0.  1.
          2   -1    0    0  501    0  0.00000000000E+00 -0.00000000000E+00 -0.84846301698E+03  0.84846301698E+03  0.00000000000E+00 0. -1.
         25    2    1    2    0    0  0.91022710356E-01  0.66953159428E+02 -0.53214095743E+03  0.55072701085E+03  0.12507401035E+03 0.  0.
          5    1    3    3  502    0  0.28565074519E+02  0.78567153643E+02 -0.49633513156E+03  0.50334361656E+03  0.41800000000E+01 0.  1.
         -5    1    3    3    0  502 -0.28474051809E+02 -0.11613994215E+02 -0.35805825866E+02  0.47383394285E+02  0.41800000000E+01 0.  1.
        -11    1    1    2    0    0 -0.57028703810E+02 -0.71501281821E+02 -0.18173796145E+03  0.20345366301E+03  0.00000000000E+00 0. -1.
         11    1    1    2    0    0  0.56937681100E+02  0.45481223930E+01 -0.10730551563E+03  0.12156092559E+03  0.00000000000E+00 0.  1.
</event>
<event>
 7    1  0.3129694E-009  0.1724084E+03  0.7561462E-02  0.1175359E+00
         -2   -1    0    0    0  501 -0.00000000000E+00  0.00000000000E+00  0.20729771686E+02  0.20729771686E+02  0.00000000000E+00 0.  1.
          2   -1    0    0  501    0  0.00000000000E+00 -0.00000000000E+00 -0.18992440727E+04  0.18992440727E+04  0.00000000000E+00 0. -1.
         25    2    1    2    0    0  0.10091027050E+03  0.10942369211E+03 -0.13345854442E+04  0.13486742813E+04  0.12509029480E+03 0.  0.
          5    1    3    3  502    0  0.72556394957E+02 -0.49553281389E+01 -0.38865148907E+03  0.39541931931E+03  0.41800000000E+01 0. -1.
         -5    1    3    3    0  502  0.28353875547E+02  0.11437902025E+03 -0.94593395517E+03  0.95325496195E+03  0.41800000000E+01 0. -1.
        -11    1    1    2    0    0 -0.81841564214E+02 -0.61181894986E+02 -0.47004723868E+03  0.48102564641E+03  0.00000000000E+00 0.  1.
         11    1    1    2    0    0 -0.19068706290E+02 -0.48241797121E+02 -0.73881618085E+02  0.90273916719E+02  0.00000000000E+00 0. -1.
</event>
<event>
 7    1  0.2714042E-009  0.1291302E+03  0.7561462E-02  0.1228752E+00
          1   -1    0    0  501    0  0.00000000000E+00  0.00000000000E+00  0.31336510769E+03  0.31336510769E+03  0.00000000000E+00 0. -1.
         -1   -1    0    0    0  501 -0.00000000000E+00 -0.00000000000E+00 -0.84146139800E+02  0.84146139800E+02  0.00000000000E+00 0.  1.
         25    2    1    2    0    0  0.10991732835E+03  0.82674656945E+01  0.59413231916E+02  0.17699548450E+03  0.12508916558E+03 0.  0.
          5    1    3    3  502    0  0.31892158975E+02 -0.38514581295E+02 -0.22046275225E+02  0.54808698468E+02  0.41800000000E+01 0.  1.
         -5    1    3    3    0  502  0.78025169379E+02  0.46782046990E+02  0.81459507141E+02  0.12218678603E+03  0.41800000000E+01 0.  1.
        -11    1    1    2    0    0 -0.29536183523E+02 -0.20150768165E+02  0.41374163591E+01  0.35993857933E+02  0.00000000000E+00 0.  1.
         11    1    1    2    0    0 -0.80381144830E+02  0.11883302470E+02  0.16566831961E+03  0.18452190505E+03  0.00000000000E+00 0. -1.
</event>
<event>
 7    1  0.2714042E-009  0.1339069E+03  0.7561462E-02  0.1221771E+00
          4   -1    0    0  501    0  0.00000000000E+00  0.00000000000E+00  0.12955779596E+03  0.12955779596E+03  0.00000000000E+00 0. -1.
         -4   -1    0    0    0  501 -0.00000000000E+00 -0.00000000000E+00 -0.16509443984E+03  0.16509443984E+03  0.00000000000E+00 0.  1.
         25    2    1    2    0    0  0.10984172613E+03  0.35446519185E+02 -0.21980602986E+02  0.17161736803E+03  0.12509082133E+03 0.  0.
          5    1    3    3  502    0 -0.15081778593E+02 -0.89916115371E+00 -0.37384932515E+02  0.40538550978E+02  0.41800000000E+01 0. -1.
         -5    1    3    3    0  502  0.12492350472E+03  0.36345680339E+02  0.15404329529E+02  0.13107881705E+03  0.41800000000E+01 0. -1.
        -11    1    1    2    0    0 -0.53039791393E+02 -0.37776379389E+02 -0.11663371616E+02  0.66153673732E+02  0.00000000000E+00 0.  1.
         11    1    1    2    0    0 -0.56801934737E+02  0.23298602040E+01 -0.18926692755E+01  0.56881194040E+02  0.00000000000E+00 0. -1.
</event>
<event>
 7    1  0.2714042E-009  0.9116115E+02  0.7561462E-02  0.1300064E+00
         -2   -1    0    0    0  501 -0.00000000000E+00  0.00000000000E+00  0.18292161236E+03  0.18292161236E+03  0.00000000000E+00 0.  1.
          2   -1    0    0  501    0  0.00000000000E+00 -0.00000000000E+00 -0.84004677350E+02  0.84004677350E+02  0.00000000000E+00 0. -1.
         25    2    1    2    0    0  0.29961402142E+02  0.36487577404E+02  0.94470040046E+02  0.16371044657E+03  0.12508993935E+03 0.  0.
          5    1    3    3  502    0 -0.30479266059E+02 -0.23147289662E+02  0.26677174250E+01  0.38592380005E+02  0.41800000000E+01 0.  1.
         -5    1    3    3    0  502  0.60440668201E+02  0.59634867065E+02  0.91802322621E+02  0.12511806657E+03  0.41800000000E+01 0.  1.
        -11    1    1    2    0    0 -0.23855794864E+02 -0.21694387669E+01 -0.40064973896E+02  0.46679840900E+02  0.00000000000E+00 0. -1.
         11    1    1    2    0    0 -0.61056072781E+01 -0.34318138637E+02  0.44511868857E+02  0.56536002236E+02  0.00000000000E+00 0.  1.
</event>
<event>
 7    1  0.2714042E-009  0.1031230E+03  0.7561462E-02  0.1273862E+00
          1   -1    0    0  501    0  0.00000000000E+00  0.00000000000E+00  0.54048424112E+03  0.54048424112E+03  0.00000000000E+00 0. -1.
         -1   -1    0    0    0  501 -0.00000000000E+00 -0.00000000000E+00 -0.34550675349E+02  0.34550675349E+02  0.00000000000E+00 0.  1.
         25    2    1    2    0    0  0.57696074567E+02  0.31480265439E+02  0.37502862048E+03  0.40076563448E+03  0.12508710352E+03 0.  0.
          5    1    3    3  502    0 -0.20855426034E+02  0.19199708199E+02  0.15600675346E+02  0.32625619707E+02  0.41800000000E+01 0. -1.
         -5    1    3    3    0  502  0.78551500601E+02  0.12280557240E+02  0.35942794514E+03  0.36814001478E+03  0.41800000000E+01 0. -1.
        -11    1    1    2    0    0 -0.28635218429E+02 -0.54059353181E+02  0.32637700538E+02  0.69336923044E+02  0.00000000000E+00 0.  1.
         11    1    1    2    0    0 -0.29060856138E+02  0.22579087742E+02  0.98267244753E+02  0.10493235895E+03  0.00000000000E+00 0. -1.
</event>
<event>
 7    1  0.2714042E-009  0.9336328E+02  0.7561462E-02  0.1294906E+00
          1   -1    0    0  501    0  0.00000000000E+00  0.00000000000E+00  0.83512635752E+03  0.83512635752E+03  0.00000000000E+00 0. -1.
         -1   -1    0    0    0  501 -0.00000000000E+00 -0.00000000000E+00 -0.18818843992E+02  0.18818843992E+02  0.00000000000E+00 0.  1.
         25    2    1    2    0    0 -0.54375686996E+02  0.10948933804E+02  0.56521397319E+03  0.58154230850E+03  0.12509207246E+03 0.  0.
          5    1    3    3  502    0  0.74942622412E+01  0.47325519154E+02  0.37716008794E+03  0.38021450927E+03  0.41800000000E+01 0. -1.
         -5    1    3    3    0  502 -0.61869949237E+02 -0.36376585351E+02  0.18805388526E+03  0.20132779923E+03  0.41800000000E+01 0. -1.
        -11    1    1    2    0    0  0.48537986766E+02  0.59088283625E+01  0.24977312219E+03  0.25451417049E+03  0.00000000000E+00 0. -1.
         11    1    1    2    0    0  0.58377002299E+01 -0.16857762166E+02  0.13204181367E+01  0.17888722517E+02  0.00000000000E+00 0.  1.
</event>
<event>
 7    1  0.2714042E-009  0.1006331E+03  0.7561462E-02  0.1278970E+00
          2   -1    0    0  501    0  0.00000000000E+00  0.00000000000E+00  0.96690455878E+02  0.96690455878E+02  0.00000000000E+00 0. -1.
         -2   -1    0    0    0  501 -0.00000000000E+00 -0.00000000000E+00 -0.18503744260E+03  0.18503744260E+03  0.00000000000E+00 0.  1.
         25    2    1    2    0    0  0.67956047806E+02 -0.13884115585E+02 -0.86874397830E+02  0.16734823315E+03  0.12508987585E+03 0.  0.
          5    1    3    3  502    0 -0.13285339820E+02 -0.16965503927E+01 -0.83871250803E+02  0.85036684134E+02  0.41800000000E+01 0.  1.
         -5    1    3    3    0  502  0.81241387627E+02 -0.12187565192E+02 -0.30031470273E+01  0.82311549013E+02  0.41800000000E+01 0.  1.
        -11    1    1    2    0    0 -0.38873111733E+02 -0.32205487325E+02 -0.23393588648E+02  0.55637866777E+02  0.00000000000E+00 0.  1.
         11    1    1    2    0    0 -0.29082936073E+02  0.46089602909E+02  0.21920999756E+02  0.58741798553E+02  0.00000000000E+00 0. -1.
</event>
<event>
 7    1  0.2714042E-009  0.1043687E+03  0.7561462E-02  0.1271369E+00
         -2   -1    0    0    0  501 -0.00000000000E+00  0.00000000000E+00  0.21214046640E+02  0.21214046640E+02  0.00000000000E+00 0. -1.
          2   -1    0    0  501    0  0.00000000000E+00 -0.00000000000E+00 -0.63613492463E+03  0.63613492463E+03  0.00000000000E+00 0.  1.
         25    2    1    2    0    0 -0.10834597825E+00 -0.37155395048E+02 -0.40227751211E+03  0.42291247296E+03  0.12508888007E+03 0.  0.
          5    1    3    3  502    0  0.60433991510E+02 -0.85403206287E+01 -0.15338662921E+03  0.16513671556E+03  0.41800000000E+01 0. -1.
         -5    1    3    3    0  502 -0.60542337488E+02 -0.28615074420E+02 -0.24889088291E+03  0.25777575741E+03  0.41800000000E+01 0. -1.
        -11    1    1    2    0    0  0.21535734923E+02 -0.13532497349E+02 -0.15565250006E+02  0.29819345582E+02  0.00000000000E+00 0. -1.
         11    1    1    2    0    0 -0.21427388945E+02  0.50687892398E+02 -0.19707811587E+03  0.20461715272E+03  0.00000000000E+00 0.  1.
</event>
<event>
 7    1  0.2714042E-009  0.9519279E+02  0.7561462E-02  0.1290742E+00
         -2   -1    0    0    0  501 -0.00000000000E+00  0.00000000000E+00  0.20198691239E+02  0.20198691239E+02  0.00000000000E+00 0.  1.
          2   -1    0    0  501    0  0.00000000000E+00 -0.00000000000E+00 -0.61327586064E+03  0.61327586064E+03  0.00000000000E+00 0. -1.
         25    2    1    2    0    0  0.87477950630E+01 -0.12200606075E+02 -0.39509929224E+03  0.41470031719E+03  0.12509006213E+03 0.  0.
          5    1    3    3  502    0  0.24911839495E+02  0.40163590798E+02 -0.30853496075E+03  0.31216183011E+03  0.41800000000E+01 0. -1.
         -5    1    3    3    0  502 -0.16164044432E+02 -0.52364196873E+02 -0.86564331490E+02  0.10253848708E+03  0.41800000000E+01 0. -1.
        -11    1    1    2    0    0  0.39184580308E+02  0.48099772273E+01 -0.54321261411E+02  0.67151817966E+02  0.00000000000E+00 0.  1.
         11    1    1    2    0    0 -0.47932375371E+02  0.73906288475E+01 -0.14365661575E+03  0.15162241672E+03  0.00000000000E+00 0. -1.
</event>
<event>
 7    1  0.2714042E-009  0.7891025E+02  0.7561462E-02  0.1332173E+00
         -1   -1    0    0    0  501 -0.00000000000E+00  0.00000000000E+00  0.25149353998E+02  0.25149353998E+02  0.00000000000E+00 0.  1.
          1   -1    0    0  501    0  0.00000000000E+00 -0.00000000000E+00 -0.47372966888E+03  0.47372966888E+03  0.00000000000E+00 0. -1.
         25    2    1    2    0    0 -0.89328975219E+01  0.17958990133E+02 -0.27163596619E+03  0.29972593737E+03  0.12508883813E+03 0.  0.
          5    1    3    3  502    0 -0.33939723194E+02 -0.20653360130E+01 -0.26440986085E+03  0.26661998676E+03  0.41800000000E+01 0. -1.
         -5    1    3    3    0  502  0.25006825672E+02  0.20024326146E+02 -0.72261053323E+01  0.33105950614E+02  0.41800000000E+01 0. -1.
        -11    1    1    2    0    0  0.35712520075E+01  0.36428533522E+02 -0.65655507859E+02  0.75169392758E+02  0.00000000000E+00 0.  1.
         11    1    1    2    0    0  0.53616455144E+01 -0.54387523655E+02 -0.11128884084E+03  0.12398369275E+03  0.00000000000E+00 0. -1.
</event>
<event>
 7    1  0.2714042E-009  0.1775048E+03  0.7561462E-02  0.1170240E+00
          1   -1    0    0  501    0  0.00000000000E+00  0.00000000000E+00  0.99093432990E+03  0.99093432990E+03  0.00000000000E+00 0. -1.
         -1   -1    0    0    0  501 -0.00000000000E+00 -0.00000000000E+00 -0.35989833306E+02  0.35989833306E+02  0.00000000000E+00 0.  1.
         25    2    1    2    0    0 -0.14366487698E+03 -0.57146524203E+02  0.50351128788E+03  0.54136493211E+03  0.12508817127E+03 0.  0.
          5    1    3    3  502    0 -0.12227489999E+03 -0.95168154514E+02  0.39752119837E+03  0.42667165872E+03  0.41800000000E+01 0. -1.
         -5    1    3    3    0  502 -0.21389976993E+02  0.38021630311E+02  0.10599008950E+03  0.11469327339E+03  0.41800000000E+01 0. -1.
        -11    1    1    2    0    0  0.57383484930E+02  0.11331496700E+02  0.29785175965E+03  0.30354066925E+03  0.00000000000E+00 0. -1.
         11    1    1    2    0    0  0.86281392054E+02  0.45815027503E+02  0.15358144907E+03  0.18201856185E+03  0.00000000000E+00 0.  1.
</event>
<event>
 7    1  0.2714042E-009  0.8839410E+02  0.7561462E-02  0.1306788E+00
          1   -1    0    0  501    0  0.00000000000E+00  0.00000000000E+00  0.79003552540E+03  0.79003552540E+03  0.00000000000E+00 0. -1.
         -1   -1    0    0    0  501 -0.00000000000E+00 -0.00000000000E+00 -0.22371022475E+02  0.22371022475E+02  0.00000000000E+00 0.  1.
         25    2    1    2    0    0 -0.42391387370E+01 -0.40051828075E+02  0.62132477901E+03  0.63507075109E+03  0.12509299997E+03 0.  0.
          5    1    3    3  502    0 -0.58974434041E+01 -0.68154414793E+02  0.58462599906E+03  0.58862962487E+03  0.41800000000E+01 0. -1.
         -5    1    3    3    0  502  0.16583046670E+01  0.28102586718E+02  0.36698779953E+02  0.46441126221E+02  0.41800000000E+01 0. -1.
        -11    1    1    2    0    0 -0.24315872105E+01  0.59336135475E+02  0.46480488755E+02  0.75413032192E+02  0.00000000000E+00 0.  1.
         11    1    1    2    0    0  0.66707259476E+01 -0.19284307401E+02  0.99859235154E+02  0.10192276459E+03  0.00000000000E+00 0. -1.
</event>
<event>
 7    1  0.2714042E-009  0.1530607E+03  0.7561462E-02  0.1196762E+00
         -2   -1    0    0    0  501 -0.00000000000E+00  0.00000000000E+00  0.14415811744E+03  0.14415811744E+03  0.00000000000E+00 0.  1.
          2   -1    0    0  501    0  0.00000000000E+00 -0.00000000000E+00 -0.41564022215E+03  0.41564022215E+03  0.00000000000E+00 0. -1.
         25    2    1    2    0    0 -0.10110312243E+03 -0.10249232421E+03 -0.32704455510E+03  0.37859189796E+03  0.12508863375E+03 0.  0.
          5    1    3    3  502    0 -0.92056724850E+02 -0.11065207540E+03 -0.33416779523E+03  0.36387348097E+03  0.41800000000E+01 0.  1.
         -5    1    3    3    0  502 -0.90463975831E+01  0.81597511884E+01  0.71232401369E+01  0.14718416991E+02  0.41800000000E+01 0.  1.
        -11    1    1    2    0    0  0.52643835632E+02  0.80120974334E+02  0.77721452364E+02  0.12341542900E+03  0.00000000000E+00 0.  1.
         11    1    1    2    0    0  0.48459286801E+02  0.22371349876E+02 -0.22159001980E+02  0.57791012634E+02  0.00000000000E+00 0. -1.
</event>
<event>
 7    1  0.3054801E-009  0.1277726E+03  0.7561462E-02  0.1230799E+00
         -2   -1    0    0    0  501 -0.00000000000E+00  0.00000000000E+00  0.70106722155E+02  0.70106722155E+02  0.00000000000E+00 0.  1.
          2   -1    0    0  501    0  0.00000000000E+00 -0.00000000000E+00 -0.25401675795E+03  0.25401675795E+03  0.00000000000E+00 0. -1.
         25    2    1    2    0    0 -0.30194421415E+02  0.71289390580E+02 -0.11341664032E+03  0.18574550953E+03  0.12507669533E+03 0.  0.
          5    1    3    3  502    0 -0.41551431391E+02  0.10348742608E+03 -0.95920508883E+02  0.14715429056E+03  0.41800000000E+01 0.  1.
         -5    1    3    3    0  502  0.11357009977E+02 -0.32198035499E+02 -0.17496131439E+02  0.38591218961E+02  0.41800000000E+01 0.  1.
        -11    1    1    2    0    0  0.53981155434E+02 -0.29625403521E+02 -0.65886539362E+02  0.90181293764E+02  0.00000000000E+00 0. -1.
         11    1    1    2    0    0 -0.23786734019E+02 -0.41663987059E+02 -0.46068561132E+01  0.48196676817E+02  0.00000000000E+00 0.  1.
</event>
<event>
 7    1  0.2714042E-009  0.1288167E+03  0.7561462E-02  0.1229222E+00
          2   -1    0    0  501    0  0.00000000000E+00  0.00000000000E+00  0.74473973805E+03  0.74473973805E+03  0.00000000000E+00 0. -1.
         -2   -1    0    0    0  501 -0.00000000000E+00 -0.00000000000E+00 -0.22734753968E+02  0.22734753968E+02  0.00000000000E+00 0.  1.
         25    2    1    2    0    0 -0.63042453213E+02 -0.34789792037E+02  0.40856032521E+03  0.43330641296E+03  0.12509287604E+03 0.  0.
          5    1    3    3  502    0  0.86831983782E+01  0.39691423208E+02  0.11722335883E+03  0.12413539087E+03  0.41800000000E+01 0.  1.
         -5    1    3    3    0  502 -0.71725651591E+02 -0.74481215244E+02  0.29133696638E+03  0.30917102209E+03  0.41800000000E+01 0.  1.
        -11    1    1    2    0    0 -0.10147945185E+02 -0.19629494229E+02  0.93245157754E+02  0.95827747963E+02  0.00000000000E+00 0. -1.
         11    1    1    2    0    0  0.73190398398E+02  0.54419286266E+02  0.22019950111E+03  0.23834033109E+03  0.00000000000E+00 0.  1.
</event>
<event>
 7    1  0.2714042E-009  0.1184568E+03  0.7561462E-02  0.1245665E+00
         -1   -1    0    0    0  501 -0.00000000000E+00  0.00000000000E+00  0.17705761668E+03  0.17705761668E+03  0.00000000000E+00 0.  1.
          1   -1    0    0  501    0  0.00000000000E+00 -0.00000000000E+00 -0.96088163922E+02  0.96088163922E+02  0.00000000000E+00 0. -1.
         25    2    1    2    0    0  0.55680493191E+02 -0.20784509971E+02 -0.14526245945E-01  0.13848927953E+03  0.12508783776E+03 0.  0.
          5    1    3    3  502    0  0.93829588473E+02 -0.31842453520E+01 -0.11646324082E+02  0.94695513918E+02  0.41800000000E+01 0. -1.
         -5    1    3    3    0  502 -0.38149095282E+02 -0.17600264619E+02  0.11631797836E+02  0.43793765611E+02  0.41800000000E+01 0. -1.
        -11    1    1    2    0    0 -0.58906283891E+02  0.46345532976E+02  0.36774954519E+02  0.83488058958E+02  0.00000000000E+00 0. -1.
         11    1    1    2    0    0  0.32257906999E+01 -0.25561023005E+02  0.44209024483E+02  0.51168442115E+02  0.00000000000E+00 0.  1.
</event>
<event>
 7    1  0.2714042E-009  0.1066926E+03  0.7561462E-02  0.1266820E+00
         -1   -1    0    0    0  501 -0.00000000000E+00  0.00000000000E+00  0.13821341456E+03  0.13821341456E+03  0.00000000000E+00 0.  1.
          1   -1    0    0  501    0  0.00000000000E+00 -0.00000000000E+00 -0.11573165126E+03  0.11573165126E+03  0.00000000000E+00 0. -1.
         25    2    1    2    0    0  0.49789466399E+01  0.29491400150E+02  0.71214997193E+02  0.14701965073E+03  0.12509464131E+03 0.  0.
          5    1    3    3  502    0 -0.39579339572E+02 -0.31857908920E+02  0.17095802827E+02  0.53769781068E+02  0.41800000000E+01 0. -1.
         -5    1    3    3    0  502  0.44558286212E+02  0.61349309070E+02  0.54119194366E+02  0.93249869664E+02  0.41800000000E+01 0. -1.
        -11    1    1    2    0    0  0.11287500243E+02 -0.55036841500E+02 -0.51886927050E+02  0.76476890514E+02  0.00000000000E+00 0.  1.
         11    1    1    2    0    0 -0.16266446883E+02  0.25545441350E+02  0.31536931587E+01  0.30448524571E+02  0.00000000000E+00 0. -1.
</event>
<event>
 7    1  0.2714042E-009  0.1928561E+03  0.7561462E-02  0.1155910E+00
          2   -1    0    0  501    0  0.00000000000E+00  0.00000000000E+00  0.10900948854E+04  0.10900948854E+04  0.00000000000E+00 0.  1.
         -2   -1    0    0    0  501 -0.00000000000E+00 -0.00000000000E+00 -0.44828340095E+02  0.44828340095E+02  0.00000000000E+00 0. -1.
         25    2    1    2    0    0  0.49309365260E+02  0.18084649179E+03  0.64946709719E+03  0.68745483439E+03  0.12509904837E+03 0.  0.
          5    1    3    3  502    0  0.37456414979E+02  0.15147217370E+03  0.31588212058E+03  0.35234328279E+03  0.41800000000E+01 0. -1.
         -5    1    3    3    0  502  0.11852950282E+02  0.29374318084E+02  0.33358497661E+03  0.33511155160E+03  0.41800000000E+01 0. -1.
        -11    1    1    2    0    0 -0.52799467802E+02 -0.74746604061E+02  0.11305357438E+03  0.14545084840E+03  0.00000000000E+00 0. -1.
         11    1    1    2    0    0  0.34901025413E+01 -0.10609988773E+03  0.28274587378E+03  0.30201754275E+03  0.00000000000E+00 0.  1.
</event>
<event>
 7    1  0.2714042E-009  0.1541452E+03  0.7561462E-02  0.1195470E+00
         -2   -1    0    0    0  501 -0.00000000000E+00  0.00000000000E+00  0.47862520242E+03  0.47862520242E+03  0.00000000000E+00 0.  1.
          2   -1    0    0  501    0  0.00000000000E+00 -0.00000000000E+00 -0.73073317730E+02  0.73073317730E+02  0.00000000000E+00 0. -1.
         25    2    1    2    0    0 -0.12246878315E+03 -0.50498936079E+01  0.34604988743E+03  0.38784210787E+03  0.12508745651E+03 0.  0.
          5    1    3    3  502    0 -0.21111558659E+02 -0.46867707539E+02  0.48856179476E+02  0.71039978829E+02  0.41800000000E+01 0. -1.
         -5    1    3    3    0  502 -0.10135722449E+03  0.41817813931E+02  0.29719370796E+03  0.31680212905E+03  0.41800000000E+01 0. -1.
        -11    1    1    2    0    0  0.73554607689E+02  0.42894313279E+02  0.55999351761E+02  0.10191236344E+03  0.00000000000E+00 0.  1.
         11    1    1    2    0    0  0.48914175457E+02 -0.37844419672E+02  0.35026454955E+01  0.61944048838E+02  0.00000000000E+00 0. -1.
</event>
<event>
 7    1  0.2714042E-009  0.1310956E+03  0.7561462E-02  0.1225839E+00
         -2   -1    0    0    0  501 -0.00000000000E+00  0.00000000000E+00  0.35070821877E+02  0.35070821877E+02  0.00000000000E+00 0. -1.
          2   -1    0    0  501    0  0.00000000000E+00 -0.00000000000E+00 -0.64858302105E+03  0.64858302105E+03  0.00000000000E+00 0.  1.
         25    2    1    2    0    0 -0.92223629197E+02 -0.38300930978E+02 -0.26240744273E+03  0.30737151289E+03  0.12508965521E+03 0.  0.
          5    1    3    3  502    0 -0.11355756164E+03 -0.92097584932E+01 -0.14486202894E+03  0.18434375304E+03  0.41800000000E+01 0.  1.
         -5    1    3    3    0  502  0.21333932444E+02 -0.29091172485E+02 -0.11754541379E+03  0.12302775985E+03  0.41800000000E+01 0.  1.
        -11    1    1    2    0    0  0.74060735952E+02  0.50809150190E+02 -0.33986098512E+03  0.35152816609E+03  0.00000000000E+00 0.  1.
         11    1    1    2    0    0  0.18162893245E+02 -0.12508219212E+02 -0.11243771331E+02  0.24754163945E+02  0.00000000000E+00 0. -1.
</event>
<event>
 7    1  0.2714042E-009  0.1079870E+03  0.7561462E-02  0.1264344E+00
          2   -1    0    0  501    0  0.00000000000E+00  0.00000000000E+00  0.77579895313E+02  0.77579895313E+02  0.00000000000E+00 0. -1.
         -2   -1    0    0    0  501 -0.00000000000E+00 -0.00000000000E+00 -0.15778347395E+03  0.15778347395E+03  0.00000000000E+00 0.  1.
         25    2    1    2    0    0  0.15080049085E+00  0.17243843771E+01 -0.68164360120E+02  0.14247257581E+03  0.12509619748E+03 0.  0.
          5    1    3    3  502    0  0.24100471376E+02  0.58462268772E+02 -0.33728084808E+02  0.71789453929E+02  0.41800000000E+01 0. -1.
         -5    1    3    3    0  502 -0.23949670885E+02 -0.56737884395E+02 -0.34436275313E+02  0.70683121879E+02  0.41800000000E+01 0. -1.
        -11    1    1    2    0    0 -0.15373048842E+02 -0.43645890119E+02 -0.13702094321E+02  0.48260146537E+02  0.00000000000E+00 0.  1.
         11    1    1    2    0    0  0.15222248352E+02  0.41921505742E+02  0.16628758020E+01  0.44630646920E+02  0.00000000000E+00 0. -1.
</event>
<event>
 7    1  0.2714042E-009  0.1574614E+03  0.7561462E-02  0.1191593E+00
          2   -1    0    0  501    0  0.00000000000E+00  0.00000000000E+00  0.35919272813E+03  0.35919272813E+03  0.00000000000E+00 0. -1.
         -2   -1    0    0    0  501 -0.00000000000E+00 -0.00000000000E+00 -0.92486741467E+02  0.92486741467E+02  0.00000000000E+00 0.  1.
         25    2    1    2    0    0 -0.29818470236E+02  0.12148776442E+03  0.47091641962E+02  0.18307169024E+03  0.12509677435E+03 0.  0.
          5    1    3    3  502    0  0.46391019474E+02  0.33556564537E+02  0.31826460652E+02  0.65639665668E+02  0.41800000000E+01 0. -1.
         -5    1    3    3    0  502 -0.76209489711E+02  0.87931199882E+02  0.15265181310E+02  0.11743202457E+03  0.41800000000E+01 0. -1.
        -11    1    1    2    0    0  0.34614282127E+02 -0.21018827694E+02  0.20182203619E+02  0.45246668250E+02  0.00000000000E+00 0.  1.
         11    1    1    2    0    0 -0.47958118902E+01 -0.10046893673E+03  0.19943214109E+03  0.22336111111E+03  0.00000000000E+00 0. -1.
</event>
<event>
 7    1  0.2714042E-009  0.8742741E+02  0.7561462E-02  0.1309204E+00
          2   -1    0    0  501    0  0.00000000000E+00  0.00000000000E+00  0.18729716109E+03  0.18729716109E+03  0.00000000000E+00 0. -1.
         -2   -1    0    0    0  501 -0.00000000000E+00 -0.00000000000E+00 -0.65661243776E+02  0.65661243776E+02  0.00000000000E+00 0.  1.
         25    2    1    2    0    0  0.13130581784E+02 -0.18586336352E+02  0.66527049777E+02  0.14348732380E+03  0.12507957332E+03 0.  0.
          5    1    3    3  502    0 -0.99892246777E+01 -0.69838809848E+02  0.34494620466E+02  0.78642197399E+02  0.41800000000E+01 0.  1.
         -5    1    3    3    0  502  0.23119806461E+02  0.51252473496E+02  0.32032429311E+02  0.64845126400E+02  0.41800000000E+01 0.  1.
        -11    1    1    2    0    0  0.13841012418E+02  0.15296554299E+02 -0.20527544520E+02  0.29102204078E+02  0.00000000000E+00 0.  1.
         11    1    1    2    0    0 -0.26971594202E+02  0.32897820531E+01  0.75636412053E+02  0.80368876987E+02  0.00000000000E+00 0. -1.
</event>
<event>
 7    1  0.2714042E-009  0.1307192E+03  0.7561462E-02  0.1226392E+00
          2   -1    0    0  501    0  0.00000000000E+00  0.00000000000E+00  0.13090645201E+03  0.13090645201E+03  0.00000000000E+00 0. -1.
         -2   -1    0    0    0  501 -0.00000000000E+00 -0.00000000000E+00 -0.18792544736E+03  0.18792544736E+03  0.00000000000E+00 0.  1.
         25    2    1    2    0    0 -0.62599678576E+01  0.91837974961E+02  0.36931451558E+02  0.15962808713E+03  0.12507515038E+03 0.  0.
          5    1    3    3  502    0  0.58334555020E+02  0.57258419819E+02  0.21742185618E+02  0.84685547675E+02  0.41800000000E+01 0. -1.
         -5    1    3    3    0  502 -0.64594522877E+02  0.34579555143E+02  0.15189265940E+02  0.74942539451E+02  0.41800000000E+01 0. -1.
        -11    1    1    2    0    0  0.22842422008E+02 -0.85423062468E+02 -0.30858265855E+02  0.93654195935E+02  0.00000000000E+00 0. -1.
         11    1    1    2    0    0 -0.16582454150E+02 -0.64149124930E+01 -0.63092181057E+02  0.65549616311E+02  0.00000000000E+00 0.  1.
</event>
<event>
 7    1  0.2714042E-009  0.8930912E+02  0.7561462E-02  0.1304533E+00
         -2   -1    0    0    0  501 -0.00000000000E+00  0.00000000000E+00  0.18629016476E+02  0.18629016476E+02  0.00000000000E+00 0. -1.
          2   -1    0    0  501    0  0.00000000000E+00 -0.00000000000E+00 -0.64959634670E+03  0.64959634670E+03  0.00000000000E+00 0.  1.
         25    2    1    2    0    0 -0.18145886054E+02 -0.37105524581E+01 -0.34421448116E+03  0.36670740383E+03  0.12509064554E+03 0.  0.
          5    1    3    3  502    0 -0.51089180436E+02 -0.11979372159E+02 -0.32115780073E+03  0.32544341303E+03  0.41800000000E+01 0. -1.
         -5    1    3    3    0  502  0.32943294382E+02  0.82688197014E+01 -0.23056680426E+02  0.41263990794E+02  0.41800000000E+01 0. -1.
        -11    1    1    2    0    0  0.51918670569E+02  0.18185831878E+02 -0.19695218844E+03  0.20449067794E+03  0.00000000000E+00 0.  1.
         11    1    1    2    0    0 -0.33772784515E+02 -0.14475279420E+02 -0.89800660630E+02  0.97027281410E+02  0.00000000000E+00 0. -1.
</event>
<event>
 7    1  0.2714042E-009  0.8369815E+02  0.7561462E-02  0.1318873E+00
         -1   -1    0    0    0  501 -0.00000000000E+00  0.00000000000E+00  0.21560938637E+02  0.21560938637E+02  0.00000000000E+00 0.  1.
          1   -1    0    0  501    0  0.00000000000E+00 -0.00000000000E+00 -0.76731314333E+03  0.76731314333E+03  0.00000000000E+00 0. -1.
         25    2    1    2    0    0  0.45523912510E+02 -0.24803642592E+01 -0.57535879107E+03  0.59056205570E+03  0.12508886587E+03 0.  0.
          5    1    3    3  502    0  0.31649933364E+02 -0.44332994283E+02 -0.50131465028E+03  0.50428264262E+03  0.41800000000E+01 0.  1.
         -5    1    3    3    0  502  0.13873979147E+02  0.41852630024E+02 -0.74044140789E+02  0.86279413086E+02  0.41800000000E+01 0.  1.
        -11    1    1    2    0    0 -0.11749171004E+02  0.25176232292E+02 -0.53078345164E+01  0.28285310657E+02  0.00000000000E+00 0.  1.
         11    1    1    2    0    0 -0.33774741506E+02 -0.22695868033E+02 -0.16508557911E+03  0.17002671560E+03  0.00000000000E+00 0. -1.
</event>
<event>
 7    1  0.2714042E-009  0.1037347E+03  0.7561462E-02  0.1272633E+00
         -4   -1    0    0    0  501 -0.00000000000E+00  0.00000000000E+00  0.11310962019E+03  0.11310962019E+03  0.00000000000E+00 0. -1.
          4   -1    0    0  501    0  0.00000000000E+00 -0.00000000000E+00 -0.17031492426E+03  0.17031492426E+03  0.00000000000E+00 0.  1.
         25    2    1    2    0    0 -0.95107173387E+01 -0.57341544898E+02 -0.99720309966E+02  0.17020579811E+03  0.12508943590E+03 0.  0.
          5    1    3    3  502    0 -0.47252164936E+02 -0.28166241512E+02 -0.10831408271E+03  0.12155458513E+03  0.41800000000E+01 0. -1.
         -5    1    3    3    0  502  0.37741447597E+02 -0.29175303385E+02  0.85937727469E+01  0.48651212980E+02  0.41800000000E+01 0. -1.
        -11    1    1    2    0    0  0.40146977055E+02  0.61554877645E+02  0.34975134939E+02  0.81388222689E+02  0.00000000000E+00 0. -1.
         11    1    1    2    0    0 -0.30636259716E+02 -0.42133327474E+01  0.75398709590E+01  0.31830523658E+02  0.00000000000E+00 0.  1.
</event>
<event>
 7    1  0.2714042E-009  0.1688501E+03  0.7561462E-02  0.1179052E+00
         -2   -1    0    0    0  501 -0.00000000000E+00  0.00000000000E+00  0.13698664469E+03  0.13698664469E+03  0.00000000000E+00 0. -1.
          2   -1    0    0  501    0  0.00000000000E+00 -0.00000000000E+00 -0.26307414213E+03  0.26307414213E+03  0.00000000000E+00 0.  1.
         25    2    1    2    0    0  0.14153238661E+03 -0.42316657179E+02 -0.11736724885E+03  0.22637443778E+03  0.12509276175E+03 0.  0.
          5    1    3    3  502    0  0.22685375707E+02 -0.59362880391E+02 -0.76359147270E+02  0.99432236278E+02  0.41800000000E+01 0.  1.
         -5    1    3    3    0  502  0.11884701090E+03  0.17046223212E+02 -0.41008101582E+02  0.12694220150E+03  0.41800000000E+01 0.  1.
        -11    1    1    2    0    0 -0.41800769865E+02 -0.73833564626E+01  0.33962085589E+02  0.54362133618E+02  0.00000000000E+00 0. -1.
         11    1    1    2    0    0 -0.99731616745E+02  0.49700013642E+02 -0.42682334183E+02  0.11932421542E+03  0.00000000000E+00 0.  1.
</event>
<event>
 7    1  0.2714042E-009  0.6936938E+02  0.7561462E-02  0.1362251E+00
          2   -1    0    0  501    0  0.00000000000E+00  0.00000000000E+00  0.47974433011E+03  0.47974433011E+03  0.00000000000E+00 0. -1.
         -2   -1    0    0    0  501 -0.00000000000E+00 -0.00000000000E+00 -0.28104888829E+02  0.28104888829E+02  0.00000000000E+00 0.  1.
         25    2    1    2    0    0  0.39427749847E+02  0.26516135572E+01  0.27109812662E+03  0.30116535265E+03  0.12507916241E+03 0.  0.
          5    1    3    3  502    0  0.27362115169E+02  0.35332581542E+02  0.26074914728E+03  0.26458395052E+03  0.41800000000E+01 0.  1.
         -5    1    3    3    0  502  0.12065634677E+02 -0.32680967985E+02  0.10348979339E+02  0.36581402132E+02  0.41800000000E+01 0.  1.
        -11    1    1    2    0    0  0.72630031222E+01 -0.90902209861E+01 -0.68188319034E+01  0.13486281936E+02  0.00000000000E+00 0.  1.
         11    1    1    2    0    0 -0.46690752969E+02  0.64386074289E+01  0.18736014657E+03  0.19319758435E+03  0.00000000000E+00 0. -1.
</event>
<event>
 7    1  0.2714042E-009  0.1521566E+03  0.7561462E-02  0.1197848E+00
          2   -1    0    0  501    0  0.00000000000E+00  0.00000000000E+00  0.18160426187E+02  0.18160426187E+02  0.00000000000E+00 0. -1.
         -2   -1    0    0    0  501 -0.00000000000E+00 -0.00000000000E+00 -0.15780821123E+04  0.15780821123E+04  0.00000000000E+00 0.  1.
         25    2    1    2    0    0 -0.11267952280E+03 -0.46004367632E+02 -0.10953041838E+04  0.11091217809E+04  0.12508714252E+03 0.  0.
          5    1    3    3  502    0 -0.14008806560E+03 -0.35413908757E+02 -0.88334408675E+03  0.89509388281E+03  0.41800000000E+01 0. -1.
         -5    1    3    3    0  502  0.27408542803E+02 -0.10590458875E+02 -0.21196009701E+03  0.21402789809E+03  0.41800000000E+01 0. -1.
        -11    1    1    2    0    0  0.31301430588E+02  0.36598721374E+02 -0.76080492561E+02  0.90041586566E+02  0.00000000000E+00 0. -1.
         11    1    1    2    0    0  0.81378092212E+02  0.94056462582E+01 -0.38853700976E+03  0.39707917098E+03  0.00000000000E+00 0.  1.
</event>
<event>
 7    1  0.3207843E-009  0.1572451E+03  0.7561462E-02  0.1191843E+00
         -2   -1    0    0    0  501 -0.00000000000E+00  0.00000000000E+00  0.18562769420E+02  0.18562769420E+02  0.00000000000E+00 0.  1.
          2   -1    0    0  501    0  0.00000000000E+00 -0.00000000000E+00 -0.15028743028E+04  0.15028743028E+04  0.00000000000E+00 0. -1.
         25    2    1    2    0    0  0.58370464026E+02 -0.11289475754E+03 -0.80465382403E+03  0.82417742383E+03  0.12509321352E+03 0.  0.
          5    1    3    3  502    0  0.87290670016E+02 -0.10929254919E+03 -0.53792052421E+03  0.55582414948E+03  0.41800000000E+01 0.  1.
         -5    1    3    3    0  502 -0.28920205990E+02 -0.36022083526E+01 -0.26673329982E+03  0.26835327435E+03  0.41800000000E+01 0.  1.
        -11    1    1    2    0    0 -0.46536674895E+02  0.18661042086E+02 -0.12769515272E+03  0.13718581789E+03  0.00000000000E+00 0.  1.
         11    1    1    2    0    0 -0.11833789131E+02  0.94233715454E+02 -0.55196255661E+03  0.56007383049E+03  0.00000000000E+00 0. -1.
</event>
<event>
 7    1  0.2714042E-009  0.2300375E+03  0.7561462E-02  0.1126613E+00
         -2   -1    0    0    0  501 -0.00000000000E+00  0.00000000000E+00  0.53979349384E+02  0.53979349384E+02  0.00000000000E+00 0.  1.
          2   -1    0    0  501    0  0.00000000000E+00 -0.00000000000E+00 -0.12721195702E+04  0.12721195702E+04  0.00000000000E+00 0. -1.
         25    2    1    2    0    0 -0.20403100068E+03 -0.36288291194E+02 -0.32851458227E+03  0.40806286230E+03  0.12509188426E+03 0.  0.
          5    1    3    3  502    0 -0.19632810865E+03  0.37047504955E+01 -0.23699503387E+03  0.30780281009E+03  0.41800000000E+01 0. -1.
         -5    1    3    3    0  502 -0.77028920344E+01 -0.39993041689E+02 -0.91519548401E+02  0.10026005221E+03  0.41800000000E+01 0. -1.
        -11    1    1    2    0    0  0.10047204316E+03 -0.23448884380E+02 -0.32870505275E+03  0.34451631796E+03  0.00000000000E+00 0. -1.
         11    1    1    2    0    0  0.10355895752E+03  0.59737175574E+02 -0.56092058577E+03  0.57351973930E+03  0.00000000000E+00 0.  1.
</event>
<event>
 7    1  0.2714042E-009  0.9308609E+02  0.7561462E-02  0.1295546E+00
          1   -1    0    0  501    0  0.00000000000E+00  0.00000000000E+00  0.25558601274E+03  0.25558601274E+03  0.00000000000E+00 0. -1.
         -1   -1    0    0    0  501 -0.00000000000E+00 -0.00000000000E+00 -0.57370705644E+02  0.57370705644E+02  0.00000000000E+00 0.  1.
         25    2    1    2    0    0 -0.36667152018E+02 -0.26974262132E+02  0.72777417653E+02  0.15170838064E+03  0.12508712716E+03 0.  0.
          5    1    3    3  502    0 -0.49935584926E+02 -0.55735788672E+02  0.30525746521E+01  0.75012208292E+02  0.41800000000E+01 0. -1.
         -5    1    3    3    0  502  0.13268432908E+02  0.28761526541E+02  0.69724843001E+02  0.76696172345E+02  0.41800000000E+01 0. -1.
        -11    1    1    2    0    0  0.55032749946E+01  0.43603811270E+02  0.11692741912E+03  0.12491436961E+03  0.00000000000E+00 0.  1.
         11    1    1    2    0    0  0.31163877023E+02 -0.16629549139E+02  0.85104703262E+01  0.36333968141E+02  0.00000000000E+00 0. -1.
</event>
<event>
 7    1  0.2714042E-009  0.8045579E+02  0.7561462E-02  0.1327763E+00
         -2   -1    0    0    0  501 -0.00000000000E+00  0.00000000000E+00  0.43933496750E+03  0.43933496750E+03  0.00000000000E+00 0.  1.
          2   -1    0    0  501    0  0.00000000000E+00 -0.00000000000E+00 -0.30605731838E+02  0.30605731838E+02  0.00000000000E+00 0. -1.
         25    2    1    2    0    0  0.34429408047E+02 -0.32921898548E+01  0.29158277759E+03  0.31916168059E+03  0.12508972588E+03 0.  0.
          5    1    3    3  502    0  0.29117356893E+02  0.48195041668E+02  0.62332116147E+02  0.84103196236E+02  0.41800000000E+01 0.  1.
         -5    1    3    3    0  502  0.53120511534E+01 -0.51487231522E+02  0.22925066144E+03  0.23505848436E+03  0.41800000000E+01 0.  1.
        -11    1    1    2    0    0  0.55684152821E+01  0.10492856371E+02 -0.11093453795E+02  0.16253368903E+02  0.00000000000E+00 0. -1.
         11    1    1    2    0    0 -0.39997823329E+02 -0.72006665162E+01  0.12823991187E+03  0.13452564985E+03  0.00000000000E+00 0.  1.
</event>
<event>
 7    1  0.2714042E-009  0.1148912E+03  0.7561462E-02  0.1251771E+00
          3   -1    0    0  501    0  0.00000000000E+00  0.00000000000E+00  0.75713110950E+02  0.75713110950E+02  0.00000000000E+00 0. -1.
         -3   -1    0    0    0  501 -0.00000000000E+00 -0.00000000000E+00 -0.29202958416E+03  0.29202958416E+03  0.00000000000E+00 0.  1.
         25    2    1    2    0    0 -0.64057094753E+02 -0.63531296175E+02 -0.60691462677E+02  0.16574427607E+03  0.12509266336E+03 0.  0.
          5    1    3    3  502    0  0.22526715547E+01 -0.70665888513E+02 -0.68419436166E+02  0.98475550131E+02  0.41800000000E+01 0.  1.
         -5    1    3    3    0  502 -0.66309766308E+02  0.71345923376E+01  0.77279734890E+01  0.67268725942E+02  0.41800000000E+01 0.  1.
        -11    1    1    2    0    0  0.94257206402E+01  0.20594368128E+02 -0.12329914372E+03  0.12536207979E+03  0.00000000000E+00 0.  1.
         11    1    1    2    0    0  0.54631374113E+02  0.42936928048E+02 -0.32325866819E+02  0.76636339247E+02  0.00000000000E+00 0. -1.
</event>
<event>
 7    1  0.2714042E-009  0.2117347E+03  0.7561462E-02  0.1140200E+00
          1   -1    0    0  501    0  0.00000000000E+00  0.00000000000E+00  0.36824815366E+02  0.36824815366E+02  0.00000000000E+00 0. -1.
         -1   -1    0    0    0  501 -0.00000000000E+00 -0.00000000000E+00 -0.15379343424E+04  0.15379343424E+04  0.00000000000E+00 0.  1.
         25    2    1    2    0    0 -0.62439440073E+02  0.18785874300E+03 -0.52934908517E+03  0.57882946938E+03  0.12507401672E+03 0.  0.
          5    1    3    3  502    0  0.23397401143E+02  0.29112286725E+02 -0.19765502027E+03  0.20119627993E+03  0.41800000000E+01 0.  1.
         -5    1    3    3    0  502 -0.85836841217E+02  0.15874645627E+03 -0.33169406490E+03  0.37763318945E+03  0.41800000000E+01 0.  1.
        -11    1    1    2    0    0  0.69063548427E+02 -0.13065310275E+03 -0.82762180273E+03  0.84071270678E+03  0.00000000000E+00 0.  1.
         11    1    1    2    0    0 -0.66241083540E+01 -0.57205640245E+02 -0.14413863910E+03  0.15521698157E+03  0.00000000000E+00 0. -1.
</event>
<event>
 7    1  0.2714042E-009  0.1084502E+03  0.7561462E-02  0.1263467E+00
         -2   -1    0    0    0  501 -0.00000000000E+00  0.00000000000E+00  0.12629426059E+02  0.12629426059E+02  0.00000000000E+00 0.  1.
          2   -1    0    0  501    0  0.00000000000E+00 -0.00000000000E+00 -0.13425426294E+04  0.13425426294E+04  0.00000000000E+00 0. -1.
         25    2    1    2    0    0  0.26821922895E+02  0.46819291905E+02 -0.99905045447E+03  0.10082958957E+04  0.12508933203E+03 0.  0.
          5    1    3    3  502    0 -0.19324901232E+02  0.63124717784E+02 -0.81894231135E+03  0.82160949575E+03  0.41800000000E+01 0.  1.
         -5    1    3    3    0  502  0.46146824127E+02 -0.16305425879E+02 -0.18010814312E+03  0.18668639990E+03  0.41800000000E+01 0.  1.
        -11    1    1    2    0    0  0.25380654098E+02 -0.42173588507E+02 -0.12239822471E+03  0.13192465494E+03  0.00000000000E+00 0. -1.
         11    1    1    2    0    0 -0.52202576993E+02 -0.46457033978E+01 -0.20846452413E+03  0.21495150483E+03  0.00000000000E+00 0.  1.
</event>
<event>
 7    1  0.2714042E-009  0.1264803E+03  0.7561462E-02  0.1232774E+00
          1   -1    0    0  501    0  0.00000000000E+00  0.00000000000E+00  0.13050241730E+03  0.13050241730E+03  0.00000000000E+00 0. -1.
         -1   -1    0    0    0  501 -0.00000000000E+00 -0.00000000000E+00 -0.15903704384E+03  0.15903704384E+03  0.00000000000E+00 0.  1.
         25    2    1    2    0    0  0.17346838982E+02  0.83574556655E+02 -0.23206553039E+02  0.15320107179E+03  0.12508559050E+03 0.  0.
          5    1    3    3  502    0 -0.13384809489E+01  0.98652182033E+02  0.22610732013E+02  0.10130529183E+03  0.41800000000E+01 0. -1.
         -5    1    3    3    0  502  0.18685319931E+02 -0.15077625379E+02 -0.45817285053E+02  0.51895779959E+02  0.41800000000E+01 0. -1.
        -11    1    1    2    0    0 -0.54011360043E+02 -0.74587671902E+02 -0.22603641036E+02  0.94823374763E+02  0.00000000000E+00 0.  1.
         11    1    1    2    0    0  0.36664521061E+02 -0.89868847530E+01  0.17275567538E+02  0.41515014584E+02  0.00000000000E+00 0. -1.
</event>
<event>
 7    1  0.4694161E-009  0.1375565E+03  0.7561462E-02  0.1216655E+00
          2   -1    0    0  501    0  0.00000000000E+00  0.00000000000E+00  0.36636368165E+03  0.36636368165E+03  0.00000000000E+00 0. -1.
         -2   -1    0    0    0  501 -0.00000000000E+00 -0.00000000000E+00 -0.68126722645E+02  0.68126722645E+02  0.00000000000E+00 0.  1.
         25    2    1    2    0    0 -0.11277728311E+03  0.13153999816E+02  0.18012629299E+03  0.24694637730E+03  0.12508112782E+03 0.  0.
          5    1    3    3  502    0 -0.10110098741E+03  0.38286619118E+02  0.60242293701E+02  0.12383004970E+03  0.41800000000E+01 0. -1.
         -5    1    3    3    0  502 -0.11676295698E+02 -0.25132619302E+02  0.11988399929E+03  0.12311632760E+03  0.41800000000E+01 0. -1.
        -11    1    1    2    0    0  0.22630350003E+02  0.31110256445E+02  0.95161993897E+01  0.39630024580E+02  0.00000000000E+00 0.  1.
         11    1    1    2    0    0  0.90146933106E+02 -0.44264256261E+02  0.10859446662E+03  0.14791400242E+03  0.00000000000E+00 0. -1.
</event>
<event>
 7    1  0.2714042E-009  0.1043946E+03  0.7561462E-02  0.1271317E+00
         -1   -1    0    0    0  501 -0.00000000000E+00  0.00000000000E+00  0.17822783194E+03  0.17822783194E+03  0.00000000000E+00 0.  1.
          1   -1    0    0  501    0  0.00000000000E+00 -0.00000000000E+00 -0.94010175186E+02  0.94010175186E+02  0.00000000000E+00 0. -1.
         25    2    1    2    0    0 -0.42096902738E+02  0.54596311754E+02  0.29892578007E+02  0.14592805197E+03  0.12509405923E+03 0.  0.
          5    1    3    3  502    0 -0.41321245203E+02  0.71585842559E+02  0.65961696768E+02  0.10583192335E+03  0.41800000000E+01 0. -1.
         -5    1    3    3    0  502 -0.77565753457E+00 -0.16989530805E+02 -0.36069118761E+02  0.40096128614E+02  0.41800000000E+01 0. -1.
        -11    1    1    2    0    0  0.63389963749E+02 -0.59193913088E+02  0.25934665364E+02  0.90525210402E+02  0.00000000000E+00 0. -1.
         11    1    1    2    0    0 -0.21293061011E+02  0.45976013342E+01  0.28390413383E+02  0.35784744757E+02  0.00000000000E+00 0.  1.
</event>
<event>
 7    1  0.2714042E-009  0.1275644E+03  0.7561462E-02  0.1231115E+00
          3   -1    0    0  501    0  0.00000000000E+00  0.00000000000E+00  0.62102389293E+02  0.62102389293E+02  0.00000000000E+00 0. -1.
         -3   -1    0    0    0  501 -0.00000000000E+00 -0.00000000000E+00 -0.30295275760E+03  0.30295275760E+03  0.00000000000E+00 0.  1.
         25    2    1    2    0    0 -0.57615531580E+02  0.61681384110E+02 -0.14585272124E+03  0.20986902792E+03  0.12509136645E+03 0.  0.
          5    1    3    3  502    0 -0.62440962651E+02  0.88813914532E+02 -0.14600672477E+03  0.18199511342E+03  0.41800000000E+01 0.  1.
         -5    1    3    3    0  502  0.48254310708E+01 -0.27132530422E+02  0.15400353020E+00  0.27873914494E+02  0.41800000000E+01 0.  1.
        -11    1    1    2    0    0 -0.18989213913E+02  0.18599937203E+01 -0.23747216660E+01  0.19227301544E+02  0.00000000000E+00 0.  1.
         11    1    1    2    0    0  0.76604745493E+02 -0.63541377830E+02 -0.92622925405E+02  0.13595881744E+03  0.00000000000E+00 0. -1.
</event>
<event>
 7    1  0.2714042E-009  0.1239212E+03  0.7561462E-02  0.1236765E+00
          1   -1    0    0  501    0  0.00000000000E+00  0.00000000000E+00  0.21102017735E+02  0.21102017735E+02  0.00000000000E+00 0. -1.
         -1   -1    0    0    0  501 -0.00000000000E+00 -0.00000000000E+00 -0.12804985432E+04  0.12804985432E+04  0.00000000000E+00 0.  1.
         25    2    1    2    0    0  0.58742907417E+02  0.10845585695E+02 -0.10901698800E+04  0.10989476293E+04  0.12508864381E+03 0.  0.
          5    1    3    3  502    0  0.92377859084E+02  0.30664612156E+02 -0.68759382362E+03  0.69446146471E+03  0.41800000000E+01 0. -1.
         -5    1    3    3    0  502 -0.33634951667E+02 -0.19819026461E+02 -0.40257605641E+03  0.40448616463E+03  0.41800000000E+01 0. -1.
        -11    1    1    2    0    0  0.18919081461E+02 -0.25873682563E+02 -0.56151262587E+02  0.64655575033E+02  0.00000000000E+00 0.  1.
         11    1    1    2    0    0 -0.77661988878E+02  0.15028096868E+02 -0.11307538286E+03  0.13799735657E+03  0.00000000000E+00 0. -1.
</event>
<event>
 7    1  0.2714042E-009  0.1254046E+03  0.7561462E-02  0.1234438E+00
          3   -1    0    0  501    0  0.00000000000E+00  0.00000000000E+00  0.20533353311E+03  0.20533353311E+03  0.00000000000E+00 0. -1.
         -3   -1    0    0    0  501 -0.00000000000E+00 -0.00000000000E+00 -0.87042538816E+02  0.87042538816E+02  0.00000000000E+00 0.  1.
         25    2    1    2    0    0  0.16556112214E+01 -0.79353490073E+02  0.62073464196E+02  0.16062279851E+03  0.12508737349E+03 0.  0.
          5    1    3    3  502    0 -0.29776605204E+02 -0.10162351554E+03  0.60079111539E+02  0.12182346725E+03  0.41800000000E+01 0.  1.
         -5    1    3    3    0  502  0.31432216425E+02  0.22270025468E+02  0.19943526578E+01  0.38799331260E+02  0.41800000000E+01 0.  1.
        -11    1    1    2    0    0  0.31275821967E+02  0.60576901705E+02  0.63483153712E+02  0.93154972305E+02  0.00000000000E+00 0. -1.
         11    1    1    2    0    0 -0.32931433188E+02  0.18776588368E+02 -0.72656236129E+01  0.38598301116E+02  0.00000000000E+00 0.  1.
</event>
<event>
 7    1  0.2714042E-009  0.3708475E+03  0.7561462E-02  0.1054369E+00
         -2   -1    0    0    0  501 -0.00000000000E+00  0.00000000000E+00  0.81972161100E+03  0.81972161100E+03  0.00000000000E+00 0.  1.
          2   -1    0    0  501    0  0.00000000000E+00 -0.00000000000E+00 -0.17353177705E+03  0.17353177705E+03  0.00000000000E+00 0. -1.
         25    2    1    2    0    0  0.17903495437E+03 -0.31181715688E+03  0.28174102154E+03  0.47361411130E+03  0.12509543954E+03 0.  0.
          5    1    3    3  502    0  0.15152645434E+03 -0.31557648851E+03  0.24470271111E+03  0.42713660074E+03  0.41800000000E+01 0.  1.
         -5    1    3    3    0  502  0.27508500028E+02  0.37593316379E+01  0.37038310430E+02  0.46477510558E+02  0.41800000000E+01 0.  1.
        -11    1    1    2    0    0 -0.13202480108E+03  0.17749684229E+03  0.17160412010E+03  0.27997080412E+03  0.00000000000E+00 0. -1.
         11    1    1    2    0    0 -0.47010153286E+02  0.13432031458E+03  0.19284469230E+03  0.23966847263E+03  0.00000000000E+00 0.  1.
</event>
<event>
 7    1  0.2714042E-009  0.8384312E+02  0.7561462E-02  0.1318486E+00
         -1   -1    0    0    0  501 -0.00000000000E+00  0.00000000000E+00  0.34390363470E+02  0.34390363470E+02  0.00000000000E+00 0.  1.
          1   -1    0    0  501    0  0.00000000000E+00 -0.00000000000E+00 -0.37603644684E+03  0.37603644684E+03  0.00000000000E+00 0. -1.
         25    2    1    2    0    0  0.15551847306E+02  0.33003168535E+02 -0.19398404562E+03  0.23368444462E+03  0.12509012998E+03 0.  0.
          5    1    3    3  502    0 -0.23856396203E+02 -0.45981409406E+01  0.68229536935E+01  0.25579203213E+02  0.41800000000E+01 0. -1.
         -5    1    3    3    0  502  0.39408243510E+02  0.37601309476E+02 -0.20080699931E+03  0.20810524141E+03  0.41800000000E+01 0. -1.
        -11    1    1    2    0    0 -0.15793163306E+02 -0.59676155911E+02 -0.63950611452E+02  0.88883903474E+02  0.00000000000E+00 0.  1.
         11    1    1    2    0    0  0.24131600003E+00  0.26672987376E+02 -0.83711426303E+02  0.87858462215E+02  0.00000000000E+00 0. -1.
</event>
<event>
 7    1  0.2714042E-009  0.1162039E+03  0.7561462E-02  0.1249494E+00
         -2   -1    0    0    0  501 -0.00000000000E+00  0.00000000000E+00  0.11431385955E+03  0.11431385955E+03  0.00000000000E+00 0.  1.
          2   -1    0    0  501    0  0.00000000000E+00 -0.00000000000E+00 -0.15080302037E+03  0.15080302037E+03  0.00000000000E+00 0. -1.
         25    2    1    2    0    0  0.13209050644E+02 -0.71757959941E+02 -0.33076189538E+02  0.14854361970E+03  0.12508992287E+03 0.  0.
          5    1    3    3  502    0 -0.61889504572E+01 -0.10439963423E+03 -0.34813263371E+02  0.11030422676E+03  0.41800000000E+01 0. -1.
         -5    1    3    3    0  502  0.19398001102E+02  0.32641674285E+02  0.17370738325E+01  0.38239392939E+02  0.41800000000E+01 0. -1.
        -11    1    1    2    0    0 -0.20353127081E+02  0.31891075157E+01 -0.35100360254E+02  0.40699575903E+02  0.00000000000E+00 0. -1.
         11    1    1    2    0    0  0.71440764371E+01  0.68568852426E+02  0.31687388972E+02  0.75873684311E+02  0.00000000000E+00 0.  1.
</event>
<event>
 7    1  0.2714042E-009  0.2638600E+03  0.7561462E-02  0.1104846E+00
          4   -1    0    0  501    0  0.00000000000E+00  0.00000000000E+00  0.12682026311E+04  0.12682026311E+04  0.00000000000E+00 0. -1.
         -4   -1    0    0    0  501 -0.00000000000E+00 -0.00000000000E+00 -0.77724373428E+02  0.77724373428E+02  0.00000000000E+00 0.  1.
         25    2    1    2    0    0  0.24954240320E+03 -0.78622233401E+02  0.88897652003E+03  0.93508218961E+03  0.12508629657E+03 0.  0.
          5    1    3    3  502    0  0.14827134411E+03 -0.23677855009E+02  0.68019502919E+03  0.69658293292E+03  0.41800000000E+01 0. -1.
         -5    1    3    3    0  502  0.10127105909E+03 -0.54944378393E+02  0.20878149084E+03  0.23849925670E+03  0.41800000000E+01 0. -1.
        -11    1    1    2    0    0 -0.14929601048E+03  0.55998165434E+02  0.11065170630E+03  0.19408475825E+03  0.00000000000E+00 0.  1.
         11    1    1    2    0    0 -0.10024639272E+03  0.22624067968E+02  0.19085003137E+03  0.21676005670E+03  0.00000000000E+00 0. -1.
</event>
<event>
 7    1  0.2714042E-009  0.1392405E+03  0.7561462E-02  0.1214355E+00
         -2   -1    0    0    0  501 -0.00000000000E+00  0.00000000000E+00  0.58513388930E+02  0.58513388930E+02  0.00000000000E+00 0.  1.
          2   -1    0    0  501    0  0.00000000000E+00 -0.00000000000E+00 -0.53599152487E+03  0.53599152487E+03  0.00000000000E+00 0. -1.
         25    2    1    2    0    0  0.84914000624E+02  0.47974393647E+02 -0.86331535543E+02  0.18059048261E+03  0.12509140031E+03 0.  0.
          5    1    3    3  502    0 -0.11898012590E+02  0.59449917255E+02 -0.38253364577E+02  0.71809802024E+02  0.41800000000E+01 0. -1.
         -5    1    3    3    0  502  0.96812013214E+02 -0.11475523608E+02 -0.48078170966E+02  0.10878068058E+03  0.41800000000E+01 0. -1.
        -11    1    1    2    0    0 -0.12889342127E+01  0.15243222392E+02 -0.92184617525E+01  0.17860493201E+02  0.00000000000E+00 0.  1.
         11    1    1    2    0    0 -0.83625066411E+02 -0.63217616039E+02 -0.38192813864E+03  0.39605393799E+03  0.00000000000E+00 0. -1.
</event>
<event>
 7    1  0.2714042E-009  0.9051403E+02  0.7561462E-02  0.1301612E+00
         -2   -1    0    0    0  501 -0.00000000000E+00  0.00000000000E+00  0.49884469952E+02  0.49884469952E+02  0.00000000000E+00 0.  1.
          2   -1    0    0  501    0  0.00000000000E+00 -0.00000000000E+00 -0.27294916964E+03  0.27294916964E+03  0.00000000000E+00 0. -1.
         25    2    1    2    0    0 -0.45657870962E+02  0.68633462143E+01 -0.12005298179E+03  0.17941430530E+03  0.12508008557E+03 0.  0.
          5    1    3    3  502    0 -0.40160347790E+02  0.45034992211E+02 -0.82159643735E+01  0.61040793971E+02  0.41800000000E+01 0.  1.
         -5    1    3    3    0  502 -0.54975231721E+01 -0.38171645996E+02 -0.11183701742E+03  0.11837351133E+03  0.41800000000E+01 0.  1.
        -11    1    1    2    0    0  0.23229450160E+02 -0.37301005350E+02 -0.13056465156E+02  0.45841505617E+02  0.00000000000E+00 0.  1.
         11    1    1    2    0    0  0.22428420802E+02  0.30437659136E+02 -0.89955252735E+02  0.97577828670E+02  0.00000000000E+00 0. -1.
</event>
<event>
 7    1  0.2714042E-009  0.1200953E+03  0.7561462E-02  0.1242940E+00
         -2   -1    0    0    0  501 -0.00000000000E+00  0.00000000000E+00  0.22686318038E+02  0.22686318038E+02  0.00000000000E+00 0.  1.
          2   -1    0    0  501    0  0.00000000000E+00 -0.00000000000E+00 -0.12322756505E+04  0.12322756505E+04  0.00000000000E+00 0. -1.
         25    2    1    2    0    0 -0.10285016070E+03  0.57652420060E+01 -0.92824288795E+03  0.94228200637E+03  0.12509647046E+03 0.  0.
          5    1    3    3  502    0 -0.90779707073E+02  0.13632525412E+02 -0.29768214642E+03  0.31154282797E+03  0.41800000000E+01 0.  1.
         -5    1    3    3    0  502 -0.12070453623E+02 -0.78672834056E+01 -0.63056074153E+03  0.63073917839E+03  0.41800000000E+01 0.  1.
        -11    1    1    2    0    0  0.11540144091E+02 -0.35450571613E+02 -0.11157351750E+03  0.11763744200E+03  0.00000000000E+00 0.  1.
         11    1    1    2    0    0  0.91310016605E+02  0.29685329607E+02 -0.16977292698E+03  0.19504252014E+03  0.00000000000E+00 0. -1.
</event>
<event>
 7    1  0.2714042E-009  0.1377852E+03  0.7561462E-02  0.1216341E+00
          2   -1    0    0  501    0  0.00000000000E+00  0.00000000000E+00  0.18216217584E+03  0.18216217584E+03  0.00000000000E+00 0. -1.
         -2   -1    0    0    0  501 -0.00000000000E+00 -0.00000000000E+00 -0.16777758768E+03  0.16777758768E+03  0.00000000000E+00 0.  1.
         25    2    1    2    0    0  0.34767995168E+02 -0.12089101803E+03 -0.45831124389E+02  0.18322796263E+03  0.12509413496E+03 0.  0.
          5    1    3    3  502    0  0.39233985792E+02 -0.96394777385E+02  0.25776572286E+02  0.10729940739E+03  0.41800000000E+01 0.  1.
         -5    1    3    3    0  502 -0.44659906238E+01 -0.24496240645E+02 -0.71607696675E+02  0.75928555241E+02  0.41800000000E+01 0.  1.
        -11    1    1    2    0    0  0.22306219820E+01 -0.99480229480E+01  0.23888379900E+02  0.25972938402E+02  0.00000000000E+00 0. -1.
         11    1    1    2    0    0 -0.36998617151E+02  0.13083904098E+03  0.36327332650E+02  0.14073886248E+03  0.00000000000E+00 0.  1.
</event>
<event>
 7    1  0.2714042E-009  0.1433210E+03  0.7561462E-02  0.1208929E+00
          1   -1    0    0  501    0  0.00000000000E+00  0.00000000000E+00  0.92369688880E+02  0.92369688880E+02  0.00000000000E+00 0. -1.
         -1   -1    0    0    0  501 -0.00000000000E+00 -0.00000000000E+00 -0.31531930383E+03  0.31531930383E+03  0.00000000000E+00 0.  1.
         25    2    1    2    0    0  0.68355777426E+02 -0.10020052382E+03 -0.17817234169E+03  0.24921644305E+03  0.12510313689E+03 0.  0.
          5    1    3    3  502    0 -0.39371596260E+01  0.22235502833E+02 -0.23904808832E+01  0.23089079908E+02  0.41800000000E+01 0.  1.
         -5    1    3    3    0  502  0.72292937052E+02 -0.12243602665E+03 -0.17578186081E+03  0.22612736314E+03  0.41800000000E+01 0.  1.
        -11    1    1    2    0    0 -0.39037600804E+02  0.52181625566E+02 -0.71022835253E+02  0.96390349365E+02  0.00000000000E+00 0.  1.
         11    1    1    2    0    0 -0.29318176622E+02  0.48018898255E+02  0.26245561993E+02  0.62082200302E+02  0.00000000000E+00 0. -1.
</event>
<event>
 7    1  0.2714042E-009  0.1259996E+03  0.7561462E-02  0.1233515E+00
         -2   -1    0    0    0  501 -0.00000000000E+00  0.00000000000E+00  0.13679664869E+03  0.13679664869E+03  0.00000000000E+00 0.  1.
          2   -1    0    0  501    0  0.00000000000E+00 -0.00000000000E+00 -0.15788776343E+03  0.15788776343E+03  0.00000000000E+00 0. -1.
         25    2    1    2    0    0  0.55226408185E+02 -0.81222733698E+02 -0.70131590127E+01  0.15918953325E+03  0.12508011219E+03 0.  0.
          5    1    3    3  502    0  0.31799252380E+02 -0.93985738425E+02 -0.47848119761E+02  0.11023350872E+03  0.41800000000E+01 0. -1.
         -5    1    3    3    0  502  0.23427155805E+02  0.12763004727E+02  0.40834960748E+02  0.48956024533E+02  0.41800000000E+01 0. -1.
        -11    1    1    2    0    0  0.19932452902E+02  0.24163862882E+02  0.17631869514E+02  0.35945483314E+02  0.00000000000E+00 0.  1.
         11    1    1    2    0    0 -0.75158861087E+02  0.57058870815E+02 -0.31709825245E+02  0.99549395557E+02  0.00000000000E+00 0. -1.
</event>
<event>
 7    1  0.2714042E-009  0.8586228E+02  0.7561462E-02  0.1313193E+00
         -3   -1    0    0    0  501 -0.00000000000E+00  0.00000000000E+00  0.54270129581E+02  0.54270129581E+02  0.00000000000E+00 0.  1.
          3   -1    0    0  501    0  0.00000000000E+00 -0.00000000000E+00 -0.22553946114E+03  0.22553946114E+03  0.00000000000E+00 0. -1.
         25    2    1    2    0    0  0.14493944834E+02 -0.10258488437E+02 -0.12180695767E+03  0.17550199804E+03  0.12509478549E+03 0.  0.
          5    1    3    3  502    0 -0.34507668764E+02 -0.34225090833E+01 -0.12089688302E+03  0.12584125514E+03  0.41800000000E+01 0.  1.
         -5    1    3    3    0  502  0.49001613598E+02 -0.68359793540E+01 -0.91007464995E+00  0.49660742895E+02  0.41800000000E+01 0.  1.
        -11    1    1    2    0    0 -0.41935708607E+02 -0.19858503125E+02 -0.42599487685E+02  0.62989524159E+02  0.00000000000E+00 0. -1.
         11    1    1    2    0    0  0.27441763773E+02  0.30116991562E+02 -0.68628862077E+01  0.41318068528E+02  0.00000000000E+00 0.  1.
</event>
<event>
 7    1  0.3338537E-009  0.1091050E+03  0.7561462E-02  0.1262236E+00
          2   -1    0    0  501    0  0.00000000000E+00  0.00000000000E+00  0.47959960909E+03  0.47959960909E+03  0.00000000000E+00 0. -1.
         -2   -1    0    0    0  501 -0.00000000000E+00 -0.00000000000E+00 -0.33579973694E+02  0.33579973694E+02  0.00000000000E+00 0.  1.
         25    2    1    2    0    0 -0.38110786921E+02  0.49632762481E+02  0.20877679319E+03  0.25129836911E+03  0.12508907927E+03 0.  0.
          5    1    3    3  502    0 -0.34708297909E+02 -0.20862310360E+02  0.12361916778E+02  0.42546343247E+02  0.41800000000E+01 0. -1.
         -5    1    3    3    0  502 -0.34024890125E+01  0.70495072841E+02  0.19641487641E+03  0.20875202586E+03  0.41800000000E+01 0. -1.
        -11    1    1    2    0    0  0.62066763193E+02 -0.54211570587E+02  0.20843972404E+03  0.22413901052E+03  0.00000000000E+00 0. -1.
         11    1    1    2    0    0 -0.23955976272E+02  0.45788081056E+01  0.28803118169E+02  0.37742203156E+02  0.00000000000E+00 0.  1.
</event>
<event>
 7    1  0.2714042E-009  0.2249871E+03  0.7561462E-02  0.1130219E+00
          2   -1    0    0  501    0  0.00000000000E+00  0.00000000000E+00  0.45013301378E+03  0.45013301378E+03  0.00000000000E+00 0. -1.
         -2   -1    0    0    0  501 -0.00000000000E+00 -0.00000000000E+00 -0.13174139916E+03  0.13174139916E+03  0.00000000000E+00 0.  1.
         25    2    1    2    0    0 -0.41302240295E+02 -0.19687958967E+03  0.64782151349E+02  0.24558276660E+03  0.12508685077E+03 0.  0.
          5    1    3    3  502    0 -0.63115834922E+02 -0.19835321615E+03  0.39519121872E+02  0.21191234124E+03  0.41800000000E+01 0.  1.
         -5    1    3    3    0  502  0.21813594627E+02  0.14736264843E+01  0.25263029477E+02  0.33670425360E+02  0.41800000000E+01 0.  1.
        -11    1    1    2    0    0  0.11467634253E+02  0.18805977112E+03  0.22950576478E+03  0.29693581834E+03  0.00000000000E+00 0. -1.
         11    1    1    2    0    0  0.29834606042E+02  0.88198185524E+01  0.24103698485E+02  0.39355828001E+02  0.00000000000E+00 0.  1.
</event>
<event>
 7    1  0.2714042E-009  0.7195501E+02  0.7561462E-02  0.1353568E+00
          2   -1    0    0  501    0  0.00000000000E+00  0.00000000000E+00  0.28585761533E+03  0.28585761533E+03  0.00000000000E+00 0. -1.
         -2   -1    0    0    0  501 -0.00000000000E+00 -0.00000000000E+00 -0.49620684447E+02  0.49620684447E+02  0.00000000000E+00 0.  1.
         25    2    1    2    0    0 -0.16990107874E+02  0.15749928621E+01  0.62397663014E+02  0.14082610714E+03  0.12508948691E+03 0.  0.
          5    1    3    3  502    0 -0.12396408928E+01  0.37060779826E+02 -0.25125859062E+02  0.44986879248E+02  0.41800000000E+01 0.  1.
         -5    1    3    3    0  502 -0.15750466981E+02 -0.35485786964E+02  0.87523522076E+02  0.95839227893E+02  0.41800000000E+01 0.  1.
        -11    1    1    2    0    0  0.13557578264E+02 -0.33133767527E+02  0.15190491572E+03  0.15606651755E+03  0.00000000000E+00 0. -1.
         11    1    1    2    0    0  0.34325296099E+01  0.31558774664E+02  0.21934352145E+02  0.38585675086E+02  0.00000000000E+00 0.  1.
</event>
<event>
 7    1  0.2714042E-009  0.8104502E+02  0.7561462E-02  0.1326112E+00
         -1   -1    0    0    0  501 -0.00000000000E+00  0.00000000000E+00  0.19206576942E+03  0.19206576942E+03  0.00000000000E+00 0.  1.
          1   -1    0    0  501    0  0.00000000000E+00 -0.00000000000E+00 -0.67176010746E+02  0.67176010746E+02  0.00000000000E+00 0. -1.
         25    2    1    2    0    0 -0.29828661960E+02  0.16255163554E+02  0.61391862469E+02  0.14342373073E+03  0.12508967321E+03 0.  0.
          5    1    3    3  502    0 -0.46919379824E+02 -0.26319142984E+02 -0.13386281507E+02  0.55594877669E+02  0.41800000000E+01 0.  1.
         -5    1    3    3    0  502  0.17090717864E+02  0.42574306538E+02  0.74778143976E+02  0.87828853065E+02  0.41800000000E+01 0.  1.
        -11    1    1    2    0    0 -0.40217746556E+01  0.15280106488E+02 -0.16852203194E+02  0.23100932409E+02  0.00000000000E+00 0. -1.
         11    1    1    2    0    0  0.33850436616E+02 -0.31535270042E+02  0.80350099399E+02  0.92717117023E+02  0.00000000000E+00 0.  1.
</event>
<event>
 7    1  0.2714042E-009  0.1512988E+03  0.7561462E-02  0.1198886E+00
          1   -1    0    0  501    0  0.00000000000E+00  0.00000000000E+00  0.19764308751E+02  0.19764308751E+02  0.00000000000E+00 0. -1.
         -1   -1    0    0    0  501 -0.00000000000E+00 -0.00000000000E+00 -0.15412275956E+04  0.15412275956E+04  0.00000000000E+00 0.  1.
         25    2    1    2    0    0 -0.80093125380E+01  0.10698326739E+03 -0.11888301662E+04  0.12001976247E+04  0.12509038980E+03 0.  0.
          5    1    3    3  502    0  0.24680202056E+02  0.12439809919E+03 -0.87248375204E+03  0.88166284340E+03  0.41800000000E+01 0. -1.
         -5    1    3    3    0  502 -0.32689514594E+02 -0.17414831804E+02 -0.31634641419E+03  0.31853478130E+03  0.41800000000E+01 0. -1.
        -11    1    1    2    0    0 -0.33895629947E+02 -0.14440225179E+02 -0.68144974261E+02  0.77467227586E+02  0.00000000000E+00 0.  1.
         11    1    1    2    0    0  0.41904942485E+02 -0.92543042209E+02 -0.26448814639E+03  0.28332705209E+03  0.00000000000E+00 0. -1.
</event>
<event>
 7    1  0.2714042E-009  0.1123550E+03  0.7561462E-02  0.1256270E+00
          3   -1    0    0  501    0  0.00000000000E+00  0.00000000000E+00  0.34007114674E+02  0.34007114674E+02  0.00000000000E+00 0. -1.
         -3   -1    0    0    0  501 -0.00000000000E+00 -0.00000000000E+00 -0.56592824132E+03  0.56592824132E+03  0.00000000000E+00 0.  1.
         25    2    1    2    0    0 -0.43138524348E+01  0.78249907176E+02 -0.21358190765E+03  0.25962617977E+03  0.12508742802E+03 0.  0.
          5    1    3    3  502    0  0.51083292859E+02  0.68816046587E+02 -0.93056997719E+02  0.12657894099E+03  0.41800000000E+01 0. -1.
         -5    1    3    3    0  502 -0.55397145293E+02  0.94338605887E+01 -0.12052490994E+03  0.13304723878E+03  0.41800000000E+01 0. -1.
        -11    1    1    2    0    0 -0.74823517330E+01 -0.62131712038E+02 -0.31359703835E+03  0.31978029597E+03  0.00000000000E+00 0.  1.
         11    1    1    2    0    0  0.11796204168E+02 -0.16118195138E+02 -0.47421806412E+01  0.20528880255E+02  0.00000000000E+00 0. -1.
</event>
<event>
 7    1  0.2714042E-009  0.1092834E+03  0.7561462E-02  0.1261903E+00
         -2   -1    0    0    0  501 -0.00000000000E+00  0.00000000000E+00  0.31839192070E+02  0.31839192070E+02  0.00000000000E+00 0. -1.
          2   -1    0    0  501    0  0.00000000000E+00 -0.00000000000E+00 -0.45577855000E+03  0.45577855000E+03  0.00000000000E+00 0.  1.
         25    2    1    2    0    0  0.19138503380E+02 -0.21128599528E+02 -0.32542426815E+03  0.34980215613E+03  0.12509154288E+03 0.  0.
          5    1    3    3  502    0 -0.52984103164E+02 -0.17284419993E+02 -0.13635682291E+03  0.14736594558E+03  0.41800000000E+01 0. -1.
         -5    1    3    3    0  502  0.72122606545E+02 -0.38441795349E+01 -0.18906744525E+03  0.20243621055E+03  0.41800000000E+01 0. -1.
        -11    1    1    2    0    0 -0.47911429857E+02 -0.89142422329E+01 -0.28727871434E+02  0.56570835443E+02  0.00000000000E+00 0. -1.
         11    1    1    2    0    0  0.28772926477E+02  0.30042841761E+02 -0.69787218338E+02  0.81244750492E+02  0.00000000000E+00 0.  1.
</event>
<event>
 7    1  0.2714042E-009  0.1345823E+03  0.7561462E-02  0.1220811E+00
         -3   -1    0    0    0  501 -0.00000000000E+00  0.00000000000E+00  0.20314802424E+03  0.20314802424E+03  0.00000000000E+00 0.  1.
          3   -1    0    0  501    0  0.00000000000E+00 -0.00000000000E+00 -0.12251829320E+03  0.12251829320E+03  0.00000000000E+00 0. -1.
         25    2    1    2    0    0  0.42023281191E+02 -0.10513917693E+03  0.84552765378E+02  0.18871894215E+03  0.12508183843E+03 0.  0.
          5    1    3    3  502    0  0.12619017577E+01  0.14906136473E+02  0.56782954124E+02  0.58869020542E+02  0.41800000000E+01 0.  1.
         -5    1    3    3    0  502  0.40761379433E+02 -0.12004531341E+03  0.27769811254E+02  0.12984992161E+03  0.41800000000E+01 0.  1.
        -11    1    1    2    0    0 -0.69179870704E+00  0.76497769586E+02 -0.27651189096E+02  0.81344794520E+02  0.00000000000E+00 0.  1.
         11    1    1    2    0    0 -0.41331482484E+02  0.28641407349E+02  0.23728154758E+02  0.55602580763E+02  0.00000000000E+00 0. -1.
</event>
<event>
 7    1  0.2714042E-009  0.1160110E+03  0.7561462E-02  0.1249827E+00
          1   -1    0    0  501    0  0.00000000000E+00  0.00000000000E+00  0.43044579619E+03  0.43044579619E+03  0.00000000000E+00 0. -1.
         -1   -1    0    0    0  501 -0.00000000000E+00 -0.00000000000E+00 -0.49926843551E+02  0.49926843551E+02  0.00000000000E+00 0.  1.
         25    2    1    2    0    0  0.33196064980E+02 -0.59042339869E+02  0.89538086551E+02  0.16808475400E+03  0.12508972362E+03 0.  0.
          5    1    3    3  502    0 -0.98122806496E+01 -0.77242232812E+02  0.92648369825E+02  0.12109432775E+03  0.41800000000E+01 0. -1.
         -5    1    3    3    0  502  0.43008345629E+02  0.18199892943E+02 -0.31102832740E+01  0.46990426248E+02  0.41800000000E+01 0. -1.
        -11    1    1    2    0    0 -0.34959062301E+01 -0.21257578418E+02  0.10984021708E+03  0.11193292317E+03  0.00000000000E+00 0. -1.
         11    1    1    2    0    0 -0.29700158750E+02  0.80299918287E+02  0.18114064900E+03  0.20035496257E+03  0.00000000000E+00 0.  1.
</event>
<event>
 7    1  0.2714042E-009  0.1375551E+03  0.7561462E-02  0.1216657E+00
          2   -1    0    0  501    0  0.00000000000E+00  0.00000000000E+00  0.13652645963E+03  0.13652645963E+03  0.00000000000E+00 0. -1.
         -2   -1    0    0    0  501 -0.00000000000E+00 -0.00000000000E+00 -0.20810437717E+03  0.20810437717E+03  0.00000000000E+00 0.  1.
         25    2    1    2    0    0 -0.84738647204E+02  0.97287512213E+02 -0.34324691979E+02  0.18295293930E+03  0.12509234652E+03 0.  0.
          5    1    3    3  502    0  0.60260108056E+00  0.15479205951E+02  0.40102940714E+02  0.43193601365E+02  0.41800000000E+01 0. -1.
         -5    1    3    3    0  502 -0.85341248284E+02  0.81808306261E+02 -0.74427632693E+02  0.13975933794E+03  0.41800000000E+01 0. -1.
        -11    1    1    2    0    0  0.97834494203E+01 -0.52610312574E+02 -0.50307575388E+02  0.73446667815E+02  0.00000000000E+00 0.  1.
         11    1    1    2    0    0  0.74955197784E+02 -0.44677199639E+02  0.13054349828E+02  0.88231229685E+02  0.00000000000E+00 0. -1.
</event>
<event>
 7    1  0.2714042E-009  0.7972630E+02  0.7561462E-02  0.1329830E+00
          1   -1    0    0  501    0  0.00000000000E+00  0.00000000000E+00  0.81357124846E+03  0.81357124846E+03  0.00000000000E+00 0. -1.
         -1   -1    0    0    0  501 -0.00000000000E+00 -0.00000000000E+00 -0.14748297067E+02  0.14748297067E+02  0.00000000000E+00 0.  1.
         25    2    1    2    0    0 -0.15315677945E+02 -0.76271634754E+01  0.60090514952E+03  0.61402632937E+03  0.12509432773E+03 0.  0.
          5    1    3    3  502    0 -0.29453013385E+01  0.38033050940E+02  0.51019737729E+03  0.51163856770E+03  0.41800000000E+01 0. -1.
         -5    1    3    3    0  502 -0.12370376607E+02 -0.45660214415E+02  0.90707772235E+02  0.10238776168E+03  0.41800000000E+01 0. -1.
        -11    1    1    2    0    0  0.24201824037E+02 -0.27917916354E+02  0.51640323076E+02  0.63496939356E+02  0.00000000000E+00 0.  1.
         11    1    1    2    0    0 -0.88861460919E+01  0.35545079829E+02  0.14627747880E+03  0.15079627680E+03  0.00000000000E+00 0. -1.
</event>
<event>
 7    1  0.2714042E-009  0.6140604E+02  0.7561462E-02  0.1392024E+00
          2   -1    0    0  501    0  0.00000000000E+00  0.00000000000E+00  0.28295310051E+03  0.28295310051E+03  0.00000000000E+00 0. -1.
         -2   -1    0    0    0  501 -0.00000000000E+00 -0.00000000000E+00 -0.51209507841E+02  0.51209507841E+02  0.00000000000E+00 0.  1.
         25    2    1    2    0    0  0.28059307378E+02  0.43127652249E+01  0.19216911668E+03  0.23105256516E+03  0.12510153391E+03 0.  0.
          5    1    3    3  502    0  0.93837907536E+01 -0.10085881636E+02 -0.15992523796E+02  0.21517754405E+02  0.41800000000E+01 0.  1.
         -5    1    3    3    0  502  0.18675516625E+02  0.14398646861E+02  0.20816164048E+03  0.20953481076E+03  0.41800000000E+01 0.  1.
        -11    1    1    2    0    0  0.25614144637E+02 -0.15080226724E+02  0.38132031281E+02  0.48348210444E+02  0.00000000000E+00 0.  1.
         11    1    1    2    0    0 -0.53673452015E+02  0.10767461499E+02  0.14424447020E+01  0.54761832740E+02  0.00000000000E+00 0. -1.
</event>
<event>
 7    1  0.2714042E-009  0.1149388E+03  0.7561462E-02  0.1251688E+00
          1   -1    0    0  501    0  0.00000000000E+00  0.00000000000E+00  0.34312231175E+02  0.34312231175E+02  0.00000000000E+00 0. -1.
         -1   -1    0    0    0  501 -0.00000000000E+00 -0.00000000000E+00 -0.56496586957E+03  0.56496586957E+03  0.00000000000E+00 0.  1.
         25    2    1    2    0    0  0.22618630166E+02  0.77629812808E+02 -0.42148247082E+03  0.44702772542E+03  0.12509326049E+03 0.  0.
          5    1    3    3  502    0 -0.61949811481E+01 -0.33317979352E+02 -0.89937832797E+02  0.96201620089E+02  0.41800000000E+01 0. -1.
         -5    1    3    3    0  502  0.28813611314E+02  0.11094779216E+03 -0.33154463802E+03  0.35082610533E+03  0.41800000000E+01 0. -1.
        -11    1    1    2    0    0 -0.95452390691E+01 -0.42103982962E+02 -0.75763209668E+01  0.43832152691E+02  0.00000000000E+00 0. -1.
         11    1    1    2    0    0 -0.13073391097E+02 -0.35525829847E+02 -0.10159484661E+03  0.10841822263E+03  0.00000000000E+00 0.  1.
</event>
<event>
 7    1  0.2714042E-009  0.1596586E+03  0.7561462E-02  0.1189083E+00
         -1   -1    0    0    0  501 -0.00000000000E+00  0.00000000000E+00  0.10093329043E+03  0.10093329043E+03  0.00000000000E+00 0.  1.
          1   -1    0    0  501    0  0.00000000000E+00 -0.00000000000E+00 -0.27327558030E+03  0.27327558030E+03  0.00000000000E+00 0. -1.
         25    2    1    2    0    0  0.11989917752E+03  0.65319517785E+01 -0.52185163479E+02  0.18107891557E+03  0.12509117960E+03 0.  0.
          5    1    3    3  502    0 -0.14748594694E+02 -0.26644354761E+02 -0.25183088846E+02  0.39737929612E+02  0.41800000000E+01 0.  1.
         -5    1    3    3    0  502  0.13464777221E+03  0.33176306539E+02 -0.27002074633E+02  0.14134098596E+03  0.41800000000E+01 0.  1.
        -11    1    1    2    0    0 -0.52802760938E+02  0.41636545940E+02 -0.41177576170E+02  0.78850024095E+02  0.00000000000E+00 0.  1.
         11    1    1    2    0    0 -0.67096416580E+02 -0.48168497719E+02 -0.78979550222E+02  0.11427993106E+03  0.00000000000E+00 0. -1.
</event>
<event>
 7    1  0.2714042E-009  0.1104809E+03  0.7561462E-02  0.1259682E+00
          2   -1    0    0  501    0  0.00000000000E+00  0.00000000000E+00  0.90524355774E+03  0.90524355774E+03  0.00000000000E+00 0. -1.
         -2   -1    0    0    0  501 -0.00000000000E+00 -0.00000000000E+00 -0.17501572480E+02  0.17501572480E+02  0.00000000000E+00 0.  1.
         25    2    1    2    0    0  0.64245316067E+02 -0.16831967610E+02  0.56045836577E+03  0.57807615339E+03  0.12509070145E+03 0.  0.
          5    1    3    3  502    0  0.35856529268E+02 -0.70145951959E+02  0.26573105437E+03  0.27719417549E+03  0.41800000000E+01 0. -1.
         -5    1    3    3    0  502  0.28388786799E+02  0.53313984349E+02  0.29472731139E+03  0.30088197790E+03  0.41800000000E+01 0. -1.
        -11    1    1    2    0    0 -0.51595695819E+02 -0.93615690019E+01  0.30078145998E+03  0.30531826259E+03  0.00000000000E+00 0. -1.
         11    1    1    2    0    0 -0.12649620248E+02  0.26193536612E+02  0.26502159513E+02  0.39350714244E+02  0.00000000000E+00 0.  1.
</event>
<event>
 7    1  0.2714042E-009  0.1198637E+03  0.7561462E-02  0.1243322E+00
          2   -1    0    0  501    0  0.00000000000E+00  0.00000000000E+00  0.84710024023E+03  0.84710024023E+03  0.00000000000E+00 0. -1.
         -2   -1    0    0    0  501 -0.00000000000E+00 -0.00000000000E+00 -0.18660474197E+02  0.18660474197E+02  0.00000000000E+00 0.  1.
         25    2    1    2    0    0 -0.36581008835E+02  0.52046041477E+02  0.45390869778E+03  0.47510906431E+03  0.12509419023E+03 0.  0.
          5    1    3    3  502    0  0.83927250524E+01  0.84108295393E+02  0.25842408155E+03  0.27192852280E+03  0.41800000000E+01 0.  1.
         -5    1    3    3    0  502 -0.44973733887E+02 -0.32062253916E+02  0.19548461623E+03  0.20318054151E+03  0.41800000000E+01 0.  1.
        -11    1    1    2    0    0 -0.22696319301E+02 -0.27221981488E+02  0.60542162722E+02  0.70153493520E+02  0.00000000000E+00 0.  1.
         11    1    1    2    0    0  0.59277328136E+02 -0.24824059989E+02  0.31398890553E+03  0.32049815660E+03  0.00000000000E+00 0. -1.
</event>
<event>
 7    1  0.2877576E-009  0.1363738E+03  0.7561462E-02  0.1218293E+00
          2   -1    0    0  501    0  0.00000000000E+00  0.00000000000E+00  0.92203432200E+02  0.92203432200E+02  0.00000000000E+00 0. -1.
         -2   -1    0    0    0  501 -0.00000000000E+00 -0.00000000000E+00 -0.26260384703E+03  0.26260384703E+03  0.00000000000E+00 0.  1.
         25    2    1    2    0    0 -0.10199836225E+03 -0.43923314718E+02 -0.81680658697E+02  0.18615120564E+03  0.12509043879E+03 0.  0.
          5    1    3    3  502    0 -0.65201601061E+02  0.24076991875E+02 -0.83469923105E+02  0.10869981960E+03  0.41800000000E+01 0. -1.
         -5    1    3    3    0  502 -0.36796761193E+02 -0.68000306594E+02  0.17892644080E+01  0.77451386032E+02  0.41800000000E+01 0. -1.
        -11    1    1    2    0    0  0.27137883562E+02  0.42967257200E+02  0.22144212240E+01  0.50868001503E+02  0.00000000000E+00 0. -1.
         11    1    1    2    0    0  0.74860478691E+02  0.95605751786E+00 -0.90934177360E+02  0.11778807210E+03  0.00000000000E+00 0.  1.
</event>
<event>
 7    1  0.2714042E-009  0.9934961E+02  0.7561462E-02  0.1281670E+00
          3   -1    0    0  501    0  0.00000000000E+00  0.00000000000E+00  0.79720855089E+02  0.79720855089E+02  0.00000000000E+00 0. -1.
         -3   -1    0    0    0  501 -0.00000000000E+00 -0.00000000000E+00 -0.24523560870E+03  0.24523560870E+03  0.00000000000E+00 0.  1.
         25    2    1    2    0    0  0.45800013925E+02 -0.51696947753E+01 -0.26675991182E+01  0.13333745037E+03  0.12508953820E+03 0.  0.
          5    1    3    3  502    0  0.50176074152E+02 -0.47168196034E+02  0.34311037397E+02  0.77053207731E+02  0.41800000000E+01 0. -1.
         -5    1    3    3    0  502 -0.43760602272E+01  0.41998501258E+02 -0.36978636515E+02  0.56284242640E+02  0.41800000000E+01 0. -1.
        -11    1    1    2    0    0 -0.38219907346E+01  0.35361062590E+02 -0.22591150059E+02  0.42135168466E+02  0.00000000000E+00 0. -1.
         11    1    1    2    0    0 -0.41978023190E+02 -0.30191367815E+02 -0.14025600444E+03  0.14948384495E+03  0.00000000000E+00 0.  1.
</event>
<event>
 7    1  0.2714042E-009  0.1145259E+03  0.7561462E-02  0.1252411E+00
         -1   -1    0    0    0  501 -0.00000000000E+00  0.00000000000E+00  0.35870008076E+03  0.35870008076E+03  0.00000000000E+00 0.  1.
          1   -1    0    0  501    0  0.00000000000E+00 -0.00000000000E+00 -0.43545322718E+02  0.43545322718E+02  0.00000000000E+00 0. -1.
         25    2    1    2    0    0  0.32964871635E+02 -0.46964883822E+02  0.21041058450E+03  0.25141952609E+03  0.12508709349E+03 0.  0.
          5    1    3    3  502    0  0.67214356149E+02 -0.58410221298E+02  0.18964934084E+03  0.20955636117E+03  0.41800000000E+01 0.  1.
         -5    1    3    3    0  502 -0.34249484513E+02  0.11445337476E+02  0.20761243662E+02  0.41863164928E+02  0.41800000000E+01 0.  1.
        -11    1    1    2    0    0 -0.58269445245E+02  0.10560941035E+02  0.36881276278E+02  0.69764534433E+02  0.00000000000E+00 0. -1.
         11    1    1    2    0    0  0.25304573610E+02  0.36403942787E+02  0.67862897264E+02  0.81061342952E+02  0.00000000000E+00 0.  1.
</event>
<event>
 7    1  0.2714042E-009  0.1057658E+03  0.7561462E-02  0.1268618E+00
          2   -1    0    0  501    0  0.00000000000E+00  0.00000000000E+00  0.47034909329E+03  0.47034909329E+03  0.00000000000E+00 0. -1.
         -2   -1    0    0    0  501 -0.00000000000E+00 -0.00000000000E+00 -0.50972715815E+02  0.50972715815E+02  0.00000000000E+00 0.  1.
         25    2    1    2    0    0 -0.95910034081E+02 -0.18791361358E+02  0.14348111802E+03  0.21397822928E+03  0.12509197208E+03 0.  0.
          5    1    3    3  502    0 -0.95015336966E+02 -0.62448826929E+00  0.16189187998E+03  0.18776250277E+03  0.41800000000E+01 0. -1.
         -5    1    3    3    0  502 -0.89469711530E+00 -0.18166873088E+02 -0.18410761954E+02  0.26215726510E+02  0.41800000000E+01 0. -1.
        -11    1    1    2    0    0  0.77248392048E+02  0.14227582261E+02  0.27717465357E+03  0.28808944228E+03  0.00000000000E+00 0. -1.
         11    1    1    2    0    0  0.18661642033E+02  0.45637790966E+01 -0.12793941249E+01  0.19254137538E+02  0.00000000000E+00 0.  1.
</event>
<event>
 7    1  0.2714042E-009  0.1021905E+03  0.7561462E-02  0.1275756E+00
         -4   -1    0    0    0  501 -0.00000000000E+00  0.00000000000E+00  0.40278016912E+03  0.40278016912E+03  0.00000000000E+00 0.  1.
          4   -1    0    0  501    0  0.00000000000E+00 -0.00000000000E+00 -0.34692103279E+02  0.34692103279E+02  0.00000000000E+00 0. -1.
         25    2    1    2    0    0 -0.41154850614E+02 -0.24095760500E+02  0.19562794559E+03  0.23704788137E+03  0.12508827909E+03 0.  0.
          5    1    3    3  502    0 -0.67087256687E+02  0.46863325679E+01  0.43955798969E+02  0.80450272751E+02  0.41800000000E+01 0. -1.
         -5    1    3    3    0  502  0.25932406073E+02 -0.28782093068E+02  0.15167214662E+03  0.15659760862E+03  0.41800000000E+01 0. -1.
        -11    1    1    2    0    0  0.55433349876E+02 -0.14149263532E+02  0.12719793865E+03  0.13947176608E+03  0.00000000000E+00 0. -1.
         11    1    1    2    0    0 -0.14278499262E+02  0.38245024031E+02  0.45262181609E+02  0.60952624951E+02  0.00000000000E+00 0.  1.
</event>
<event>
 7    1  0.2714042E-009  0.1163709E+03  0.7561462E-02  0.1249207E+00
         -1   -1    0    0    0  501 -0.00000000000E+00  0.00000000000E+00  0.19816009175E+03  0.19816009175E+03  0.00000000000E+00 0.  1.
          1   -1    0    0  501    0  0.00000000000E+00 -0.00000000000E+00 -0.97821247301E+02  0.97821247301E+02  0.00000000000E+00 0. -1.
         25    2    1    2    0    0  0.71420345446E+02 -0.31394019698E+02  0.12180901926E+02  0.14792932522E+03  0.12509300808E+03 0.  0.
          5    1    3    3  502    0 -0.31301895330E+02  0.10513398455E+02  0.15813381629E+02  0.36849364131E+02  0.41800000000E+01 0.  1.
         -5    1    3    3    0  502  0.10272224078E+03 -0.41907418153E+02 -0.36324797024E+01  0.11107996109E+03  0.41800000000E+01 0.  1.
        -11    1    1    2    0    0 -0.38201055403E+02 -0.57212161149E+01  0.90280187326E+02  0.98196563949E+02  0.00000000000E+00 0.  1.
         11    1    1    2    0    0 -0.33219290043E+02  0.37115235813E+02 -0.21222448006E+01  0.49855449886E+02  0.00000000000E+00 0. -1.
</event>
<event>
 7    1  0.2714042E-009  0.1116580E+03  0.7561462E-02  0.1257530E+00
          2   -1    0    0  501    0  0.00000000000E+00  0.00000000000E+00  0.49397983039E+02  0.49397983039E+02  0.00000000000E+00 0. -1.
         -2   -1    0    0    0  501 -0.00000000000E+00 -0.00000000000E+00 -0.49765801783E+03  0.49765801783E+03  0.00000000000E+00 0.  1.
         25    2    1    2    0    0 -0.63039166730E+02 -0.61677865544E+02 -0.36546616755E+03  0.39622225500E+03  0.12509380515E+03 0.  0.
          5    1    3    3  502    0 -0.23228257883E+02 -0.78453662213E+02 -0.11033549051E+03  0.13742605992E+03  0.41800000000E+01 0.  1.
         -5    1    3    3    0  502 -0.39810908847E+02  0.16775796669E+02 -0.25513067705E+03  0.25879619508E+03  0.41800000000E+01 0.  1.
        -11    1    1    2    0    0  0.64694602922E+02  0.39611897365E+02 -0.98040700754E+02  0.12396157898E+03  0.00000000000E+00 0.  1.
         11    1    1    2    0    0 -0.16554361915E+01  0.22065968179E+02  0.15246833521E+02  0.26872166884E+02  0.00000000000E+00 0. -1.
</event>
<event>
 7    1  0.2714042E-009  0.1062616E+03  0.7561462E-02  0.1267654E+00
         -2   -1    0    0    0  501 -0.00000000000E+00  0.00000000000E+00  0.41827357981E+03  0.41827357981E+03  0.00000000000E+00 0.  1.
          2   -1    0    0  501    0  0.00000000000E+00 -0.00000000000E+00 -0.33622560596E+02  0.33622560596E+02  0.00000000000E+00 0. -1.
         25    2    1    2    0    0 -0.18947043374E+02  0.45300481048E+02  0.22771619365E+03  0.26441008308E+03  0.12508758190E+03 0.  0.
          5    1    3    3  502    0  0.48722719832E+02  0.41761016643E+02  0.13459141071E+03  0.14916503000E+03  0.41800000000E+01 0. -1.
         -5    1    3    3    0  502 -0.67669763206E+02  0.35394644048E+01  0.93124782946E+02  0.11524505308E+03  0.41800000000E+01 0. -1.
        -11    1    1    2    0    0  0.37768676452E+02 -0.48249724992E+02  0.50623263837E+02  0.79480964540E+02  0.00000000000E+00 0. -1.
         11    1    1    2    0    0 -0.18821633078E+02  0.29492439437E+01  0.10631156172E+03  0.10800509278E+03  0.00000000000E+00 0.  1.
</event>
<event>
 7    1  0.2714042E-009  0.9807789E+02  0.7561462E-02  0.1284391E+00
         -3   -1    0    0    0  501 -0.00000000000E+00  0.00000000000E+00  0.25616232269E+02  0.25616232269E+02  0.00000000000E+00 0.  1.
          3   -1    0    0  501    0  0.00000000000E+00 -0.00000000000E+00 -0.50185526109E+03  0.50185526109E+03  0.00000000000E+00 0. -1.
         25    2    1    2    0    0  0.32196380100E+02 -0.73133691645E+01 -0.28821213202E+03  0.31591284279E+03  0.12507837118E+03 0.  0.
          5    1    3    3  502    0 -0.47863512053E+02 -0.45472696251E+01 -0.90872271716E+02  0.10289234964E+03  0.41800000000E+01 0.  1.
         -5    1    3    3    0  502  0.80059892152E+02 -0.27660995394E+01 -0.19733986030E+03  0.21302049315E+03  0.41800000000E+01 0.  1.
        -11    1    1    2    0    0 -0.73886322264E+01 -0.25496717795E+02 -0.92505115978E+01  0.28111322795E+02  0.00000000000E+00 0.  1.
         11    1    1    2    0    0 -0.24807747873E+02  0.32810086959E+02 -0.17877638521E+03  0.18344732778E+03  0.00000000000E+00 0. -1.
</event>
<event>
 7    1  0.2714042E-009  0.2333917E+03  0.7561462E-02  0.1124275E+00
          2   -1    0    0  501    0  0.00000000000E+00  0.00000000000E+00  0.45117095692E+03  0.45117095692E+03  0.00000000000E+00 0. -1.
         -2   -1    0    0    0  501 -0.00000000000E+00 -0.00000000000E+00 -0.13084698150E+03  0.13084698150E+03  0.00000000000E+00 0.  1.
         25    2    1    2    0    0  0.92671985537E+02  0.19556110422E+03  0.22684150951E+03  0.33754938735E+03  0.12510106345E+03 0.  0.
          5    1    3    3  502    0 -0.12300905908E+01  0.12646975280E+03  0.15675217273E+03  0.20145676348E+03  0.41800000000E+01 0.  1.
         -5    1    3    3    0  502  0.93902076127E+02  0.69091351420E+02  0.70089336781E+02  0.13609262387E+03  0.41800000000E+01 0.  1.
        -11    1    1    2    0    0 -0.90104354878E+02 -0.13114889096E+03  0.50306559937E+02  0.16688192335E+03  0.00000000000E+00 0.  1.
         11    1    1    2    0    0 -0.25676306589E+01 -0.64412213264E+02  0.43175905971E+02  0.77586627721E+02  0.00000000000E+00 0. -1.
</event>
<event>
 7    1  0.2714042E-009  0.8631046E+02  0.7561462E-02  0.1312041E+00
         -1   -1    0    0    0  501 -0.00000000000E+00  0.00000000000E+00  0.59797782009E+03  0.59797782009E+03  0.00000000000E+00 0.  1.
          1   -1    0    0  501    0  0.00000000000E+00 -0.00000000000E+00 -0.29729415305E+02  0.29729415305E+02  0.00000000000E+00 0. -1.
         25    2    1    2    0    0 -0.36956946908E+02  0.38173281781E+02  0.17988259841E+03  0.22545034814E+03  0.12508834836E+03 0.  0.
          5    1    3    3  502    0 -0.49448932317E+02  0.48954102548E+02  0.32192160913E+02  0.76782215960E+02  0.41800000000E+01 0. -1.
         -5    1    3    3    0  502  0.12491985409E+02 -0.10780820767E+02  0.14769043750E+03  0.14866813218E+03  0.41800000000E+01 0. -1.
        -11    1    1    2    0    0  0.21805565888E+02 -0.57405609649E+02  0.35810441828E+03  0.36333133792E+03  0.00000000000E+00 0.  1.
         11    1    1    2    0    0  0.15151381020E+02  0.19232327868E+02  0.30261388091E+02  0.38925549337E+02  0.00000000000E+00 0. -1.
</event>
<event>
 7    1  0.2714042E-009  0.1218879E+03  0.7561462E-02  0.1240015E+00
          1   -1    0    0  501    0  0.00000000000E+00  0.00000000000E+00  0.31370964149E+03  0.31370964149E+03  0.00000000000E+00 0. -1.
         -1   -1    0    0    0  501 -0.00000000000E+00 -0.00000000000E+00 -0.49311664484E+02  0.49311664484E+02  0.00000000000E+00 0.  1.
         25    2    1    2    0    0  0.37345865474E+02  0.65790591679E+02  0.19091978156E+03  0.24046122341E+03  0.12509245121E+03 0.  0.
          5    1    3    3  502    0  0.15618694927E+02 -0.37336989312E+02  0.51081349635E+02  0.65305214819E+02  0.41800000000E+01 0. -1.
         -5    1    3    3    0  502  0.21727170547E+02  0.10312758099E+03  0.13983843193E+03  0.17515600859E+03  0.41800000000E+01 0. -1.
        -11    1    1    2    0    0 -0.29947865791E+02 -0.77880634020E+02  0.58280450489E+02  0.10177857697E+03  0.00000000000E+00 0.  1.
         11    1    1    2    0    0 -0.73979996827E+01  0.12090042342E+02  0.15197744955E+02  0.20781505597E+02  0.00000000000E+00 0. -1.
</event>
<event>
 7    1  0.2714042E-009  0.8644703E+02  0.7561462E-02  0.1311691E+00
         -1   -1    0    0    0  501 -0.00000000000E+00  0.00000000000E+00  0.25307043856E+03  0.25307043856E+03  0.00000000000E+00 0.  1.
          1   -1    0    0  501    0  0.00000000000E+00 -0.00000000000E+00 -0.54954194660E+02  0.54954194660E+02  0.00000000000E+00 0. -1.
         25    2    1    2    0    0  0.40947999972E+02  0.10576894006E+02  0.13417465884E+03  0.18825125429E+03  0.12508831391E+03 0.  0.
          5    1    3    3  502    0  0.61568242421E+02  0.51526368969E+02  0.11001577610E+03  0.13625915957E+03  0.41800000000E+01 0. -1.
         -5    1    3    3    0  502 -0.20620242449E+02 -0.40949474963E+02  0.24158882733E+02  0.51992094720E+02  0.41800000000E+01 0. -1.
        -11    1    1    2    0    0 -0.16758832272E+02  0.52424826544E+01 -0.22549935735E+02  0.28580442354E+02  0.00000000000E+00 0. -1.
         11    1    1    2    0    0 -0.24189167700E+02 -0.15819376660E+02  0.86491520803E+02  0.91192936583E+02  0.00000000000E+00 0.  1.
</event>
<event>
 7    1  0.2714042E-009  0.9184634E+02  0.7561462E-02  0.1298441E+00
         -1   -1    0    0    0  501 -0.00000000000E+00  0.00000000000E+00  0.62754713765E+02  0.62754713765E+02  0.00000000000E+00 0.  1.
          1   -1    0    0  501    0  0.00000000000E+00 -0.00000000000E+00 -0.19928861717E+03  0.19928861717E+03  0.00000000000E+00 0. -1.
         25    2    1    2    0    0  0.10250607519E+02  0.23207388820E+02 -0.77674113744E+02  0.14941505003E+03  0.12509169189E+03 0.  0.
          5    1    3    3  502    0 -0.35983766042E+02 -0.55791133269E+00 -0.88960670249E+02  0.96055275413E+02  0.41800000000E+01 0.  1.
         -5    1    3    3    0  502  0.46234373561E+02  0.23765300152E+02  0.11286556505E+02  0.53359774622E+02  0.41800000000E+01 0.  1.
        -11    1    1    2    0    0 -0.24766044089E+02  0.30722077964E+02 -0.31199097593E+02  0.50304937182E+02  0.00000000000E+00 0.  1.
         11    1    1    2    0    0  0.14515436570E+02 -0.53929466784E+02 -0.27660692066E+02  0.62323343716E+02  0.00000000000E+00 0. -1.
</event>
<event>
 7    1  0.2714042E-009  0.1112969E+03  0.7561462E-02  0.1258187E+00
         -2   -1    0    0    0  501 -0.00000000000E+00  0.00000000000E+00  0.17855589961E+02  0.17855589961E+02  0.00000000000E+00 0.  1.
          2   -1    0    0  501    0  0.00000000000E+00 -0.00000000000E+00 -0.94509282045E+03  0.94509282045E+03  0.00000000000E+00 0. -1.
         25    2    1    2    0    0 -0.18022359573E+02  0.55860425332E+02 -0.36499119907E+03  0.39027080857E+03  0.12509011176E+03 0.  0.
          5    1    3    3  502    0  0.41581654044E+02  0.23659647262E+02 -0.26564983238E+03  0.26995577175E+03  0.41800000000E+01 0.  1.
         -5    1    3    3    0  502 -0.59604013617E+02  0.32200778070E+02 -0.99341366689E+02  0.12031503681E+03  0.41800000000E+01 0.  1.
        -11    1    1    2    0    0 -0.19208288528E+02  0.16497705372E+02 -0.90987547650E+02  0.94445044646E+02  0.00000000000E+00 0.  1.
         11    1    1    2    0    0  0.37230648102E+02 -0.72358130704E+02 -0.47125848377E+03  0.47823255720E+03  0.00000000000E+00 0. -1.
</event>
<event>
 7    1  0.2714042E-009  0.7835059E+02  0.7561462E-02  0.1333798E+00
         -1   -1    0    0    0  501 -0.00000000000E+00  0.00000000000E+00  0.31924619264E+03  0.31924619264E+03  0.00000000000E+00 0.  1.
          1   -1    0    0  501    0  0.00000000000E+00 -0.00000000000E+00 -0.47892794764E+02  0.47892794764E+02  0.00000000000E+00 0. -1.
         25    2    1    2    0    0 -0.25521260499E+02  0.35508338945E+02  0.21912071742E+03  0.25607361838E+03  0.12509049666E+03 0.  0.
          5    1    3    3  502    0 -0.31410277856E+02  0.53965203096E+02  0.36635711916E+02  0.72515491364E+02  0.41800000000E+01 0.  1.
         -5    1    3    3    0  502  0.58890173567E+01 -0.18456864151E+02  0.18248500551E+03  0.18355812702E+03  0.41800000000E+01 0.  1.
        -11    1    1    2    0    0  0.44042128581E+02 -0.34149553586E+02  0.67136532983E+02  0.87253740097E+02  0.00000000000E+00 0.  1.
         11    1    1    2    0    0 -0.18520868081E+02 -0.13587853588E+01 -0.14903852525E+02  0.23811628929E+02  0.00000000000E+00 0. -1.
</event>
<event>
 7    1  0.2714042E-009  0.1031544E+03  0.7561462E-02  0.1273799E+00
          2   -1    0    0  501    0  0.00000000000E+00  0.00000000000E+00  0.83017776068E+03  0.83017776068E+03  0.00000000000E+00 0. -1.
         -2   -1    0    0    0  501 -0.00000000000E+00 -0.00000000000E+00 -0.14614784744E+02  0.14614784744E+02  0.00000000000E+00 0.  1.
         25    2    1    2    0    0 -0.10085542647E+02 -0.79369202058E+01  0.46410924791E+03  0.48084208432E+03  0.12508798174E+03 0.  0.
          5    1    3    3  502    0  0.91291209864E+01  0.53290540444E+02  0.29449570028E+03  0.29944684409E+03  0.41800000000E+01 0. -1.
         -5    1    3    3    0  502 -0.19214663633E+02 -0.61227460650E+02  0.16961354763E+03  0.18139524022E+03  0.41800000000E+01 0. -1.
        -11    1    1    2    0    0  0.42619758083E+02  0.26625594052E+02  0.26474430651E+03  0.26947154556E+03  0.00000000000E+00 0. -1.
         11    1    1    2    0    0 -0.32534215436E+02 -0.18688673846E+02  0.86709421513E+02  0.94478915549E+02  0.00000000000E+00 0.  1.
</event>
<event>
 7    1  0.2714042E-009  0.1902215E+03  0.7561462E-02  0.1158262E+00
         -2   -1    0    0    0  501 -0.00000000000E+00  0.00000000000E+00  0.44718077258E+03  0.44718077258E+03  0.00000000000E+00 0.  1.
          2   -1    0    0  501    0  0.00000000000E+00 -0.00000000000E+00 -0.18028694529E+03  0.18028694529E+03  0.00000000000E+00 0. -1.
         25    2    1    2    0    0 -0.16421622224E+03 -0.65285871230E+02  0.35052689630E+03  0.41200298978E+03  0.12509254947E+03 0.  0.
          5    1    3    3  502    0 -0.45209103190E+01 -0.29474530411E+02  0.15068245174E+03  0.15366151189E+03  0.41800000000E+01 0. -1.
         -5    1    3    3    0  502 -0.15969531192E+03 -0.35811340819E+02  0.19984444456E+03  0.25834147790E+03  0.41800000000E+01 0. -1.
        -11    1    1    2    0    0 -0.20566065510E+01  0.11764537248E+02 -0.30707401160E+02  0.32948117597E+02  0.00000000000E+00 0. -1.
         11    1    1    2    0    0  0.16627282879E+03  0.53521333982E+02 -0.52925667844E+02  0.18251661048E+03  0.00000000000E+00 0.  1.
</event>
<event>
 7    1  0.2714042E-009  0.2017799E+03  0.7561462E-02  0.1148246E+00
         -2   -1    0    0    0  501 -0.00000000000E+00  0.00000000000E+00  0.45351420427E+02  0.45351420427E+02  0.00000000000E+00 0.  1.
          2   -1    0    0  501    0  0.00000000000E+00 -0.00000000000E+00 -0.17440502909E+04  0.17440502909E+04  0.00000000000E+00 0. -1.
         25    2    1    2    0    0 -0.28105490262E+02  0.17559774364E+03 -0.14693464417E+04  0.14853456722E+04  0.12509322128E+03 0.  0.
          5    1    3    3  502    0 -0.69917359728E+02  0.53761586466E+02 -0.56285779050E+03  0.56974126593E+03  0.41800000000E+01 0.  1.
         -5    1    3    3    0  502  0.41811869466E+02  0.12183615717E+03 -0.90648865123E+03  0.91560440630E+03  0.41800000000E+01 0.  1.
        -11    1    1    2    0    0  0.40759321091E+02 -0.78355441002E+02 -0.55084388199E+02  0.10409220535E+03  0.00000000000E+00 0.  1.
         11    1    1    2    0    0 -0.12653830830E+02 -0.97242302633E+02 -0.17426804053E+03  0.19996383375E+03  0.00000000000E+00 0. -1.
</event>
<event>
 7    1  0.2714042E-009  0.1070124E+03  0.7561462E-02  0.1266205E+00
          2   -1    0    0  501    0  0.00000000000E+00  0.00000000000E+00  0.18967401037E+04  0.18967401037E+04  0.00000000000E+00 0. -1.
         -2   -1    0    0    0  501 -0.00000000000E+00 -0.00000000000E+00 -0.10040917879E+02  0.10040917879E+02  0.00000000000E+00 0.  1.
         25    2    1    2    0    0 -0.40747742616E+02  0.38992683288E+01  0.15413067158E+04  0.15469161226E+04  0.12509002819E+03 0.  0.
          5    1    3    3  502    0 -0.46653478242E+02 -0.44175822685E+02  0.12436237408E+04  0.12452893364E+04  0.41800000000E+01 0.  1.
         -5    1    3    3    0  502  0.59057356259E+01  0.48075091014E+02  0.29768297505E+03  0.30162678616E+03  0.41800000000E+01 0.  1.
        -11    1    1    2    0    0  0.63171255546E+02  0.21882224448E+02  0.23043383158E+03  0.23993580394E+03  0.00000000000E+00 0.  1.
         11    1    1    2    0    0 -0.22423512930E+02 -0.25781492777E+02  0.11495863840E+03  0.11992909507E+03  0.00000000000E+00 0. -1.
</event>
<event>
 7    1  0.2714042E-009  0.1201654E+03  0.7561462E-02  0.1242824E+00
          2   -1    0    0  501    0  0.00000000000E+00  0.00000000000E+00  0.10733106245E+03  0.10733106245E+03  0.00000000000E+00 0. -1.
         -2   -1    0    0    0  501 -0.00000000000E+00 -0.00000000000E+00 -0.27318332209E+03  0.27318332209E+03  0.00000000000E+00 0.  1.
         25    2    1    2    0    0  0.83663014835E+02 -0.62069907661E+02 -0.17829958780E+03  0.24143471081E+03  0.12509117910E+03 0.  0.
          5    1    3    3  502    0  0.93430068625E+01  0.19983286719E+02  0.87020856651E+01  0.24079497924E+02  0.41800000000E+01 0. -1.
         -5    1    3    3    0  502  0.74320007973E+02 -0.82053194380E+02 -0.18700167346E+03  0.21735521289E+03  0.41800000000E+01 0. -1.
        -11    1    1    2    0    0 -0.98452012551E+01  0.19588216325E+02 -0.35214710509E+02  0.41481345721E+02  0.00000000000E+00 0.  1.
         11    1    1    2    0    0 -0.73817813580E+02  0.42481691336E+02  0.47662038662E+02  0.97598328008E+02  0.00000000000E+00 0. -1.
</event>
<event>
 7    1  0.2714042E-009  0.9278689E+02  0.7561462E-02  0.1296240E+00
          1   -1    0    0  501    0  0.00000000000E+00  0.00000000000E+00  0.61890684426E+03  0.61890684426E+03  0.00000000000E+00 0. -1.
         -1   -1    0    0    0  501 -0.00000000000E+00 -0.00000000000E+00 -0.35731684187E+02  0.35731684187E+02  0.00000000000E+00 0.  1.
         25    2    1    2    0    0 -0.76353644180E+02  0.57844870604E+01  0.45969620893E+03  0.48252767975E+03  0.12509603493E+03 0.  0.
          5    1    3    3  502    0 -0.28146974053E+02 -0.32383989873E+02  0.37666402458E+03  0.37912298105E+03  0.41800000000E+01 0. -1.
         -5    1    3    3    0  502 -0.48206670127E+02  0.38168476933E+02  0.83032184344E+02  0.10340469870E+03  0.41800000000E+01 0. -1.
        -11    1    1    2    0    0  0.49516375301E+02  0.87972441217E+01  0.13128343374E+03  0.14058663842E+03  0.00000000000E+00 0. -1.
         11    1    1    2    0    0  0.26837268879E+02 -0.14581731182E+02 -0.78044825909E+01  0.31524210278E+02  0.00000000000E+00 0.  1.
</event>
<event>
 7    1  0.2714042E-009  0.9360361E+02  0.7561462E-02  0.1294352E+00
         -2   -1    0    0    0  501 -0.00000000000E+00  0.00000000000E+00  0.65847338453E+02  0.65847338453E+02  0.00000000000E+00 0.  1.
          2   -1    0    0  501    0  0.00000000000E+00 -0.00000000000E+00 -0.25882258984E+03  0.25882258984E+03  0.00000000000E+00 0. -1.
         25    2    1    2    0    0  0.12482615787E+02 -0.73911893809E+02 -0.11933674167E+03  0.18843315095E+03  0.12508801190E+03 0.  0.
          5    1    3    3  502    0 -0.24234997274E+01 -0.28192536116E+02 -0.13475803435E+03  0.13776027245E+03  0.41800000000E+01 0. -1.
         -5    1    3    3    0  502  0.14906115515E+02 -0.45719357693E+02  0.15421292683E+02  0.50672878501E+02  0.41800000000E+01 0. -1.
        -11    1    1    2    0    0 -0.28665442176E+01  0.90829537437E+02 -0.44468146014E+02  0.10117132972E+03  0.00000000000E+00 0.  1.
         11    1    1    2    0    0 -0.96160715695E+01 -0.16917643628E+02 -0.29170363703E+02  0.35065447621E+02  0.00000000000E+00 0. -1.
</event>
<event>
 7    1  0.2714042E-009  0.1198409E+03  0.7561462E-02  0.1243360E+00
          3   -1    0    0  501    0  0.00000000000E+00  0.00000000000E+00  0.25109403551E+03  0.25109403551E+03  0.00000000000E+00 0. -1.
         -3   -1    0    0    0  501 -0.00000000000E+00 -0.00000000000E+00 -0.11181979845E+03  0.11181979845E+03  0.00000000000E+00 0.  1.
         25    2    1    2    0    0  0.97076626404E+02 -0.63636487918E+02  0.12891279252E+03  0.21386827817E+03  0.12509060055E+03 0.  0.
          5    1    3    3  502    0  0.57669754560E+02 -0.13192423029E+02  0.13692938534E+03  0.14922121025E+03  0.41800000000E+01 0.  1.
         -5    1    3    3    0  502  0.39406871844E+02 -0.50444064889E+02 -0.80165928253E+01  0.64647067927E+02  0.41800000000E+01 0.  1.
        -11    1    1    2    0    0 -0.46876859981E+02  0.34275666726E+02 -0.41298206869E+02  0.71258706287E+02  0.00000000000E+00 0.  1.
         11    1    1    2    0    0 -0.50199766424E+02  0.29360821192E+02  0.51659651413E+02  0.77786849494E+02  0.00000000000E+00 0. -1.
</event>
<event>
 7    1  0.2714042E-009  0.1157924E+03  0.7561462E-02  0.1250204E+00
          1   -1    0    0  501    0  0.00000000000E+00  0.00000000000E+00  0.70137378479E+02  0.70137378479E+02  0.00000000000E+00 0. -1.
         -1   -1    0    0    0  501 -0.00000000000E+00 -0.00000000000E+00 -0.31833269578E+03  0.31833269578E+03  0.00000000000E+00 0.  1.
         25    2    1    2    0    0  0.85735385926E+01 -0.99736543535E+02 -0.16007046266E+03  0.22647524146E+03  0.12509036054E+03 0.  0.
          5    1    3    3  502    0  0.96689387869E+01 -0.40774256848E+02  0.12605373119E+02  0.43959028996E+02  0.41800000000E+01 0. -1.
         -5    1    3    3    0  502 -0.10954001943E+01 -0.58962286687E+02 -0.17267583578E+03  0.18251621247E+03  0.41800000000E+01 0. -1.
        -11    1    1    2    0    0 -0.41483304144E+02  0.24367408667E+02 -0.55678493611E+02  0.73584847480E+02  0.00000000000E+00 0.  1.
         11    1    1    2    0    0  0.32909765551E+02  0.75369134868E+02 -0.32446361037E+02  0.88409985318E+02  0.00000000000E+00 0. -1.
</event>
<event>
 7    1  0.2714042E-009  0.1228503E+03  0.7561462E-02  0.1238468E+00
          2   -1    0    0  501    0  0.00000000000E+00  0.00000000000E+00  0.79283026008E+02  0.79283026008E+02  0.00000000000E+00 0. -1.
         -2   -1    0    0    0  501 -0.00000000000E+00 -0.00000000000E+00 -0.26382359876E+03  0.26382359876E+03  0.00000000000E+00 0.  1.
         25    2    1    2    0    0 -0.16014997676E+02  0.75179294577E+02 -0.32926798818E+02  0.15046614865E+03  0.12508989297E+03 0.  0.
          5    1    3    3  502    0  0.27979570381E+02  0.92270539634E+02 -0.35947554077E+02  0.10298741616E+03  0.41800000000E+01 0. -1.
         -5    1    3    3    0  502 -0.43994568058E+02 -0.17091245057E+02  0.30207552585E+01  0.47478732486E+02  0.41800000000E+01 0. -1.
        -11    1    1    2    0    0 -0.23703407083E+02 -0.10540028013E+02 -0.34330792200E+01  0.26167340919E+02  0.00000000000E+00 0. -1.
         11    1    1    2    0    0  0.39718404759E+02 -0.64639266564E+02 -0.14818069472E+03  0.16647313521E+03  0.00000000000E+00 0.  1.
</event>
<event>
 7    1  0.2714042E-009  0.9309844E+02  0.7561462E-02  0.1295517E+00
          2   -1    0    0  501    0  0.00000000000E+00  0.00000000000E+00  0.71091119277E+03  0.71091119277E+03  0.00000000000E+00 0. -1.
         -2   -1    0    0    0  501 -0.00000000000E+00 -0.00000000000E+00 -0.18749991387E+02  0.18749991387E+02  0.00000000000E+00 0.  1.
         25    2    1    2    0    0  0.31254181199E+02 -0.23092217261E+02  0.42235662625E+03  0.44220292229E+03  0.12509288711E+03 0.  0.
          5    1    3    3  502    0  0.34282277971E+02 -0.66793426381E+02  0.34597485328E+03  0.35405184351E+03  0.41800000000E+01 0. -1.
         -5    1    3    3    0  502 -0.30280967712E+01  0.43701209120E+02  0.76381772975E+02  0.88151078787E+02  0.41800000000E+01 0. -1.
        -11    1    1    2    0    0 -0.95353102214E+01 -0.18084627488E+02  0.86706472167E+01  0.22207116327E+02  0.00000000000E+00 0.  1.
         11    1    1    2    0    0 -0.21718870978E+02  0.41176844750E+02  0.26113392791E+03  0.26525114553E+03  0.00000000000E+00 0. -1.
</event>
<event>
 7    1  0.2714042E-009  0.9913972E+02  0.7561462E-02  0.1282115E+00
         -1   -1    0    0    0  501 -0.00000000000E+00  0.00000000000E+00  0.22002426315E+03  0.22002426315E+03  0.00000000000E+00 0.  1.
          1   -1    0    0  501    0  0.00000000000E+00 -0.00000000000E+00 -0.65490869820E+02  0.65490869820E+02  0.00000000000E+00 0. -1.
         25    2    1    2    0    0 -0.50348899204E+02  0.15506219273E+02  0.72524854403E+02  0.15388921062E+03  0.12508629083E+03 0.  0.
          5    1    3    3  502    0 -0.12767268273E+02  0.66641253452E+02  0.18529805445E+02  0.70461946401E+02  0.41800000000E+01 0. -1.
         -5    1    3    3    0  502 -0.37581630931E+02 -0.51135034178E+02  0.53995048958E+02  0.83427264223E+02  0.41800000000E+01 0. -1.
        -11    1    1    2    0    0  0.66817778409E+01  0.12954966977E+02 -0.15365014538E+02  0.21179258633E+02  0.00000000000E+00 0. -1.
         11    1    1    2    0    0  0.43667121363E+02 -0.28461186250E+02  0.97373553466E+02  0.11044666371E+03  0.00000000000E+00 0.  1.
</event>
<event>
 7    1  0.2714042E-009  0.9155092E+02  0.7561462E-02  0.1299139E+00
          2   -1    0    0  501    0  0.00000000000E+00  0.00000000000E+00  0.18199474638E+03  0.18199474638E+03  0.00000000000E+00 0.  1.
         -2   -1    0    0    0  501 -0.00000000000E+00 -0.00000000000E+00 -0.91252842075E+02  0.91252842075E+02  0.00000000000E+00 0. -1.
         25    2    1    2    0    0 -0.35569397316E+02  0.44021206948E+02  0.57638875079E+01  0.13742031015E+03  0.12509224819E+03 0.  0.
          5    1    3    3  502    0  0.36938539378E+02 -0.68565204365E+01 -0.22936379934E+02  0.44215579702E+02  0.41800000000E+01 0. -1.
         -5    1    3    3    0  502 -0.72507936694E+02  0.50877727385E+02  0.28700267442E+02  0.93204730453E+02  0.41800000000E+01 0. -1.
        -11    1    1    2    0    0  0.28128600772E+02 -0.35954236400E+02  0.10416188818E+03  0.11372609307E+03  0.00000000000E+00 0.  1.
         11    1    1    2    0    0  0.74407965443E+01 -0.80669705482E+01 -0.19183871385E+02  0.22101185226E+02  0.00000000000E+00 0. -1.
</event>
<event>
 7    1  0.2714042E-009  0.3787869E+03  0.7561462E-02  0.1051383E+00
         -1   -1    0    0    0  501 -0.00000000000E+00  0.00000000000E+00  0.11368925717E+03  0.11368925717E+03  0.00000000000E+00 0.  1.
          1   -1    0    0  501    0  0.00000000000E+00 -0.00000000000E+00 -0.12779463952E+04  0.12779463952E+04  0.00000000000E+00 0. -1.
         25    2    1    2    0    0 -0.26921112290E+03 -0.24692074626E+03 -0.61925073642E+03  0.72976980706E+03  0.12509201858E+03 0.  0.
          5    1    3    3  502    0 -0.10982750744E+02  0.14418530785E+02 -0.26357196340E+02  0.32259712380E+02  0.41800000000E+01 0. -1.
         -5    1    3    3    0  502 -0.25822837215E+03 -0.26133927704E+03 -0.59289354008E+03  0.69751009468E+03  0.41800000000E+01 0. -1.
        -11    1    1    2    0    0  0.61155047719E+02  0.21578496521E+02 -0.62057663535E+02  0.89759261233E+02  0.00000000000E+00 0.  1.
         11    1    1    2    0    0  0.20805607518E+03  0.22534224974E+03 -0.48294873802E+03  0.57210658403E+03  0.00000000000E+00 0. -1.
</event>
<event>
 7    1  0.2714042E-009  0.2583664E+03  0.7561462E-02  0.1108129E+00
         -2   -1    0    0    0  501 -0.00000000000E+00  0.00000000000E+00  0.11825448533E+03  0.11825448533E+03  0.00000000000E+00 0. -1.
          2   -1    0    0  501    0  0.00000000000E+00 -0.00000000000E+00 -0.85588910027E+03  0.85588910027E+03  0.00000000000E+00 0.  1.
         25    2    1    2    0    0 -0.24861425913E+03 -0.39317303793E+02 -0.12944932041E+03  0.30945161976E+03  0.12509307813E+03 0.  0.
          5    1    3    3  502    0 -0.23287929541E+03 -0.23256806726E+02 -0.67798810462E+02  0.24369611485E+03  0.41800000000E+01 0. -1.
         -5    1    3    3    0  502 -0.15734963714E+02 -0.16060497067E+02 -0.61650509946E+02  0.65755504908E+02  0.41800000000E+01 0. -1.
        -11    1    1    2    0    0  0.13542920508E+03 -0.11097807902E+02 -0.39970182958E+03  0.42216795650E+03  0.00000000000E+00 0.  1.
         11    1    1    2    0    0  0.11318505404E+03  0.50415111695E+02 -0.20848346495E+03  0.24252400934E+03  0.00000000000E+00 0. -1.
</event>
<event>
 7    1  0.2714042E-009  0.1006125E+03  0.7561462E-02  0.1279013E+00
          2   -1    0    0  501    0  0.00000000000E+00  0.00000000000E+00  0.21415405901E+03  0.21415405901E+03  0.00000000000E+00 0. -1.
         -2   -1    0    0    0  501 -0.00000000000E+00 -0.00000000000E+00 -0.98927423967E+02  0.98927423967E+02  0.00000000000E+00 0.  1.
         25    2    1    2    0    0  0.33093391175E+02 -0.60624679964E+02  0.13743626270E+03  0.19825859023E+03  0.12508884018E+03 0.  0.
          5    1    3    3  502    0  0.14455860497E+02  0.11249175946E+02  0.12053921291E+03  0.12199463148E+03  0.41800000000E+01 0.  1.
         -5    1    3    3    0  502  0.18637530678E+02 -0.71873855910E+02  0.16897049790E+02  0.76263958753E+02  0.41800000000E+01 0.  1.
        -11    1    1    2    0    0 -0.47531655939E+02  0.18729373284E+01 -0.25989011425E+02  0.54205118996E+02  0.00000000000E+00 0.  1.
         11    1    1    2    0    0  0.14438264764E+02  0.58751742635E+02  0.37793837716E+01  0.60617773745E+02  0.00000000000E+00 0. -1.
</event>
<event>
 7    1  0.2714042E-009  0.1340085E+03  0.7561462E-02  0.1221626E+00
          1   -1    0    0  501    0  0.00000000000E+00  0.00000000000E+00  0.26992863627E+03  0.26992863627E+03  0.00000000000E+00 0. -1.
         -1   -1    0    0    0  501 -0.00000000000E+00 -0.00000000000E+00 -0.88544809289E+02  0.88544809289E+02  0.00000000000E+00 0.  1.
         25    2    1    2    0    0  0.67160898327E+02  0.57283972823E+02  0.17520242562E+03  0.23266939114E+03  0.12508843202E+03 0.  0.
          5    1    3    3  502    0  0.26545645893E+02  0.91275313734E+02  0.13874434647E+03  0.16823590666E+03  0.41800000000E+01 0.  1.
         -5    1    3    3    0  502  0.40615252433E+02 -0.33991340911E+02  0.36458079145E+02  0.64433484479E+02  0.41800000000E+01 0.  1.
        -11    1    1    2    0    0  0.55872212985E+01 -0.45743178060E+02 -0.16156934815E+02  0.48833409910E+02  0.00000000000E+00 0.  1.
         11    1    1    2    0    0 -0.72748119625E+02 -0.11540794764E+02  0.22338336183E+02  0.76970644509E+02  0.00000000000E+00 0. -1.
</event>
<event>
 7    1  0.2714042E-009  0.1167385E+03  0.7561462E-02  0.1248577E+00
         -2   -1    0    0    0  501 -0.00000000000E+00  0.00000000000E+00  0.97290009762E+02  0.97290009762E+02  0.00000000000E+00 0.  1.
          2   -1    0    0  501    0  0.00000000000E+00 -0.00000000000E+00 -0.20466539372E+03  0.20466539372E+03  0.00000000000E+00 0. -1.
         25    2    1    2    0    0  0.84456962290E+02 -0.35975210021E+01 -0.31590828965E+02  0.15424496737E+03  0.12509040270E+03 0.  0.
          5    1    3    3  502    0  0.11213528879E+03 -0.16223252887E+02 -0.47810956720E+01  0.11348060717E+03  0.41800000000E+01 0. -1.
         -5    1    3    3    0  502 -0.27678326503E+02  0.12625731885E+02 -0.26809733293E+02  0.40764360204E+02  0.41800000000E+01 0. -1.
        -11    1    1    2    0    0 -0.53713408093E+02  0.16289132634E+02 -0.94228208957E+02  0.10967871906E+03  0.00000000000E+00 0. -1.
         11    1    1    2    0    0 -0.30743554197E+02 -0.12691611632E+02  0.18443653965E+02  0.38031717054E+02  0.00000000000E+00 0.  1.
</event>
<event>
 7    1  0.2714042E-009  0.7364744E+02  0.7561462E-02  0.1348111E+00
         -2   -1    0    0    0  501 -0.00000000000E+00  0.00000000000E+00  0.34838809140E+02  0.34838809140E+02  0.00000000000E+00 0. -1.
          2   -1    0    0  501    0  0.00000000000E+00 -0.00000000000E+00 -0.38121284004E+03  0.38121284004E+03  0.00000000000E+00 0.  1.
         25    2    1    2    0    0 -0.59282375943E+01 -0.35802500505E+02 -0.18586690060E+03  0.22696138174E+03  0.12509197024E+03 0.  0.
          5    1    3    3  502    0 -0.33882921068E+02 -0.36450075721E+02 -0.19169531719E+03  0.19809398627E+03  0.41800000000E+01 0.  1.
         -5    1    3    3    0  502  0.27954683474E+02  0.64757521655E+00  0.58284165900E+01  0.28867395479E+02  0.41800000000E+01 0.  1.
        -11    1    1    2    0    0 -0.18241083099E+02 -0.73134362824E+01  0.15009035747E+01  0.19709798944E+02  0.00000000000E+00 0. -1.
         11    1    1    2    0    0  0.24169320693E+02  0.43115936787E+02 -0.16200803387E+03  0.16938046849E+03  0.00000000000E+00 0.  1.
</event>
<event>
 7    1  0.2714042E-009  0.1264646E+03  0.7561462E-02  0.1232798E+00
          1   -1    0    0  501    0  0.00000000000E+00  0.00000000000E+00  0.10866077246E+04  0.10866077246E+04  0.00000000000E+00 0. -1.
         -1   -1    0    0    0  501 -0.00000000000E+00 -0.00000000000E+00 -0.17878229396E+02  0.17878229396E+02  0.00000000000E+00 0.  1.
         25    2    1    2    0    0  0.30438275345E+02  0.62682852944E+02  0.77543444783E+03  0.78854410119E+03  0.12509031931E+03 0.  0.
          5    1    3    3  502    0  0.66915988835E+02  0.74019802440E+02  0.45611433462E+03  0.46692016380E+03  0.41800000000E+01 0. -1.
         -5    1    3    3    0  502 -0.36477713490E+02 -0.11336949495E+02  0.31932011320E+03  0.32162393739E+03  0.41800000000E+01 0. -1.
        -11    1    1    2    0    0 -0.10977765777E+02 -0.84607136945E+02  0.24517720315E+03  0.25959726483E+03  0.00000000000E+00 0.  1.
         11    1    1    2    0    0 -0.19460509568E+02  0.21924284001E+02  0.48117844271E+02  0.56344588018E+02  0.00000000000E+00 0. -1.
</event>
<event>
 7    1  0.2714042E-009  0.1226307E+03  0.7561462E-02  0.1238819E+00
          1   -1    0    0  501    0  0.00000000000E+00  0.00000000000E+00  0.52428792574E+03  0.52428792574E+03  0.00000000000E+00 0. -1.
         -1   -1    0    0    0  501 -0.00000000000E+00 -0.00000000000E+00 -0.64838800920E+02  0.64838800920E+02  0.00000000000E+00 0.  1.
         25    2    1    2    0    0 -0.52121780261E+02  0.10370130756E+03  0.11356159106E+03  0.20497362326E+03  0.12508920858E+03 0.  0.
          5    1    3    3  502    0 -0.96670366071E+01  0.22945628924E+02  0.11075847589E+03  0.11359958568E+03  0.41800000000E+01 0.  1.
         -5    1    3    3    0  502 -0.42454743654E+02  0.80755678632E+02  0.28031151623E+01  0.91374037585E+02  0.41800000000E+01 0.  1.
        -11    1    1    2    0    0  0.38233584275E+02 -0.18712682323E+02  0.25658913302E+03  0.26009604885E+03  0.00000000000E+00 0. -1.
         11    1    1    2    0    0  0.13888195986E+02 -0.84988625232E+02  0.89298400743E+02  0.12405705454E+03  0.00000000000E+00 0.  1.
</event>
<event>
 7    1  0.2714042E-009  0.1271746E+03  0.7561462E-02  0.1231709E+00
          2   -1    0    0  501    0  0.00000000000E+00  0.00000000000E+00  0.87567769538E+03  0.87567769538E+03  0.00000000000E+00 0. -1.
         -2   -1    0    0    0  501 -0.00000000000E+00 -0.00000000000E+00 -0.29145397987E+02  0.29145397987E+02  0.00000000000E+00 0.  1.
         25    2    1    2    0    0  0.10112892999E+03  0.22149530338E+02  0.60677767745E+03  0.62813001676E+03  0.12510198210E+03 0.  0.
          5    1    3    3  502    0 -0.15470310374E+01 -0.84193511413E+01  0.34657068267E+03  0.34670158532E+03  0.41800000000E+01 0.  1.
         -5    1    3    3    0  502  0.10267596103E+03  0.30568881479E+02  0.26020699479E+03  0.28142843144E+03  0.41800000000E+01 0.  1.
        -11    1    1    2    0    0 -0.27663656037E+02 -0.51532340989E+02  0.11374681894E+03  0.12790308382E+03  0.00000000000E+00 0. -1.
         11    1    1    2    0    0 -0.73465273952E+02  0.29382810651E+02  0.12600780100E+03  0.14878999278E+03  0.00000000000E+00 0.  1.
</event>
<event>
 7    1  0.2714042E-009  0.1021072E+03  0.7561462E-02  0.1275926E+00
          2   -1    0    0  501    0  0.00000000000E+00  0.00000000000E+00  0.59507389454E+03  0.59507389454E+03  0.00000000000E+00 0. -1.
         -2   -1    0    0    0  501 -0.00000000000E+00 -0.00000000000E+00 -0.26816306342E+02  0.26816306342E+02  0.00000000000E+00 0.  1.
         25    2    1    2    0    0 -0.49917939316E+01 -0.62075970968E+02  0.35201924354E+03  0.37874442438E+03  0.12510574325E+03 0.  0.
          5    1    3    3  502    0 -0.36970544674E+02 -0.26633032165E+02  0.33670950471E+02  0.56809725236E+02  0.41800000000E+01 0. -1.
         -5    1    3    3    0  502  0.31978750743E+02 -0.35442938803E+02  0.31834829307E+03  0.32193469914E+03  0.41800000000E+01 0. -1.
        -11    1    1    2    0    0 -0.38573506235E+02  0.52418334308E+01  0.88978263675E+02  0.97121180015E+02  0.00000000000E+00 0. -1.
         11    1    1    2    0    0  0.43565300167E+02  0.56834137538E+02  0.12726008098E+03  0.14602459648E+03  0.00000000000E+00 0.  1.
</event>
<event>
 7    1  0.2714042E-009  0.1224215E+03  0.7561462E-02  0.1239155E+00
         -1   -1    0    0    0  501 -0.00000000000E+00  0.00000000000E+00  0.93789692985E+02  0.93789692985E+02  0.00000000000E+00 0.  1.
          1   -1    0    0  501    0  0.00000000000E+00 -0.00000000000E+00 -0.19608638360E+03  0.19608638360E+03  0.00000000000E+00 0. -1.
         25    2    1    2    0    0 -0.56771788156E+02  0.59325495950E+02 -0.70207348145E+02  0.16528276458E+03  0.12508705023E+03 0.  0.
          5    1    3    3  502    0  0.15729143050E+02  0.64246824894E+02 -0.32083661110E+01  0.66353797654E+02  0.41800000000E+01 0.  1.
         -5    1    3    3    0  502 -0.72500931206E+02 -0.49213289441E+01 -0.66998982034E+02  0.98928966931E+02  0.41800000000E+01 0.  1.
        -11    1    1    2    0    0  0.68188018813E+02 -0.63929012889E+02 -0.35775740624E+01  0.93537819275E+02  0.00000000000E+00 0.  1.
         11    1    1    2    0    0 -0.11416230657E+02  0.46035169392E+01 -0.28511768406E+02  0.31055492723E+02  0.00000000000E+00 0. -1.
</event>
<event>
 7    1  0.2714042E-009  0.1867020E+03  0.7561462E-02  0.1161470E+00
         -2   -1    0    0    0  501 -0.00000000000E+00  0.00000000000E+00  0.10658176902E+03  0.10658176902E+03  0.00000000000E+00 0.  1.
          2   -1    0    0  501    0  0.00000000000E+00 -0.00000000000E+00 -0.40226156755E+03  0.40226156755E+03  0.00000000000E+00 0. -1.
         25    2    1    2    0    0 -0.17206134303E+03  0.13713086512E+02 -0.19683095077E+03  0.29014349760E+03  0.12509065316E+03 0.  0.
          5    1    3    3  502    0 -0.64451917524E+02  0.38455103853E+02 -0.15450137831E+03  0.17181674244E+03  0.41800000000E+01 0. -1.
         -5    1    3    3    0  502 -0.10760942551E+03 -0.24742017340E+02 -0.42329572467E+02  0.11832675516E+03  0.41800000000E+01 0. -1.
        -11    1    1    2    0    0  0.13175233107E+03 -0.42238941063E+02 -0.44662680921E+02  0.14538761967E+03  0.00000000000E+00 0. -1.
         11    1    1    2    0    0  0.40309011961E+02  0.28525854551E+02 -0.54186166834E+02  0.73312219304E+02  0.00000000000E+00 0.  1.
</event>
<event>
 7    1  0.2714042E-009  0.1563209E+03  0.7561462E-02  0.1192914E+00
         -1   -1    0    0    0  501 -0.00000000000E+00  0.00000000000E+00  0.68800097712E+02  0.68800097712E+02  0.00000000000E+00 0.  1.
          1   -1    0    0  501    0  0.00000000000E+00 -0.00000000000E+00 -0.42080577492E+03  0.42080577492E+03  0.00000000000E+00 0. -1.
         25    2    1    2    0    0  0.21482540049E+02 -0.12072380019E+03 -0.25259815885E+03  0.30739045142E+03  0.12508926535E+03 0.  0.
          5    1    3    3  502    0 -0.39283620526E+02 -0.10164705495E+03 -0.13458135616E+03  0.17321934201E+03  0.41800000000E+01 0. -1.
         -5    1    3    3    0  502  0.60766160574E+02 -0.19076745239E+02 -0.11801680270E+03  0.13417110940E+03  0.41800000000E+01 0. -1.
        -11    1    1    2    0    0 -0.45625074547E+02  0.87631667006E+02 -0.32949049506E+02  0.10414699397E+03  0.00000000000E+00 0. -1.
         11    1    1    2    0    0  0.24142534498E+02  0.33092133188E+02 -0.66458468851E+02  0.78068427248E+02  0.00000000000E+00 0.  1.
</event>
<event>
 7    1  0.2714042E-009  0.1223567E+03  0.7561462E-02  0.1239259E+00
          2   -1    0    0  501    0  0.00000000000E+00  0.00000000000E+00  0.43411187461E+03  0.43411187461E+03  0.00000000000E+00 0. -1.
         -2   -1    0    0    0  501 -0.00000000000E+00 -0.00000000000E+00 -0.46515875867E+02  0.46515875867E+02  0.00000000000E+00 0.  1.
         25    2    1    2    0    0  0.37366402278E+02  0.78208756907E+02  0.18372619641E+03  0.23857000405E+03  0.12508986334E+03 0.  0.
          5    1    3    3  502    0 -0.20997730667E+02  0.83547210670E+02  0.14328944420E+03  0.16724347019E+03  0.41800000000E+01 0.  1.
         -5    1    3    3    0  502  0.58364132945E+02 -0.53384537625E+01  0.40436752218E+02  0.71326533863E+02  0.41800000000E+01 0.  1.
        -11    1    1    2    0    0 -0.46138274191E+02 -0.41793087789E+02  0.19338904678E+03  0.20316182207E+03  0.00000000000E+00 0. -1.
         11    1    1    2    0    0  0.87718719125E+01 -0.36415669118E+02  0.10480755547E+02  0.38895924349E+02  0.00000000000E+00 0.  1.
</event>
<event>
 7    1  0.2714042E-009  0.2881512E+03  0.7561462E-02  0.1091318E+00
          2   -1    0    0  501    0  0.00000000000E+00  0.00000000000E+00  0.13858261238E+04  0.13858261238E+04  0.00000000000E+00 0. -1.
         -2   -1    0    0    0  501 -0.00000000000E+00 -0.00000000000E+00 -0.60492469537E+02  0.60492469537E+02  0.00000000000E+00 0.  1.
         25    2    1    2    0    0  0.23495416055E+03 -0.12847553597E+03  0.64210835070E+03  0.70686668523E+03  0.12509178933E+03 0.  0.
          5    1    3    3  502    0  0.16438302959E+03 -0.20803231687E+02  0.33208524621E+03  0.37115042506E+03  0.41800000000E+01 0.  1.
         -5    1    3    3    0  502  0.70571130955E+02 -0.10767230428E+03  0.31002310448E+03  0.33571626018E+03  0.41800000000E+01 0.  1.
        -11    1    1    2    0    0 -0.17941831018E+03  0.51187389642E+02  0.48214112655E+03  0.51698273162E+03  0.00000000000E+00 0.  1.
         11    1    1    2    0    0 -0.55535850364E+02  0.77288146329E+02  0.20108417705E+03  0.22246917652E+03  0.00000000000E+00 0. -1.
</event>
<event>
 7    1  0.2714042E-009  0.6063362E+02  0.7561462E-02  0.1395192E+00
         -2   -1    0    0    0  501 -0.00000000000E+00  0.00000000000E+00  0.24083448675E+02  0.24083448675E+02  0.00000000000E+00 0.  1.
          2   -1    0    0  501    0  0.00000000000E+00 -0.00000000000E+00 -0.50253905638E+03  0.50253905638E+03  0.00000000000E+00 0. -1.
         25    2    1    2    0    0 -0.29563553787E+01  0.21067344774E+02 -0.26765368306E+03  0.29620769031E+03  0.12509168113E+03 0.  0.
          5    1    3    3  502    0 -0.11096270639E+02  0.26038931605E+02 -0.26153184544E+00  0.28612828943E+02  0.41800000000E+01 0. -1.
         -5    1    3    3    0  502  0.81399152604E+01 -0.49715868314E+01 -0.26739215122E+03  0.26759486137E+03  0.41800000000E+01 0. -1.
        -11    1    1    2    0    0 -0.26442350291E+02 -0.39506443861E+02 -0.64935563322E+02  0.80477228950E+02  0.00000000000E+00 0.  1.
         11    1    1    2    0    0  0.29398705670E+02  0.18439099087E+02 -0.14586636132E+03  0.14993758579E+03  0.00000000000E+00 0. -1.
</event>
<event>
 7    1  0.2714042E-009  0.8108591E+02  0.7561462E-02  0.1325998E+00
         -2   -1    0    0    0  501 -0.00000000000E+00  0.00000000000E+00  0.13925237885E+03  0.13925237885E+03  0.00000000000E+00 0.  1.
          2   -1    0    0  501    0  0.00000000000E+00 -0.00000000000E+00 -0.11252477365E+03  0.11252477365E+03  0.00000000000E+00 0. -1.
         25    2    1    2    0    0 -0.31530939874E+02 -0.17791753783E+02 -0.35512484319E+02  0.13498727498E+03  0.12509868581E+03 0.  0.
          5    1    3    3  502    0 -0.35948909281E+02 -0.33633873773E+02 -0.76249503854E+02  0.90857144911E+02  0.41800000000E+01 0. -1.
         -5    1    3    3    0  502  0.44179694066E+01  0.15842119990E+02  0.40737019534E+02  0.44130130070E+02  0.41800000000E+01 0. -1.
        -11    1    1    2    0    0 -0.31051427901E+02  0.13093199551E+01  0.34339504002E+02  0.46315300156E+02  0.00000000000E+00 0.  1.
         11    1    1    2    0    0  0.62582367775E+02  0.16482433827E+02  0.27900585517E+02  0.70474577355E+02  0.00000000000E+00 0. -1.
</event>
<event>
 7    1  0.2714042E-009  0.2092363E+03  0.7561462E-02  0.1142172E+00
         -1   -1    0    0    0  501 -0.00000000000E+00  0.00000000000E+00  0.23374136678E+02  0.23374136678E+02  0.00000000000E+00 0.  1.
          1   -1    0    0  501    0  0.00000000000E+00 -0.00000000000E+00 -0.28810136070E+04  0.28810136070E+04  0.00000000000E+00 0. -1.
         25    2    1    2    0    0 -0.79799607520E+02  0.17888954826E+03 -0.21997339773E+04  0.22119777209E+04  0.12508564748E+03 0.  0.
          5    1    3    3  502    0  0.23720510917E+02  0.45968794049E+02 -0.87966595677E+03  0.88119547240E+03  0.41800000000E+01 0.  1.
         -5    1    3    3    0  502 -0.10352011844E+03  0.13292075421E+03 -0.13200680205E+04  0.13307822485E+04  0.41800000000E+01 0.  1.
        -11    1    1    2    0    0  0.50432675437E+02 -0.14324420913E+03 -0.59677529001E+03  0.61579469384E+03  0.00000000000E+00 0. -1.
         11    1    1    2    0    0  0.29366932083E+02 -0.35645339122E+02 -0.61130203006E+02  0.76615328889E+02  0.00000000000E+00 0.  1.
</event>
<event>
 7    1  0.2714042E-009  0.8470396E+02  0.7561462E-02  0.1316209E+00
         -1   -1    0    0    0  501 -0.00000000000E+00  0.00000000000E+00  0.62755086750E+02  0.62755086750E+02  0.00000000000E+00 0.  1.
          1   -1    0    0  501    0  0.00000000000E+00 -0.00000000000E+00 -0.17443181803E+03  0.17443181803E+03  0.00000000000E+00 0. -1.
         25    2    1    2    0    0  0.11404394698E+02  0.37901683535E+01 -0.86471713773E+02  0.15254162577E+03  0.12508862744E+03 0.  0.
          5    1    3    3  502    0 -0.43903284726E+02  0.11985168990E+02 -0.84938744900E+02  0.96453125769E+02  0.41800000000E+01 0.  1.
         -5    1    3    3    0  502  0.55307679425E+02 -0.81950006370E+01 -0.15329688734E+01  0.56088500001E+02  0.41800000000E+01 0.  1.
        -11    1    1    2    0    0  0.21565907976E+02 -0.21296777579E+02  0.11381714243E+02  0.32375678235E+02  0.00000000000E+00 0.  1.
         11    1    1    2    0    0 -0.32970302674E+02  0.17506609226E+02 -0.36586731751E+02  0.52269600776E+02  0.00000000000E+00 0. -1.
</event>
<event>
 7    1  0.2714042E-009  0.1341289E+03  0.7561462E-02  0.1221455E+00
          1   -1    0    0  501    0  0.00000000000E+00  0.00000000000E+00  0.22694634551E+04  0.22694634551E+04  0.00000000000E+00 0. -1.
         -1   -1    0    0    0  501 -0.00000000000E+00 -0.00000000000E+00 -0.12241600128E+02  0.12241600128E+02  0.00000000000E+00 0.  1.
         25    2    1    2    0    0  0.82407305588E+02  0.78624138064E+02  0.15634449130E+04  0.15725713553E+04  0.12509177707E+03 0.  0.
          5    1    3    3  502    0  0.69505125857E+02  0.38476373181E+02  0.37379538351E+03  0.38216731276E+03  0.41800000000E+01 0. -1.
         -5    1    3    3    0  502  0.12902179731E+02  0.40147764883E+02  0.11896495295E+04  0.11904040426E+04  0.41800000000E+01 0. -1.
        -11    1    1    2    0    0 -0.30618049690E+02  0.18845300646E+02  0.14757244950E+03  0.15188890076E+03  0.00000000000E+00 0.  1.
         11    1    1    2    0    0 -0.51789255898E+02 -0.97469438710E+02  0.54620449255E+03  0.55724479916E+03  0.00000000000E+00 0. -1.
</event>
<event>
 7    1  0.2714042E-009  0.1372006E+03  0.7561462E-02  0.1217146E+00
          1   -1    0    0  501    0  0.00000000000E+00  0.00000000000E+00  0.13692683111E+03  0.13692683111E+03  0.00000000000E+00 0. -1.
         -1   -1    0    0    0  501 -0.00000000000E+00 -0.00000000000E+00 -0.14762045440E+03  0.14762045440E+03  0.00000000000E+00 0.  1.
         25    2    1    2    0    0 -0.34569323937E+02  0.83106006509E+02  0.96659153494E+01  0.15440054143E+03  0.12507777899E+03 0.  0.
          5    1    3    3  502    0 -0.28279259320E+02  0.11518514191E+03  0.18900524771E+02  0.12017502095E+03  0.41800000000E+01 0.  1.
         -5    1    3    3    0  502 -0.62900646169E+01 -0.32079135397E+02 -0.92346094215E+01  0.34225520476E+02  0.41800000000E+01 0.  1.
        -11    1    1    2    0    0  0.58405948489E+02 -0.79514432328E+02 -0.10302708848E+00  0.98660074914E+02  0.00000000000E+00 0. -1.
         11    1    1    2    0    0 -0.23836624552E+02 -0.35915741809E+01 -0.20256511553E+02  0.31486669170E+02  0.00000000000E+00 0.  1.
</event>
<event>
 7    1  0.2714042E-009  0.1334724E+03  0.7561462E-02  0.1222392E+00
          1   -1    0    0  501    0  0.00000000000E+00  0.00000000000E+00  0.11192296077E+03  0.11192296077E+03  0.00000000000E+00 0. -1.
         -1   -1    0    0    0  501 -0.00000000000E+00 -0.00000000000E+00 -0.28349986282E+03  0.28349986282E+03  0.00000000000E+00 0.  1.
         25    2    1    2    0    0  0.10234859894E+03 -0.91837773213E+01  0.13968138307E+02  0.16248531266E+03  0.12508713152E+03 0.  0.
          5    1    3    3  502    0  0.98070282623E+02 -0.40965242668E+02  0.46975300654E+02  0.11627589050E+03  0.41800000000E+01 0.  1.
         -5    1    3    3    0  502  0.42783163191E+01  0.31781465346E+02 -0.33007162347E+02  0.46209422159E+02  0.41800000000E+01 0.  1.
        -11    1    1    2    0    0 -0.78989027010E+02 -0.28441924870E+02 -0.16275082855E+03  0.18312848406E+03  0.00000000000E+00 0.  1.
         11    1    1    2    0    0 -0.23359571932E+02  0.37625702192E+02 -0.22794211812E+02  0.49809026877E+02  0.00000000000E+00 0. -1.
</event>
<event>
 7    1  0.2714042E-009  0.1058427E+03  0.7561462E-02  0.1268468E+00
         -1   -1    0    0    0  501 -0.00000000000E+00  0.00000000000E+00  0.44298305759E+02  0.44298305759E+02  0.00000000000E+00 0.  1.
          1   -1    0    0  501    0  0.00000000000E+00 -0.00000000000E+00 -0.34676315197E+03  0.34676315197E+03  0.00000000000E+00 0. -1.
         25    2    1    2    0    0  0.26204306244E+02  0.31522136155E+01 -0.86351599882E+02  0.15427576813E+03  0.12509121357E+03 0.  0.
          5    1    3    3  502    0 -0.13757249429E+01 -0.58025579427E+02 -0.55066191717E+02  0.80116280225E+02  0.41800000000E+01 0. -1.
         -5    1    3    3    0  502  0.27580031187E+02  0.61177793042E+02 -0.31285408165E+02  0.74159487902E+02  0.41800000000E+01 0. -1.
        -11    1    1    2    0    0 -0.12935188920E+02 -0.42660727076E+02 -0.57320819609E+02  0.72614964764E+02  0.00000000000E+00 0.  1.
         11    1    1    2    0    0 -0.13269117324E+02  0.39508513460E+02 -0.15879242672E+03  0.16417072484E+03  0.00000000000E+00 0. -1.
</event>
<event>
 7    1  0.2714042E-009  0.2621880E+03  0.7561462E-02  0.1105836E+00
         -1   -1    0    0    0  501 -0.00000000000E+00  0.00000000000E+00  0.34935738651E+03  0.34935738651E+03  0.00000000000E+00 0.  1.
          1   -1    0    0  501    0  0.00000000000E+00 -0.00000000000E+00 -0.20740186257E+03  0.20740186257E+03  0.00000000000E+00 0. -1.
         25    2    1    2    0    0 -0.23057566689E+03 -0.70668526392E+02  0.22707943972E+02  0.27262422182E+03  0.12509651003E+03 0.  0.
          5    1    3    3  502    0 -0.25123178885E+02  0.30974955900E+02 -0.92352836296E+01  0.41150757879E+02  0.41800000000E+01 0.  1.
         -5    1    3    3    0  502 -0.20545248801E+03 -0.10164348229E+03  0.31943227602E+02  0.23147346395E+03  0.41800000000E+01 0.  1.
        -11    1    1    2    0    0  0.58313993463E+02  0.58067414849E+02  0.19108693070E+02  0.84483659081E+02  0.00000000000E+00 0.  1.
         11    1    1    2    0    0  0.17226167343E+03  0.12601111543E+02  0.10013888690E+03  0.19965136817E+03  0.00000000000E+00 0. -1.
</event>
<event>
 7    1  0.2714042E-009  0.1091054E+03  0.7561462E-02  0.1262236E+00
         -1   -1    0    0    0  501 -0.00000000000E+00  0.00000000000E+00  0.13052885201E+02  0.13052885201E+02  0.00000000000E+00 0.  1.
          1   -1    0    0  501    0  0.00000000000E+00 -0.00000000000E+00 -0.93061400286E+03  0.93061400286E+03  0.00000000000E+00 0. -1.
         25    2    1    2    0    0 -0.59785494745E+01 -0.16302317578E+02 -0.49841388421E+03  0.51416503271E+03  0.12509105592E+03 0.  0.
          5    1    3    3  502    0 -0.21281106603E+02  0.51528498801E+02 -0.19491750346E+03  0.20277666838E+03  0.41800000000E+01 0. -1.
         -5    1    3    3    0  502  0.15302557129E+02 -0.67830816378E+02 -0.30349638076E+03  0.31138836433E+03  0.41800000000E+01 0. -1.
        -11    1    1    2    0    0  0.46057182385E+02  0.23840574890E+02 -0.20150881852E+03  0.20807556560E+03  0.00000000000E+00 0.  1.
         11    1    1    2    0    0 -0.40078632910E+02 -0.75382573129E+01 -0.21763841493E+03  0.22142628975E+03  0.00000000000E+00 0. -1.
</event>
<event>
 7    1  0.2714042E-009  0.1246344E+03  0.7561462E-02  0.1235642E+00
         -2   -1    0    0    0  501 -0.00000000000E+00  0.00000000000E+00  0.18273575116E+02  0.18273575116E+02  0.00000000000E+00 0.  1.
          2   -1    0    0  501    0  0.00000000000E+00 -0.00000000000E+00 -0.98738276600E+03  0.98738276600E+03  0.00000000000E+00 0. -1.
         25    2    1    2    0    0 -0.41538094559E+02  0.55394165523E+02 -0.39193802789E+03  0.41720125246E+03  0.12509012943E+03 0.  0.
          5    1    3    3  502    0  0.27268941557E+02  0.59717120940E+02 -0.26101084777E+03  0.26917255573E+03  0.41800000000E+01 0.  1.
         -5    1    3    3    0  502 -0.68807036115E+02 -0.43229554173E+01 -0.13092718012E+03  0.14802869673E+03  0.41800000000E+01 0.  1.
        -11    1    1    2    0    0  0.21820569615E+02  0.24102501746E+02 -0.14645129958E+03  0.15001683571E+03  0.00000000000E+00 0. -1.
         11    1    1    2    0    0  0.19717524944E+02 -0.79496667269E+02 -0.43071986342E+03  0.43843825294E+03  0.00000000000E+00 0.  1.
</event>
<event>
 7    1  0.2714042E-009  0.2076708E+03  0.7561462E-02  0.1143424E+00
          1   -1    0    0  501    0  0.00000000000E+00  0.00000000000E+00  0.35509604593E+03  0.35509604593E+03  0.00000000000E+00 0. -1.
         -1   -1    0    0    0  501 -0.00000000000E+00 -0.00000000000E+00 -0.13802730368E+03  0.13802730368E+03  0.00000000000E+00 0.  1.
         25    2    1    2    0    0 -0.17396117586E+03  0.73093321844E+02  0.72055847586E+02  0.23758074635E+03  0.12508973363E+03 0.  0.
          5    1    3    3  502    0 -0.90786006665E+02  0.10326607864E+03  0.38363442607E+02  0.14281179269E+03  0.41800000000E+01 0. -1.
         -5    1    3    3    0  502 -0.83175169192E+02 -0.30172756797E+02  0.33692404979E+02  0.94768953651E+02  0.41800000000E+01 0. -1.
        -11    1    1    2    0    0  0.11139251745E+03 -0.39526310644E+02  0.14161141539E+03  0.18445708212E+03  0.00000000000E+00 0.  1.
         11    1    1    2    0    0  0.62568658409E+02 -0.33567011200E+02  0.34014792751E+01  0.71085521151E+02  0.00000000000E+00 0. -1.
</event>
<event>
 7    1  0.2714042E-009  0.1372434E+03  0.7561462E-02  0.1217087E+00
         -2   -1    0    0    0  501 -0.00000000000E+00  0.00000000000E+00  0.34483038109E+02  0.34483038109E+02  0.00000000000E+00 0. -1.
          2   -1    0    0  501    0  0.00000000000E+00 -0.00000000000E+00 -0.67781239484E+03  0.67781239484E+03  0.00000000000E+00 0.  1.
         25    2    1    2    0    0 -0.89791973287E+02 -0.11306714461E+02 -0.47821363399E+03  0.50251958795E+03  0.12508883357E+03 0.  0.
          5    1    3    3  502    0  0.20591449606E+02  0.23560332696E+02 -0.51877953176E+02  0.60728012477E+02  0.41800000000E+01 0.  1.
         -5    1    3    3    0  502 -0.11038342289E+03 -0.34867047158E+02 -0.42633568081E+03  0.44179157548E+03  0.41800000000E+01 0.  1.
        -11    1    1    2    0    0  0.17849109854E+02 -0.36551242093E+02 -0.35443421002E+02  0.53952016769E+02  0.00000000000E+00 0.  1.
         11    1    1    2    0    0  0.71942863434E+02  0.47857956555E+02 -0.12967230174E+03  0.15582382823E+03  0.00000000000E+00 0. -1.
</event>
<event>
 7    1  0.2714042E-009  0.1123671E+03  0.7561462E-02  0.1256248E+00
         -3   -1    0    0    0  501 -0.00000000000E+00  0.00000000000E+00  0.28255902667E+03  0.28255902667E+03  0.00000000000E+00 0.  1.
          3   -1    0    0  501    0  0.00000000000E+00 -0.00000000000E+00 -0.53198227826E+02  0.53198227826E+02  0.00000000000E+00 0. -1.
         25    2    1    2    0    0 -0.20336420307E+01  0.38601627629E+02  0.72891617214E+02  0.14985692802E+03  0.12509871966E+03 0.  0.
          5    1    3    3  502    0  0.51422260661E+02  0.47621212481E+02  0.17755252390E+02  0.72420647313E+02  0.41800000000E+01 0. -1.
         -5    1    3    3    0  502 -0.53455902692E+02 -0.90195848522E+01  0.55136364824E+02  0.77436280706E+02  0.41800000000E+01 0. -1.
        -11    1    1    2    0    0  0.44582883452E+02 -0.30195213118E+01  0.63606079023E+02  0.77733418132E+02  0.00000000000E+00 0. -1.
         11    1    1    2    0    0 -0.42549241421E+02 -0.35582106317E+02  0.92863102611E+02  0.10816690835E+03  0.00000000000E+00 0.  1.
</event>
<event>
 7    1  0.2714042E-009  0.1157721E+03  0.7561462E-02  0.1250239E+00
         -2   -1    0    0    0  501 -0.00000000000E+00  0.00000000000E+00  0.45355489039E+02  0.45355489039E+02  0.00000000000E+00 0.  1.
          2   -1    0    0  501    0  0.00000000000E+00 -0.00000000000E+00 -0.37815637286E+03  0.37815637286E+03  0.00000000000E+00 0. -1.
         25    2    1    2    0    0  0.25437244053E+02 -0.62008228432E+02 -0.13478165868E+03  0.19571040305E+03  0.12507754622E+03 0.  0.
          5    1    3    3  502    0 -0.34997636152E+02  0.19551845078E+02 -0.38134330398E+02  0.55487014131E+02  0.41800000000E+01 0.  1.
         -5    1    3    3    0  502  0.60434880206E+02 -0.81560073511E+02 -0.96647328281E+02  0.14022338892E+03  0.41800000000E+01 0.  1.
        -11    1    1    2    0    0  0.14401951169E+02  0.43292306326E+02 -0.31199678589E+02  0.55272596542E+02  0.00000000000E+00 0.  1.
         11    1    1    2    0    0 -0.39839195222E+02  0.18715922106E+02 -0.16681954656E+03  0.17252886231E+03  0.00000000000E+00 0. -1.
</event>
<event>
 7    1  0.2714042E-009  0.1173267E+03  0.7561462E-02  0.1247573E+00
          2   -1    0    0  501    0  0.00000000000E+00  0.00000000000E+00  0.17978385050E+04  0.17978385050E+04  0.00000000000E+00 0. -1.
         -2   -1    0    0    0  501 -0.00000000000E+00 -0.00000000000E+00 -0.14418263145E+02  0.14418263145E+02  0.00000000000E+00 0.  1.
         25    2    1    2    0    0  0.21115594925E+02 -0.10353718411E+03  0.12714835808E+04  0.12819842927E+04  0.12508962296E+03 0.  0.
          5    1    3    3  502    0  0.18993096806E+02 -0.10222136447E+03  0.12727151943E+04  0.12769617783E+04  0.41800000000E+01 0. -1.
         -5    1    3    3    0  502  0.21224981193E+01 -0.13158196413E+01 -0.12316134858E+01  0.50225144473E+01  0.41800000000E+01 0. -1.
        -11    1    1    2    0    0 -0.33337813286E+02  0.15354615708E+02  0.65842295326E+02  0.75381575150E+02  0.00000000000E+00 0.  1.
         11    1    1    2    0    0  0.12222218361E+02  0.88182568399E+02  0.44609436577E+03  0.45489090029E+03  0.00000000000E+00 0. -1.
</event>
<event>
 7    1  0.2714042E-009  0.1718036E+03  0.7561462E-02  0.1175980E+00
          3   -1    0    0  501    0  0.00000000000E+00  0.00000000000E+00  0.33014331304E+03  0.33014331304E+03  0.00000000000E+00 0. -1.
         -3   -1    0    0    0  501 -0.00000000000E+00 -0.00000000000E+00 -0.12555259281E+03  0.12555259281E+03  0.00000000000E+00 0.  1.
         25    2    1    2    0    0  0.35645497897E+02  0.13338751274E+03 -0.71026321348E+01  0.18644051002E+03  0.12508711491E+03 0.  0.
          5    1    3    3  502    0  0.63881216921E+02  0.31231583674E+02 -0.31048153248E+02  0.77702521929E+02  0.41800000000E+01 0. -1.
         -5    1    3    3    0  502 -0.28235719024E+02  0.10215592906E+03  0.23945521113E+02  0.10873798809E+03  0.41800000000E+01 0. -1.
        -11    1    1    2    0    0 -0.64212412171E+02 -0.11676771097E+03  0.17284755118E+03  0.21825262462E+03  0.00000000000E+00 0.  1.
         11    1    1    2    0    0  0.28566914274E+02 -0.16619801769E+02  0.38845801185E+02  0.51002771216E+02  0.00000000000E+00 0. -1.
</event>
<event>
 7    1  0.2714042E-009  0.1581467E+03  0.7561462E-02  0.1190805E+00
         -1   -1    0    0    0  501 -0.00000000000E+00  0.00000000000E+00  0.17047528556E+03  0.17047528556E+03  0.00000000000E+00 0.  1.
          1   -1    0    0  501    0  0.00000000000E+00 -0.00000000000E+00 -0.18981181290E+03  0.18981181290E+03  0.00000000000E+00 0. -1.
         25    2    1    2    0    0 -0.68795078176E+02  0.12349907312E+03 -0.39572195840E+02  0.19287653948E+03  0.12510242586E+03 0.  0.
          5    1    3    3  502    0 -0.33646810333E+02  0.12715039551E+03  0.98674937381E+01  0.13196276277E+03  0.41800000000E+01 0.  1.
         -5    1    3    3    0  502 -0.35148267843E+02 -0.36513223955E+01 -0.49439689578E+02  0.60913776710E+02  0.41800000000E+01 0.  1.
        -11    1    1    2    0    0 -0.73003446521E+01 -0.13737610566E+02 -0.22345607503E+02  0.27227617428E+02  0.00000000000E+00 0. -1.
         11    1    1    2    0    0  0.76095422828E+02 -0.10976146255E+03  0.42581276008E+02  0.14018294156E+03  0.00000000000E+00 0.  1.
</event>
<event>
 7    1  0.2714042E-009  0.2093150E+03  0.7561462E-02  0.1142110E+00
         -2   -1    0    0    0  501 -0.00000000000E+00  0.00000000000E+00  0.33913737268E+03  0.33913737268E+03  0.00000000000E+00 0.  1.
          2   -1    0    0  501    0  0.00000000000E+00 -0.00000000000E+00 -0.14840505161E+03  0.14840505161E+03  0.00000000000E+00 0. -1.
         25    2    1    2    0    0 -0.11947659856E+03 -0.15348080967E+03  0.13255913953E+03  0.26655410727E+03  0.12509256608E+03 0.  0.
          5    1    3    3  502    0 -0.59373219881E+02 -0.13103104793E+03  0.14127704753E+03  0.20167050186E+03  0.41800000000E+01 0. -1.
         -5    1    3    3    0  502 -0.60103378677E+02 -0.22449761741E+02 -0.87179080052E+01  0.64883605407E+02  0.41800000000E+01 0. -1.
        -11    1    1    2    0    0 -0.71180574401E+01  0.39297965250E+02  0.25557363530E+02  0.47414930613E+02  0.00000000000E+00 0.  1.
         11    1    1    2    0    0  0.12659465600E+03  0.11418284442E+03  0.32615818010E+02  0.17357338642E+03  0.00000000000E+00 0. -1.
</event>
<event>
 7    1  0.2714042E-009  0.1418606E+03  0.7561462E-02  0.1210847E+00
         -4   -1    0    0    0  501 -0.00000000000E+00  0.00000000000E+00  0.37598222810E+02  0.37598222810E+02  0.00000000000E+00 0.  1.
          4   -1    0    0  501    0  0.00000000000E+00 -0.00000000000E+00 -0.61830061725E+03  0.61830061725E+03  0.00000000000E+00 0. -1.
         25    2    1    2    0    0  0.10695106815E+03  0.14578924988E+01 -0.30781832878E+03  0.34905650959E+03  0.12509063484E+03 0.  0.
          5    1    3    3  502    0  0.99713743288E+02  0.42968653937E+02 -0.14726063735E+03  0.18300902583E+03  0.41800000000E+01 0. -1.
         -5    1    3    3    0  502  0.72373248593E+01 -0.41510761438E+02 -0.16055769143E+03  0.16604748376E+03  0.41800000000E+01 0. -1.
        -11    1    1    2    0    0 -0.45810428149E+02 -0.39687019352E+02 -0.76258698346E+02  0.97411723656E+02  0.00000000000E+00 0.  1.
         11    1    1    2    0    0 -0.61140639998E+02  0.38229126853E+02 -0.19662536732E+03  0.20943060682E+03  0.00000000000E+00 0. -1.
</event>
<event>
 7    1  0.2714042E-009  0.1077487E+03  0.7561462E-02  0.1264797E+00
         -1   -1    0    0    0  501 -0.00000000000E+00  0.00000000000E+00  0.38066881033E+02  0.38066881033E+02  0.00000000000E+00 0.  1.
          1   -1    0    0  501    0  0.00000000000E+00 -0.00000000000E+00 -0.31273804201E+03  0.31273804201E+03  0.00000000000E+00 0. -1.
         25    2    1    2    0    0 -0.46316595459E+01 -0.81635405360E+01 -0.17735015401E+03  0.21723505393E+03  0.12509954381E+03 0.  0.
          5    1    3    3  502    0  0.51345463660E+01 -0.65853868413E+02 -0.83333269179E+02  0.10641899127E+03  0.41800000000E+01 0.  1.
         -5    1    3    3    0  502 -0.97662059120E+01  0.57690327877E+02 -0.94016884833E+02  0.11081606265E+03  0.41800000000E+01 0.  1.
        -11    1    1    2    0    0  0.35008343121E+02 -0.26980491830E+02 -0.56465814978E+02  0.71707177385E+02  0.00000000000E+00 0. -1.
         11    1    1    2    0    0 -0.30376683575E+02  0.35144032366E+02 -0.40855191986E+02  0.61862691730E+02  0.00000000000E+00 0.  1.
</event>
<event>
 7    1  0.2714042E-009  0.1052292E+03  0.7561462E-02  0.1269669E+00
         -4   -1    0    0    0  501 -0.00000000000E+00  0.00000000000E+00  0.82241949733E+02  0.82241949733E+02  0.00000000000E+00 0.  1.
          4   -1    0    0  501    0  0.00000000000E+00 -0.00000000000E+00 -0.26033563696E+03  0.26033563696E+03  0.00000000000E+00 0. -1.
         25    2    1    2    0    0 -0.31626067512E+01 -0.21245483933E+02  0.14936748025E+02  0.12781093588E+03  0.12510458113E+03 0.  0.
          5    1    3    3  502    0 -0.10155245814E+02  0.46762628432E+02  0.31372476832E+02  0.57372268022E+02  0.41800000000E+01 0. -1.
         -5    1    3    3    0  502  0.69926390626E+01 -0.68008112365E+02 -0.16435728807E+02  0.70438667860E+02  0.41800000000E+01 0. -1.
        -11    1    1    2    0    0  0.45792307825E+02 -0.10845888906E+01 -0.86818394017E+02  0.98160813611E+02  0.00000000000E+00 0.  1.
         11    1    1    2    0    0 -0.42629701074E+02  0.22330072823E+02 -0.10621204124E+03  0.11660583720E+03  0.00000000000E+00 0. -1.
</event>
<event>
 7    1  0.2714042E-009  0.2306384E+03  0.7561462E-02  0.1126191E+00
         -2   -1    0    0    0  501 -0.00000000000E+00  0.00000000000E+00  0.22892534124E+02  0.22892534124E+02  0.00000000000E+00 0.  1.
          2   -1    0    0  501    0  0.00000000000E+00 -0.00000000000E+00 -0.26293820794E+04  0.26293820794E+04  0.00000000000E+00 0. -1.
         25    2    1    2    0    0 -0.17761824677E+03  0.11900360975E+03 -0.16233428694E+04  0.16421325590E+04  0.12508864377E+03 0.  0.
          5    1    3    3  502    0 -0.18229393098E+03  0.78798549366E+02 -0.11486824426E+04  0.11657311504E+04  0.41800000000E+01 0.  1.
         -5    1    3    3    0  502  0.46756842095E+01  0.40205060382E+02 -0.47466042682E+03  0.47640140857E+03  0.41800000000E+01 0.  1.
        -11    1    1    2    0    0  0.15425953576E+03 -0.73670261545E+02 -0.86048571075E+03  0.87730209747E+03  0.00000000000E+00 0.  1.
         11    1    1    2    0    0  0.23358711015E+02 -0.45333348204E+02 -0.12266096507E+03  0.13283995706E+03  0.00000000000E+00 0. -1.
</event>
<event>
 7    1  0.2714042E-009  0.9622260E+02  0.7561462E-02  0.1288446E+00
          2   -1    0    0  501    0  0.00000000000E+00  0.00000000000E+00  0.12611320381E+04  0.12611320381E+04  0.00000000000E+00 0. -1.
         -2   -1    0    0    0  501 -0.00000000000E+00 -0.00000000000E+00 -0.13444708885E+02  0.13444708885E+02  0.00000000000E+00 0.  1.
         25    2    1    2    0    0  0.29630010947E+02 -0.31218520168E+02  0.97552300938E+03  0.98445057290E+03  0.12508099419E+03 0.  0.
          5    1    3    3  502    0  0.32112516462E+02  0.30476572942E+02  0.72625252987E+03  0.72761270244E+03  0.41800000000E+01 0. -1.
         -5    1    3    3    0  502 -0.24825055145E+01 -0.61695093110E+02  0.24927047951E+03  0.25683787046E+03  0.41800000000E+01 0. -1.
        -11    1    1    2    0    0 -0.54843509484E+02  0.18736924944E+02  0.24214498305E+03  0.24898408725E+03  0.00000000000E+00 0. -1.
         11    1    1    2    0    0  0.25213498536E+02  0.12481595224E+02  0.30019336787E+02  0.41142086832E+02  0.00000000000E+00 0.  1.
</event>
<event>
 7    1  0.2714042E-009  0.8006762E+02  0.7561462E-02  0.1328860E+00
         -1   -1    0    0    0  501 -0.00000000000E+00  0.00000000000E+00  0.12309596696E+02  0.12309596696E+02  0.00000000000E+00 0.  1.
          1   -1    0    0  501    0  0.00000000000E+00 -0.00000000000E+00 -0.10908844564E+04  0.10908844564E+04  0.00000000000E+00 0. -1.
         25    2    1    2    0    0 -0.31390848160E+02  0.17880844383E+02 -0.70993858227E+03  0.72177983743E+03  0.12509289821E+03 0.  0.
          5    1    3    3  502    0 -0.69173381627E+01  0.39467661569E+02 -0.68285449633E+02  0.79283799786E+02  0.41800000000E+01 0. -1.
         -5    1    3    3    0  502 -0.24473509998E+02 -0.21586817186E+02 -0.64165313264E+03  0.64249603764E+03  0.41800000000E+01 0. -1.
        -11    1    1    2    0    0  0.32523492588E+02 -0.47357485564E+02 -0.31504997142E+03  0.32024520839E+03  0.00000000000E+00 0. -1.
         11    1    1    2    0    0 -0.11326444274E+01  0.29476641181E+02 -0.53586306070E+02  0.61169007324E+02  0.00000000000E+00 0.  1.
</event>
<event>
 7    1  0.2714042E-009  0.1300272E+03  0.7561462E-02  0.1227415E+00
         -2   -1    0    0    0  501 -0.00000000000E+00  0.00000000000E+00  0.77948203321E+02  0.77948203321E+02  0.00000000000E+00 0. -1.
          2   -1    0    0  501    0  0.00000000000E+00 -0.00000000000E+00 -0.31585902696E+03  0.31585902696E+03  0.00000000000E+00 0.  1.
         25    2    1    2    0    0 -0.99796173616E+02 -0.44361699042E+02 -0.90991969488E+02  0.18934535445E+03  0.12507952722E+03 0.  0.
          5    1    3    3  502    0 -0.34247962206E+02 -0.39413281448E+02  0.23380202440E+02  0.57362321570E+02  0.41800000000E+01 0. -1.
         -5    1    3    3    0  502 -0.65548211410E+02 -0.49484175936E+01 -0.11437217193E+03  0.13198303288E+03  0.41800000000E+01 0. -1.
        -11    1    1    2    0    0 -0.17442122273E+02  0.62503255163E+01 -0.14377743390E+02  0.23452370955E+02  0.00000000000E+00 0. -1.
         11    1    1    2    0    0  0.11723829589E+03  0.38111373525E+02 -0.13254111076E+03  0.18100950488E+03  0.00000000000E+00 0.  1.
</event>
<event>
 7    1  0.2714042E-009  0.1747988E+03  0.7561462E-02  0.1172934E+00
         -2   -1    0    0    0  501 -0.00000000000E+00  0.00000000000E+00  0.61911679634E+02  0.61911679634E+02  0.00000000000E+00 0. -1.
          2   -1    0    0  501    0  0.00000000000E+00 -0.00000000000E+00 -0.51667868528E+03  0.51667868528E+03  0.00000000000E+00 0.  1.
         25    2    1    2    0    0 -0.10026544069E+03  0.92494433833E+02 -0.29726629998E+03  0.35017610982E+03  0.12509067070E+03 0.  0.
          5    1    3    3  502    0  0.16360968456E+02  0.61068957517E+02 -0.86604834016E+02  0.10730782141E+03  0.41800000000E+01 0. -1.
         -5    1    3    3    0  502 -0.11662640915E+03  0.31425476316E+02 -0.21066146596E+03  0.24286828841E+03  0.41800000000E+01 0. -1.
        -11    1    1    2    0    0  0.11771188588E+03 -0.89036580376E+02 -0.14226586562E+03  0.20499555420E+03  0.00000000000E+00 0. -1.
         11    1    1    2    0    0 -0.17446445186E+02 -0.34578534573E+01 -0.15234840049E+02  0.23418700892E+02  0.00000000000E+00 0.  1.
</event>
<event>
 7    1  0.2714042E-009  0.1005598E+03  0.7561462E-02  0.1279123E+00
         -2   -1    0    0    0  501 -0.00000000000E+00  0.00000000000E+00  0.44269906114E+02  0.44269906114E+02  0.00000000000E+00 0.  1.
          2   -1    0    0  501    0  0.00000000000E+00 -0.00000000000E+00 -0.33283062701E+03  0.33283062701E+03  0.00000000000E+00 0. -1.
         25    2    1    2    0    0 -0.36374432230E+02 -0.30376471684E+02 -0.12065966844E+03  0.18013914324E+03  0.12508207700E+03 0.  0.
          5    1    3    3  502    0 -0.23576966232E+02 -0.62010038280E+02 -0.12868174580E+03  0.14483639835E+03  0.41800000000E+01 0. -1.
         -5    1    3    3    0  502 -0.12797465997E+02  0.31633566596E+02  0.80220773617E+01  0.35302744890E+02  0.41800000000E+01 0. -1.
        -11    1    1    2    0    0 -0.12844454432E+02  0.46683326553E+02 -0.58822354427E+02  0.76186497281E+02  0.00000000000E+00 0.  1.
         11    1    1    2    0    0  0.49218886661E+02 -0.16306854868E+02 -0.10907869803E+03  0.12077489261E+03  0.00000000000E+00 0. -1.
</event>
<event>
 7    1  0.2714042E-009  0.1057531E+03  0.7561462E-02  0.1268643E+00
          2   -1    0    0  501    0  0.00000000000E+00  0.00000000000E+00  0.48497244223E+02  0.48497244223E+02  0.00000000000E+00 0. -1.
         -2   -1    0    0    0  501 -0.00000000000E+00 -0.00000000000E+00 -0.24578193287E+03  0.24578193287E+03  0.00000000000E+00 0.  1.
         25    2    1    2    0    0 -0.83299538664E+01 -0.50817019441E+01 -0.10070878119E+03  0.16089167554E+03  0.12509460748E+03 0.  0.
          5    1    3    3  502    0 -0.61511779218E+02 -0.19384308798E+02 -0.30227414697E+02  0.71348576786E+02  0.41800000000E+01 0.  1.
         -5    1    3    3    0  502  0.53181825351E+02  0.14302606854E+02 -0.70481366496E+02  0.89543098750E+02  0.41800000000E+01 0.  1.
        -11    1    1    2    0    0 -0.26934620035E+02 -0.31086774189E+02 -0.49247071122E+02  0.64164907075E+02  0.00000000000E+00 0.  1.
         11    1    1    2    0    0  0.35264573901E+02  0.36168476133E+02 -0.47328836327E+02  0.69222594478E+02  0.00000000000E+00 0. -1.
</event>
<event>
 7    1  0.2714042E-009  0.1289819E+03  0.7561462E-02  0.1228974E+00
         -1   -1    0    0    0  501 -0.00000000000E+00  0.00000000000E+00  0.16442056237E+03  0.16442056237E+03  0.00000000000E+00 0.  1.
          1   -1    0    0  501    0  0.00000000000E+00 -0.00000000000E+00 -0.12798583380E+03  0.12798583380E+03  0.00000000000E+00 0. -1.
         25    2    1    2    0    0 -0.23626779275E+02  0.80174268910E+02 -0.20558058792E+02  0.15184394748E+03  0.12509121676E+03 0.  0.
          5    1    3    3  502    0  0.64075172643E+00  0.10182741406E+03  0.15520735848E+02  0.10309024425E+03  0.41800000000E+01 0. -1.
         -5    1    3    3    0  502 -0.24267531002E+02 -0.21653145153E+02 -0.36078794640E+02  0.48753703230E+02  0.41800000000E+01 0. -1.
        -11    1    1    2    0    0 -0.27504398525E+02  0.77147113954E+00  0.30802845804E+02  0.41302571537E+02  0.00000000000E+00 0.  1.
         11    1    1    2    0    0  0.51131177801E+02 -0.80945740050E+02  0.26189941555E+02  0.99259877161E+02  0.00000000000E+00 0. -1.
</event>
<event>
 7    1  0.3008452E-009  0.1029596E+03  0.7561462E-02  0.1274193E+00
          1   -1    0    0  501    0  0.00000000000E+00  0.00000000000E+00  0.10365679823E+04  0.10365679823E+04  0.00000000000E+00 0. -1.
         -1   -1    0    0    0  501 -0.00000000000E+00 -0.00000000000E+00 -0.13618197235E+02  0.13618197235E+02  0.00000000000E+00 0.  1.
         25    2    1    2    0    0 -0.23357036714E+02  0.62039790339E+01  0.75861597843E+03  0.76923955441E+03  0.12508896367E+03 0.  0.
          5    1    3    3  502    0 -0.67620778830E+02 -0.47677216799E+01  0.60890992279E+03  0.61268594514E+03  0.41800000000E+01 0. -1.
         -5    1    3    3    0  502  0.44263742116E+02  0.10971700714E+02  0.14970605563E+03  0.15655360927E+03  0.41800000000E+01 0. -1.
        -11    1    1    2    0    0  0.24896267329E+02  0.39384146087E+02  0.16829780687E+03  0.17462842520E+03  0.00000000000E+00 0.  1.
         11    1    1    2    0    0 -0.15392306152E+01 -0.45588125121E+02  0.96035999761E+02  0.10631819991E+03  0.00000000000E+00 0. -1.
</event>
<event>
 7    1  0.2714042E-009  0.8948966E+02  0.7561462E-02  0.1304092E+00
         -3   -1    0    0    0  501 -0.00000000000E+00  0.00000000000E+00  0.31300555100E+02  0.31300555100E+02  0.00000000000E+00 0.  1.
          3   -1    0    0  501    0  0.00000000000E+00 -0.00000000000E+00 -0.54275495341E+03  0.54275495341E+03  0.00000000000E+00 0. -1.
         25    2    1    2    0    0  0.65852302322E+02 -0.11039031414E+02 -0.33379762647E+03  0.36266607541E+03  0.12508973132E+03 0.  0.
          5    1    3    3  502    0  0.19630230404E+02  0.76549450409E+01 -0.30332116945E+03  0.30408082539E+03  0.41800000000E+01 0. -1.
         -5    1    3    3    0  502  0.46222071918E+02 -0.18693976455E+02 -0.30476457014E+02  0.58585250023E+02  0.41800000000E+01 0. -1.
        -11    1    1    2    0    0  0.52968190630E+01  0.32672613874E+02 -0.24655042408E+02  0.41272595093E+02  0.00000000000E+00 0.  1.
         11    1    1    2    0    0 -0.71149121385E+02 -0.21633582460E+02 -0.15300172943E+03  0.17011683800E+03  0.00000000000E+00 0. -1.
</event>
<event>
 7    1  0.2714042E-009  0.8770098E+02  0.7561462E-02  0.1308517E+00
         -2   -1    0    0    0  501 -0.00000000000E+00  0.00000000000E+00  0.59611212119E+03  0.59611212119E+03  0.00000000000E+00 0.  1.
          2   -1    0    0  501    0  0.00000000000E+00 -0.00000000000E+00 -0.21256702556E+02  0.21256702556E+02  0.00000000000E+00 0. -1.
         25    2    1    2    0    0  0.26025949051E+02 -0.72421815139E+01  0.32560975248E+03  0.34985746641E+03  0.12509491068E+03 0.  0.
          5    1    3    3  502    0 -0.22602914989E+02  0.29120801480E+02  0.25026619154E+03  0.25300109066E+03  0.41800000000E+01 0. -1.
         -5    1    3    3    0  502  0.48628864039E+02 -0.36362982994E+02  0.75343560935E+02  0.96856375755E+02  0.41800000000E+01 0. -1.
        -11    1    1    2    0    0 -0.32050079939E+02  0.35916514586E+02  0.22312440936E+03  0.22825798058E+03  0.00000000000E+00 0.  1.
         11    1    1    2    0    0  0.60241308880E+01 -0.28674333072E+02  0.26121256787E+02  0.39253376749E+02  0.00000000000E+00 0. -1.
</event>
<event>
 7    1  0.2714042E-009  0.7435312E+02  0.7561462E-02  0.1345886E+00
          2   -1    0    0  501    0  0.00000000000E+00  0.00000000000E+00  0.25663075008E+03  0.25663075008E+03  0.00000000000E+00 0. -1.
         -2   -1    0    0    0  501 -0.00000000000E+00 -0.00000000000E+00 -0.49299437807E+02  0.49299437807E+02  0.00000000000E+00 0.  1.
         25    2    1    2    0    0  0.11803165112E+02  0.96240470982E+01  0.14839764770E+03  0.19468792550E+03  0.12509831935E+03 0.  0.
          5    1    3    3  502    0  0.47621504364E+02  0.20098787461E+02  0.12017279176E+02  0.53232098719E+02  0.41800000000E+01 0. -1.
         -5    1    3    3    0  502 -0.35818339252E+02 -0.10474740363E+02  0.13638036852E+03  0.14145582678E+03  0.41800000000E+01 0. -1.
        -11    1    1    2    0    0  0.14269658157E+02  0.16889736070E+02  0.69215477231E+02  0.72661328207E+02  0.00000000000E+00 0. -1.
         11    1    1    2    0    0 -0.26072823269E+02 -0.26513783168E+02 -0.10281812650E+02  0.38580934184E+02  0.00000000000E+00 0.  1.
</event>
<event>
 7    1  0.2714042E-009  0.8856595E+02  0.7561462E-02  0.1306362E+00
         -2   -1    0    0    0  501 -0.00000000000E+00  0.00000000000E+00  0.47567248682E+02  0.47567248682E+02  0.00000000000E+00 0.  1.
          2   -1    0    0  501    0  0.00000000000E+00 -0.00000000000E+00 -0.34332529913E+03  0.34332529913E+03  0.00000000000E+00 0. -1.
         25    2    1    2    0    0 -0.66970910713E+02 -0.12512508610E+02 -0.13371312586E+03  0.19536608234E+03  0.12508813032E+03 0.  0.
          5    1    3    3  502    0 -0.79952991717E+02 -0.27796667502E+02 -0.30393531839E+02  0.90035408514E+02  0.41800000000E+01 0. -1.
         -5    1    3    3    0  502  0.12982081004E+02  0.15284158892E+02 -0.10331959402E+03  0.10533067382E+03  0.41800000000E+01 0. -1.
        -11    1    1    2    0    0  0.33054934435E+02  0.17845520766E+02 -0.15625754016E+03  0.16070939661E+03  0.00000000000E+00 0. -1.
         11    1    1    2    0    0  0.33915976277E+02 -0.53330121555E+01 -0.57873844262E+01  0.34817068860E+02  0.00000000000E+00 0.  1.
</event>
<event>
 7    1  0.2714042E-009  0.1108364E+03  0.7561462E-02  0.1259029E+00
         -2   -1    0    0    0  501 -0.00000000000E+00  0.00000000000E+00  0.29484959442E+02  0.29484959442E+02  0.00000000000E+00 0. -1.
          2   -1    0    0  501    0  0.00000000000E+00 -0.00000000000E+00 -0.59926338307E+03  0.59926338307E+03  0.00000000000E+00 0.  1.
         25    2    1    2    0    0  0.25611164444E+02  0.58086964298E+02 -0.20868347694E+03  0.25144827840E+03  0.12508963186E+03 0.  0.
          5    1    3    3  502    0 -0.46852999971E+02  0.46169485073E+02 -0.85228431173E+02  0.10774127732E+03  0.41800000000E+01 0. -1.
         -5    1    3    3    0  502  0.72464164416E+02  0.11917479226E+02 -0.12345504577E+03  0.14370700108E+03  0.41800000000E+01 0. -1.
        -11    1    1    2    0    0 -0.39733185571E+02 -0.54828647478E+02 -0.35529477870E+03  0.36168948891E+03  0.00000000000E+00 0.  1.
         11    1    1    2    0    0  0.14122021126E+02 -0.32583168203E+01 -0.58001679906E+01  0.15610575195E+02  0.00000000000E+00 0. -1.
</event>
<event>
 7    1  0.2714042E-009  0.1034369E+03  0.7561462E-02  0.1273230E+00
         -1   -1    0    0    0  501 -0.00000000000E+00  0.00000000000E+00  0.25721463188E+02  0.25721463188E+02  0.00000000000E+00 0.  1.
          1   -1    0    0  501    0  0.00000000000E+00 -0.00000000000E+00 -0.59669273323E+03  0.59669273323E+03  0.00000000000E+00 0. -1.
         25    2    1    2    0    0  0.21631336759E+01  0.32912886619E+02 -0.18991155484E+03  0.22978618803E+03  0.12508939321E+03 0.  0.
          5    1    3    3  502    0  0.48309921806E+02 -0.16425131299E+02 -0.12877194907E+03  0.13857604681E+03  0.41800000000E+01 0.  1.
         -5    1    3    3    0  502 -0.46146788131E+02  0.49338017918E+02 -0.61139605774E+02  0.91210141218E+02  0.41800000000E+01 0.  1.
        -11    1    1    2    0    0 -0.82199346806E+01  0.26769601575E+02 -0.62751680848E+02  0.68716463412E+02  0.00000000000E+00 0.  1.
         11    1    1    2    0    0  0.60568010047E+01 -0.59682488194E+02 -0.31830803435E+03  0.32391154498E+03  0.00000000000E+00 0. -1.
</event>
<event>
 7    1  0.2714042E-009  0.8276464E+02  0.7561462E-02  0.1321384E+00
         -1   -1    0    0    0  501 -0.00000000000E+00  0.00000000000E+00  0.15496651103E+03  0.15496651103E+03  0.00000000000E+00 0.  1.
          1   -1    0    0  501    0  0.00000000000E+00 -0.00000000000E+00 -0.10912817934E+03  0.10912817934E+03  0.00000000000E+00 0. -1.
         25    2    1    2    0    0 -0.55097926638E+01  0.60885223146E+02 -0.12086602045E+02  0.13974639473E+03  0.12508237557E+03 0.  0.
          5    1    3    3  502    0  0.35333380457E+01  0.27802985306E+02  0.56355316877E+02  0.63078400503E+02  0.41800000000E+01 0.  1.
         -5    1    3    3    0  502 -0.90431307095E+01  0.33082237840E+02 -0.68441918922E+02  0.76667994230E+02  0.41800000000E+01 0.  1.
        -11    1    1    2    0    0  0.43685719495E+02 -0.25463562224E+02  0.50989703493E+02  0.71810757908E+02  0.00000000000E+00 0. -1.
         11    1    1    2    0    0 -0.38175926832E+02 -0.35421660921E+02  0.69352302415E+01  0.52537537727E+02  0.00000000000E+00 0.  1.
</event>
<event>
 7    1  0.2714042E-009  0.1042722E+03  0.7561462E-02  0.1271560E+00
         -1   -1    0    0    0  501 -0.00000000000E+00  0.00000000000E+00  0.41743858118E+02  0.41743858118E+02  0.00000000000E+00 0.  1.
          1   -1    0    0  501    0  0.00000000000E+00 -0.00000000000E+00 -0.39961795077E+03  0.39961795077E+03  0.00000000000E+00 0. -1.
         25    2    1    2    0    0  0.45493987253E+02 -0.26114755569E+02 -0.27757419103E+03  0.30894396865E+03  0.12508901192E+03 0.  0.
          5    1    3    3  502    0  0.71547588042E+02 -0.54897706132E+02 -0.23190252638E+03  0.24885551960E+03  0.41800000000E+01 0. -1.
         -5    1    3    3    0  502 -0.26053600789E+02  0.28782950563E+02 -0.45671664649E+02  0.60088449048E+02  0.41800000000E+01 0. -1.
        -11    1    1    2    0    0  0.41598416531E+01  0.29174624167E+02 -0.77130893248E+02  0.82568987344E+02  0.00000000000E+00 0. -1.
         11    1    1    2    0    0 -0.49653828906E+02 -0.30598685988E+01 -0.31690083742E+01  0.49848852895E+02  0.00000000000E+00 0.  1.
</event>
<event>
 7    1  0.2714042E-009  0.1221163E+03  0.7561462E-02  0.1239646E+00
          2   -1    0    0  501    0  0.00000000000E+00  0.00000000000E+00  0.41707549911E+02  0.41707549911E+02  0.00000000000E+00 0. -1.
         -2   -1    0    0    0  501 -0.00000000000E+00 -0.00000000000E+00 -0.52758013490E+03  0.52758013490E+03  0.00000000000E+00 0.  1.
         25    2    1    2    0    0 -0.63958952140E+01 -0.66243239695E+02 -0.40727089043E+03  0.43122031509E+03  0.12510918302E+03 0.  0.
          5    1    3    3  502    0 -0.47389625764E+02 -0.76793561058E+02 -0.33859883000E+03  0.35044210325E+03  0.41800000000E+01 0. -1.
         -5    1    3    3    0  502  0.40993730550E+02  0.10550321363E+02 -0.68672060425E+02  0.80778211841E+02  0.41800000000E+01 0. -1.
        -11    1    1    2    0    0 -0.20997783837E+02  0.78566189588E+02 -0.68645522816E+02  0.10642255811E+03  0.00000000000E+00 0.  1.
         11    1    1    2    0    0  0.27393679051E+02 -0.12322949892E+02 -0.99561717458E+01  0.31644811610E+02  0.00000000000E+00 0. -1.
</event>
<event>
 7    1  0.2714042E-009  0.1876714E+03  0.7561462E-02  0.1160579E+00
         -2   -1    0    0    0  501 -0.00000000000E+00  0.00000000000E+00  0.30715107928E+03  0.30715107928E+03  0.00000000000E+00 0.  1.
          2   -1    0    0  501    0  0.00000000000E+00 -0.00000000000E+00 -0.15211186005E+03  0.15211186005E+03  0.00000000000E+00 0. -1.
         25    2    1    2    0    0  0.66608098489E+02 -0.16316995818E+03  0.63298570004E+01  0.21621457611E+03  0.12509037453E+03 0.  0.
          5    1    3    3  502    0 -0.17227180748E+01 -0.75083323581E+02  0.56318008498E+02  0.93966290332E+02  0.41800000000E+01 0.  1.
         -5    1    3    3    0  502  0.68330816564E+02 -0.88086634595E+02 -0.49988151497E+02  0.12224828578E+03  0.41800000000E+01 0.  1.
        -11    1    1    2    0    0 -0.77054445663E+02  0.10955352048E+03  0.12600569742E+03  0.18389343988E+03  0.00000000000E+00 0. -1.
         11    1    1    2    0    0  0.10446347175E+02  0.53616437693E+02  0.22703664802E+02  0.59154923342E+02  0.00000000000E+00 0.  1.
</event>
<event>
 7    1  0.2714042E-009  0.9059858E+02  0.7561462E-02  0.1301409E+00
         -2   -1    0    0    0  501 -0.00000000000E+00  0.00000000000E+00  0.29751533754E+02  0.29751533754E+02  0.00000000000E+00 0.  1.
          2   -1    0    0  501    0  0.00000000000E+00 -0.00000000000E+00 -0.88231451367E+03  0.88231451367E+03  0.00000000000E+00 0. -1.
         25    2    1    2    0    0 -0.20311869338E+02 -0.70275691083E+02 -0.72762713221E+03  0.74191614313E+03  0.12508826926E+03 0.  0.
          5    1    3    3  502    0 -0.37393369025E+02 -0.60447549485E+02 -0.71412173493E+03  0.71766252165E+03  0.41800000000E+01 0.  1.
         -5    1    3    3    0  502  0.17081499687E+02 -0.98281415984E+01 -0.13505397281E+02  0.24253621473E+02  0.41800000000E+01 0.  1.
        -11    1    1    2    0    0  0.10168388547E+02 -0.67206065156E+01  0.91201814000E+01  0.15223021590E+02  0.00000000000E+00 0.  1.
         11    1    1    2    0    0  0.10143480791E+02  0.76996297599E+02 -0.13405602911E+03  0.15492688271E+03  0.00000000000E+00 0. -1.
</event>
<event>
 7    1  0.2714042E-009  0.1408495E+03  0.7561462E-02  0.1212191E+00
         -2   -1    0    0    0  501 -0.00000000000E+00  0.00000000000E+00  0.28251432416E+02  0.28251432416E+02  0.00000000000E+00 0.  1.
          2   -1    0    0  501    0  0.00000000000E+00 -0.00000000000E+00 -0.86303313358E+03  0.86303313358E+03  0.00000000000E+00 0. -1.
         25    2    1    2    0    0  0.62521656017E+02  0.92811636836E+02 -0.42557362768E+03  0.45747583882E+03  0.12509305785E+03 0.  0.
          5    1    3    3  502    0 -0.12699509897E+02  0.49693554548E+02 -0.30264501622E+03  0.30698893328E+03  0.41800000000E+01 0.  1.
         -5    1    3    3    0  502  0.75221165915E+02  0.43118082287E+02 -0.12292861146E+03  0.15048690553E+03  0.41800000000E+01 0.  1.
        -11    1    1    2    0    0 -0.58260071418E+02 -0.83381147908E+01 -0.14914655575E+03  0.16033856421E+03  0.00000000000E+00 0. -1.
         11    1    1    2    0    0 -0.42615845995E+01 -0.84473522045E+02 -0.26006151773E+03  0.27347016297E+03  0.00000000000E+00 0.  1.
</event>
<event>
 7    1  0.2714042E-009  0.1691081E+03  0.7561462E-02  0.1178781E+00
         -2   -1    0    0    0  501 -0.00000000000E+00  0.00000000000E+00  0.27201260942E+03  0.27201260942E+03  0.00000000000E+00 0.  1.
          2   -1    0    0  501    0  0.00000000000E+00 -0.00000000000E+00 -0.11548677100E+03  0.11548677100E+03  0.00000000000E+00 0. -1.
         25    2    1    2    0    0  0.71682933146E+02  0.11761688100E+03  0.10691978784E+03  0.21459635252E+03  0.12509028693E+03 0.  0.
          5    1    3    3  502    0  0.10690565207E+03  0.97154840169E+02  0.90258765530E+02  0.17038778879E+03  0.41800000000E+01 0. -1.
         -5    1    3    3    0  502 -0.35222718921E+02  0.20462040832E+02  0.16661022310E+02  0.44208563736E+02  0.41800000000E+01 0. -1.
        -11    1    1    2    0    0  0.28092887133E+01 -0.56016338887E+02  0.51610702879E+02  0.76219334667E+02  0.00000000000E+00 0.  1.
         11    1    1    2    0    0 -0.74492221859E+02 -0.61600542115E+02 -0.20046523030E+01  0.96683693233E+02  0.00000000000E+00 0. -1.
</event>
<event>
 7    1  0.2714042E-009  0.8465692E+02  0.7561462E-02  0.1316332E+00
         -2   -1    0    0    0  501 -0.00000000000E+00  0.00000000000E+00  0.73761568900E+03  0.73761568900E+03  0.00000000000E+00 0. -1.
          2   -1    0    0  501    0  0.00000000000E+00 -0.00000000000E+00 -0.29513312229E+02  0.29513312229E+02  0.00000000000E+00 0.  1.
         25    2    1    2    0    0  0.44937536426E+01  0.19135730715E+02  0.63557731757E+03  0.64806834836E+03  0.12509071722E+03 0.  0.
          5    1    3    3  502    0  0.30160476976E+02 -0.40054202359E+02  0.15016855053E+03  0.15837316524E+03  0.41800000000E+01 0. -1.
         -5    1    3    3    0  502 -0.25666723334E+02  0.59189933074E+02  0.48540876703E+03  0.48969518313E+03  0.41800000000E+01 0. -1.
        -11    1    1    2    0    0 -0.23398512726E+02 -0.25303735938E+02 -0.86108138894E+01  0.35523450931E+02  0.00000000000E+00 0.  1.
         11    1    1    2    0    0  0.18904759084E+02  0.61680052233E+01  0.81135873099E+02  0.83537201940E+02  0.00000000000E+00 0. -1.
</event>
<event>
 7    1  0.2714042E-009  0.9960353E+02  0.7561462E-02  0.1281132E+00
          2   -1    0    0  501    0  0.00000000000E+00  0.00000000000E+00  0.79488802221E+02  0.79488802221E+02  0.00000000000E+00 0. -1.
         -2   -1    0    0    0  501 -0.00000000000E+00 -0.00000000000E+00 -0.15846105319E+03  0.15846105319E+03  0.00000000000E+00 0.  1.
         25    2    1    2    0    0  0.10561558199E+02 -0.24500908414E+02 -0.71275024923E+02  0.14642656801E+03  0.12509504234E+03 0.  0.
          5    1    3    3  502    0  0.45885091478E+02  0.27592512525E+02 -0.34699482384E+01  0.53817295623E+02  0.41800000000E+01 0.  1.
         -5    1    3    3    0  502 -0.35323533279E+02 -0.52093420939E+02 -0.67805076684E+02  0.92609272390E+02  0.41800000000E+01 0.  1.
        -11    1    1    2    0    0  0.71380328580E+01 -0.27019729067E+02 -0.21576702608E+02  0.35306817576E+02  0.00000000000E+00 0.  1.
         11    1    1    2    0    0 -0.17699591057E+02  0.51520637481E+02  0.13879476558E+02  0.56216469825E+02  0.00000000000E+00 0. -1.
</event>
<event>
 7    1  0.2714042E-009  0.1893713E+03  0.7561462E-02  0.1159030E+00
          1   -1    0    0  501    0  0.00000000000E+00  0.00000000000E+00  0.34104196505E+03  0.34104196505E+03  0.00000000000E+00 0. -1.
         -1   -1    0    0    0  501 -0.00000000000E+00 -0.00000000000E+00 -0.11591626387E+03  0.11591626387E+03  0.00000000000E+00 0.  1.
         25    2    1    2    0    0 -0.26374255348E+02  0.16198592053E+03  0.87819250459E+02  0.22426497452E+03  0.12509004057E+03 0.  0.
          5    1    3    3  502    0 -0.43270095034E+02  0.19198918926E+02 -0.12202403447E+02  0.49063944624E+02  0.41800000000E+01 0. -1.
         -5    1    3    3    0  502  0.16895839686E+02  0.14278700161E+03  0.10002165391E+03  0.17520102990E+03  0.41800000000E+01 0. -1.
        -11    1    1    2    0    0  0.34631654081E+02 -0.11248013582E+02  0.33543744026E+02  0.49508100723E+02  0.00000000000E+00 0.  1.
         11    1    1    2    0    0 -0.82573987329E+01 -0.15073790695E+03  0.10376270669E+03  0.18318515367E+03  0.00000000000E+00 0. -1.
</event>
<event>
 7    1  0.2714042E-009  0.1173763E+03  0.7561462E-02  0.1247489E+00
         -1   -1    0    0    0  501 -0.00000000000E+00  0.00000000000E+00  0.13081647956E+04  0.13081647956E+04  0.00000000000E+00 0.  1.
          1   -1    0    0  501    0  0.00000000000E+00 -0.00000000000E+00 -0.11245923071E+02  0.11245923071E+02  0.00000000000E+00 0. -1.
         25    2    1    2    0    0  0.45611530668E+02 -0.13374849142E+02  0.86167059049E+03  0.87199915029E+03  0.12508802206E+03 0.  0.
          5    1    3    3  502    0  0.25051649921E+02 -0.68848508279E+02  0.41973933631E+03  0.42610595525E+03  0.41800000000E+01 0. -1.
         -5    1    3    3    0  502  0.20559880747E+02  0.55473659137E+02  0.44193125419E+03  0.44589319504E+03  0.41800000000E+01 0. -1.
        -11    1    1    2    0    0 -0.34828114006E+01 -0.36561336108E+02  0.12133666377E+03  0.12677321187E+03  0.00000000000E+00 0.  1.
         11    1    1    2    0    0 -0.42128719267E+02  0.49936185251E+02  0.31391161824E+03  0.32063835649E+03  0.00000000000E+00 0. -1.
</event>
<event>
 7    1  0.2714042E-009  0.1160289E+03  0.7561462E-02  0.1249796E+00
          1   -1    0    0  501    0  0.00000000000E+00  0.00000000000E+00  0.61012771163E+03  0.61012771163E+03  0.00000000000E+00 0. -1.
         -1   -1    0    0    0  501 -0.00000000000E+00 -0.00000000000E+00 -0.42265718975E+02  0.42265718975E+02  0.00000000000E+00 0.  1.
         25    2    1    2    0    0 -0.34099688768E+02  0.84273947034E+02  0.45660851050E+03  0.48208316370E+03  0.12509179807E+03 0.  0.
          5    1    3    3  502    0 -0.51640180671E+02  0.11881248031E+02  0.33663137603E+03  0.34080203644E+03  0.41800000000E+01 0. -1.
         -5    1    3    3    0  502  0.17540491903E+02  0.72392699003E+02  0.11997713447E+03  0.14128112726E+03  0.41800000000E+01 0. -1.
        -11    1    1    2    0    0 -0.10962763326E+02 -0.38643882482E+02  0.96468635298E+02  0.10449750920E+03  0.00000000000E+00 0.  1.
         11    1    1    2    0    0  0.45062452094E+02 -0.45630064552E+02  0.14784846860E+02  0.65812757703E+02  0.00000000000E+00 0. -1.
</event>
<event>
 7    1  0.2714042E-009  0.1820462E+03  0.7561462E-02  0.1165837E+00
         -2   -1    0    0    0  501 -0.00000000000E+00  0.00000000000E+00  0.20788595587E+02  0.20788595587E+02  0.00000000000E+00 0.  1.
          2   -1    0    0  501    0  0.00000000000E+00 -0.00000000000E+00 -0.17189201250E+04  0.17189201250E+04  0.00000000000E+00 0. -1.
         25    2    1    2    0    0 -0.13603399621E+03 -0.71975328055E+02 -0.81263640779E+03  0.83648761993E+03  0.12509161070E+03 0.  0.
          5    1    3    3  502    0  0.17022403177E+02 -0.11531923770E+01 -0.22512080230E+02  0.28554478087E+02  0.41800000000E+01 0. -1.
         -5    1    3    3    0  502 -0.15305639939E+03 -0.70822135678E+02 -0.79012432756E+03  0.80793314185E+03  0.41800000000E+01 0. -1.
        -11    1    1    2    0    0  0.10588858752E+02  0.49205601387E+02 -0.27213140738E+03  0.27674684826E+03  0.00000000000E+00 0. -1.
         11    1    1    2    0    0  0.12544513746E+03  0.22769726668E+02 -0.61336371430E+03  0.62647425245E+03  0.00000000000E+00 0.  1.
</event>
<event>
 7    1  0.2714042E-009  0.1981323E+03  0.7561462E-02  0.1151324E+00
         -1   -1    0    0    0  501 -0.00000000000E+00  0.00000000000E+00  0.84706121160E+02  0.84706121160E+02  0.00000000000E+00 0.  1.
          1   -1    0    0  501    0  0.00000000000E+00 -0.00000000000E+00 -0.51879139093E+03  0.51879139093E+03  0.00000000000E+00 0. -1.
         25    2    1    2    0    0 -0.29824633029E+02  0.17073709840E+03 -0.28913362090E+03  0.35956388226E+03  0.12508904502E+03 0.  0.
          5    1    3    3  502    0  0.38825558805E+02  0.21634129510E+02 -0.33819704167E+02  0.56006288630E+02  0.41800000000E+01 0.  1.
         -5    1    3    3    0  502 -0.68650191833E+02  0.14910296889E+03 -0.25531391674E+03  0.30355759363E+03  0.41800000000E+01 0.  1.
        -11    1    1    2    0    0 -0.23625532249E+02 -0.45924789542E+02 -0.75370039045E+02  0.91366814840E+02  0.00000000000E+00 0. -1.
         11    1    1    2    0    0  0.53450165278E+02 -0.12481230886E+03 -0.69581609826E+02  0.15256681499E+03  0.00000000000E+00 0.  1.
</event>
<event>
 7    1  0.2714042E-009  0.1121974E+03  0.7561462E-02  0.1256554E+00
         -1   -1    0    0    0  501 -0.00000000000E+00  0.00000000000E+00  0.12864824505E+03  0.12864824505E+03  0.00000000000E+00 0.  1.
          1   -1    0    0  501    0  0.00000000000E+00 -0.00000000000E+00 -0.11875807825E+03  0.11875807825E+03  0.00000000000E+00 0. -1.
         25    2    1    2    0    0 -0.52280907879E+02  0.24654756341E+02 -0.78134131336E+01  0.13802114435E+03  0.12509051333E+03 0.  0.
          5    1    3    3  502    0 -0.48005344530E+02 -0.44762236252E+02  0.89039893124E+01  0.66369603912E+02  0.41800000000E+01 0. -1.
         -5    1    3    3    0  502 -0.42755633483E+01  0.69416992594E+02 -0.16717402446E+02  0.71651540439E+02  0.41800000000E+01 0. -1.
        -11    1    1    2    0    0  0.64992805845E+02 -0.33833453145E+02  0.38948840610E+02  0.82980597420E+02  0.00000000000E+00 0.  1.
         11    1    1    2    0    0 -0.12711897967E+02  0.91786968035E+01 -0.21245260668E+02  0.26404581530E+02  0.00000000000E+00 0. -1.
</event>
<event>
 7    1  0.2714042E-009  0.1695423E+03  0.7561462E-02  0.1178326E+00
          1   -1    0    0  501    0  0.00000000000E+00  0.00000000000E+00  0.59712403522E+02  0.59712403522E+02  0.00000000000E+00 0. -1.
         -1   -1    0    0    0  501 -0.00000000000E+00 -0.00000000000E+00 -0.56776208053E+03  0.56776208053E+03  0.00000000000E+00 0.  1.
         25    2    1    2    0    0  0.13385021966E+03  0.59289090245E+02 -0.26963983831E+03  0.33133612315E+03  0.12508759560E+03 0.  0.
          5    1    3    3  502    0  0.92882037691E+02 -0.20752298016E+00 -0.23164789542E+03  0.24961036806E+03  0.41800000000E+01 0.  1.
         -5    1    3    3    0  502  0.40968181971E+02  0.59496613225E+02 -0.37991942886E+02  0.81725755081E+02  0.41800000000E+01 0.  1.
        -11    1    1    2    0    0  0.14481717307E+02 -0.93478309711E+01 -0.39016075841E+02  0.42653912530E+02  0.00000000000E+00 0.  1.
         11    1    1    2    0    0 -0.14833193697E+03 -0.49941259274E+02 -0.19939376286E+03  0.25348444838E+03  0.00000000000E+00 0. -1.
</event>
<event>
 7    1  0.2714042E-009  0.9835895E+02  0.7561462E-02  0.1283785E+00
         -1   -1    0    0    0  501 -0.00000000000E+00  0.00000000000E+00  0.21962915719E+02  0.21962915719E+02  0.00000000000E+00 0.  1.
          1   -1    0    0  501    0  0.00000000000E+00 -0.00000000000E+00 -0.54658749637E+03  0.54658749637E+03  0.00000000000E+00 0. -1.
         25    2    1    2    0    0  0.83820674578E+01  0.94214884159E+01 -0.30911819278E+03  0.33370211190E+03  0.12507605238E+03 0.  0.
          5    1    3    3  502    0 -0.35546140665E+02 -0.43589392098E+02 -0.15127605008E+03  0.16144806889E+03  0.41800000000E+01 0.  1.
         -5    1    3    3    0  502  0.43928208123E+02  0.53010880514E+02 -0.15784214270E+03  0.17225404301E+03  0.41800000000E+01 0.  1.
        -11    1    1    2    0    0 -0.39164379949E+02 -0.10483829800E+02 -0.19164387291E+03  0.19588551087E+03  0.00000000000E+00 0. -1.
         11    1    1    2    0    0  0.30782312491E+02  0.10623413836E+01 -0.23862514963E+02  0.38962789324E+02  0.00000000000E+00 0.  1.
</event>
<event>
 7    1  0.2714042E-009  0.1206553E+03  0.7561462E-02  0.1242020E+00
         -2   -1    0    0    0  501 -0.00000000000E+00  0.00000000000E+00  0.42237600162E+02  0.42237600162E+02  0.00000000000E+00 0.  1.
          2   -1    0    0  501    0  0.00000000000E+00 -0.00000000000E+00 -0.47148760619E+03  0.47148760619E+03  0.00000000000E+00 0. -1.
         25    2    1    2    0    0  0.87541631812E+02  0.62562945777E+01 -0.25988565198E+03  0.30148073978E+03  0.12508959122E+03 0.  0.
          5    1    3    3  502    0  0.32764943372E+02 -0.53123189790E+02 -0.63735771111E+02  0.89304735187E+02  0.41800000000E+01 0. -1.
         -5    1    3    3    0  502  0.54776688440E+02  0.59379484368E+02 -0.19614988086E+03  0.21217600459E+03  0.41800000000E+01 0. -1.
        -11    1    1    2    0    0 -0.13745290825E+02  0.15701491162E+02  0.51555249861E+01  0.21495331643E+02  0.00000000000E+00 0.  1.
         11    1    1    2    0    0 -0.73796340988E+02 -0.21957785740E+02 -0.17451987903E+03  0.19074913493E+03  0.00000000000E+00 0. -1.
</event>
<event>
 7    1  0.2714042E-009  0.7491530E+02  0.7561462E-02  0.1344134E+00
         -3   -1    0    0    0  501 -0.00000000000E+00  0.00000000000E+00  0.33973937829E+03  0.33973937829E+03  0.00000000000E+00 0.  1.
          3   -1    0    0  501    0  0.00000000000E+00 -0.00000000000E+00 -0.43215778297E+02  0.43215778297E+02  0.00000000000E+00 0. -1.
         25    2    1    2    0    0 -0.28361610463E+02 -0.47962425157E+02  0.15438077507E+03  0.20636201042E+03  0.12508829065E+03 0.  0.
          5    1    3    3  502    0 -0.18975004191E+02  0.59489061499E+01 -0.16946367718E+02  0.26459252583E+02  0.41800000000E+01 0. -1.
         -5    1    3    3    0  502 -0.93866062726E+01 -0.53911331307E+02  0.17132714279E+03  0.17990275783E+03  0.41800000000E+01 0. -1.
        -11    1    1    2    0    0  0.36656820808E+02  0.13312160806E+02  0.13465056268E+03  0.14018455752E+03  0.00000000000E+00 0.  1.
         11    1    1    2    0    0 -0.82952103450E+01  0.34650264351E+02  0.74922622492E+01  0.36408588656E+02  0.00000000000E+00 0. -1.
</event>
<event>
 7    1  0.2714042E-009  0.1632987E+03  0.7561462E-02  0.1185022E+00
          1   -1    0    0  501    0  0.00000000000E+00  0.00000000000E+00  0.14026116007E+04  0.14026116007E+04  0.00000000000E+00 0. -1.
         -1   -1    0    0    0  501 -0.00000000000E+00 -0.00000000000E+00 -0.19913101384E+02  0.19913101384E+02  0.00000000000E+00 0.  1.
         25    2    1    2    0    0  0.87904276922E+02 -0.89646549086E+02  0.79198211862E+03  0.81157079113E+03  0.12509119526E+03 0.  0.
          5    1    3    3  502    0 -0.31496699750E+02 -0.17877611051E+02  0.12638551317E+03  0.13153866888E+03  0.41800000000E+01 0.  1.
         -5    1    3    3    0  502  0.11940097667E+03 -0.71768938036E+02  0.66559660545E+03  0.68003212224E+03  0.41800000000E+01 0.  1.
        -11    1    1    2    0    0 -0.76300831254E+02  0.18275371892E+02  0.22861864077E+03  0.24170703129E+03  0.00000000000E+00 0.  1.
         11    1    1    2    0    0 -0.11603445668E+02  0.71371177194E+02  0.36209773993E+03  0.36924687967E+03  0.00000000000E+00 0. -1.
</event>
<event>
 7    1  0.2714042E-009  0.1080064E+03  0.7561462E-02  0.1264307E+00
          2   -1    0    0  501    0  0.00000000000E+00  0.00000000000E+00  0.37141635973E+03  0.37141635973E+03  0.00000000000E+00 0.  1.
         -2   -1    0    0    0  501 -0.00000000000E+00 -0.00000000000E+00 -0.68933266521E+02  0.68933266521E+02  0.00000000000E+00 0. -1.
         25    2    1    2    0    0  0.64854348545E+02  0.62462207989E+02  0.59938206860E+02  0.16537190746E+03  0.12509062788E+03 0.  0.
          5    1    3    3  502    0  0.61004497685E+02  0.17987808759E+02 -0.25685756029E+02  0.68719287428E+02  0.41800000000E+01 0.  1.
         -5    1    3    3    0  502  0.38498508592E+01  0.44474399230E+02  0.85623962889E+02  0.96652620033E+02  0.41800000000E+01 0.  1.
        -11    1    1    2    0    0  0.47544201100E+01 -0.30454524126E+02  0.15759952343E+03  0.16058546739E+03  0.00000000000E+00 0.  1.
         11    1    1    2    0    0 -0.69608768655E+02 -0.32007683863E+02  0.84945362917E+02  0.11439225140E+03  0.00000000000E+00 0. -1.
</event>
<event>
 7    1  0.2714042E-009  0.9489785E+02  0.7561462E-02  0.1291406E+00
         -2   -1    0    0    0  501 -0.00000000000E+00  0.00000000000E+00  0.37190704401E+02  0.37190704401E+02  0.00000000000E+00 0.  1.
          2   -1    0    0  501    0  0.00000000000E+00 -0.00000000000E+00 -0.34077344009E+03  0.34077344009E+03  0.00000000000E+00 0. -1.
         25    2    1    2    0    0 -0.21194671967E+02 -0.17458125629E+02 -0.14572579336E+03  0.19400281741E+03  0.12508831297E+03 0.  0.
          5    1    3    3  502    0 -0.69681850697E+01 -0.65192110719E+02 -0.12224136065E+03  0.13877676159E+03  0.41800000000E+01 0. -1.
         -5    1    3    3    0  502 -0.14226486898E+02  0.47733985091E+02 -0.23484432711E+02  0.55226055824E+02  0.41800000000E+01 0. -1.
        -11    1    1    2    0    0  0.20774344246E+02 -0.24518668259E+02 -0.15758838663E+02  0.35792170486E+02  0.00000000000E+00 0.  1.
         11    1    1    2    0    0  0.42032772107E+00  0.41976793888E+02 -0.14209810366E+03  0.14816915659E+03  0.00000000000E+00 0. -1.
</event>
<event>
 7    1  0.2714042E-009  0.7170813E+02  0.7561462E-02  0.1354379E+00
         -2   -1    0    0    0  501 -0.00000000000E+00  0.00000000000E+00  0.38347105051E+03  0.38347105051E+03  0.00000000000E+00 0.  1.
          2   -1    0    0  501    0  0.00000000000E+00 -0.00000000000E+00 -0.32584888402E+02  0.32584888402E+02  0.00000000000E+00 0. -1.
         25    2    1    2    0    0  0.16916759366E+02 -0.20451224315E+02  0.19277973475E+03  0.23133373471E+03  0.12508733494E+03 0.  0.
          5    1    3    3  502    0 -0.70645772363E+01  0.10906363580E+02  0.19111467505E+03  0.19160153559E+03  0.41800000000E+01 0. -1.
         -5    1    3    3    0  502  0.23981336602E+02 -0.31357587894E+02  0.16650596952E+01  0.39732199128E+02  0.41800000000E+01 0. -1.
        -11    1    1    2    0    0 -0.46236710859E+02 -0.10522143427E+02  0.52049825137E+02  0.70411172623E+02  0.00000000000E+00 0. -1.
         11    1    1    2    0    0  0.29319951493E+02  0.30973367742E+02  0.10605660222E+03  0.11431103157E+03  0.00000000000E+00 0.  1.
</event>
<event>
 7    1  0.2714042E-009  0.1793677E+03  0.7561462E-02  0.1168416E+00
          2   -1    0    0  501    0  0.00000000000E+00  0.00000000000E+00  0.13932729115E+04  0.13932729115E+04  0.00000000000E+00 0. -1.
         -2   -1    0    0    0  501 -0.00000000000E+00 -0.00000000000E+00 -0.30331569618E+02  0.30331569618E+02  0.00000000000E+00 0.  1.
         25    2    1    2    0    0 -0.16357332678E+03 -0.20716395704E+02  0.89193904861E+03  0.91563545938E+03  0.12509047022E+03 0.  0.
          5    1    3    3  502    0 -0.26106546941E+02 -0.46529077937E+02  0.41977252845E+03  0.42317012528E+03  0.41800000000E+01 0.  1.
         -5    1    3    3    0  502 -0.13746677984E+03  0.25812682233E+02  0.47216652017E+03  0.49246533410E+03  0.41800000000E+01 0.  1.
        -11    1    1    2    0    0  0.11454283777E+03  0.91266830058E+01  0.18661993465E+03  0.21915829447E+03  0.00000000000E+00 0.  1.
         11    1    1    2    0    0  0.49030489011E+02  0.11589712698E+02  0.28438235864E+03  0.28881072729E+03  0.00000000000E+00 0. -1.
</event>
<event>
 7    1  0.2714042E-009  0.7962046E+02  0.7561462E-02  0.1330132E+00
          2   -1    0    0  501    0  0.00000000000E+00  0.00000000000E+00  0.91793174480E+02  0.91793174480E+02  0.00000000000E+00 0. -1.
         -2   -1    0    0    0  501 -0.00000000000E+00 -0.00000000000E+00 -0.14260081448E+03  0.14260081448E+03  0.00000000000E+00 0.  1.
         25    2    1    2    0    0  0.18587422932E+02  0.28456638678E+02 -0.46421052290E+02  0.13768225996E+03  0.12508484335E+03 0.  0.
          5    1    3    3  502    0  0.46914084671E+02  0.16667455414E+02  0.27860406528E+02  0.57204982846E+02  0.41800000000E+01 0. -1.
         -5    1    3    3    0  502 -0.28326661740E+02  0.11789183264E+02 -0.74281458818E+02  0.80477277112E+02  0.41800000000E+01 0. -1.
        -11    1    1    2    0    0 -0.19491382305E+02  0.21113597331E+02  0.25840881396E+02  0.38645169527E+02  0.00000000000E+00 0. -1.
         11    1    1    2    0    0  0.90395937372E+00 -0.49570236009E+02 -0.30227469102E+02  0.58066559471E+02  0.00000000000E+00 0.  1.
</event>
<event>
 7    1  0.2714042E-009  0.1028168E+03  0.7561462E-02  0.1274482E+00
          2   -1    0    0  501    0  0.00000000000E+00  0.00000000000E+00  0.51843472875E+02  0.51843472875E+02  0.00000000000E+00 0. -1.
         -2   -1    0    0    0  501 -0.00000000000E+00 -0.00000000000E+00 -0.27725082765E+03  0.27725082765E+03  0.00000000000E+00 0.  1.
         25    2    1    2    0    0 -0.44261651753E+02 -0.32519146438E+02 -0.13584106970E+03  0.19265629929E+03  0.12508822781E+03 0.  0.
          5    1    3    3  502    0  0.40677150795E+02 -0.28224951078E+02 -0.35557112285E+02  0.61098765079E+02  0.41800000000E+01 0. -1.
         -5    1    3    3    0  502 -0.84938802547E+02 -0.42941953598E+01 -0.10028395742E+03  0.13155753421E+03  0.41800000000E+01 0. -1.
        -11    1    1    2    0    0  0.34060121860E+02  0.43867351325E+02 -0.10240523955E+03  0.11649579177E+03  0.00000000000E+00 0.  1.
         11    1    1    2    0    0  0.10201529893E+02 -0.11348204887E+02  0.12838954477E+02  0.19942209465E+02  0.00000000000E+00 0. -1.
</event>
<event>
 7    1  0.2714042E-009  0.9382786E+02  0.7561462E-02  0.1293838E+00
         -1   -1    0    0    0  501 -0.00000000000E+00  0.00000000000E+00  0.87861431020E+03  0.87861431020E+03  0.00000000000E+00 0.  1.
          1   -1    0    0  501    0  0.00000000000E+00 -0.00000000000E+00 -0.25964419780E+02  0.25964419780E+02  0.00000000000E+00 0. -1.
         25    2    1    2    0    0  0.11650242196E+02 -0.91314672978E+02  0.60623569583E+03  0.62581418118E+03  0.12509025873E+03 0.  0.
          5    1    3    3  502    0  0.14974147534E+02 -0.76093139743E+02  0.14665483219E+03  0.16595030345E+03  0.41800000000E+01 0. -1.
         -5    1    3    3    0  502 -0.33239053380E+01 -0.15221533235E+02  0.45958086364E+03  0.45986387774E+03  0.41800000000E+01 0. -1.
        -11    1    1    2    0    0  0.42640850369E+01  0.37479570318E+02  0.20641652065E+03  0.20983488892E+03  0.00000000000E+00 0.  1.
         11    1    1    2    0    0 -0.15914327233E+02  0.53835102660E+02  0.39997673944E+02  0.68929659876E+02  0.00000000000E+00 0. -1.
</event>
<event>
 7    1  0.2714042E-009  0.1654379E+03  0.7561462E-02  0.1182691E+00
         -1   -1    0    0    0  501 -0.00000000000E+00  0.00000000000E+00  0.16172608538E+03  0.16172608538E+03  0.00000000000E+00 0.  1.
          1   -1    0    0  501    0  0.00000000000E+00 -0.00000000000E+00 -0.28160628780E+03  0.28160628780E+03  0.00000000000E+00 0. -1.
         25    2    1    2    0    0  0.14636476133E+03 -0.23197752903E+02  0.49687139189E+02  0.20019276411E+03  0.12509017508E+03 0.  0.
          5    1    3    3  502    0  0.14024530947E+03 -0.50735730733E+02  0.76495584322E+01  0.14939494417E+03  0.41800000000E+01 0.  1.
         -5    1    3    3    0  502  0.61194518591E+01  0.27537977830E+02  0.42037580756E+02  0.50797819932E+02  0.41800000000E+01 0.  1.
        -11    1    1    2    0    0 -0.75232721751E+02  0.31466390506E+02 -0.14691700904E+03  0.16803185323E+03  0.00000000000E+00 0. -1.
         11    1    1    2    0    0 -0.71132039576E+02 -0.82686376032E+01 -0.22650332564E+02  0.75107755840E+02  0.00000000000E+00 0.  1.
</event>
<event>
 7    1  0.2714042E-009  0.9792289E+02  0.7561462E-02  0.1284725E+00
          1   -1    0    0  501    0  0.00000000000E+00  0.00000000000E+00  0.15108728666E+03  0.15108728666E+03  0.00000000000E+00 0. -1.
         -1   -1    0    0    0  501 -0.00000000000E+00 -0.00000000000E+00 -0.78724446377E+02  0.78724446377E+02  0.00000000000E+00 0.  1.
         25    2    1    2    0    0 -0.18237908023E+02  0.14504325017E+02  0.87765960801E+02  0.15457321207E+03  0.12508803812E+03 0.  0.
          5    1    3    3  502    0 -0.58609386452E+02 -0.30492894230E+02  0.39370813423E+02  0.77022140508E+02  0.41800000000E+01 0. -1.
         -5    1    3    3    0  502  0.40371478430E+02  0.44997219247E+02  0.48395147377E+02  0.77551071561E+02  0.41800000000E+01 0. -1.
        -11    1    1    2    0    0  0.38076091202E+02  0.81474842526E+01 -0.21554556521E+02  0.44505832513E+02  0.00000000000E+00 0.  1.
         11    1    1    2    0    0 -0.19838183179E+02 -0.22651809269E+02  0.61514360077E+01  0.30732688460E+02  0.00000000000E+00 0. -1.
</event>
<event>
 7    1  0.2714042E-009  0.1083038E+03  0.7561462E-02  0.1263744E+00
         -2   -1    0    0    0  501 -0.00000000000E+00  0.00000000000E+00  0.18988236918E+02  0.18988236918E+02  0.00000000000E+00 0.  1.
          2   -1    0    0  501    0  0.00000000000E+00 -0.00000000000E+00 -0.68790181687E+03  0.68790181687E+03  0.00000000000E+00 0. -1.
         25    2    1    2    0    0 -0.36751886150E+02  0.19468409979E+01 -0.39326457063E+03  0.41431734139E+03  0.12508935021E+03 0.  0.
          5    1    3    3  502    0 -0.75860347026E+02  0.15541665088E+02 -0.32699720989E+03  0.33606693274E+03  0.41800000000E+01 0.  1.
         -5    1    3    3    0  502  0.39108460876E+02 -0.13594824090E+02 -0.66267360739E+02  0.78250408647E+02  0.41800000000E+01 0.  1.
        -11    1    1    2    0    0 -0.29120771183E+02  0.94029113523E+01 -0.71962297701E+02  0.78198506038E+02  0.00000000000E+00 0.  1.
         11    1    1    2    0    0  0.65872657333E+02 -0.11349752350E+02 -0.20368671162E+03  0.21437420637E+03  0.00000000000E+00 0. -1.
</event>
<event>
 7    1  0.2714042E-009  0.4820828E+02  0.7561462E-02  0.1455252E+00
          2   -1    0    0  501    0  0.00000000000E+00  0.00000000000E+00  0.10721468609E+03  0.10721468609E+03  0.00000000000E+00 0. -1.
         -2   -1    0    0    0  501 -0.00000000000E+00 -0.00000000000E+00 -0.10954361747E+03  0.10954361747E+03  0.00000000000E+00 0.  1.
         25    2    1    2    0    0 -0.12397387973E+02  0.12068185081E+02 -0.64930681959E+01  0.12644707070E+03  0.12508942974E+03 0.  0.
          5    1    3    3  502    0 -0.94746683392E+01  0.29926167308E+02 -0.61072478757E+02  0.68794366713E+02  0.41800000000E+01 0.  1.
         -5    1    3    3    0  502 -0.29227196342E+01 -0.17857982227E+02  0.54579410561E+02  0.57652703982E+02  0.41800000000E+01 0.  1.
        -11    1    1    2    0    0  0.25771935248E+02 -0.18112669835E+02 -0.35830644232E+02  0.47708453350E+02  0.00000000000E+00 0.  1.
         11    1    1    2    0    0 -0.13374547274E+02  0.60444847536E+01  0.39994781053E+02  0.42602779513E+02  0.00000000000E+00 0. -1.
</event>
<event>
 7    1  0.2714042E-009  0.1186503E+03  0.7561462E-02  0.1245340E+00
          2   -1    0    0  501    0  0.00000000000E+00  0.00000000000E+00  0.22900256204E+02  0.22900256204E+02  0.00000000000E+00 0. -1.
         -2   -1    0    0    0  501 -0.00000000000E+00 -0.00000000000E+00 -0.76871344396E+03  0.76871344396E+03  0.00000000000E+00 0.  1.
         25    2    1    2    0    0  0.60922098075E+02  0.20906463259E+01 -0.57580854995E+03  0.59238530900E+03  0.12509594431E+03 0.  0.
          5    1    3    3  502    0  0.94328319363E+01 -0.56629734504E+02 -0.18199977310E+03  0.19088555460E+03  0.41800000000E+01 0. -1.
         -5    1    3    3    0  502  0.51489266139E+02  0.58720380830E+02 -0.39380877685E+03  0.40149975439E+03  0.41800000000E+01 0. -1.
        -11    1    1    2    0    0 -0.10813843892E+02 -0.38241892474E+02 -0.46791937539E+02  0.61391098527E+02  0.00000000000E+00 0. -1.
         11    1    1    2    0    0 -0.50108254183E+02  0.36151246148E+02 -0.12321270026E+03  0.13783729264E+03  0.00000000000E+00 0.  1.
</event>
<event>
 7    1  0.2714042E-009  0.1074775E+03  0.7561462E-02  0.1265314E+00
          1   -1    0    0  501    0  0.00000000000E+00  0.00000000000E+00  0.53809313509E+02  0.53809313509E+02  0.00000000000E+00 0. -1.
         -1   -1    0    0    0  501 -0.00000000000E+00 -0.00000000000E+00 -0.28279503571E+03  0.28279503571E+03  0.00000000000E+00 0.  1.
         25    2    1    2    0    0  0.44829494444E+02  0.78747729356E+01 -0.72065342474E+02  0.15136814835E+03  0.12508879697E+03 0.  0.
          5    1    3    3  502    0  0.21474264874E+02  0.61992425239E+02 -0.63968140477E+02  0.91725679256E+02  0.41800000000E+01 0. -1.
         -5    1    3    3    0  502  0.23355229570E+02 -0.54117652304E+02 -0.80972019966E+01  0.59642469091E+02  0.41800000000E+01 0. -1.
        -11    1    1    2    0    0  0.25653575018E+01  0.29596235447E+02 -0.91421236799E+02  0.96126795170E+02  0.00000000000E+00 0.  1.
         11    1    1    2    0    0 -0.47394851946E+02 -0.37471008383E+02 -0.65499142927E+02  0.89109405701E+02  0.00000000000E+00 0. -1.
</event>
<event>
 7    1  0.2714042E-009  0.7630932E+02  0.7561462E-02  0.1339864E+00
         -1   -1    0    0    0  501 -0.00000000000E+00  0.00000000000E+00  0.48524248675E+02  0.48524248675E+02  0.00000000000E+00 0.  1.
          1   -1    0    0  501    0  0.00000000000E+00 -0.00000000000E+00 -0.31995582332E+03  0.31995582332E+03  0.00000000000E+00 0. -1.
         25    2    1    2    0    0  0.23284558588E+02 -0.21728895716E+02 -0.79030825525E+02  0.15135237809E+03  0.12508938961E+03 0.  0.
          5    1    3    3  502    0  0.14563073594E+02  0.23381254255E+02 -0.97691008828E+02  0.10158627746E+03  0.41800000000E+01 0.  1.
         -5    1    3    3    0  502  0.87214849939E+01 -0.45110149971E+02  0.18660183303E+02  0.49766100629E+02  0.41800000000E+01 0.  1.
        -11    1    1    2    0    0 -0.49421771110E+02  0.14011198528E+02 -0.48427503946E+02  0.70597792333E+02  0.00000000000E+00 0.  1.
         11    1    1    2    0    0  0.26137212522E+02  0.77176971877E+01 -0.14397324517E+03  0.14652990157E+03  0.00000000000E+00 0. -1.
</event>
<event>
 7    1  0.2714042E-009  0.1178041E+03  0.7561462E-02  0.1246764E+00
          1   -1    0    0  501    0  0.00000000000E+00  0.00000000000E+00  0.78504218771E+02  0.78504218771E+02  0.00000000000E+00 0. -1.
         -1   -1    0    0    0  501 -0.00000000000E+00 -0.00000000000E+00 -0.25380217993E+03  0.25380217993E+03  0.00000000000E+00 0.  1.
         25    2    1    2    0    0  0.26584468602E+02 -0.60198232489E+02 -0.23794641731E+02  0.14333163045E+03  0.12508880903E+03 0.  0.
          5    1    3    3  502    0  0.48236659304E+02  0.17093413346E+02  0.15813870105E+02  0.53726259579E+02  0.41800000000E+01 0.  1.
         -5    1    3    3    0  502 -0.21652190703E+02 -0.77291645835E+02 -0.39608511837E+02  0.89605370866E+02  0.41800000000E+01 0.  1.
        -11    1    1    2    0    0  0.16452191802E+02 -0.11632677098E+02 -0.58749647750E+01  0.20988306332E+02  0.00000000000E+00 0. -1.
         11    1    1    2    0    0 -0.43036660404E+02  0.71830909587E+02 -0.14562835465E+03  0.16798646192E+03  0.00000000000E+00 0.  1.
</event>
<event>
 7    1  0.2714042E-009  0.1221487E+03  0.7561462E-02  0.1239594E+00
         -2   -1    0    0    0  501 -0.00000000000E+00  0.00000000000E+00  0.45400318511E+03  0.45400318511E+03  0.00000000000E+00 0. -1.
          2   -1    0    0  501    0  0.00000000000E+00 -0.00000000000E+00 -0.47327681676E+02  0.47327681676E+02  0.00000000000E+00 0.  1.
         25    2    1    2    0    0 -0.74645212123E+02 -0.65591998042E+02  0.26100893560E+03  0.30601963670E+03  0.12509250850E+03 0.  0.
          5    1    3    3  502    0 -0.50845685180E+02 -0.89073499507E+02  0.10664124544E+03  0.14801756533E+03  0.41800000000E+01 0.  1.
         -5    1    3    3    0  502 -0.23799526943E+02  0.23481501465E+02  0.15436769016E+03  0.15800207137E+03  0.41800000000E+01 0.  1.
        -11    1    1    2    0    0  0.19638476214E+02  0.45213439454E+02  0.14117705412E+02  0.51276061290E+02  0.00000000000E+00 0.  1.
         11    1    1    2    0    0  0.55006735910E+02  0.20378558588E+02  0.13154886243E+03  0.14403516880E+03  0.00000000000E+00 0. -1.
</event>
<event>
 7    1  0.2714042E-009  0.8157683E+02  0.7561462E-02  0.1324635E+00
          2   -1    0    0  501    0  0.00000000000E+00  0.00000000000E+00  0.96413119236E+03  0.96413119236E+03  0.00000000000E+00 0. -1.
         -2   -1    0    0    0  501 -0.00000000000E+00 -0.00000000000E+00 -0.16903045913E+02  0.16903045913E+02  0.00000000000E+00 0.  1.
         25    2    1    2    0    0 -0.39965557995E+02  0.36648679018E+02  0.70881440710E+03  0.72180733280E+03  0.12509032926E+03 0.  0.
          5    1    3    3  502    0 -0.48018635506E+02  0.12775526266E+02  0.68523704856E+03  0.68704897099E+03  0.41800000000E+01 0. -1.
         -5    1    3    3    0  502  0.80530775114E+01  0.23873152752E+02  0.23577358540E+02  0.34758361806E+02  0.41800000000E+01 0. -1.
        -11    1    1    2    0    0 -0.14482784501E+02  0.86956359162E+01  0.90429532481E+01  0.19160901188E+02  0.00000000000E+00 0.  1.
         11    1    1    2    0    0  0.54448342495E+02 -0.45344314934E+02  0.22937078610E+03  0.24006600429E+03  0.00000000000E+00 0. -1.
</event>
<event>
 7    1  0.2714042E-009  0.8850604E+02  0.7561462E-02  0.1306510E+00
         -2   -1    0    0    0  501 -0.00000000000E+00  0.00000000000E+00  0.26493198633E+02  0.26493198633E+02  0.00000000000E+00 0. -1.
          2   -1    0    0  501    0  0.00000000000E+00 -0.00000000000E+00 -0.63818788420E+03  0.63818788420E+03  0.00000000000E+00 0.  1.
         25    2    1    2    0    0  0.41614429490E+02 -0.72486899521E+02 -0.45017264020E+03  0.47464731960E+03  0.12509420722E+03 0.  0.
          5    1    3    3  502    0  0.27893869220E+02 -0.53051425803E+02 -0.64237820195E+02  0.87957328650E+02  0.41800000000E+01 0. -1.
         -5    1    3    3    0  502  0.13720560270E+02 -0.19435473718E+02 -0.38593482000E+03  0.38668999095E+03  0.41800000000E+01 0. -1.
        -11    1    1    2    0    0 -0.48174807708E+02  0.50346738187E+02 -0.83971884197E+02  0.10911866696E+03  0.00000000000E+00 0. -1.
         11    1    1    2    0    0  0.65603782177E+01  0.22140161335E+02 -0.77550161171E+02  0.80915096267E+02  0.00000000000E+00 0.  1.
</event>
<event>
 7    1  0.2714042E-009  0.1560937E+03  0.7561462E-02  0.1193179E+00
         -1   -1    0    0    0  501 -0.00000000000E+00  0.00000000000E+00  0.41087912712E+03  0.41087912712E+03  0.00000000000E+00 0.  1.
          1   -1    0    0  501    0  0.00000000000E+00 -0.00000000000E+00 -0.66370610809E+02  0.66370610809E+02  0.00000000000E+00 0. -1.
         25    2    1    2    0    0 -0.61825844256E+02  0.99037836404E+02  0.24666094074E+03  0.30020033463E+03  0.12509073974E+03 0.  0.
          5    1    3    3  502    0 -0.17897143567E+02  0.11869312643E+03  0.19835596309E+03  0.23188558926E+03  0.41800000000E+01 0. -1.
         -5    1    3    3    0  502 -0.43928700689E+02 -0.19655290028E+02  0.48304977648E+02  0.68314745377E+02  0.41800000000E+01 0. -1.
        -11    1    1    2    0    0 -0.44778728681E+01  0.12909484912E+02 -0.92568033159E+00  0.13695365281E+02  0.00000000000E+00 0. -1.
         11    1    1    2    0    0  0.66303717124E+02 -0.11194732132E+03  0.98773255899E+02  0.16335403801E+03  0.00000000000E+00 0.  1.
</event>
<event>
 7    1  0.2714042E-009  0.1076640E+03  0.7561462E-02  0.1264958E+00
          1   -1    0    0  501    0  0.00000000000E+00  0.00000000000E+00  0.54280457632E+03  0.54280457632E+03  0.00000000000E+00 0. -1.
         -1   -1    0    0    0  501 -0.00000000000E+00 -0.00000000000E+00 -0.37748070035E+02  0.37748070035E+02  0.00000000000E+00 0.  1.
         25    2    1    2    0    0  0.89483802164E+02 -0.27918522231E+02  0.27934964570E+03  0.32010578099E+03  0.12507874213E+03 0.  0.
          5    1    3    3  502    0  0.81096742184E+02 -0.44819565887E+02  0.28520904261E+03  0.29991189617E+03  0.41800000000E+01 0. -1.
         -5    1    3    3    0  502  0.83870599807E+01  0.16901043656E+02 -0.58593969080E+01  0.20193884815E+02  0.41800000000E+01 0. -1.
        -11    1    1    2    0    0 -0.52733430332E+02 -0.62096021258E+01  0.35824646673E+02  0.64052940155E+02  0.00000000000E+00 0.  1.
         11    1    1    2    0    0 -0.36750371832E+02  0.34128124357E+02  0.18988221391E+03  0.19639392521E+03  0.00000000000E+00 0. -1.
</event>
<event>
 7    1  0.2714042E-009  0.1054113E+03  0.7561462E-02  0.1269311E+00
          2   -1    0    0  501    0  0.00000000000E+00  0.00000000000E+00  0.22533773132E+03  0.22533773132E+03  0.00000000000E+00 0. -1.
         -2   -1    0    0    0  501 -0.00000000000E+00 -0.00000000000E+00 -0.68703104226E+02  0.68703104226E+02  0.00000000000E+00 0.  1.
         25    2    1    2    0    0  0.27653893027E+02  0.26780912103E+02  0.14711501065E+03  0.19690856343E+03  0.12509276933E+03 0.  0.
          5    1    3    3  502    0  0.63883953041E+02 -0.15857665189E+02  0.11414596922E+03  0.13183095119E+03  0.41800000000E+01 0. -1.
         -5    1    3    3    0  502 -0.36230060013E+02  0.42638577292E+02  0.32969041431E+02  0.65077612241E+02  0.41800000000E+01 0. -1.
        -11    1    1    2    0    0  0.27572598822E+02 -0.17768977284E+02  0.22388821712E+02  0.39714532569E+02  0.00000000000E+00 0.  1.
         11    1    1    2    0    0 -0.55226491849E+02 -0.90119348189E+01 -0.12869205268E+02  0.57417739553E+02  0.00000000000E+00 0. -1.
</event>
<event>
 7    1  0.2714042E-009  0.9608353E+02  0.7561462E-02  0.1288754E+00
          1   -1    0    0  501    0  0.00000000000E+00  0.00000000000E+00  0.85953298614E+02  0.85953298614E+02  0.00000000000E+00 0. -1.
         -1   -1    0    0    0  501 -0.00000000000E+00 -0.00000000000E+00 -0.14519373344E+03  0.14519373344E+03  0.00000000000E+00 0.  1.
         25    2    1    2    0    0  0.12582399395E+02 -0.27736661060E+02 -0.36285958917E+02  0.13375995250E+03  0.12508962762E+03 0.  0.
          5    1    3    3  502    0 -0.56165619528E+02 -0.13028593191E+02 -0.22278363286E+02  0.61952553848E+02  0.41800000000E+01 0. -1.
         -5    1    3    3    0  502  0.68748018924E+02 -0.14708067869E+02 -0.14007595631E+02  0.71807398656E+02  0.41800000000E+01 0. -1.
        -11    1    1    2    0    0 -0.31292818306E+02  0.10141546951E+01 -0.47271221256E+02  0.56699535680E+02  0.00000000000E+00 0.  1.
         11    1    1    2    0    0  0.18710418911E+02  0.26722506365E+02  0.24316745345E+02  0.40687543873E+02  0.00000000000E+00 0. -1.
</event>
<event>
 7    1  0.2714042E-009  0.1023314E+03  0.7561462E-02  0.1275468E+00
         -3   -1    0    0    0  501 -0.00000000000E+00  0.00000000000E+00  0.93653868527E+02  0.93653868527E+02  0.00000000000E+00 0.  1.
          3   -1    0    0  501    0  0.00000000000E+00 -0.00000000000E+00 -0.13550409272E+03  0.13550409272E+03  0.00000000000E+00 0. -1.
         25    2    1    2    0    0  0.13993008749E+02 -0.12374036730E+02 -0.18931122174E+00  0.12647401243E+03  0.12508684544E+03 0.  0.
          5    1    3    3  502    0  0.20965588587E+02  0.51230657521E+02  0.20377649564E+02  0.59134230160E+02  0.41800000000E+01 0. -1.
         -5    1    3    3    0  502 -0.69725798383E+01 -0.63604694251E+02 -0.20566960786E+02  0.67339782271E+02  0.41800000000E+01 0. -1.
        -11    1    1    2    0    0 -0.14549627396E+02  0.47612288006E+02 -0.22826999739E+01  0.49838061216E+02  0.00000000000E+00 0.  1.
         11    1    1    2    0    0  0.55661864783E+00 -0.35238251276E+02 -0.39378212996E+02  0.52845887598E+02  0.00000000000E+00 0. -1.
</event>
<event>
 7    1  0.2714042E-009  0.1010693E+03  0.7561462E-02  0.1278063E+00
         -1   -1    0    0    0  501 -0.00000000000E+00  0.00000000000E+00  0.77314998997E+02  0.77314998997E+02  0.00000000000E+00 0.  1.
          1   -1    0    0  501    0  0.00000000000E+00 -0.00000000000E+00 -0.17767650376E+03  0.17767650376E+03  0.00000000000E+00 0. -1.
         25    2    1    2    0    0 -0.24635875579E+02  0.32065988560E+02 -0.40017464828E+02  0.13741767377E+03  0.12508823120E+03 0.  0.
          5    1    3    3  502    0 -0.69138182782E+02 -0.73450822968E+01 -0.34043922354E+02  0.77527411937E+02  0.41800000000E+01 0.  1.
         -5    1    3    3    0  502  0.44502307203E+02  0.39411070857E+02 -0.59735424743E+01  0.59890261831E+02  0.41800000000E+01 0.  1.
        -11    1    1    2    0    0 -0.18240018501E+02 -0.22499034364E+02 -0.67139976135E+02  0.73121003943E+02  0.00000000000E+00 0. -1.
         11    1    1    2    0    0  0.42875894080E+02 -0.95669541957E+01  0.67959362003E+01  0.44452825046E+02  0.00000000000E+00 0.  1.
</event>
<event>
 7    1  0.2714042E-009  0.1183389E+03  0.7561462E-02  0.1245863E+00
         -2   -1    0    0    0  501 -0.00000000000E+00  0.00000000000E+00  0.42237414262E+02  0.42237414262E+02  0.00000000000E+00 0.  1.
          2   -1    0    0  501    0  0.00000000000E+00 -0.00000000000E+00 -0.53210490093E+03  0.53210490093E+03  0.00000000000E+00 0. -1.
         25    2    1    2    0    0  0.51041643546E+02  0.76304413762E+02 -0.37630491540E+03  0.40703860068E+03  0.12508964845E+03 0.  0.
          5    1    3    3  502    0  0.60927370718E+02  0.23586292458E+02 -0.69214074576E+02  0.95270762640E+02  0.41800000000E+01 0. -1.
         -5    1    3    3    0  502 -0.98857271716E+01  0.52718121303E+02 -0.30709084082E+03  0.31176783804E+03  0.41800000000E+01 0. -1.
        -11    1    1    2    0    0 -0.25551008323E+02  0.99870869165E+01 -0.50357423615E+02  0.57345148395E+02  0.00000000000E+00 0.  1.
         11    1    1    2    0    0 -0.25490635224E+02 -0.86291500678E+02 -0.63205147651E+02  0.10995856612E+03  0.00000000000E+00 0. -1.
</event>
<event>
 7    1  0.2714042E-009  0.1555454E+03  0.7561462E-02  0.1193820E+00
          2   -1    0    0  501    0  0.00000000000E+00  0.00000000000E+00  0.35342610858E+03  0.35342610858E+03  0.00000000000E+00 0. -1.
         -2   -1    0    0    0  501 -0.00000000000E+00 -0.00000000000E+00 -0.76092960493E+02  0.76092960493E+02  0.00000000000E+00 0.  1.
         25    2    1    2    0    0  0.11762879392E+03  0.27400860973E+02  0.17566504245E+03  0.24716766197E+03  0.12508519354E+03 0.  0.
          5    1    3    3  502    0  0.12344946290E+03 -0.10170316303E+02  0.89441186332E+02  0.15284110519E+03  0.41800000000E+01 0.  1.
         -5    1    3    3    0  502 -0.58206689815E+01  0.37571177276E+02  0.86223856117E+02  0.94326556775E+02  0.41800000000E+01 0.  1.
        -11    1    1    2    0    0  0.33524928934E+01  0.19026938700E+02  0.31618743945E+01  0.19577054287E+02  0.00000000000E+00 0.  1.
         11    1    1    2    0    0 -0.12098128681E+03 -0.46427799673E+02  0.98506231241E+02  0.16277435282E+03  0.00000000000E+00 0. -1.
</event>
<event>
 7    1  0.2714042E-009  0.8949204E+02  0.7561462E-02  0.1304086E+00
         -1   -1    0    0    0  501 -0.00000000000E+00  0.00000000000E+00  0.76867559947E+02  0.76867559947E+02  0.00000000000E+00 0.  1.
          1   -1    0    0  501    0  0.00000000000E+00 -0.00000000000E+00 -0.17820615385E+03  0.17820615385E+03  0.00000000000E+00 0. -1.
         25    2    1    2    0    0 -0.39197390361E+02 -0.20075679314E+02 -0.63714283615E+02  0.14712741921E+03  0.12508996457E+03 0.  0.
          5    1    3    3  502    0 -0.17068901274E+02  0.23355532268E+02 -0.87843180170E+02  0.92578210075E+02  0.41800000000E+01 0. -1.
         -5    1    3    3    0  502 -0.22128489086E+02 -0.43431211582E+02  0.24128896555E+02  0.54549209139E+02  0.41800000000E+01 0. -1.
        -11    1    1    2    0    0 -0.22404472086E+02 -0.17716266099E+02 -0.67024980352E+01  0.29338540077E+02  0.00000000000E+00 0.  1.
         11    1    1    2    0    0  0.61601862447E+02  0.37791945414E+02 -0.30921812247E+02  0.78607754501E+02  0.00000000000E+00 0. -1.
</event>
<event>
 7    1  0.2714042E-009  0.1033429E+03  0.7561462E-02  0.1273419E+00
          2   -1    0    0  501    0  0.00000000000E+00  0.00000000000E+00  0.33227324803E+03  0.33227324803E+03  0.00000000000E+00 0.  1.
         -2   -1    0    0    0  501 -0.00000000000E+00 -0.00000000000E+00 -0.35583604059E+02  0.35583604059E+02  0.00000000000E+00 0. -1.
         25    2    1    2    0    0 -0.13725674997E+02  0.12230075049E+02  0.16555782482E+03  0.20831292968E+03  0.12508762699E+03 0.  0.
          5    1    3    3  502    0  0.52137551134E+02  0.22356570290E+02  0.98107008631E+02  0.11340457670E+03  0.41800000000E+01 0. -1.
         -5    1    3    3    0  502 -0.65863226131E+02 -0.10126495241E+02  0.67450816185E+02  0.94908352984E+02  0.41800000000E+01 0. -1.
        -11    1    1    2    0    0  0.23411408258E+02  0.30935851105E+02  0.94337017192E+02  0.10200291041E+03  0.00000000000E+00 0.  1.
         11    1    1    2    0    0 -0.96857332615E+01 -0.43165926154E+02  0.36794801960E+02  0.57541011990E+02  0.00000000000E+00 0. -1.
</event>
<event>
 7    1  0.3706529E-009  0.1167004E+03  0.7561462E-02  0.1248642E+00
         -1   -1    0    0    0  501 -0.00000000000E+00  0.00000000000E+00  0.78926990357E+02  0.78926990357E+02  0.00000000000E+00 0.  1.
          1   -1    0    0  501    0  0.00000000000E+00 -0.00000000000E+00 -0.34342232542E+03  0.34342232542E+03  0.00000000000E+00 0. -1.
         25    2    1    2    0    0  0.10387472069E+03  0.47996289479E+02 -0.20058805255E+03  0.26263132854E+03  0.12508415768E+03 0.  0.
          5    1    3    3  502    0  0.64773009379E+02  0.27595351661E+02 -0.20624391740E+03  0.21797034671E+03  0.41800000000E+01 0. -1.
         -5    1    3    3    0  502  0.39101711313E+02  0.20400937818E+02  0.56558648497E+01  0.44660981837E+02  0.41800000000E+01 0. -1.
        -11    1    1    2    0    0 -0.63327301310E+02 -0.12221685680E+02 -0.80505590771E+02  0.10315457739E+03  0.00000000000E+00 0. -1.
         11    1    1    2    0    0 -0.40547419382E+02 -0.35774603798E+02  0.16598308262E+02  0.56563409839E+02  0.00000000000E+00 0.  1.
</event>
<event>
 7    1  0.2928454E-009  0.1493699E+03  0.7561462E-02  0.1201249E+00
         -2   -1    0    0    0  501 -0.00000000000E+00  0.00000000000E+00  0.38055404876E+02  0.38055404876E+02  0.00000000000E+00 0.  1.
          2   -1    0    0  501    0  0.00000000000E+00 -0.00000000000E+00 -0.63270599262E+03  0.63270599262E+03  0.00000000000E+00 0. -1.
         25    2    1    2    0    0 -0.70248706384E+02  0.83306711257E+02 -0.36723393378E+03  0.40296644039E+03  0.12508517528E+03 0.  0.
          5    1    3    3  502    0 -0.91846446069E+02  0.95277680633E+02 -0.24801215096E+03  0.28114250035E+03  0.41800000000E+01 0. -1.
         -5    1    3    3    0  502  0.21597739685E+02 -0.11970969376E+02 -0.11922178283E+03  0.12182394004E+03  0.41800000000E+01 0. -1.
        -11    1    1    2    0    0  0.43469670208E+01 -0.74702619701E+02 -0.11500719999E+03  0.13720799380E+03  0.00000000000E+00 0. -1.
         11    1    1    2    0    0  0.65901739363E+02 -0.86040915556E+01 -0.11240945397E+03  0.13058696330E+03  0.00000000000E+00 0.  1.
</event>
<event>
 7    1  0.2714042E-009  0.9068815E+02  0.7561462E-02  0.1301194E+00
          1   -1    0    0  501    0  0.00000000000E+00  0.00000000000E+00  0.40785346149E+02  0.40785346149E+02  0.00000000000E+00 0. -1.
         -1   -1    0    0    0  501 -0.00000000000E+00 -0.00000000000E+00 -0.28859993974E+03  0.28859993974E+03  0.00000000000E+00 0.  1.
         25    2    1    2    0    0 -0.93247793265E+01  0.10373589866E+02 -0.14692872004E+03  0.19346767388E+03  0.12508848543E+03 0.  0.
          5    1    3    3  502    0  0.56251542813E+02  0.18978722638E+02 -0.66091560522E+02  0.88938151285E+02  0.41800000000E+01 0. -1.
         -5    1    3    3    0  502 -0.65576322139E+02 -0.86051327718E+01 -0.80837159520E+02  0.10452952260E+03  0.41800000000E+01 0. -1.
        -11    1    1    2    0    0  0.23946182546E+02  0.13579736357E+02 -0.10409303506E+03  0.10767167152E+03  0.00000000000E+00 0.  1.
         11    1    1    2    0    0 -0.14621403220E+02 -0.23953326223E+02  0.32071615150E+01  0.28245940492E+02  0.00000000000E+00 0. -1.
</event>
<event>
 7    1  0.2714042E-009  0.1220175E+03  0.7561462E-02  0.1239805E+00
         -1   -1    0    0    0  501 -0.00000000000E+00  0.00000000000E+00  0.19377367462E+02  0.19377367462E+02  0.00000000000E+00 0.  1.
          1   -1    0    0  501    0  0.00000000000E+00 -0.00000000000E+00 -0.95363483889E+03  0.95363483889E+03  0.00000000000E+00 0. -1.
         25    2    1    2    0    0 -0.26710579584E+02  0.68318927133E+02 -0.63752198114E+03  0.65380604728E+03  0.12508852929E+03 0.  0.
          5    1    3    3  502    0  0.41814561472E+02  0.62709539555E+02 -0.30253747432E+03  0.31181298830E+03  0.41800000000E+01 0. -1.
         -5    1    3    3    0  502 -0.68525141056E+02  0.56093875783E+01 -0.33498450681E+03  0.34199305898E+03  0.41800000000E+01 0. -1.
        -11    1    1    2    0    0  0.46516271623E+02 -0.26847934562E+02 -0.24126558821E+03  0.24717131543E+03  0.00000000000E+00 0. -1.
         11    1    1    2    0    0 -0.19805692039E+02 -0.41470992571E+02 -0.55469902078E+02  0.72034843642E+02  0.00000000000E+00 0.  1.
</event>
<event>
 7    1  0.2714042E-009  0.1361078E+03  0.7561462E-02  0.1218664E+00
         -1   -1    0    0    0  501 -0.00000000000E+00  0.00000000000E+00  0.10600218055E+04  0.10600218055E+04  0.00000000000E+00 0.  1.
          1   -1    0    0  501    0  0.00000000000E+00 -0.00000000000E+00 -0.19076030508E+02  0.19076030508E+02  0.00000000000E+00 0. -1.
         25    2    1    2    0    0 -0.13964371271E+02  0.83296089528E+02  0.44779779582E+03  0.47255166302E+03  0.12509582764E+03 0.  0.
          5    1    3    3  502    0  0.30008659698E+02 -0.18655798888E+02  0.16320026677E+03  0.16703400242E+03  0.41800000000E+01 0. -1.
         -5    1    3    3    0  502 -0.43973030968E+02  0.10195188842E+03  0.28459752905E+03  0.30551766061E+03  0.41800000000E+01 0. -1.
        -11    1    1    2    0    0 -0.33261771511E+02 -0.68310553364E+02  0.39946071160E+03  0.40662210621E+03  0.00000000000E+00 0.  1.
         11    1    1    2    0    0  0.47226142782E+02 -0.14985536164E+02  0.19368726759E+03  0.19992406679E+03  0.00000000000E+00 0. -1.
</event>
<event>
 7    1  0.2714042E-009  0.5485148E+02  0.7561462E-02  0.1420803E+00
          2   -1    0    0  501    0  0.00000000000E+00  0.00000000000E+00  0.38840545439E+02  0.38840545439E+02  0.00000000000E+00 0. -1.
         -2   -1    0    0    0  501 -0.00000000000E+00 -0.00000000000E+00 -0.35508290843E+03  0.35508290843E+03  0.00000000000E+00 0.  1.
         25    2    1    2    0    0  0.43984972142E+02  0.12722483765E+02 -0.19627044696E+03  0.23720656209E+03  0.12509326673E+03 0.  0.
          5    1    3    3  502    0  0.48391833169E+01 -0.86038219650E+01  0.16554866173E+02  0.19722561740E+02  0.41800000000E+01 0.  1.
         -5    1    3    3    0  502  0.39145788825E+02  0.21326305730E+02 -0.21282531313E+03  0.21748400035E+03  0.41800000000E+01 0.  1.
        -11    1    1    2    0    0 -0.25938092019E+02  0.76019002704E+01  0.61328729857E+01  0.27716162007E+02  0.00000000000E+00 0. -1.
         11    1    1    2    0    0 -0.18046880122E+02 -0.20324384036E+02 -0.12610478902E+03  0.12900072978E+03  0.00000000000E+00 0.  1.
</event>
<event>
 7    1  0.2714042E-009  0.8307793E+02  0.7561462E-02  0.1320537E+00
          1   -1    0    0  501    0  0.00000000000E+00  0.00000000000E+00  0.90092545877E+03  0.90092545877E+03  0.00000000000E+00 0.  1.
         -1   -1    0    0    0  501 -0.00000000000E+00 -0.00000000000E+00 -0.29595207376E+02  0.29595207376E+02  0.00000000000E+00 0. -1.
         25    2    1    2    0    0  0.73804546028E+02 -0.14258785528E+02  0.73973954660E+03  0.75399611157E+03  0.12508043601E+03 0.  0.
          5    1    3    3  502    0  0.60243474781E+02 -0.20388101495E+02  0.13745644577E+03  0.15151467856E+03  0.41800000000E+01 0. -1.
         -5    1    3    3    0  502  0.13561071247E+02  0.61293159672E+01  0.60228310083E+03  0.60248143301E+03  0.41800000000E+01 0. -1.
        -11    1    1    2    0    0 -0.35971311884E+02  0.29152931951E+02  0.12751544294E+03  0.13566140538E+03  0.00000000000E+00 0.  1.
         11    1    1    2    0    0 -0.37833234144E+02 -0.14894146423E+02  0.40752618485E+01  0.40863149201E+02  0.00000000000E+00 0. -1.
</event>
<event>
 7    1  0.2714042E-009  0.1332184E+03  0.7561462E-02  0.1222757E+00
          2   -1    0    0  501    0  0.00000000000E+00  0.00000000000E+00  0.51024565597E+03  0.51024565597E+03  0.00000000000E+00 0.  1.
         -2   -1    0    0    0  501 -0.00000000000E+00 -0.00000000000E+00 -0.51247691894E+02  0.51247691894E+02  0.00000000000E+00 0. -1.
         25    2    1    2    0    0  0.42087155184E+02  0.99824786647E+02  0.33262597871E+03  0.37151444051E+03  0.12508645465E+03 0.  0.
          5    1    3    3  502    0 -0.13843137083E+02  0.59963837501E+02  0.27479021362E+03  0.28162817358E+03  0.41800000000E+01 0. -1.
         -5    1    3    3    0  502  0.55930292267E+02  0.39860949146E+02  0.57835765095E+02  0.89886266937E+02  0.41800000000E+01 0. -1.
        -11    1    1    2    0    0 -0.58633546401E+02 -0.33374702648E+02  0.89878003572E+02  0.11238246779E+03  0.00000000000E+00 0.  1.
         11    1    1    2    0    0  0.16546391218E+02 -0.66450083998E+02  0.36493981796E+02  0.77596439564E+02  0.00000000000E+00 0. -1.
</event>
<event>
 7    1  0.2714042E-009  0.1041919E+03  0.7561462E-02  0.1271720E+00
          2   -1    0    0  501    0  0.00000000000E+00  0.00000000000E+00  0.14960900517E+03  0.14960900517E+03  0.00000000000E+00 0. -1.
         -2   -1    0    0    0  501 -0.00000000000E+00 -0.00000000000E+00 -0.15101443532E+03  0.15101443532E+03  0.00000000000E+00 0.  1.
         25    2    1    2    0    0 -0.26253955705E+02 -0.86749872871E+02 -0.48627898503E+02  0.16194735611E+03  0.12508981975E+03 0.  0.
          5    1    3    3  502    0 -0.10604738416E+02 -0.97466761618E+01 -0.76888840329E+02  0.78337885727E+02  0.41800000000E+01 0.  1.
         -5    1    3    3    0  502 -0.15649217288E+02 -0.77003196709E+02  0.28260941826E+02  0.83609470385E+02  0.41800000000E+01 0.  1.
        -11    1    1    2    0    0 -0.18778015824E+02  0.58732657353E+02 -0.79195844134E+01  0.62167988027E+02  0.00000000000E+00 0.  1.
         11    1    1    2    0    0  0.45031971529E+02  0.28017215518E+02  0.55142052765E+02  0.76508096358E+02  0.00000000000E+00 0. -1.
</event>
<event>
 7    1  0.2714042E-009  0.1288730E+03  0.7561462E-02  0.1229138E+00
          2   -1    0    0  501    0  0.00000000000E+00  0.00000000000E+00  0.48578194946E+03  0.48578194946E+03  0.00000000000E+00 0.  1.
         -2   -1    0    0    0  501 -0.00000000000E+00 -0.00000000000E+00 -0.41844410237E+02  0.41844410237E+02  0.00000000000E+00 0. -1.
         25    2    1    2    0    0  0.36092308331E+02 -0.84463822413E+02  0.22172883787E+03  0.27064225973E+03  0.12508702247E+03 0.  0.
          5    1    3    3  502    0  0.75419980426E+02 -0.30626906499E+02  0.16056461650E+03  0.18006845732E+03  0.41800000000E+01 0.  1.
         -5    1    3    3    0  502 -0.39327672095E+02 -0.53836915914E+02  0.61164221377E+02  0.90573802416E+02  0.41800000000E+01 0.  1.
        -11    1    1    2    0    0 -0.72564647888E+00  0.71899014456E+02  0.20187482188E+03  0.21429754677E+03  0.00000000000E+00 0.  1.
         11    1    1    2    0    0 -0.35366661852E+02  0.12564807957E+02  0.20333879471E+02  0.42686553197E+02  0.00000000000E+00 0. -1.
</event>
<event>
 7    1  0.2714042E-009  0.1692704E+03  0.7561462E-02  0.1178611E+00
         -2   -1    0    0    0  501 -0.00000000000E+00  0.00000000000E+00  0.47246822472E+02  0.47246822472E+02  0.00000000000E+00 0.  1.
          2   -1    0    0  501    0  0.00000000000E+00 -0.00000000000E+00 -0.72814397812E+03  0.72814397812E+03  0.00000000000E+00 0. -1.
         25    2    1    2    0    0 -0.13629884034E+03  0.52488162675E+02 -0.44000237907E+03  0.48018803078E+03  0.12508425248E+03 0.  0.
          5    1    3    3  502    0 -0.78485292521E+02 -0.33816620375E+02 -0.15882215745E+03  0.18040358936E+03  0.41800000000E+01 0.  1.
         -5    1    3    3    0  502 -0.57813547814E+02  0.86304783050E+02 -0.28118022162E+03  0.29978444142E+03  0.41800000000E+01 0.  1.
        -11    1    1    2    0    0  0.26484811360E+02  0.17382239520E+01 -0.18452416306E+01  0.26605855972E+02  0.00000000000E+00 0.  1.
         11    1    1    2    0    0  0.10981402897E+03 -0.54226386627E+02 -0.23904953495E+03  0.26859691384E+03  0.00000000000E+00 0. -1.
</event>
<event>
 7    1  0.2714042E-009  0.1150102E+03  0.7561462E-02  0.1251563E+00
         -1   -1    0    0    0  501 -0.00000000000E+00  0.00000000000E+00  0.17928377156E+02  0.17928377156E+02  0.00000000000E+00 0.  1.
          1   -1    0    0  501    0  0.00000000000E+00 -0.00000000000E+00 -0.83732919613E+03  0.83732919613E+03  0.00000000000E+00 0. -1.
         25    2    1    2    0    0  0.57597000337E+02 -0.53652295200E+01 -0.51891950824E+03  0.53691280879E+03  0.12510678667E+03 0.  0.
          5    1    3    3  502    0  0.26926459913E+01 -0.58697422261E+02 -0.17849841806E+03  0.18796753809E+03  0.41800000000E+01 0. -1.
         -5    1    3    3    0  502  0.54904354346E+02  0.53332192741E+02 -0.34042109018E+03  0.34894527070E+03  0.41800000000E+01 0. -1.
        -11    1    1    2    0    0  0.79743954983E+01  0.24811603490E+02 -0.31902556276E+02  0.41194414042E+02  0.00000000000E+00 0.  1.
         11    1    1    2    0    0 -0.65571395835E+02 -0.19446373970E+02 -0.26857875445E+03  0.27715035045E+03  0.00000000000E+00 0. -1.
</event>
<event>
 7    1  0.3768972E-009  0.1405828E+03  0.7561462E-02  0.1212547E+00
         -1   -1    0    0    0  501 -0.00000000000E+00  0.00000000000E+00  0.38405690567E+02  0.38405690567E+02  0.00000000000E+00 0.  1.
          1   -1    0    0  501    0  0.00000000000E+00 -0.00000000000E+00 -0.73746207350E+03  0.73746207350E+03  0.00000000000E+00 0. -1.
         25    2    1    2    0    0  0.99616709805E+02 -0.69214407915E+02 -0.27570119611E+03  0.32614855309E+03  0.12509039137E+03 0.  0.
          5    1    3    3  502    0 -0.23491754202E+01  0.11022491020E+02  0.78065066731E+01  0.14332755488E+02  0.41800000000E+01 0. -1.
         -5    1    3    3    0  502  0.10196588522E+03 -0.80236898934E+02 -0.28350770278E+03  0.31181579761E+03  0.41800000000E+01 0. -1.
        -11    1    1    2    0    0 -0.37644455254E+01  0.38487805743E+02 -0.51028955207E+02  0.64026842110E+02  0.00000000000E+00 0.  1.
         11    1    1    2    0    0 -0.95852264279E+02  0.30726602172E+02 -0.37232623162E+03  0.38569236886E+03  0.00000000000E+00 0. -1.
</event>
<event>
 7    1  0.2714042E-009  0.1461756E+03  0.7561462E-02  0.1205253E+00
          1   -1    0    0  501    0  0.00000000000E+00  0.00000000000E+00  0.64813984344E+02  0.64813984344E+02  0.00000000000E+00 0. -1.
         -1   -1    0    0    0  501 -0.00000000000E+00 -0.00000000000E+00 -0.39261878504E+03  0.39261878504E+03  0.00000000000E+00 0.  1.
         25    2    1    2    0    0  0.11578513646E+03 -0.15991329139E+02 -0.17859313916E+03  0.24739039699E+03  0.12507829041E+03 0.  0.
          5    1    3    3  502    0  0.12306634900E+03  0.20158119108E+02 -0.16708728149E+03  0.20853610732E+03  0.41800000000E+01 0.  1.
         -5    1    3    3    0  502 -0.72812125379E+01 -0.36149448247E+02 -0.11505857675E+02  0.38854289665E+02  0.41800000000E+01 0.  1.
        -11    1    1    2    0    0 -0.41474742027E+02  0.34425373675E+02 -0.15707804716E+02  0.56142637165E+02  0.00000000000E+00 0. -1.
         11    1    1    2    0    0 -0.74310394436E+02 -0.18434044536E+02 -0.13350385682E+03  0.15389973523E+03  0.00000000000E+00 0.  1.
</event>
<event>
 7    1  0.2714042E-009  0.8580608E+02  0.7561462E-02  0.1313338E+00
          2   -1    0    0  501    0  0.00000000000E+00  0.00000000000E+00  0.16763122720E+03  0.16763122720E+03  0.00000000000E+00 0. -1.
         -2   -1    0    0    0  501 -0.00000000000E+00 -0.00000000000E+00 -0.80584216338E+02  0.80584216338E+02  0.00000000000E+00 0.  1.
         25    2    1    2    0    0 -0.21568647859E+02  0.13783863597E+02  0.88135129567E+02  0.15515728154E+03  0.12510307544E+03 0.  0.
          5    1    3    3  502    0  0.20662291410E+02  0.27805163168E+02 -0.18529253428E+02  0.39507758956E+02  0.41800000000E+01 0. -1.
         -5    1    3    3    0  502 -0.42230939270E+02 -0.14021299571E+02  0.10666438299E+03  0.11564952258E+03  0.41800000000E+01 0. -1.
        -11    1    1    2    0    0  0.19143612493E+02 -0.51132235840E+02  0.61301126801E+01  0.54941439031E+02  0.00000000000E+00 0. -1.
         11    1    1    2    0    0  0.24250353660E+01  0.37348372243E+02 -0.72182313855E+01  0.38116722971E+02  0.00000000000E+00 0.  1.
</event>
<event>
 7    1  0.4126511E-009  0.1718541E+03  0.7561462E-02  0.1175928E+00
         -3   -1    0    0    0  501 -0.00000000000E+00  0.00000000000E+00  0.21245921648E+03  0.21245921648E+03  0.00000000000E+00 0.  1.
          3   -1    0    0  501    0  0.00000000000E+00 -0.00000000000E+00 -0.18316656877E+03  0.18316656877E+03  0.00000000000E+00 0. -1.
         25    2    1    2    0    0  0.59229014391E+02  0.14788432611E+03  0.55333588637E+02  0.20996288661E+03  0.12507900570E+03 0.  0.
          5    1    3    3  502    0  0.17751372628E+02  0.13230806287E+03  0.83295841666E+02  0.15740458815E+03  0.41800000000E+01 0. -1.
         -5    1    3    3    0  502  0.41477641763E+02  0.15576263243E+02 -0.27962253029E+02  0.52558298463E+02  0.41800000000E+01 0. -1.
        -11    1    1    2    0    0 -0.52232257972E+02 -0.69443238619E+02  0.26673689584E+02  0.90895862825E+02  0.00000000000E+00 0.  1.
         11    1    1    2    0    0 -0.69967564193E+01 -0.78441087496E+02 -0.52714630513E+02  0.94767035820E+02  0.00000000000E+00 0. -1.
</event>
<event>
 7    1  0.2714042E-009  0.1326337E+03  0.7561462E-02  0.1223599E+00
         -1   -1    0    0    0  501 -0.00000000000E+00  0.00000000000E+00  0.17386112742E+03  0.17386112742E+03  0.00000000000E+00 0.  1.
          1   -1    0    0  501    0  0.00000000000E+00 -0.00000000000E+00 -0.13996250118E+03  0.13996250118E+03  0.00000000000E+00 0. -1.
         25    2    1    2    0    0  0.84617796280E+02  0.56589174369E+02  0.64730025455E+02  0.17377670071E+03  0.12508340982E+03 0.  0.
          5    1    3    3  502    0 -0.22525607767E+02 -0.18078587818E+02  0.21138508687E+02  0.36035361692E+02  0.41800000000E+01 0.  1.
         -5    1    3    3    0  502  0.10714340405E+03  0.74667762188E+02  0.43591516768E+02  0.13774133902E+03  0.41800000000E+01 0.  1.
        -11    1    1    2    0    0 -0.33994948573E+02 -0.73061145400E+01  0.30679905923E+02  0.46371246108E+02  0.00000000000E+00 0.  1.
         11    1    1    2    0    0 -0.50622847707E+02 -0.49283059829E+02 -0.61511305139E+02  0.93675681775E+02  0.00000000000E+00 0. -1.
</event>
<event>
 7    1  0.2714042E-009  0.8135959E+02  0.7561462E-02  0.1325237E+00
          1   -1    0    0  501    0  0.00000000000E+00  0.00000000000E+00  0.36080457731E+02  0.36080457731E+02  0.00000000000E+00 0. -1.
         -1   -1    0    0    0  501 -0.00000000000E+00 -0.00000000000E+00 -0.34932140091E+03  0.34932140091E+03  0.00000000000E+00 0.  1.
         25    2    1    2    0    0  0.11281322923E+02 -0.25425430836E+02 -0.20836110855E+03  0.24461330540E+03  0.12509035472E+03 0.  0.
          5    1    3    3  502    0  0.17621978125E+02 -0.52985632065E+02 -0.29134932327E+02  0.63121533569E+02  0.41800000000E+01 0. -1.
         -5    1    3    3    0  502 -0.63406552020E+01  0.27560201230E+02 -0.17922617622E+03  0.18149177183E+03  0.41800000000E+01 0. -1.
        -11    1    1    2    0    0  0.28334522170E+02  0.26087530221E+02 -0.12866664523E+02  0.40607332288E+02  0.00000000000E+00 0. -1.
         11    1    1    2    0    0 -0.39615845093E+02 -0.66209938541E+00 -0.92013170110E+02  0.10018122095E+03  0.00000000000E+00 0.  1.
</event>
<event>
 7    1  0.2803238E-009  0.1175547E+03  0.7561462E-02  0.1247186E+00
         -1   -1    0    0    0  501 -0.00000000000E+00  0.00000000000E+00  0.45465663467E+03  0.45465663467E+03  0.00000000000E+00 0.  1.
          1   -1    0    0  501    0  0.00000000000E+00 -0.00000000000E+00 -0.35956641432E+02  0.35956641432E+02  0.00000000000E+00 0. -1.
         25    2    1    2    0    0  0.51970315463E+02  0.12074118730E+02  0.31274862497E+03  0.34103737507E+03  0.12509232886E+03 0.  0.
          5    1    3    3  502    0  0.81892942577E+02 -0.25771237004E+02  0.17382704360E+03  0.19391731276E+03  0.41800000000E+01 0.  1.
         -5    1    3    3    0  502 -0.29922627114E+02  0.37845355734E+02  0.13892158137E+03  0.14712006231E+03  0.41800000000E+01 0.  1.
        -11    1    1    2    0    0 -0.16247619295E+02 -0.47631523091E+02  0.75349055387E+02  0.90610304450E+02  0.00000000000E+00 0.  1.
         11    1    1    2    0    0 -0.35722696168E+02  0.35557404361E+02  0.30602312874E+02  0.58965596577E+02  0.00000000000E+00 0. -1.
</event>
<event>
 7    1  0.2714042E-009  0.1160125E+03  0.7561462E-02  0.1249824E+00
         -2   -1    0    0    0  501 -0.00000000000E+00  0.00000000000E+00  0.47128069604E+03  0.47128069604E+03  0.00000000000E+00 0. -1.
          2   -1    0    0  501    0  0.00000000000E+00 -0.00000000000E+00 -0.48822564303E+02  0.48822564303E+02  0.00000000000E+00 0.  1.
         25    2    1    2    0    0 -0.26058032044E+02 -0.52999134659E+02  0.37785098577E+03  0.40237599061E+03  0.12508853290E+03 0.  0.
          5    1    3    3  502    0  0.27412993934E+01  0.40204123927E+02  0.10178554028E+03  0.10955206485E+03  0.41800000000E+01 0.  1.
         -5    1    3    3    0  502 -0.28799331438E+02 -0.93203258585E+02  0.27606544549E+03  0.29282392576E+03  0.41800000000E+01 0.  1.
        -11    1    1    2    0    0 -0.21026661702E+02  0.39731493276E+02 -0.82545741541E+01  0.45703939160E+02  0.00000000000E+00 0.  1.
         11    1    1    2    0    0  0.47084693746E+02  0.13267641382E+02  0.52861720124E+02  0.72023330578E+02  0.00000000000E+00 0. -1.
</event>
<event>
 7    1  0.2714042E-009  0.1106258E+03  0.7561462E-02  0.1259415E+00
          2   -1    0    0  501    0  0.00000000000E+00  0.00000000000E+00  0.48461031914E+03  0.48461031914E+03  0.00000000000E+00 0. -1.
         -2   -1    0    0    0  501 -0.00000000000E+00 -0.00000000000E+00 -0.33879471806E+02  0.33879471806E+02  0.00000000000E+00 0.  1.
         25    2    1    2    0    0  0.18162048586E+02  0.36063667641E+02  0.14127532076E+03  0.19296941828E+03  0.12509209410E+03 0.  0.
          5    1    3    3  502    0  0.36481149010E+02  0.71677938963E+02  0.12673133843E+03  0.15015627096E+03  0.41800000000E+01 0. -1.
         -5    1    3    3    0  502 -0.18319100424E+02 -0.35614271322E+02  0.14543982323E+02  0.42813147326E+02  0.41800000000E+01 0. -1.
        -11    1    1    2    0    0  0.11256098221E+02  0.27877596621E+02  0.77734058187E+02  0.83345329460E+02  0.00000000000E+00 0.  1.
         11    1    1    2    0    0 -0.29418146807E+02 -0.63941264262E+02  0.23172146839E+03  0.24217504321E+03  0.00000000000E+00 0. -1.
</event>
<event>
 7    1  0.2714042E-009  0.1580658E+03  0.7561462E-02  0.1190898E+00
          1   -1    0    0  501    0  0.00000000000E+00  0.00000000000E+00  0.92190585199E+02  0.92190585199E+02  0.00000000000E+00 0. -1.
         -1   -1    0    0    0  501 -0.00000000000E+00 -0.00000000000E+00 -0.33195316340E+03  0.33195316340E+03  0.00000000000E+00 0.  1.
         25    2    1    2    0    0 -0.28453331981E+02 -0.11168747684E+03 -0.39769551929E+02  0.17467725273E+03  0.12508733260E+03 0.  0.
          5    1    3    3  502    0  0.37923845766E+02 -0.73687400691E+00  0.33863331860E+01  0.38310582264E+02  0.41800000000E+01 0. -1.
         -5    1    3    3    0  502 -0.66377177747E+02 -0.11095060283E+03 -0.43155885115E+02  0.13636667047E+03  0.41800000000E+01 0. -1.
        -11    1    1    2    0    0 -0.34618914988E+02  0.45684249196E+02 -0.67300637489E+02  0.88401898769E+02  0.00000000000E+00 0. -1.
         11    1    1    2    0    0  0.63072246969E+02  0.66003227644E+02 -0.13269238879E+03  0.16106459710E+03  0.00000000000E+00 0.  1.
</event>
<event>
 7    1  0.2714042E-009  0.6108948E+02  0.7561462E-02  0.1393316E+00
         -2   -1    0    0    0  501 -0.00000000000E+00  0.00000000000E+00  0.14855004961E+03  0.14855004961E+03  0.00000000000E+00 0.  1.
          2   -1    0    0  501    0  0.00000000000E+00 -0.00000000000E+00 -0.33671855563E+03  0.33671855563E+03  0.00000000000E+00 0. -1.
         25    2    1    2    0    0  0.11176633527E+02 -0.59008352214E+02 -0.29808279407E+03  0.32879432081E+03  0.12508177528E+03 0.  0.
          5    1    3    3  502    0  0.84993329876E+01 -0.16918061778E+02  0.71259587851E+01  0.20656988265E+02  0.41800000000E+01 0. -1.
         -5    1    3    3    0  502  0.26773005390E+01 -0.42090290436E+02 -0.30520875285E+03  0.30813733254E+03  0.41800000000E+01 0. -1.
        -11    1    1    2    0    0 -0.52975836671E+01  0.13191203463E+02 -0.16562324133E+02  0.21826195780E+02  0.00000000000E+00 0. -1.
         11    1    1    2    0    0 -0.58790498595E+01  0.45817148751E+02  0.12647661219E+03  0.13464808865E+03  0.00000000000E+00 0.  1.
</event>
<event>
 7    1  0.2714042E-009  0.1064607E+03  0.7561462E-02  0.1267268E+00
          2   -1    0    0  501    0  0.00000000000E+00  0.00000000000E+00  0.11223628810E+03  0.11223628810E+03  0.00000000000E+00 0. -1.
         -2   -1    0    0    0  501 -0.00000000000E+00 -0.00000000000E+00 -0.10621009543E+03  0.10621009543E+03  0.00000000000E+00 0.  1.
         25    2    1    2    0    0  0.11366771542E+02 -0.18327582473E+01  0.56424862225E+01  0.12574589869E+03  0.12509049080E+03 0.  0.
          5    1    3    3  502    0 -0.15411238162E+02 -0.57184685331E+02 -0.14112146467E+02  0.61026384261E+02  0.41800000000E+01 0. -1.
         -5    1    3    3    0  502  0.26778009704E+02  0.55351927083E+02  0.19754632689E+02  0.64719514432E+02  0.41800000000E+01 0. -1.
        -11    1    1    2    0    0  0.37541796741E+02 -0.14661430178E+02 -0.57925551361E+01  0.40717290337E+02  0.00000000000E+00 0.  1.
         11    1    1    2    0    0 -0.48908568283E+02  0.16494188425E+02  0.61762615893E+01  0.51983194501E+02  0.00000000000E+00 0. -1.
</event>
<event>
 7    1  0.2714042E-009  0.8678245E+02  0.7561462E-02  0.1310836E+00
          3   -1    0    0  501    0  0.00000000000E+00  0.00000000000E+00  0.13665986362E+04  0.13665986362E+04  0.00000000000E+00 0. -1.
         -3   -1    0    0    0  501 -0.00000000000E+00 -0.00000000000E+00 -0.98682188949E+01  0.98682188949E+01  0.00000000000E+00 0.  1.
         25    2    1    2    0    0 -0.17402720601E+02  0.35406500672E+02  0.85267994559E+03  0.86270938668E+03  0.12509165153E+03 0.  0.
          5    1    3    3  502    0  0.14882855833E+02 -0.11157244657E+02  0.18395100668E+02  0.26492180633E+02  0.41800000000E+01 0.  1.
         -5    1    3    3    0  502 -0.32285576434E+02  0.46563745329E+02  0.83428484492E+03  0.83621720605E+03  0.41800000000E+01 0.  1.
        -11    1    1    2    0    0  0.24935137528E+02 -0.63699613049E+02  0.39317204877E+03  0.39907851573E+03  0.00000000000E+00 0.  1.
         11    1    1    2    0    0 -0.75324169275E+01  0.28293112377E+02  0.11087842291E+03  0.11467895264E+03  0.00000000000E+00 0. -1.
</event>
<event>
 7    1  0.2714042E-009  0.1063963E+03  0.7561462E-02  0.1267393E+00
         -4   -1    0    0    0  501 -0.00000000000E+00  0.00000000000E+00  0.15140794424E+03  0.15140794424E+03  0.00000000000E+00 0.  1.
          4   -1    0    0  501    0  0.00000000000E+00 -0.00000000000E+00 -0.96802409813E+02  0.96802409813E+02  0.00000000000E+00 0. -1.
         25    2    1    2    0    0  0.29612144737E+02 -0.14571603850E+02  0.71883132987E+02  0.14800132190E+03  0.12509194907E+03 0.  0.
          5    1    3    3  502    0  0.15562910001E-01  0.51491990981E+02  0.50880133569E+02  0.72509901182E+02  0.41800000000E+01 0.  1.
         -5    1    3    3    0  502  0.29596581827E+02 -0.66063594831E+02  0.21002999418E+02  0.75491420721E+02  0.41800000000E+01 0.  1.
        -11    1    1    2    0    0  0.26328077709E+02  0.19055857483E+02  0.14642232928E+02  0.35646716053E+02  0.00000000000E+00 0.  1.
         11    1    1    2    0    0 -0.55940222446E+02 -0.44842536322E+01 -0.31919831487E+02  0.64562316099E+02  0.00000000000E+00 0. -1.
</event>
<event>
 7    1  0.2714042E-009  0.1138390E+03  0.7561462E-02  0.1253621E+00
          1   -1    0    0  501    0  0.00000000000E+00  0.00000000000E+00  0.11501506691E+03  0.11501506691E+03  0.00000000000E+00 0. -1.
         -1   -1    0    0    0  501 -0.00000000000E+00 -0.00000000000E+00 -0.11821208164E+03  0.11821208164E+03  0.00000000000E+00 0.  1.
         25    2    1    2    0    0 -0.45994212152E+00 -0.39828116211E+02 -0.17208064186E+02  0.13240118541E+03  0.12508983187E+03 0.  0.
          5    1    3    3  502    0  0.34564162175E+02 -0.72692146162E+02 -0.23069484411E+02  0.83836167204E+02  0.41800000000E+01 0. -1.
         -5    1    3    3    0  502 -0.35024104296E+02  0.32864029951E+02  0.58614202256E+01  0.48565018207E+02  0.41800000000E+01 0. -1.
        -11    1    1    2    0    0 -0.40798040196E+02  0.40663137319E+02  0.15089375038E+02  0.59545445329E+02  0.00000000000E+00 0. -1.
         11    1    1    2    0    0  0.41257982318E+02 -0.83502110738E+00 -0.10783255839E+01  0.41280517817E+02  0.00000000000E+00 0.  1.
</event>
<event>
 7    1  0.2714042E-009  0.9313337E+02  0.7561462E-02  0.1295436E+00
         -3   -1    0    0    0  501 -0.00000000000E+00  0.00000000000E+00  0.34084114284E+03  0.34084114284E+03  0.00000000000E+00 0.  1.
          3   -1    0    0  501    0  0.00000000000E+00 -0.00000000000E+00 -0.55566711905E+02  0.55566711905E+02  0.00000000000E+00 0. -1.
         25    2    1    2    0    0 -0.74398720662E+02  0.25110177389E+02  0.11496486259E+03  0.18716300999E+03  0.12508949610E+03 0.  0.
          5    1    3    3  502    0 -0.24733427361E+02  0.12471668615E+02 -0.25314602591E+02  0.37756939116E+02  0.41800000000E+01 0.  1.
         -5    1    3    3    0  502 -0.49665293301E+02  0.12638508774E+02  0.14027946518E+03  0.14940607087E+03  0.41800000000E+01 0.  1.
        -11    1    1    2    0    0  0.33775288457E+02 -0.49146231762E+02  0.14246528304E+03  0.15444247822E+03  0.00000000000E+00 0.  1.
         11    1    1    2    0    0  0.40623432205E+02  0.24036054373E+02  0.27844285309E+02  0.54802366539E+02  0.00000000000E+00 0. -1.
</event>
<event>
 7    1  0.2714042E-009  0.1349265E+03  0.7561462E-02  0.1220323E+00
         -3   -1    0    0    0  501 -0.00000000000E+00  0.00000000000E+00  0.10513256214E+03  0.10513256214E+03  0.00000000000E+00 0.  1.
          3   -1    0    0  501    0  0.00000000000E+00 -0.00000000000E+00 -0.21887119532E+03  0.21887119532E+03  0.00000000000E+00 0. -1.
         25    2    1    2    0    0 -0.66777308865E+02 -0.61571750820E+02 -0.11829621243E+03  0.19465832003E+03  0.12509028022E+03 0.  0.
          5    1    3    3  502    0  0.32862589634E+02 -0.10423447141E+02 -0.46429137317E+01  0.35037509838E+02  0.41800000000E+01 0.  1.
         -5    1    3    3    0  502 -0.99639898498E+02 -0.51148303679E+02 -0.11365329870E+03  0.15962081020E+03  0.41800000000E+01 0.  1.
        -11    1    1    2    0    0  0.23063393857E+02  0.74071818492E+02  0.22015900705E+02  0.80642757361E+02  0.00000000000E+00 0.  1.
         11    1    1    2    0    0  0.43713915007E+02 -0.12500067671E+02 -0.17458321452E+02  0.48702680059E+02  0.00000000000E+00 0. -1.
</event>
<event>
 7    1  0.2714042E-009  0.1353672E+03  0.7561462E-02  0.1219702E+00
         -2   -1    0    0    0  501 -0.00000000000E+00  0.00000000000E+00  0.12526844171E+03  0.12526844171E+03  0.00000000000E+00 0.  1.
          2   -1    0    0  501    0  0.00000000000E+00 -0.00000000000E+00 -0.19097419361E+03  0.19097419361E+03  0.00000000000E+00 0. -1.
         25    2    1    2    0    0  0.69595410444E+02 -0.89449009579E+02 -0.19054286722E+02  0.16986563739E+03  0.12508645991E+03 0.  0.
          5    1    3    3  502    0  0.89833832561E+02 -0.30797112759E+02  0.19030006793E+02  0.96944278766E+02  0.41800000000E+01 0.  1.
         -5    1    3    3    0  502 -0.20238422117E+02 -0.58651896820E+02 -0.38084293515E+02  0.72921358620E+02  0.41800000000E+01 0.  1.
        -11    1    1    2    0    0 -0.39372458926E+02  0.55350889259E+02  0.15149864147E+02  0.69594754453E+02  0.00000000000E+00 0.  1.
         11    1    1    2    0    0 -0.30222951518E+02  0.34098120320E+02 -0.61801329329E+02  0.76782243485E+02  0.00000000000E+00 0. -1.
</event>
<event>
 7    1  0.2714042E-009  0.1031455E+03  0.7561462E-02  0.1273817E+00
         -2   -1    0    0    0  501 -0.00000000000E+00  0.00000000000E+00  0.55896929669E+02  0.55896929669E+02  0.00000000000E+00 0.  1.
          2   -1    0    0  501    0  0.00000000000E+00 -0.00000000000E+00 -0.21517860364E+03  0.21517860364E+03  0.00000000000E+00 0. -1.
         25    2    1    2    0    0 -0.20508935754E+02  0.40923544158E+01 -0.97091574205E+02  0.15972288226E+03  0.12508901440E+03 0.  0.
          5    1    3    3  502    0 -0.66978145975E+02 -0.12228540940E+01 -0.89938061904E+02  0.11222252354E+03  0.41800000000E+01 0.  1.
         -5    1    3    3    0  502  0.46469210221E+02  0.53152085098E+01 -0.71535123010E+01  0.47500358718E+02  0.41800000000E+01 0.  1.
        -11    1    1    2    0    0 -0.31299311223E+02 -0.21027696712E+02 -0.22279987883E+02  0.43797360333E+02  0.00000000000E+00 0. -1.
         11    1    1    2    0    0  0.51808246976E+02  0.16935342297E+02 -0.39910111881E+02  0.67555290717E+02  0.00000000000E+00 0.  1.
</event>
<event>
 7    1  0.2714042E-009  0.3204954E+03  0.7561462E-02  0.1075422E+00
          2   -1    0    0  501    0  0.00000000000E+00  0.00000000000E+00  0.14580498393E+04  0.14580498393E+04  0.00000000000E+00 0. -1.
         -2   -1    0    0    0  501 -0.00000000000E+00 -0.00000000000E+00 -0.75826811393E+02  0.75826811393E+02  0.00000000000E+00 0.  1.
         25    2    1    2    0    0  0.28961448912E+03  0.93401872042E+02  0.88373074484E+03  0.94298872785E+03  0.12508896625E+03 0.  0.
          5    1    3    3  502    0  0.19245318877E+03 -0.11998599346E+01  0.55104874141E+03  0.58370528295E+03  0.41800000000E+01 0. -1.
         -5    1    3    3    0  502  0.97161300350E+02  0.94601731977E+02  0.33268200343E+03  0.35928344490E+03  0.41800000000E+01 0. -1.
        -11    1    1    2    0    0 -0.19572706917E+03 -0.97847595064E+02  0.39124884202E+03  0.44828438948E+03  0.00000000000E+00 0.  1.
         11    1    1    2    0    0 -0.93887419950E+02  0.44457230222E+01  0.10724344102E+03  0.14260353334E+03  0.00000000000E+00 0. -1.
</event>
<event>
 7    1  0.2714042E-009  0.1842678E+03  0.7561462E-02  0.1163735E+00
          1   -1    0    0  501    0  0.00000000000E+00  0.00000000000E+00  0.21733250493E+02  0.21733250493E+02  0.00000000000E+00 0. -1.
         -1   -1    0    0    0  501 -0.00000000000E+00 -0.00000000000E+00 -0.15971018615E+04  0.15971018615E+04  0.00000000000E+00 0.  1.
         25    2    1    2    0    0 -0.10591821101E+03 -0.10932763902E+03 -0.89612712498E+03  0.91753081575E+03  0.12509106147E+03 0.  0.
          5    1    3    3  502    0  0.11871793165E+02 -0.68331266437E+02 -0.39740436438E+03  0.40343252556E+03  0.41800000000E+01 0.  1.
         -5    1    3    3    0  502 -0.11779000417E+03 -0.40996372578E+02 -0.49872276060E+03  0.51409829020E+03  0.41800000000E+01 0.  1.
        -11    1    1    2    0    0  0.27097264663E+02  0.88760002847E+02 -0.34257216661E+03  0.35492011664E+03  0.00000000000E+00 0. -1.
         11    1    1    2    0    0  0.78820946345E+02  0.20567636168E+02 -0.33666931937E+03  0.34638417956E+03  0.00000000000E+00 0.  1.
</event>
<event>
 7    1  0.2714042E-009  0.1831790E+03  0.7561462E-02  0.1164761E+00
         -1   -1    0    0    0  501 -0.00000000000E+00  0.00000000000E+00  0.19196323036E+02  0.19196323036E+02  0.00000000000E+00 0.  1.
          1   -1    0    0  501    0  0.00000000000E+00 -0.00000000000E+00 -0.21598819802E+04  0.21598819802E+04  0.00000000000E+00 0. -1.
         25    2    1    2    0    0  0.50687038954E+02 -0.16297081375E+03 -0.10301752972E+04  0.10516832168E+04  0.12509110099E+03 0.  0.
          5    1    3    3  502    0  0.50459517155E+02 -0.14296459184E+03 -0.10148912192E+04  0.10261611456E+04  0.41800000000E+01 0.  1.
         -5    1    3    3    0  502  0.22752179913E+00 -0.20006221911E+02 -0.15284077915E+02  0.25522071213E+02  0.41800000000E+01 0.  1.
        -11    1    1    2    0    0 -0.71507523414E+02  0.74103498945E+02 -0.60960840459E+03  0.61824514669E+03  0.00000000000E+00 0. -1.
         11    1    1    2    0    0  0.20820484460E+02  0.88867314805E+02 -0.50090195546E+03  0.50914993980E+03  0.00000000000E+00 0.  1.
</event>
<event>
 7    1  0.2714042E-009  0.8659777E+02  0.7561462E-02  0.1311306E+00
          2   -1    0    0  501    0  0.00000000000E+00  0.00000000000E+00  0.75775010839E+03  0.75775010839E+03  0.00000000000E+00 0. -1.
         -2   -1    0    0    0  501 -0.00000000000E+00 -0.00000000000E+00 -0.20712884790E+02  0.20712884790E+02  0.00000000000E+00 0.  1.
         25    2    1    2    0    0 -0.26703696188E+02 -0.27236207869E+02  0.57410571188E+03  0.58881245053E+03  0.12509130695E+03 0.  0.
          5    1    3    3  502    0  0.24056756775E+02 -0.31881545568E+02  0.48025544111E+03  0.48193144908E+03  0.41800000000E+01 0. -1.
         -5    1    3    3    0  502 -0.50760452963E+02  0.46453376991E+01  0.93850270768E+02  0.10688100145E+03  0.41800000000E+01 0. -1.
        -11    1    1    2    0    0  0.44804736411E+02 -0.48377066147E+01  0.36585584154E+02  0.58046298573E+02  0.00000000000E+00 0.  1.
         11    1    1    2    0    0 -0.18101040222E+02  0.32073914483E+02  0.12634592757E+03  0.13160424408E+03  0.00000000000E+00 0. -1.
</event>
<event>
 7    1  0.2714042E-009  0.1210607E+03  0.7561462E-02  0.1241357E+00
         -1   -1    0    0    0  501 -0.00000000000E+00  0.00000000000E+00  0.10020039030E+04  0.10020039030E+04  0.00000000000E+00 0. -1.
          1   -1    0    0  501    0  0.00000000000E+00 -0.00000000000E+00 -0.39093969591E+02  0.39093969591E+02  0.00000000000E+00 0.  1.
         25    2    1    2    0    0  0.92132316752E+02  0.70075893109E+02  0.81383845848E+03  0.83149502129E+03  0.12510771098E+03 0.  0.
          5    1    3    3  502    0  0.57803109029E+02  0.34573274387E+02  0.73684460434E+03  0.73992834387E+03  0.41800000000E+01 0. -1.
         -5    1    3    3    0  502  0.34329207722E+02  0.35502618722E+02  0.76993854140E+02  0.91566677423E+02  0.41800000000E+01 0. -1.
        -11    1    1    2    0    0 -0.34955025072E+02 -0.41892740872E+00 -0.52226893373E+00  0.34961436509E+02  0.00000000000E+00 0.  1.
         11    1    1    2    0    0 -0.57177291680E+02 -0.69656965700E+02  0.14959374381E+03  0.17464141474E+03  0.00000000000E+00 0. -1.
</event>
<event>
 7    1  0.2714042E-009  0.1352746E+03  0.7561462E-02  0.1219833E+00
          1   -1    0    0  501    0  0.00000000000E+00  0.00000000000E+00  0.71557833051E+02  0.71557833051E+02  0.00000000000E+00 0. -1.
         -1   -1    0    0    0  501 -0.00000000000E+00 -0.00000000000E+00 -0.27338818382E+03  0.27338818382E+03  0.00000000000E+00 0.  1.
         25    2    1    2    0    0  0.60289251135E+02 -0.57484542905E+02 -0.14504977349E+03  0.20886800662E+03  0.12508853234E+03 0.  0.
          5    1    3    3  502    0 -0.28756142264E+02  0.15848558562E+02 -0.46580899980E+02  0.57143198803E+02  0.41800000000E+01 0. -1.
         -5    1    3    3    0  502  0.89045393399E+02 -0.73333101467E+02 -0.98468873513E+02  0.15172480782E+03  0.41800000000E+01 0. -1.
        -11    1    1    2    0    0 -0.61462677306E+02 -0.29877749086E+01 -0.17562561445E+02  0.63992429748E+02  0.00000000000E+00 0.  1.
         11    1    1    2    0    0  0.11734261705E+01  0.60472317813E+02 -0.39218015829E+02  0.72085580502E+02  0.00000000000E+00 0. -1.
</event>
<event>
 7    1  0.2714042E-009  0.1132698E+03  0.7561462E-02  0.1254632E+00
         -1   -1    0    0    0  501 -0.00000000000E+00  0.00000000000E+00  0.22071461883E+04  0.22071461883E+04  0.00000000000E+00 0.  1.
          1   -1    0    0  501    0  0.00000000000E+00 -0.00000000000E+00 -0.13921600003E+02  0.13921600003E+02  0.00000000000E+00 0. -1.
         25    2    1    2    0    0  0.82781863536E+02 -0.55955581601E+01  0.18372049544E+04  0.18433267585E+04  0.12508935586E+03 0.  0.
          5    1    3    3  502    0  0.93267002110E+02  0.20320465886E+02  0.79242341890E+03  0.79816289204E+03  0.41800000000E+01 0. -1.
         -5    1    3    3    0  502 -0.10485138574E+02 -0.25916024046E+02  0.10447815355E+04  0.10451638665E+04  0.41800000000E+01 0. -1.
        -11    1    1    2    0    0 -0.29382318595E+02  0.31754784651E+02  0.50540660074E+02  0.66528530083E+02  0.00000000000E+00 0. -1.
         11    1    1    2    0    0 -0.53399544941E+02 -0.26159226491E+02  0.30547897384E+03  0.31121249973E+03  0.00000000000E+00 0.  1.
</event>
<event>
 7    1  0.2714042E-009  0.1648942E+03  0.7561462E-02  0.1183279E+00
         -2   -1    0    0    0  501 -0.00000000000E+00  0.00000000000E+00  0.40040274092E+02  0.40040274092E+02  0.00000000000E+00 0.  1.
          2   -1    0    0  501    0  0.00000000000E+00 -0.00000000000E+00 -0.85340566596E+03  0.85340566596E+03  0.00000000000E+00 0. -1.
         25    2    1    2    0    0 -0.14330929520E+03  0.32938457503E+02 -0.49412194588E+03  0.53049741162E+03  0.12509400570E+03 0.  0.
          5    1    3    3  502    0 -0.14036898288E+03  0.60760933076E+02 -0.46652828835E+03  0.49098009998E+03  0.41800000000E+01 0.  1.
         -5    1    3    3    0  502 -0.29403123200E+01 -0.27822475573E+02 -0.27593657530E+02  0.39517311642E+02  0.41800000000E+01 0.  1.
        -11    1    1    2    0    0  0.95240019898E+02 -0.11771623203E+02 -0.28379802606E+03  0.29958396502E+03  0.00000000000E+00 0. -1.
         11    1    1    2    0    0  0.48069275300E+02 -0.21166834300E+02 -0.35445419924E+02  0.63364563407E+02  0.00000000000E+00 0.  1.
</event>
<event>
 7    1  0.2714042E-009  0.2068534E+03  0.7561462E-02  0.1144082E+00
          2   -1    0    0  501    0  0.00000000000E+00  0.00000000000E+00  0.77473057257E+02  0.77473057257E+02  0.00000000000E+00 0. -1.
         -2   -1    0    0    0  501 -0.00000000000E+00 -0.00000000000E+00 -0.69976291433E+03  0.69976291433E+03  0.00000000000E+00 0.  1.
         25    2    1    2    0    0 -0.84785468555E+02 -0.17741711211E+03 -0.42280449317E+03  0.48278062843E+03  0.12509231949E+03 0.  0.
          5    1    3    3  502    0  0.15099194547E+02 -0.43713635693E+01 -0.11263357590E+03  0.11380197413E+03  0.41800000000E+01 0. -1.
         -5    1    3    3    0  502 -0.99884663101E+02 -0.17304574854E+03 -0.31017091728E+03  0.36897865431E+03  0.41800000000E+01 0. -1.
        -11    1    1    2    0    0  0.36121948540E+02  0.54400064518E+02 -0.12893077984E+03  0.14452442069E+03  0.00000000000E+00 0.  1.
         11    1    1    2    0    0  0.48663520014E+02  0.12301704759E+03 -0.70554584063E+02  0.14993092247E+03  0.00000000000E+00 0. -1.
</event>
<event>
 7    1  0.2714042E-009  0.7676679E+02  0.7561462E-02  0.1338486E+00
         -1   -1    0    0    0  501 -0.00000000000E+00  0.00000000000E+00  0.29539768585E+03  0.29539768585E+03  0.00000000000E+00 0.  1.
          1   -1    0    0  501    0  0.00000000000E+00 -0.00000000000E+00 -0.60187558229E+02  0.60187558229E+02  0.00000000000E+00 0. -1.
         25    2    1    2    0    0 -0.54560039004E+02 -0.34996945033E+02  0.74269172484E+02  0.15926208662E+03  0.12508764222E+03 0.  0.
          5    1    3    3  502    0 -0.35183274810E+02 -0.11006909145E+02  0.10750747751E+03  0.11372926183E+03  0.41800000000E+01 0.  1.
         -5    1    3    3    0  502 -0.19376764194E+02 -0.23990035888E+02 -0.33238305027E+02  0.45532824793E+02  0.41800000000E+01 0.  1.
        -11    1    1    2    0    0  0.32467769569E+02 -0.11003830918E+02  0.13459604324E+03  0.13889325114E+03  0.00000000000E+00 0.  1.
         11    1    1    2    0    0  0.22092269435E+02  0.46000775951E+02  0.26344911894E+02  0.57429906317E+02  0.00000000000E+00 0. -1.
</event>
<event>
 7    1  0.2714042E-009  0.1317783E+03  0.7561462E-02  0.1224841E+00
          1   -1    0    0  501    0  0.00000000000E+00  0.00000000000E+00  0.32592695426E+03  0.32592695426E+03  0.00000000000E+00 0. -1.
         -1   -1    0    0    0  501 -0.00000000000E+00 -0.00000000000E+00 -0.73364869728E+02  0.73364869728E+02  0.00000000000E+00 0.  1.
         25    2    1    2    0    0 -0.11209018853E+02 -0.10112351564E+03  0.80754692433E+02  0.18033324174E+03  0.12508856945E+03 0.  0.
          5    1    3    3  502    0 -0.39284895179E+02 -0.20920168366E+02  0.84041665925E+02  0.95191546080E+02  0.41800000000E+01 0. -1.
         -5    1    3    3    0  502  0.28075876326E+02 -0.80203347276E+02 -0.32869734912E+01  0.85141695663E+02  0.41800000000E+01 0. -1.
        -11    1    1    2    0    0 -0.15838410322E+02  0.10523175944E+03  0.12012780837E+03  0.16048448143E+03  0.00000000000E+00 0.  1.
         11    1    1    2    0    0  0.27047429175E+02 -0.41082437942E+01  0.51679583730E+02  0.58474100819E+02  0.00000000000E+00 0. -1.
</event>
<event>
 7    1  0.2714042E-009  0.1009689E+03  0.7561462E-02  0.1278272E+00
          2   -1    0    0  501    0  0.00000000000E+00  0.00000000000E+00  0.45863606487E+02  0.45863606487E+02  0.00000000000E+00 0. -1.
         -2   -1    0    0    0  501 -0.00000000000E+00 -0.00000000000E+00 -0.32941394750E+03  0.32941394750E+03  0.00000000000E+00 0.  1.
         25    2    1    2    0    0  0.36007848590E+02 -0.38004880773E+02 -0.18552798338E+03  0.22980602614E+03  0.12509692607E+03 0.  0.
          5    1    3    3  502    0  0.65298449986E+02 -0.38749678465E+02 -0.18520299702E+03  0.20020751149E+03  0.41800000000E+01 0.  1.
         -5    1    3    3    0  502 -0.29290601396E+02  0.74479769178E+00 -0.32498636157E+00  0.29598514656E+02  0.41800000000E+01 0.  1.
        -11    1    1    2    0    0 -0.61624216958E+02  0.19295904070E+02 -0.93201808105E+02  0.11338630016E+03  0.00000000000E+00 0.  1.
         11    1    1    2    0    0  0.25616368367E+02  0.18708976704E+02 -0.48205495245E+01  0.32085227681E+02  0.00000000000E+00 0. -1.
</event>
<event>
 7    1  0.2714042E-009  0.1038184E+03  0.7561462E-02  0.1272465E+00
          2   -1    0    0  501    0  0.00000000000E+00  0.00000000000E+00  0.59046393975E+03  0.59046393975E+03  0.00000000000E+00 0. -1.
         -2   -1    0    0    0  501 -0.00000000000E+00 -0.00000000000E+00 -0.68320630981E+02  0.68320630981E+02  0.00000000000E+00 0.  1.
         25    2    1    2    0    0 -0.12792763519E+02  0.60581248540E+01  0.54840485086E+03  0.56266927687E+03  0.12509388076E+03 0.  0.
          5    1    3    3  502    0 -0.48504051881E+02  0.49044652520E+02  0.27206965866E+03  0.28070873259E+03  0.41800000000E+01 0.  1.
         -5    1    3    3    0  502  0.35711288362E+02 -0.42986527666E+02  0.27633519220E+03  0.28196054427E+03  0.41800000000E+01 0.  1.
        -11    1    1    2    0    0 -0.29159496754E+02  0.17864711293E+02 -0.32795927915E+02  0.47381399814E+02  0.00000000000E+00 0.  1.
         11    1    1    2    0    0  0.41952260273E+02 -0.23922836147E+02  0.65343858206E+01  0.48733894051E+02  0.00000000000E+00 0. -1.
</event>
<event>
 7    1  0.2714042E-009  0.1132640E+03  0.7561462E-02  0.1254642E+00
         -2   -1    0    0    0  501 -0.00000000000E+00  0.00000000000E+00  0.39905870512E+02  0.39905870512E+02  0.00000000000E+00 0. -1.
          2   -1    0    0  501    0  0.00000000000E+00 -0.00000000000E+00 -0.40175173498E+03  0.40175173498E+03  0.00000000000E+00 0.  1.
         25    2    1    2    0    0  0.27162236735E+02  0.39079397160E+02 -0.11959893425E+03  0.17949108541E+03  0.12509259883E+03 0.  0.
          5    1    3    3  502    0 -0.49199173064E+02  0.16982114644E+02 -0.32539808799E+02  0.61524486220E+02  0.41800000000E+01 0.  1.
         -5    1    3    3    0  502  0.76361409800E+02  0.22097282516E+02 -0.87059125449E+02  0.11796659919E+03  0.41800000000E+01 0.  1.
        -11    1    1    2    0    0  0.29468918311E+01 -0.58697945726E+02 -0.10538722918E+03  0.12066731570E+03  0.00000000000E+00 0. -1.
         11    1    1    2    0    0 -0.30109128566E+02  0.19618548566E+02 -0.13685970104E+03  0.14149920438E+03  0.00000000000E+00 0.  1.
</event>
<event>
 7    1  0.2714042E-009  0.1302850E+03  0.7561462E-02  0.1227033E+00
         -1   -1    0    0    0  501 -0.00000000000E+00  0.00000000000E+00  0.68368678504E+02  0.68368678504E+02  0.00000000000E+00 0.  1.
          1   -1    0    0  501    0  0.00000000000E+00 -0.00000000000E+00 -0.35750456707E+03  0.35750456707E+03  0.00000000000E+00 0. -1.
         25    2    1    2    0    0  0.81265772331E+02 -0.41042645921E+02 -0.65907743412E+02  0.16816894570E+03  0.12509332164E+03 0.  0.
          5    1    3    3  502    0  0.10266059260E+03  0.41761526837E+01 -0.55683765293E+02  0.11693926475E+03  0.41800000000E+01 0.  1.
         -5    1    3    3    0  502 -0.21394820265E+02 -0.45218798605E+02 -0.10223978119E+02  0.51229680948E+02  0.41800000000E+01 0.  1.
        -11    1    1    2    0    0 -0.37785358250E+02  0.50472461174E+02 -0.19517798403E+03  0.20510886886E+03  0.00000000000E+00 0.  1.
         11    1    1    2    0    0 -0.43480414081E+02 -0.94298152528E+01 -0.28050161118E+02  0.52595431010E+02  0.00000000000E+00 0. -1.
</event>
<event>
 7    1  0.2714042E-009  0.1142701E+03  0.7561462E-02  0.1252861E+00
         -2   -1    0    0    0  501 -0.00000000000E+00  0.00000000000E+00  0.56580075202E+02  0.56580075202E+02  0.00000000000E+00 0.  1.
          2   -1    0    0  501    0  0.00000000000E+00 -0.00000000000E+00 -0.31893954327E+03  0.31893954327E+03  0.00000000000E+00 0. -1.
         25    2    1    2    0    0 -0.67666214111E+02  0.34855665962E+01 -0.88123700295E+02  0.16733564219E+03  0.12507823506E+03 0.  0.
          5    1    3    3  502    0 -0.79153961673E+02 -0.40690011228E+02 -0.82006899400E+02  0.12109347881E+03  0.41800000000E+01 0.  1.
         -5    1    3    3    0  502  0.11487747562E+02  0.44175577825E+02 -0.61168008947E+01  0.46242163372E+02  0.41800000000E+01 0.  1.
        -11    1    1    2    0    0  0.40469898478E+02  0.30066286924E+02 -0.32427451490E+02  0.59944423447E+02  0.00000000000E+00 0.  1.
         11    1    1    2    0    0  0.27196315632E+02 -0.33551853521E+02 -0.14180831628E+03  0.14823955284E+03  0.00000000000E+00 0. -1.
</event>
<event>
 7    1  0.2714042E-009  0.8221059E+02  0.7561462E-02  0.1322893E+00
         -1   -1    0    0    0  501 -0.00000000000E+00  0.00000000000E+00  0.19223500981E+02  0.19223500981E+02  0.00000000000E+00 0.  1.
          1   -1    0    0  501    0  0.00000000000E+00 -0.00000000000E+00 -0.96634112373E+03  0.96634112373E+03  0.00000000000E+00 0. -1.
         25    2    1    2    0    0 -0.23177566101E+02 -0.46658064086E+01 -0.81559571563E+03  0.82547354899E+03  0.12510491361E+03 0.  0.
          5    1    3    3  502    0 -0.40352706030E+02  0.21207328612E+02 -0.76211919520E+03  0.76349278435E+03  0.41800000000E+01 0. -1.
         -5    1    3    3    0  502  0.17175139929E+02 -0.25873135021E+02 -0.53476520433E+02  0.61980764637E+02  0.41800000000E+01 0. -1.
        -11    1    1    2    0    0 -0.24038088686E+02 -0.22424332607E+02 -0.73580456080E+02  0.80590098136E+02  0.00000000000E+00 0. -1.
         11    1    1    2    0    0  0.47215654787E+02  0.27090139015E+02 -0.57941451044E+02  0.79500977591E+02  0.00000000000E+00 0.  1.
</event>
<event>
 7    1  0.2714042E-009  0.1146973E+03  0.7561462E-02  0.1252110E+00
         -2   -1    0    0    0  501 -0.00000000000E+00  0.00000000000E+00  0.15596420850E+02  0.15596420850E+02  0.00000000000E+00 0. -1.
          2   -1    0    0  501    0  0.00000000000E+00 -0.00000000000E+00 -0.87074404907E+03  0.87074404907E+03  0.00000000000E+00 0.  1.
         25    2    1    2    0    0  0.13628309108E+02 -0.38732434300E+02 -0.45061865363E+03  0.46945770843E+03  0.12508971472E+03 0.  0.
          5    1    3    3  502    0  0.69618179922E+01  0.44412096034E+02 -0.11354421346E+03  0.12219108803E+03  0.41800000000E+01 0.  1.
         -5    1    3    3    0  502  0.66664911159E+01 -0.83144530334E+02 -0.33707444016E+03  0.34726662039E+03  0.41800000000E+01 0.  1.
        -11    1    1    2    0    0  0.36691178495E+02  0.34281648689E+02 -0.19962314376E+03  0.20584186538E+03  0.00000000000E+00 0.  1.
         11    1    1    2    0    0 -0.50319487603E+02  0.44507856110E+01 -0.20490583083E+03  0.21104089612E+03  0.00000000000E+00 0. -1.
</event>
<event>
 7    1  0.2714042E-009  0.1705312E+03  0.7561462E-02  0.1177295E+00
          1   -1    0    0  501    0  0.00000000000E+00  0.00000000000E+00  0.62016490499E+03  0.62016490499E+03  0.00000000000E+00 0. -1.
         -1   -1    0    0    0  501 -0.00000000000E+00 -0.00000000000E+00 -0.58042980372E+02  0.58042980372E+02  0.00000000000E+00 0.  1.
         25    2    1    2    0    0  0.12773788963E+03  0.85238917768E+02  0.25344052147E+03  0.32166320024E+03  0.12510985141E+03 0.  0.
          5    1    3    3  502    0  0.78577098669E+02 -0.10306052947E+02  0.56973332060E+02  0.97693439538E+02  0.41800000000E+01 0.  1.
         -5    1    3    3    0  502  0.49160790959E+02  0.95544970715E+02  0.19646718941E+03  0.22396976070E+03  0.41800000000E+01 0.  1.
        -11    1    1    2    0    0 -0.98356826680E+02 -0.58473174220E+02  0.29167007902E+03  0.31331232413E+03  0.00000000000E+00 0. -1.
         11    1    1    2    0    0 -0.29381062948E+02 -0.26765743547E+02  0.17011324126E+02  0.43232360983E+02  0.00000000000E+00 0.  1.
</event>
<event>
 7    1  0.2714042E-009  0.1487689E+03  0.7561462E-02  0.1201994E+00
         -2   -1    0    0    0  501 -0.00000000000E+00  0.00000000000E+00  0.18594408973E+03  0.18594408973E+03  0.00000000000E+00 0. -1.
          2   -1    0    0  501    0  0.00000000000E+00 -0.00000000000E+00 -0.13060421399E+03  0.13060421399E+03  0.00000000000E+00 0.  1.
         25    2    1    2    0    0 -0.23764515236E+02  0.10452856362E+03 -0.22632117041E+01  0.16475571320E+03  0.12509336557E+03 0.  0.
          5    1    3    3  502    0 -0.71228394992E+02  0.87922607493E+02 -0.10147112988E+02  0.11368511540E+03  0.41800000000E+01 0. -1.
         -5    1    3    3    0  502  0.47463879756E+02  0.16605956126E+02  0.78839012836E+01  0.51070597801E+02  0.41800000000E+01 0. -1.
        -11    1    1    2    0    0  0.52121636943E+02 -0.49195763924E+02  0.77336962360E+01  0.72088128587E+02  0.00000000000E+00 0.  1.
         11    1    1    2    0    0 -0.28357121707E+02 -0.55332799694E+02  0.49869391208E+02  0.79704461939E+02  0.00000000000E+00 0. -1.
</event>
<event>
 7    1  0.2714042E-009  0.9749808E+02  0.7561462E-02  0.1285647E+00
         -3   -1    0    0    0  501 -0.00000000000E+00  0.00000000000E+00  0.20257092400E+03  0.20257092400E+03  0.00000000000E+00 0.  1.
          3   -1    0    0  501    0  0.00000000000E+00 -0.00000000000E+00 -0.83469981283E+02  0.83469981283E+02  0.00000000000E+00 0. -1.
         25    2    1    2    0    0 -0.13887083273E+02 -0.19633920909E+02 -0.69577892165E+01  0.12756888230E+03  0.12508823673E+03 0.  0.
          5    1    3    3  502    0 -0.46271007253E+01  0.49668152307E+02 -0.23952931604E+02  0.55493700067E+02  0.41800000000E+01 0. -1.
         -5    1    3    3    0  502 -0.92599825477E+01 -0.69302073216E+02  0.16995142387E+02  0.72075182230E+02  0.41800000000E+01 0. -1.
        -11    1    1    2    0    0 -0.53090967417E+01  0.43750564545E+02  0.20688404944E+02  0.48685814211E+02  0.00000000000E+00 0. -1.
         11    1    1    2    0    0  0.19196180015E+02 -0.24116643636E+02  0.10537032698E+03  0.10978620877E+03  0.00000000000E+00 0.  1.
</event>
<event>
 7    1  0.2714042E-009  0.9158889E+02  0.7561462E-02  0.1299049E+00
          1   -1    0    0  501    0  0.00000000000E+00  0.00000000000E+00  0.12914521609E+04  0.12914521609E+04  0.00000000000E+00 0. -1.
         -1   -1    0    0    0  501 -0.00000000000E+00 -0.00000000000E+00 -0.13494543399E+02  0.13494543399E+02  0.00000000000E+00 0.  1.
         25    2    1    2    0    0  0.34924455366E+01  0.48496166703E+02  0.93451658643E+03  0.94410389290E+03  0.12508730914E+03 0.  0.
          5    1    3    3  502    0 -0.21889369856E+02  0.73952034974E+02  0.34782937008E+03  0.35630154516E+03  0.41800000000E+01 0. -1.
         -5    1    3    3    0  502  0.25381815393E+02 -0.25455868271E+02  0.58668721635E+03  0.58780234774E+03  0.41800000000E+01 0. -1.
        -11    1    1    2    0    0  0.96108389424E+00  0.10521655099E+02 -0.16672358381E+01  0.10696194819E+02  0.00000000000E+00 0.  1.
         11    1    1    2    0    0 -0.44535294308E+01 -0.59017821803E+02  0.34510826687E+03  0.35014661655E+03  0.00000000000E+00 0. -1.
</event>
<event>
 7    1  0.2714042E-009  0.1346660E+03  0.7561462E-02  0.1220692E+00
          2   -1    0    0  501    0  0.00000000000E+00  0.00000000000E+00  0.19463315722E+03  0.19463315722E+03  0.00000000000E+00 0.  1.
         -2   -1    0    0    0  501 -0.00000000000E+00 -0.00000000000E+00 -0.10461202921E+03  0.10461202921E+03  0.00000000000E+00 0. -1.
         25    2    1    2    0    0  0.79254341706E+02 -0.40789885400E+02  0.42685619220E+02  0.15941064536E+03  0.12507848070E+03 0.  0.
          5    1    3    3  502    0  0.22260431889E+01 -0.69266582272E+02  0.32142260720E+02  0.76507594474E+02  0.41800000000E+01 0.  1.
         -5    1    3    3    0  502  0.77028298517E+02  0.28476696873E+02  0.10543358500E+02  0.82903050883E+02  0.41800000000E+01 0.  1.
        -11    1    1    2    0    0 -0.77488373595E+02  0.60236438266E+02  0.61399539741E+02  0.11577037625E+03  0.00000000000E+00 0.  1.
         11    1    1    2    0    0 -0.17659681108E+01 -0.19446552866E+02 -0.14064030949E+02  0.24064164816E+02  0.00000000000E+00 0. -1.
</event>
<event>
 7    1  0.2714042E-009  0.1233203E+03  0.7561462E-02  0.1237718E+00
          2   -1    0    0  501    0  0.00000000000E+00  0.00000000000E+00  0.54740982886E+02  0.54740982886E+02  0.00000000000E+00 0.  1.
         -2   -1    0    0    0  501 -0.00000000000E+00 -0.00000000000E+00 -0.31322294867E+03  0.31322294867E+03  0.00000000000E+00 0. -1.
         25    2    1    2    0    0 -0.45034328858E+02 -0.46247289193E+02 -0.90634270018E+02  0.16741724293E+03  0.12508820805E+03 0.  0.
          5    1    3    3  502    0 -0.25820413385E+02  0.41753461166E+02 -0.43222256335E+02  0.65541445738E+02  0.41800000000E+01 0.  1.
         -5    1    3    3    0  502 -0.19213915474E+02 -0.88000750359E+02 -0.47412013683E+02  0.10187579719E+03  0.41800000000E+01 0.  1.
        -11    1    1    2    0    0 -0.24179749821E+02  0.40858947206E+00 -0.58142440712E+02  0.62971189116E+02  0.00000000000E+00 0.  1.
         11    1    1    2    0    0  0.69214078680E+02  0.45838699721E+02 -0.10970525505E+03  0.13757549951E+03  0.00000000000E+00 0. -1.
</event>
<event>
 7    1  0.2714042E-009  0.1490971E+03  0.7561462E-02  0.1201587E+00
         -2   -1    0    0    0  501 -0.00000000000E+00  0.00000000000E+00  0.43916355749E+02  0.43916355749E+02  0.00000000000E+00 0.  1.
          2   -1    0    0  501    0  0.00000000000E+00 -0.00000000000E+00 -0.71100958296E+03  0.71100958296E+03  0.00000000000E+00 0. -1.
         25    2    1    2    0    0 -0.30729409542E+02 -0.12519228800E+03 -0.45267762124E+03  0.48701370436E+03  0.12509162196E+03 0.  0.
          5    1    3    3  502    0  0.26608055113E+02 -0.16175784472E+02 -0.20281303468E+02  0.37395832262E+02  0.41800000000E+01 0. -1.
         -5    1    3    3    0  502 -0.57337464655E+02 -0.10901650352E+03 -0.43239631777E+03  0.44961787210E+03  0.41800000000E+01 0. -1.
        -11    1    1    2    0    0 -0.19733465614E+02  0.35416711549E+02 -0.12538777259E+03  0.13177953801E+03  0.00000000000E+00 0. -1.
         11    1    1    2    0    0  0.50462875156E+02  0.89775576447E+02 -0.89027833387E+02  0.13613269634E+03  0.00000000000E+00 0.  1.
</event>
<event>
 7    1  0.3565262E-009  0.9658717E+02  0.7561462E-02  0.1287641E+00
          2   -1    0    0  501    0  0.00000000000E+00  0.00000000000E+00  0.21431295289E+03  0.21431295289E+03  0.00000000000E+00 0. -1.
         -2   -1    0    0    0  501 -0.00000000000E+00 -0.00000000000E+00 -0.79214839230E+02  0.79214839230E+02  0.00000000000E+00 0.  1.
         25    2    1    2    0    0 -0.13959861139E+02 -0.55310508165E+02  0.24520604445E+02  0.13965429705E+03  0.12509169679E+03 0.  0.
          5    1    3    3  502    0 -0.25024382200E+02  0.35180707243E+02  0.21334633685E+02  0.48337778818E+02  0.41800000000E+01 0.  1.
         -5    1    3    3    0  502  0.11064521062E+02 -0.90491215408E+02  0.31859707606E+01  0.91316518232E+02  0.41800000000E+01 0.  1.
        -11    1    1    2    0    0 -0.14652883543E+01  0.19401347724E+02 -0.13568901833E+02  0.23720760115E+02  0.00000000000E+00 0.  1.
         11    1    1    2    0    0  0.15425149493E+02  0.35909160440E+02  0.12414641105E+03  0.13015273495E+03  0.00000000000E+00 0. -1.
</event>
<event>
 7    1  0.2714042E-009  0.6928589E+02  0.7561462E-02  0.1362538E+00
          1   -1    0    0  501    0  0.00000000000E+00  0.00000000000E+00  0.17753315168E+03  0.17753315168E+03  0.00000000000E+00 0. -1.
         -1   -1    0    0    0  501 -0.00000000000E+00 -0.00000000000E+00 -0.85119836850E+02  0.85119836850E+02  0.00000000000E+00 0.  1.
         25    2    1    2    0    0 -0.30561770218E+02 -0.34408675152E+02  0.89394872690E+02  0.16048655526E+03  0.12508602013E+03 0.  0.
          5    1    3    3  502    0  0.20786404232E+02  0.17107501345E+01  0.94968713164E+02  0.97321786600E+02  0.41800000000E+01 0.  1.
         -5    1    3    3    0  502 -0.51348174449E+02 -0.36119425286E+02 -0.55738404747E+01  0.63164768661E+02  0.41800000000E+01 0.  1.
        -11    1    1    2    0    0  0.24568111769E+02  0.59222220850E+01  0.44686164466E+02  0.51337297601E+02  0.00000000000E+00 0. -1.
         11    1    1    2    0    0  0.59936584485E+01  0.28486453067E+02 -0.41667722321E+02  0.50829135674E+02  0.00000000000E+00 0.  1.
</event>
<event>
 7    1  0.2714042E-009  0.1245693E+03  0.7561462E-02  0.1235744E+00
          1   -1    0    0  501    0  0.00000000000E+00  0.00000000000E+00  0.39785284559E+03  0.39785284559E+03  0.00000000000E+00 0. -1.
         -1   -1    0    0    0  501 -0.00000000000E+00 -0.00000000000E+00 -0.39339234151E+02  0.39339234151E+02  0.00000000000E+00 0.  1.
         25    2    1    2    0    0 -0.18056924936E+02  0.43545067593E+02  0.19922825096E+03  0.23991920384E+03  0.12508838052E+03 0.  0.
          5    1    3    3  502    0 -0.70267737324E+02  0.40492633753E+02  0.12041839934E+03  0.14524211372E+03  0.41800000000E+01 0.  1.
         -5    1    3    3    0  502  0.52210812388E+02  0.30524338408E+01  0.78809851615E+02  0.94677090123E+02  0.41800000000E+01 0.  1.
        -11    1    1    2    0    0 -0.42476441708E+02 -0.29495968596E+01  0.47129969021E+02  0.63515212365E+02  0.00000000000E+00 0.  1.
         11    1    1    2    0    0  0.60533366644E+02 -0.40595470734E+02  0.11215539146E+03  0.13375766354E+03  0.00000000000E+00 0. -1.
</event>
<event>
 7    1  0.2714042E-009  0.1538498E+03  0.7561462E-02  0.1195821E+00
          2   -1    0    0  501    0  0.00000000000E+00  0.00000000000E+00  0.18041963696E+03  0.18041963696E+03  0.00000000000E+00 0. -1.
         -2   -1    0    0    0  501 -0.00000000000E+00 -0.00000000000E+00 -0.19388319023E+03  0.19388319023E+03  0.00000000000E+00 0.  1.
         25    2    1    2    0    0 -0.59669047211E+02 -0.12289698740E+03  0.59984238611E+02  0.19470614468E+03  0.12509320200E+03 0.  0.
          5    1    3    3  502    0 -0.58646598930E+02 -0.57545985051E+02 -0.26308554521E+02  0.86374628234E+02  0.41800000000E+01 0.  1.
         -5    1    3    3    0  502 -0.10224482813E+01 -0.65351002352E+02  0.86292793132E+02  0.10833151645E+03  0.41800000000E+01 0.  1.
        -11    1    1    2    0    0  0.19353362654E+01  0.96388608928E+02 -0.24704235933E+02  0.99522905558E+02  0.00000000000E+00 0.  1.
         11    1    1    2    0    0  0.57733710945E+02  0.26508378475E+02 -0.48743555948E+02  0.80073776952E+02  0.00000000000E+00 0. -1.
</event>
<event>
 7    1  0.2714042E-009  0.2711884E+03  0.7561462E-02  0.1100601E+00
          1   -1    0    0  501    0  0.00000000000E+00  0.00000000000E+00  0.75299504142E+03  0.75299504142E+03  0.00000000000E+00 0. -1.
         -1   -1    0    0    0  501 -0.00000000000E+00 -0.00000000000E+00 -0.14568834500E+03  0.14568834500E+03  0.00000000000E+00 0.  1.
         25    2    1    2    0    0 -0.21838711066E+03  0.12763460168E+03  0.57016166505E+02  0.28789158868E+03  0.12508877623E+03 0.  0.
          5    1    3    3  502    0 -0.16681000318E+03  0.32926585923E+02  0.58791065718E+02  0.17995443599E+03  0.41800000000E+01 0. -1.
         -5    1    3    3    0  502 -0.51577107479E+02  0.94708015755E+02 -0.17748992129E+01  0.10793715269E+03  0.41800000000E+01 0. -1.
        -11    1    1    2    0    0  0.10161758789E+03 -0.16078865374E+02  0.23557310943E+03  0.25705904763E+03  0.00000000000E+00 0. -1.
         11    1    1    2    0    0  0.11676952277E+03 -0.11155573630E+03  0.31471742048E+03  0.35373275012E+03  0.00000000000E+00 0.  1.
</event>
<event>
 7    1  0.2714042E-009  0.1014456E+03  0.7561462E-02  0.1277285E+00
         -2   -1    0    0    0  501 -0.00000000000E+00  0.00000000000E+00  0.28678272507E+02  0.28678272507E+02  0.00000000000E+00 0.  1.
          2   -1    0    0  501    0  0.00000000000E+00 -0.00000000000E+00 -0.40381824886E+03  0.40381824886E+03  0.00000000000E+00 0. -1.
         25    2    1    2    0    0 -0.24249312191E+02  0.54336647461E+01 -0.17043927219E+03  0.21287258167E+03  0.12509051391E+03 0.  0.
          5    1    3    3  502    0  0.43850115245E+02 -0.23999897107E+02 -0.92255817795E+02  0.10501159929E+03  0.41800000000E+01 0. -1.
         -5    1    3    3    0  502 -0.68099427435E+02  0.29433561853E+02 -0.78183454392E+02  0.10786098238E+03  0.41800000000E+01 0. -1.
        -11    1    1    2    0    0  0.42510555908E+02  0.20106424559E+02 -0.10389732336E+03  0.11404415581E+03  0.00000000000E+00 0. -1.
         11    1    1    2    0    0 -0.18261243718E+02 -0.25540089305E+02 -0.10080338080E+03  0.10557978388E+03  0.00000000000E+00 0.  1.
</event>
<event>
 7    1  0.2714042E-009  0.1337070E+03  0.7561462E-02  0.1222057E+00
         -1   -1    0    0    0  501 -0.00000000000E+00  0.00000000000E+00  0.26652759939E+02  0.26652759939E+02  0.00000000000E+00 0. -1.
          1   -1    0    0  501    0  0.00000000000E+00 -0.00000000000E+00 -0.74721387406E+03  0.74721387406E+03  0.00000000000E+00 0.  1.
         25    2    1    2    0    0  0.72141256279E+02  0.53360383393E+02 -0.39886281056E+03  0.42754261591E+03  0.12509778334E+03 0.  0.
          5    1    3    3  502    0  0.10483892764E+03  0.37648580053E+02 -0.34423228595E+03  0.36183139087E+03  0.41800000000E+01 0. -1.
         -5    1    3    3    0  502 -0.32697671363E+02  0.15711803340E+02 -0.54630524606E+02  0.65711225034E+02  0.41800000000E+01 0. -1.
        -11    1    1    2    0    0  0.10921995738E+02 -0.31779556344E+02 -0.15755908031E+03  0.16110274355E+03  0.00000000000E+00 0. -1.
         11    1    1    2    0    0 -0.83063252017E+02 -0.21580827049E+02 -0.16413922326E+03  0.18522127454E+03  0.00000000000E+00 0.  1.
</event>
<event>
 7    1  0.2714042E-009  0.1293058E+03  0.7561462E-02  0.1228489E+00
          1   -1    0    0  501    0  0.00000000000E+00  0.00000000000E+00  0.99832433653E+03  0.99832433653E+03  0.00000000000E+00 0. -1.
         -1   -1    0    0    0  501 -0.00000000000E+00 -0.00000000000E+00 -0.20984447728E+02  0.20984447728E+02  0.00000000000E+00 0.  1.
         25    2    1    2    0    0 -0.59624062654E+02 -0.44544986982E+02  0.74198220853E+03  0.75612463516E+03  0.12509029298E+03 0.  0.
          5    1    3    3  502    0 -0.69562745046E+02  0.22525518372E+02  0.47616855874E+03  0.48176793501E+03  0.41800000000E+01 0. -1.
         -5    1    3    3    0  502  0.99386823920E+01 -0.67070505353E+02  0.26581364980E+03  0.27435670015E+03  0.41800000000E+01 0. -1.
        -11    1    1    2    0    0 -0.16784321453E+02  0.37040323339E+02  0.91221926463E+02  0.99875616980E+02  0.00000000000E+00 0. -1.
         11    1    1    2    0    0  0.76408384107E+02  0.75046636429E+01  0.14413575380E+03  0.16330853212E+03  0.00000000000E+00 0.  1.
</event>
<event>
 7    1  0.4548769E-009  0.1150685E+03  0.7561462E-02  0.1251462E+00
         -2   -1    0    0    0  501 -0.00000000000E+00  0.00000000000E+00  0.16392976880E+02  0.16392976880E+02  0.00000000000E+00 0.  1.
          2   -1    0    0  501    0  0.00000000000E+00 -0.00000000000E+00 -0.13667666199E+04  0.13667666199E+04  0.00000000000E+00 0. -1.
         25    2    1    2    0    0 -0.81643436943E+02 -0.15391298777E+02 -0.10094287487E+04  0.10205372706E+04  0.12508948443E+03 0.  0.
          5    1    3    3  502    0 -0.60218414053E+02  0.25204269874E+02 -0.89186728104E+03  0.89426295462E+03  0.41800000000E+01 0.  1.
         -5    1    3    3    0  502 -0.21425022890E+02 -0.40595568651E+02 -0.11756146768E+03  0.12627431601E+03  0.41800000000E+01 0.  1.
        -11    1    1    2    0    0  0.43813469150E+02  0.50612945720E+02 -0.14068925100E+03  0.15580358052E+03  0.00000000000E+00 0.  1.
         11    1    1    2    0    0  0.37829967793E+02 -0.35221646943E+02 -0.20025564331E+03  0.20681874565E+03  0.00000000000E+00 0. -1.
</event>
<event>
 7    1  0.2714042E-009  0.1249651E+03  0.7561462E-02  0.1235124E+00
         -2   -1    0    0    0  501 -0.00000000000E+00  0.00000000000E+00  0.38893605270E+02  0.38893605270E+02  0.00000000000E+00 0.  1.
          2   -1    0    0  501    0  0.00000000000E+00 -0.00000000000E+00 -0.73720779540E+03  0.73720779540E+03  0.00000000000E+00 0. -1.
         25    2    1    2    0    0  0.47902324361E+02  0.11425923674E+03 -0.45864536752E+03  0.49127613158E+03  0.12508740325E+03 0.  0.
          5    1    3    3  502    0  0.40457811574E+01  0.33803060560E+02 -0.13635650128E+02  0.36910955051E+02  0.41800000000E+01 0.  1.
         -5    1    3    3    0  502  0.43856543203E+02  0.80456176183E+02 -0.44500971740E+03  0.45436517653E+03  0.41800000000E+01 0.  1.
        -11    1    1    2    0    0 -0.24798603070E+02 -0.60938638266E+02 -0.20901503862E+03  0.21912502075E+03  0.00000000000E+00 0. -1.
         11    1    1    2    0    0 -0.23103721290E+02 -0.53320598477E+02 -0.30653783989E+02  0.65700248342E+02  0.00000000000E+00 0.  1.
</event>
<event>
 7    1  0.2714042E-009  0.7577131E+02  0.7561462E-02  0.1341499E+00
         -1   -1    0    0    0  501 -0.00000000000E+00  0.00000000000E+00  0.20855490963E+02  0.20855490963E+02  0.00000000000E+00 0.  1.
          1   -1    0    0  501    0  0.00000000000E+00 -0.00000000000E+00 -0.99988510042E+03  0.99988510042E+03  0.00000000000E+00 0. -1.
         25    2    1    2    0    0 -0.44047479586E+02  0.72063902325E+01 -0.82170481093E+03  0.83236733736E+03  0.12507787765E+03 0.  0.
          5    1    3    3  502    0 -0.66122021856E+02  0.35174966538E+00 -0.20982702906E+03  0.22003886026E+03  0.41800000000E+01 0. -1.
         -5    1    3    3    0  502  0.22074542270E+02  0.68546405671E+01 -0.61187778187E+03  0.61232847709E+03  0.41800000000E+01 0. -1.
        -11    1    1    2    0    0  0.14412021964E+02 -0.23807544062E+02 -0.15134495597E+03  0.15388242664E+03  0.00000000000E+00 0. -1.
         11    1    1    2    0    0  0.29635457622E+02  0.16601153829E+02 -0.59798425622E+01  0.34490827389E+02  0.00000000000E+00 0.  1.
</event>
<event>
 7    1  0.2714042E-009  0.1487282E+03  0.7561462E-02  0.1202045E+00
         -1   -1    0    0    0  501 -0.00000000000E+00  0.00000000000E+00  0.31514021107E+02  0.31514021107E+02  0.00000000000E+00 0.  1.
          1   -1    0    0  501    0  0.00000000000E+00 -0.00000000000E+00 -0.91477098275E+03  0.91477098275E+03  0.00000000000E+00 0. -1.
         25    2    1    2    0    0  0.97692098145E+02  0.83188688854E+02 -0.51633544875E+03  0.54654676962E+03  0.12508785613E+03 0.  0.
          5    1    3    3  502    0  0.74949559525E+01 -0.15103181081E+02 -0.22974351717E+03  0.23039929802E+03  0.41800000000E+01 0. -1.
         -5    1    3    3    0  502  0.90197142192E+02  0.98291869935E+02 -0.28659193158E+03  0.31614747160E+03  0.41800000000E+01 0. -1.
        -11    1    1    2    0    0 -0.77677302976E+02 -0.19827450895E+02 -0.27410971191E+03  0.28559241126E+03  0.00000000000E+00 0. -1.
         11    1    1    2    0    0 -0.20014795169E+02 -0.63361237959E+02 -0.92811800978E+02  0.11414582297E+03  0.00000000000E+00 0.  1.
</event>
<event>
 7    1  0.2714042E-009  0.2098884E+03  0.7561462E-02  0.1141654E+00
          1   -1    0    0  501    0  0.00000000000E+00  0.00000000000E+00  0.29625383476E+03  0.29625383476E+03  0.00000000000E+00 0. -1.
         -1   -1    0    0    0  501 -0.00000000000E+00 -0.00000000000E+00 -0.20759692481E+03  0.20759692481E+03  0.00000000000E+00 0.  1.
         25    2    1    2    0    0 -0.19831642468E+03  0.15766530763E+02 -0.55731125790E+02  0.24151876394E+03  0.12508943666E+03 0.  0.
          5    1    3    3  502    0 -0.55516889777E+02  0.34716870415E+02  0.31795000210E+02  0.72909399808E+02  0.41800000000E+01 0. -1.
         -5    1    3    3    0  502 -0.14279953490E+03 -0.18950339652E+02 -0.87526126000E+02  0.16860936413E+03  0.41800000000E+01 0. -1.
        -11    1    1    2    0    0  0.61937938992E+02 -0.36825419618E+02  0.15924699598E+02  0.73797126461E+02  0.00000000000E+00 0.  1.
         11    1    1    2    0    0  0.13637848568E+03  0.21058888855E+02  0.12846333615E+03  0.18853486917E+03  0.00000000000E+00 0. -1.
</event>
<event>
 7    1  0.2714042E-009  0.2152139E+03  0.7561462E-02  0.1137502E+00
         -1   -1    0    0    0  501 -0.00000000000E+00  0.00000000000E+00  0.56774526179E+02  0.56774526179E+02  0.00000000000E+00 0.  1.
          1   -1    0    0  501    0  0.00000000000E+00 -0.00000000000E+00 -0.88667908417E+03  0.88667908417E+03  0.00000000000E+00 0. -1.
         25    2    1    2    0    0 -0.18747266533E+02  0.19325407818E+03 -0.48649587024E+03  0.53853933365E+03  0.12509110039E+03 0.  0.
          5    1    3    3  502    0 -0.19642052022E+02 -0.23726796525E+01 -0.83008892948E+01  0.21859025126E+02  0.41800000000E+01 0. -1.
         -5    1    3    3    0  502  0.89478548938E+00  0.19562675783E+03 -0.47819498094E+03  0.51668030853E+03  0.41800000000E+01 0. -1.
        -11    1    1    2    0    0  0.55240561482E+02 -0.97518948251E+02 -0.18066010237E+03  0.21260182852E+03  0.00000000000E+00 0.  1.
         11    1    1    2    0    0 -0.36493294949E+02 -0.95735129931E+02 -0.16274858537E+03  0.19231244817E+03  0.00000000000E+00 0. -1.
</event>
<event>
 7    1  0.2714042E-009  0.1159859E+03  0.7561462E-02  0.1249870E+00
         -1   -1    0    0    0  501 -0.00000000000E+00  0.00000000000E+00  0.42187930831E+02  0.42187930831E+02  0.00000000000E+00 0.  1.
          1   -1    0    0  501    0  0.00000000000E+00 -0.00000000000E+00 -0.68434302626E+03  0.68434302626E+03  0.00000000000E+00 0. -1.
         25    2    1    2    0    0  0.10521359032E+02 -0.63455435398E+02 -0.58285389439E+03  0.59958639067E+03  0.12509151205E+03 0.  0.
          5    1    3    3  502    0 -0.15235038332E+02  0.32352423097E+02 -0.92093112632E+02  0.98880733551E+02  0.41800000000E+01 0. -1.
         -5    1    3    3    0  502  0.25756397364E+02 -0.95807858495E+02 -0.49076078176E+03  0.50070565712E+03  0.41800000000E+01 0. -1.
        -11    1    1    2    0    0 -0.15236611948E+02 -0.13025001693E+02  0.11078070467E+02  0.22902590640E+02  0.00000000000E+00 0.  1.
         11    1    1    2    0    0  0.47152529154E+01  0.76480437091E+02 -0.70379271504E+02  0.10404197578E+03  0.00000000000E+00 0. -1.
</event>
<event>
 7    1  0.2714042E-009  0.1174912E+03  0.7561462E-02  0.1247294E+00
          1   -1    0    0  501    0  0.00000000000E+00  0.00000000000E+00  0.94771765381E+03  0.94771765381E+03  0.00000000000E+00 0. -1.
         -1   -1    0    0    0  501 -0.00000000000E+00 -0.00000000000E+00 -0.18400287709E+02  0.18400287709E+02  0.00000000000E+00 0.  1.
         25    2    1    2    0    0 -0.73750113099E+02  0.21197993994E+01  0.45885046649E+03  0.48128703266E+03  0.12509949830E+03 0.  0.
          5    1    3    3  502    0  0.63777844135E+01 -0.30420310050E+02  0.28845727404E+03  0.29015710011E+03  0.41800000000E+01 0.  1.
         -5    1    3    3    0  502 -0.80127897512E+02  0.32540109450E+02  0.17039319245E+03  0.19112993255E+03  0.41800000000E+01 0.  1.
        -11    1    1    2    0    0  0.38129906598E+02 -0.46497096029E+02  0.25190542047E+03  0.25898303145E+03  0.00000000000E+00 0.  1.
         11    1    1    2    0    0  0.35620206500E+02  0.44377296629E+02  0.21856147914E+03  0.22584787741E+03  0.00000000000E+00 0. -1.
</event>
<event>
 7    1  0.2714042E-009  0.9697762E+02  0.7561462E-02  0.1286783E+00
          1   -1    0    0  501    0  0.00000000000E+00  0.00000000000E+00  0.70405613269E+03  0.70405613269E+03  0.00000000000E+00 0. -1.
         -1   -1    0    0    0  501 -0.00000000000E+00 -0.00000000000E+00 -0.21532677864E+02  0.21532677864E+02  0.00000000000E+00 0.  1.
         25    2    1    2    0    0  0.57613940148E+02 -0.70654618493E+01  0.39688588972E+03  0.42016108590E+03  0.12509053440E+03 0.  0.
          5    1    3    3  502    0  0.76636784162E+02  0.11205388984E+02  0.38157405147E+03  0.38937769143E+03  0.41800000000E+01 0. -1.
         -5    1    3    3    0  502 -0.19022844013E+02 -0.18270850834E+02  0.15311838252E+02  0.30783394472E+02  0.41800000000E+01 0. -1.
        -11    1    1    2    0    0 -0.31719495020E+02 -0.30536884038E+02  0.55697533493E+02  0.70998893571E+02  0.00000000000E+00 0.  1.
         11    1    1    2    0    0 -0.25894445129E+02  0.37602345888E+02  0.22994003162E+03  0.23442883109E+03  0.00000000000E+00 0. -1.
</event>
<event>
 7    1  0.2714042E-009  0.1567695E+03  0.7561462E-02  0.1192393E+00
          2   -1    0    0  501    0  0.00000000000E+00  0.00000000000E+00  0.53645399711E+03  0.53645399711E+03  0.00000000000E+00 0. -1.
         -2   -1    0    0    0  501 -0.00000000000E+00 -0.00000000000E+00 -0.78225901313E+02  0.78225901313E+02  0.00000000000E+00 0.  1.
         25    2    1    2    0    0  0.14677774068E+03 -0.27750420193E+02  0.37244158907E+03  0.42032562266E+03  0.12508837203E+03 0.  0.
          5    1    3    3  502    0  0.10422598604E+03 -0.16449905573E+02  0.10381642650E+03  0.14808436235E+03  0.41800000000E+01 0. -1.
         -5    1    3    3    0  502  0.42551754638E+02 -0.11300514620E+02  0.26862516257E+03  0.27224126031E+03  0.41800000000E+01 0. -1.
        -11    1    1    2    0    0 -0.98996591203E+02 -0.14351842127E+02  0.18534253132E+02  0.10173406008E+03  0.00000000000E+00 0.  1.
         11    1    1    2    0    0 -0.47781149480E+02  0.42102262320E+02  0.67252253602E+02  0.92620215680E+02  0.00000000000E+00 0. -1.
</event>
<event>
 7    1  0.2714042E-009  0.1443010E+03  0.7561462E-02  0.1207656E+00
          2   -1    0    0  501    0  0.00000000000E+00  0.00000000000E+00  0.38271002076E+03  0.38271002076E+03  0.00000000000E+00 0.  1.
         -2   -1    0    0    0  501 -0.00000000000E+00 -0.00000000000E+00 -0.60253430277E+02  0.60253430277E+02  0.00000000000E+00 0. -1.
         25    2    1    2    0    0 -0.98860524848E+01  0.10408005635E+03  0.19569016558E+03  0.25470144827E+03  0.12509114549E+03 0.  0.
          5    1    3    3  502    0  0.34709561035E+02 -0.12646864193E+02  0.34608887663E+02  0.50793152161E+02  0.41800000000E+01 0. -1.
         -5    1    3    3    0  502 -0.44595613520E+02  0.11672692054E+03  0.16108127792E+03  0.20390829611E+03  0.41800000000E+01 0. -1.
        -11    1    1    2    0    0  0.36147942242E+02 -0.27437277182E+02  0.86744918321E+02  0.97898716856E+02  0.00000000000E+00 0.  1.
         11    1    1    2    0    0 -0.26261889757E+02 -0.76642779170E+02  0.40021506581E+02  0.90363285916E+02  0.00000000000E+00 0. -1.
</event>
<event>
 7    1  0.2714042E-009  0.1206722E+03  0.7561462E-02  0.1241992E+00
         -1   -1    0    0    0  501 -0.00000000000E+00  0.00000000000E+00  0.49132625727E+03  0.49132625727E+03  0.00000000000E+00 0.  1.
          1   -1    0    0  501    0  0.00000000000E+00 -0.00000000000E+00 -0.31658817484E+02  0.31658817484E+02  0.00000000000E+00 0. -1.
         25    2    1    2    0    0  0.52172638373E+02 -0.22546097577E+02  0.20916950295E+03  0.25025969884E+03  0.12509086773E+03 0.  0.
          5    1    3    3  502    0 -0.38435441458E+02 -0.19487200330E+02  0.95094702319E+02  0.10448688409E+03  0.41800000000E+01 0. -1.
         -5    1    3    3    0  502  0.90608079831E+02 -0.30588972472E+01  0.11407480063E+03  0.14577281475E+03  0.41800000000E+01 0. -1.
        -11    1    1    2    0    0 -0.30496263801E+02 -0.34631083396E+02  0.94301371616E+02  0.10498610733E+03  0.00000000000E+00 0. -1.
         11    1    1    2    0    0 -0.21676374572E+02  0.57177180973E+02  0.15619656522E+03  0.16773926858E+03  0.00000000000E+00 0.  1.
</event>
<event>
 7    1  0.2714042E-009  0.1135269E+03  0.7561462E-02  0.1254175E+00
          1   -1    0    0  501    0  0.00000000000E+00  0.00000000000E+00  0.98657276605E+03  0.98657276605E+03  0.00000000000E+00 0. -1.
         -1   -1    0    0    0  501 -0.00000000000E+00 -0.00000000000E+00 -0.22980760111E+02  0.22980760111E+02  0.00000000000E+00 0.  1.
         25    2    1    2    0    0  0.79380304235E+02 -0.34129525639E+02  0.70999272848E+03  0.72608723957E+03  0.12508776016E+03 0.  0.
          5    1    3    3  502    0  0.55750710611E+02  0.95217398399E+01  0.62504051232E+03  0.62760809404E+03  0.41800000000E+01 0.  1.
         -5    1    3    3    0  502  0.23629593624E+02 -0.43651265479E+02  0.84952216161E+02  0.98479145525E+02  0.41800000000E+01 0.  1.
        -11    1    1    2    0    0 -0.57180419527E+02 -0.21143793221E+02  0.17166301969E+03  0.18216710103E+03  0.00000000000E+00 0.  1.
         11    1    1    2    0    0 -0.22199884707E+02  0.55273318860E+02  0.81936257765E+02  0.10129918556E+03  0.00000000000E+00 0. -1.
</event>
<event>
 7    1  0.2714042E-009  0.9328225E+02  0.7561462E-02  0.1295092E+00
         -2   -1    0    0    0  501 -0.00000000000E+00  0.00000000000E+00  0.17962607738E+02  0.17962607738E+02  0.00000000000E+00 0.  1.
          2   -1    0    0  501    0  0.00000000000E+00 -0.00000000000E+00 -0.79829872134E+03  0.79829872134E+03  0.00000000000E+00 0. -1.
         25    2    1    2    0    0 -0.46792309961E+02 -0.46152820946E+01 -0.37060349650E+03  0.39396109907E+03  0.12509026684E+03 0.  0.
          5    1    3    3  502    0 -0.41991451311E+02 -0.34231677364E+02 -0.35637408888E+03  0.36049279236E+03  0.41800000000E+01 0. -1.
         -5    1    3    3    0  502 -0.48008586505E+01  0.29616395269E+02 -0.14229407618E+02  0.33468306705E+02  0.41800000000E+01 0. -1.
        -11    1    1    2    0    0  0.40553691635E+02  0.45284756522E+02 -0.22762498123E+03  0.23560229871E+03  0.00000000000E+00 0. -1.
         11    1    1    2    0    0  0.62386183268E+01 -0.40669474427E+02 -0.18210763587E+03  0.18669793130E+03  0.00000000000E+00 0.  1.
</event>
<event>
 7    1  0.2714042E-009  0.1714785E+03  0.7561462E-02  0.1176315E+00
          1   -1    0    0  501    0  0.00000000000E+00  0.00000000000E+00  0.73573474252E+03  0.73573474252E+03  0.00000000000E+00 0. -1.
         -1   -1    0    0    0  501 -0.00000000000E+00 -0.00000000000E+00 -0.55921132234E+02  0.55921132234E+02  0.00000000000E+00 0.  1.
         25    2    1    2    0    0 -0.93014920630E+02  0.13385246646E+03  0.25146854400E+03  0.32473094358E+03  0.12508196855E+03 0.  0.
          5    1    3    3  502    0 -0.62360101495E+02  0.86954194485E+02  0.24598104123E+03  0.26827962882E+03  0.41800000000E+01 0. -1.
         -5    1    3    3    0  502 -0.30654819135E+02  0.46898271979E+02  0.54875027691E+01  0.56451314754E+02  0.41800000000E+01 0. -1.
        -11    1    1    2    0    0  0.71176071089E+02 -0.36641684218E+02  0.13307864965E+03  0.15530155540E+03  0.00000000000E+00 0.  1.
         11    1    1    2    0    0  0.21838849541E+02 -0.97210782246E+02  0.29526641664E+03  0.31162337577E+03  0.00000000000E+00 0. -1.
</event>
<event>
 7    1  0.2714042E-009  0.4306561E+02  0.7561462E-02  0.1486792E+00
          1   -1    0    0  501    0  0.00000000000E+00  0.00000000000E+00  0.19462640151E+03  0.19462640151E+03  0.00000000000E+00 0. -1.
         -1   -1    0    0    0  501 -0.00000000000E+00 -0.00000000000E+00 -0.68821921841E+02  0.68821921841E+02  0.00000000000E+00 0.  1.
         25    2    1    2    0    0 -0.13465842622E+02 -0.21731099812E+02  0.10914796780E+03  0.16797644150E+03  0.12509690805E+03 0.  0.
          5    1    3    3  502    0 -0.54475200964E+01 -0.18014722256E+02 -0.26059676458E+02  0.32415811424E+02  0.41800000000E+01 0. -1.
         -5    1    3    3    0  502 -0.80183225254E+01 -0.37163775560E+01  0.13520764426E+03  0.13556063007E+03  0.41800000000E+01 0. -1.
        -11    1    1    2    0    0  0.18760255775E+02  0.36689811962E+02  0.46217959181E+02  0.61920830497E+02  0.00000000000E+00 0. -1.
         11    1    1    2    0    0 -0.52944131530E+01 -0.14958712151E+02 -0.29561447317E+02  0.33551051359E+02  0.00000000000E+00 0.  1.
</event>
<event>
 7    1  0.2714042E-009  0.9432592E+02  0.7561462E-02  0.1292702E+00
          2   -1    0    0  501    0  0.00000000000E+00  0.00000000000E+00  0.41220074932E+03  0.41220074932E+03  0.00000000000E+00 0. -1.
         -2   -1    0    0    0  501 -0.00000000000E+00 -0.00000000000E+00 -0.32493506331E+02  0.32493506331E+02  0.00000000000E+00 0.  1.
         25    2    1    2    0    0  0.19283042115E+02 -0.31853790516E+01  0.28630523139E+03  0.31305136374E+03  0.12509391859E+03 0.  0.
          5    1    3    3  502    0  0.68076815941E+01  0.45241672803E+02  0.24133001551E+03  0.24566400280E+03  0.41800000000E+01 0.  1.
         -5    1    3    3    0  502  0.12475360521E+02 -0.48427051855E+02  0.44975215880E+02  0.67387360944E+02  0.41800000000E+01 0.  1.
        -11    1    1    2    0    0 -0.11027928889E+02  0.46829150464E+02  0.43824115083E+02  0.65077934905E+02  0.00000000000E+00 0.  1.
         11    1    1    2    0    0 -0.82551132264E+01 -0.43643771412E+02  0.49577896514E+02  0.66564956999E+02  0.00000000000E+00 0. -1.
</event>
<event>
 7    1  0.2714042E-009  0.6190696E+02  0.7561462E-02  0.1389999E+00
         -1   -1    0    0    0  501 -0.00000000000E+00  0.00000000000E+00  0.20904805867E+03  0.20904805867E+03  0.00000000000E+00 0.  1.
          1   -1    0    0  501    0  0.00000000000E+00 -0.00000000000E+00 -0.72082863151E+02  0.72082863151E+02  0.00000000000E+00 0. -1.
         25    2    1    2    0    0  0.71118005901E+01  0.37244043667E+02  0.28082071070E+02  0.13369497750E+03  0.12509215721E+03 0.  0.
          5    1    3    3  502    0 -0.72721612069E+01  0.10294501198E+02 -0.48951251169E+02  0.50720395056E+02  0.41800000000E+01 0.  1.
         -5    1    3    3    0  502  0.14383961797E+02  0.26949542469E+02  0.77033322240E+02  0.82974582443E+02  0.41800000000E+01 0.  1.
        -11    1    1    2    0    0  0.33514876842E+01 -0.57131785171E+02  0.11097877587E+03  0.12486617653E+03  0.00000000000E+00 0.  1.
         11    1    1    2    0    0 -0.10463288274E+02  0.19887741503E+02 -0.20956514192E+01  0.22569767799E+02  0.00000000000E+00 0. -1.
</event>
<event>
 7    1  0.2714042E-009  0.1440043E+03  0.7561462E-02  0.1208040E+00
         -2   -1    0    0    0  501 -0.00000000000E+00  0.00000000000E+00  0.11434960223E+03  0.11434960223E+03  0.00000000000E+00 0.  1.
          2   -1    0    0  501    0  0.00000000000E+00 -0.00000000000E+00 -0.30397559931E+03  0.30397559931E+03  0.00000000000E+00 0. -1.
         25    2    1    2    0    0 -0.10559216063E+03 -0.78902293548E+02 -0.18260333120E+03  0.25761750141E+03  0.12509006416E+03 0.  0.
          5    1    3    3  502    0 -0.94709094650E+02 -0.94581233957E+02 -0.19344409007E+03  0.23527326837E+03  0.41800000000E+01 0. -1.
         -5    1    3    3    0  502 -0.10883065979E+02  0.15678940409E+02  0.10840758865E+02  0.22344233042E+02  0.41800000000E+01 0. -1.
        -11    1    1    2    0    0  0.66265982616E+02  0.32735255878E+02  0.39932968324E+02  0.84008448318E+02  0.00000000000E+00 0.  1.
         11    1    1    2    0    0  0.39326178012E+02  0.46167037670E+02 -0.46955634206E+02  0.76699251808E+02  0.00000000000E+00 0. -1.
</event>
<event>
 7    1  0.2714042E-009  0.1036709E+03  0.7561462E-02  0.1272761E+00
         -1   -1    0    0    0  501 -0.00000000000E+00  0.00000000000E+00  0.21688974299E+02  0.21688974299E+02  0.00000000000E+00 0.  1.
          1   -1    0    0  501    0  0.00000000000E+00 -0.00000000000E+00 -0.61987281057E+03  0.61987281057E+03  0.00000000000E+00 0. -1.
         25    2    1    2    0    0  0.50988163174E+01  0.36069220135E+02 -0.28174959106E+03  0.31041072502E+03  0.12507997271E+03 0.  0.
          5    1    3    3  502    0  0.46536749893E+02 -0.14054195731E+02 -0.19999362945E+03  0.20585945139E+03  0.41800000000E+01 0.  1.
         -5    1    3    3    0  502 -0.41437933576E+02  0.50123415865E+02 -0.81755961616E+02  0.10455127363E+03  0.41800000000E+01 0.  1.
        -11    1    1    2    0    0 -0.40423030316E+02  0.32151796613E+01 -0.91282950339E+02  0.99884612342E+02  0.00000000000E+00 0.  1.
         11    1    1    2    0    0  0.35324213998E+02 -0.39284399796E+02 -0.22515129487E+03  0.23126644751E+03  0.00000000000E+00 0. -1.
</event>
<event>
 7    1  0.2714042E-009  0.1055964E+03  0.7561462E-02  0.1268949E+00
         -1   -1    0    0    0  501 -0.00000000000E+00  0.00000000000E+00  0.12757877938E+03  0.12757877938E+03  0.00000000000E+00 0.  1.
          1   -1    0    0  501    0  0.00000000000E+00 -0.00000000000E+00 -0.10441796801E+03  0.10441796801E+03  0.00000000000E+00 0. -1.
         25    2    1    2    0    0 -0.40296547805E+01  0.32746833611E+02  0.39590653119E+02  0.13529497414E+03  0.12509483196E+03 0.  0.
          5    1    3    3  502    0  0.65857478897E+01  0.77202101476E+02  0.43975740855E+02  0.89190104447E+02  0.41800000000E+01 0.  1.
         -5    1    3    3    0  502 -0.10615402670E+02 -0.44455267865E+02 -0.43850877354E+01  0.46104869691E+02  0.41800000000E+01 0.  1.
        -11    1    1    2    0    0 -0.15841265193E+02  0.23334735023E+02 -0.23597664405E+02  0.36773704014E+02  0.00000000000E+00 0. -1.
         11    1    1    2    0    0  0.19870919974E+02 -0.56081568634E+02  0.71678226577E+01  0.59928069239E+02  0.00000000000E+00 0.  1.
</event>
<event>
 7    1  0.2714042E-009  0.1308187E+03  0.7561462E-02  0.1226246E+00
         -1   -1    0    0    0  501 -0.00000000000E+00  0.00000000000E+00  0.24689038739E+02  0.24689038739E+02  0.00000000000E+00 0.  1.
          1   -1    0    0  501    0  0.00000000000E+00 -0.00000000000E+00 -0.90018779256E+03  0.90018779256E+03  0.00000000000E+00 0. -1.
         25    2    1    2    0    0  0.33529073737E+02 -0.82662378452E+02 -0.31791197928E+03  0.35308554003E+03  0.12507639429E+03 0.  0.
          5    1    3    3  502    0 -0.18080577015E+02  0.19149416314E+02 -0.13371425635E+03  0.13634728513E+03  0.41800000000E+01 0. -1.
         -5    1    3    3    0  502  0.51609650752E+02 -0.10181179477E+03 -0.18419772293E+03  0.21673825490E+03  0.41800000000E+01 0. -1.
        -11    1    1    2    0    0 -0.30529635897E+02 -0.67662104996E+01 -0.79995286347E+02  0.85889965131E+02  0.00000000000E+00 0.  1.
         11    1    1    2    0    0 -0.29994378393E+01  0.89428588952E+02 -0.47759148819E+03  0.48590132614E+03  0.00000000000E+00 0. -1.
</event>
<event>
 7    1  0.2714042E-009  0.9752516E+02  0.7561462E-02  0.1285588E+00
          2   -1    0    0  501    0  0.00000000000E+00  0.00000000000E+00  0.32682538067E+03  0.32682538067E+03  0.00000000000E+00 0. -1.
         -2   -1    0    0    0  501 -0.00000000000E+00 -0.00000000000E+00 -0.81057642849E+02  0.81057642849E+02  0.00000000000E+00 0.  1.
         25    2    1    2    0    0  0.12427674374E+02  0.67990847746E+02  0.25518356798E+03  0.29247744170E+03  0.12508876077E+03 0.  0.
          5    1    3    3  502    0  0.10540797071E+02 -0.16770881771E+02  0.17348767118E+03  0.17466486576E+03  0.41800000000E+01 0.  1.
         -5    1    3    3    0  502  0.18868773022E+01  0.84761729516E+02  0.81695896794E+02  0.11781257594E+03  0.41800000000E+01 0.  1.
        -11    1    1    2    0    0  0.34056925361E+01 -0.73179093267E+02 -0.37843067184E+02  0.82455297992E+02  0.00000000000E+00 0.  1.
         11    1    1    2    0    0 -0.15833366910E+02  0.51882455217E+01  0.28427237026E+02  0.32950283826E+02  0.00000000000E+00 0. -1.
</event>
<event>
 7    1  0.2714042E-009  0.8598337E+02  0.7561462E-02  0.1312881E+00
         -1   -1    0    0    0  501 -0.00000000000E+00  0.00000000000E+00  0.19442420866E+02  0.19442420866E+02  0.00000000000E+00 0.  1.
          1   -1    0    0  501    0  0.00000000000E+00 -0.00000000000E+00 -0.96633319467E+03  0.96633319467E+03  0.00000000000E+00 0. -1.
         25    2    1    2    0    0  0.48324780363E+01  0.96260895922E+01 -0.79556061488E+03  0.80540752946E+03  0.12509429292E+03 0.  0.
          5    1    3    3  502    0  0.13629490521E+02  0.66387282224E+02 -0.44340807005E+03  0.44857688665E+03  0.41800000000E+01 0.  1.
         -5    1    3    3    0  502 -0.87970124847E+01 -0.56761192632E+02 -0.35215254483E+03  0.35683064281E+03  0.41800000000E+01 0.  1.
        -11    1    1    2    0    0  0.31296064581E+01  0.17719700000E+02  0.71400528332E+01  0.19358785063E+02  0.00000000000E+00 0.  1.
         11    1    1    2    0    0 -0.79620844944E+01 -0.27345789592E+02 -0.15847021176E+03  0.16100930102E+03  0.00000000000E+00 0. -1.
</event>
<event>
 7    1  0.2714042E-009  0.9197556E+02  0.7561462E-02  0.1298137E+00
         -2   -1    0    0    0  501 -0.00000000000E+00  0.00000000000E+00  0.13721759797E+03  0.13721759797E+03  0.00000000000E+00 0.  1.
          2   -1    0    0  501    0  0.00000000000E+00 -0.00000000000E+00 -0.88784508424E+02  0.88784508424E+02  0.00000000000E+00 0. -1.
         25    2    1    2    0    0  0.16936912568E+02  0.47816979274E+00  0.49593752621E+02  0.13562411443E+03  0.12508905812E+03 0.  0.
          5    1    3    3  502    0  0.16557153424E+02  0.45403622890E+02 -0.20174433313E+02  0.52536734392E+02  0.41800000000E+01 0. -1.
         -5    1    3    3    0  502  0.37975914365E+00 -0.44925453097E+02  0.69768185934E+02  0.83087380038E+02  0.41800000000E+01 0. -1.
        -11    1    1    2    0    0 -0.28969227576E+02 -0.39784760939E+02 -0.21186153695E+01  0.49259840442E+02  0.00000000000E+00 0.  1.
         11    1    1    2    0    0  0.12032315008E+02  0.39306591146E+02  0.95795229250E+00  0.41118151522E+02  0.00000000000E+00 0. -1.
</event>
<event>
 7    1  0.2714042E-009  0.1663040E+03  0.7561462E-02  0.1181758E+00
         -1   -1    0    0    0  501 -0.00000000000E+00  0.00000000000E+00  0.56043608369E+02  0.56043608369E+02  0.00000000000E+00 0.  1.
          1   -1    0    0  501    0  0.00000000000E+00 -0.00000000000E+00 -0.57992849051E+03  0.57992849051E+03  0.00000000000E+00 0. -1.
         25    2    1    2    0    0 -0.13179819477E+03 -0.18022042334E+02 -0.17975896139E+03  0.25623313016E+03  0.12508626877E+03 0.  0.
          5    1    3    3  502    0 -0.63636988214E+02 -0.71073736687E+02 -0.83665464769E+02  0.12695875201E+03  0.41800000000E+01 0.  1.
         -5    1    3    3    0  502 -0.68161206560E+02  0.53051694354E+02 -0.96093496621E+02  0.12927437815E+03  0.41800000000E+01 0.  1.
        -11    1    1    2    0    0  0.31198202441E+02  0.36862527053E+02 -0.55851903858E+02  0.73835011349E+02  0.00000000000E+00 0.  1.
         11    1    1    2    0    0  0.10059999233E+03 -0.18840484719E+02 -0.28827401689E+03  0.30590395737E+03  0.00000000000E+00 0. -1.
</event>
<event>
 7    1  0.2714042E-009  0.1581799E+03  0.7561462E-02  0.1190767E+00
         -2   -1    0    0    0  501 -0.00000000000E+00  0.00000000000E+00  0.71870332191E+02  0.71870332191E+02  0.00000000000E+00 0. -1.
          2   -1    0    0  501    0  0.00000000000E+00 -0.00000000000E+00 -0.47840755056E+03  0.47840755056E+03  0.00000000000E+00 0.  1.
         25    2    1    2    0    0 -0.11167140174E+03 -0.93847684562E+02 -0.22308635011E+03  0.29444131167E+03  0.12510106533E+03 0.  0.
          5    1    3    3  502    0 -0.49547025219E+02 -0.87016445237E+01 -0.16804125943E+03  0.17545929328E+03  0.41800000000E+01 0. -1.
         -5    1    3    3    0  502 -0.62124376523E+02 -0.85146040038E+02 -0.55045090677E+02  0.11898201839E+03  0.41800000000E+01 0. -1.
        -11    1    1    2    0    0  0.73341551694E+02  0.97375746857E+02 -0.80919611758E+02  0.14631815625E+03  0.00000000000E+00 0.  1.
         11    1    1    2    0    0  0.38329850048E+02 -0.35280622946E+01 -0.10253125651E+03  0.10951841484E+03  0.00000000000E+00 0. -1.
</event>
<event>
 7    1  0.2714042E-009  0.9698977E+02  0.7561462E-02  0.1286756E+00
          2   -1    0    0  501    0  0.00000000000E+00  0.00000000000E+00  0.11151243894E+03  0.11151243894E+03  0.00000000000E+00 0. -1.
         -2   -1    0    0    0  501 -0.00000000000E+00 -0.00000000000E+00 -0.16192881018E+03  0.16192881018E+03  0.00000000000E+00 0.  1.
         25    2    1    2    0    0 -0.65106449803E+02  0.26191814655E+02  0.92728315858E+01  0.14372990324E+03  0.12508972268E+03 0.  0.
          5    1    3    3  502    0  0.24355494039E+02  0.97572278400E+01  0.39661496404E+02  0.47737828627E+02  0.41800000000E+01 0. -1.
         -5    1    3    3    0  502 -0.89461943842E+02  0.16434586815E+02 -0.30388664819E+02  0.95992074617E+02  0.41800000000E+01 0. -1.
        -11    1    1    2    0    0  0.50680451222E+02 -0.52845924053E+01 -0.81575287738E+02  0.96181924614E+02  0.00000000000E+00 0.  1.
         11    1    1    2    0    0  0.14425998581E+02 -0.20907222250E+02  0.21886084911E+02  0.33529421260E+02  0.00000000000E+00 0. -1.
</event>
<event>
 7    1  0.2714042E-009  0.1080344E+03  0.7561462E-02  0.1264254E+00
          2   -1    0    0  501    0  0.00000000000E+00  0.00000000000E+00  0.53829283666E+03  0.53829283666E+03  0.00000000000E+00 0. -1.
         -2   -1    0    0    0  501 -0.00000000000E+00 -0.00000000000E+00 -0.25834995130E+02  0.25834995130E+02  0.00000000000E+00 0.  1.
         25    2    1    2    0    0  0.22022441512E+02 -0.23265033362E+02  0.40829903280E+03  0.42823032221E+03  0.12508740533E+03 0.  0.
          5    1    3    3  502    0  0.73415096788E+02 -0.24153315933E+02  0.23465417981E+03  0.24708948907E+03  0.41800000000E+01 0. -1.
         -5    1    3    3    0  502 -0.51392655276E+02  0.88828257030E+00  0.17364485299E+03  0.18114083314E+03  0.41800000000E+01 0. -1.
        -11    1    1    2    0    0 -0.39455455294E+02 -0.17198161615E+02  0.47019927011E+02  0.63744672338E+02  0.00000000000E+00 0. -1.
         11    1    1    2    0    0  0.17433013782E+02  0.40463194977E+02  0.57138881722E+02  0.72152837239E+02  0.00000000000E+00 0.  1.
</event>
<event>
 7    1  0.2714042E-009  0.1224793E+03  0.7561462E-02  0.1239062E+00
         -2   -1    0    0    0  501 -0.00000000000E+00  0.00000000000E+00  0.64825807329E+02  0.64825807329E+02  0.00000000000E+00 0.  1.
          2   -1    0    0  501    0  0.00000000000E+00 -0.00000000000E+00 -0.44310894428E+03  0.44310894428E+03  0.00000000000E+00 0. -1.
         25    2    1    2    0    0 -0.11716086993E+03  0.73851768555E+01 -0.11761564711E+03  0.20799991877E+03  0.12509722413E+03 0.  0.
          5    1    3    3  502    0 -0.60539756675E+02  0.13403104647E+02  0.14726785334E+02  0.63867487493E+02  0.41800000000E+01 0.  1.
         -5    1    3    3    0  502 -0.56621113253E+02 -0.60179277915E+01 -0.13234243245E+03  0.14413243128E+03  0.41800000000E+01 0.  1.
        -11    1    1    2    0    0  0.42193815811E+02  0.18959219609E+02 -0.27998406786E+02  0.54071072520E+02  0.00000000000E+00 0.  1.
         11    1    1    2    0    0  0.74967054116E+02 -0.26344396465E+02 -0.23266908306E+03  0.24586376032E+03  0.00000000000E+00 0. -1.
</event>
<event>
 7    1  0.2714042E-009  0.1895103E+03  0.7561462E-02  0.1158904E+00
          2   -1    0    0  501    0  0.00000000000E+00  0.00000000000E+00  0.95934951840E+02  0.95934951840E+02  0.00000000000E+00 0.  1.
         -2   -1    0    0    0  501 -0.00000000000E+00 -0.00000000000E+00 -0.40624087626E+03  0.40624087626E+03  0.00000000000E+00 0. -1.
         25    2    1    2    0    0  0.12582309704E+03  0.10143775445E+03 -0.10292963992E+03  0.22882932737E+03  0.12508909031E+03 0.  0.
          5    1    3    3  502    0  0.83515132665E+02  0.12655026389E+03 -0.94576108242E+02  0.17875083028E+03  0.41800000000E+01 0. -1.
         -5    1    3    3    0  502  0.42307964372E+02 -0.25112509440E+02 -0.83535316795E+01  0.50078497094E+02  0.41800000000E+01 0. -1.
        -11    1    1    2    0    0 -0.52470173264E+02 -0.89354100976E+02 -0.11577294590E+03  0.15537261485E+03  0.00000000000E+00 0.  1.
         11    1    1    2    0    0 -0.73352923772E+02 -0.12083653471E+02 -0.91603338600E+02  0.11797388588E+03  0.00000000000E+00 0. -1.
</event>
<event>
 7    1  0.2714042E-009  0.2953762E+03  0.7561462E-02  0.1087575E+00
         -2   -1    0    0    0  501 -0.00000000000E+00  0.00000000000E+00  0.11930774011E+03  0.11930774011E+03  0.00000000000E+00 0.  1.
          2   -1    0    0  501    0  0.00000000000E+00 -0.00000000000E+00 -0.89241920672E+03  0.89241920672E+03  0.00000000000E+00 0. -1.
         25    2    1    2    0    0  0.28299855915E+03  0.56598465295E+02 -0.55903949439E+03  0.64145479203E+03  0.12509006027E+03 0.  0.
          5    1    3    3  502    0  0.19554752318E+03  0.80050001594E+02 -0.29960712182E+03  0.36664524601E+03  0.41800000000E+01 0.  1.
         -5    1    3    3    0  502  0.87451035972E+02 -0.23451536299E+02 -0.25943237258E+03  0.27480954603E+03  0.41800000000E+01 0.  1.
        -11    1    1    2    0    0 -0.12173313634E+03 -0.19307324762E+02 -0.38849094201E+02  0.12923227690E+03  0.00000000000E+00 0.  1.
         11    1    1    2    0    0 -0.16126542280E+03 -0.37291140534E+02 -0.17522287801E+03  0.24103987789E+03  0.00000000000E+00 0. -1.
</event>
<event>
 7    1  0.2714042E-009  0.1201861E+03  0.7561462E-02  0.1242790E+00
         -2   -1    0    0    0  501 -0.00000000000E+00  0.00000000000E+00  0.23390960267E+02  0.23390960267E+02  0.00000000000E+00 0.  1.
          2   -1    0    0  501    0  0.00000000000E+00 -0.00000000000E+00 -0.11040424903E+04  0.11040424903E+04  0.00000000000E+00 0. -1.
         25    2    1    2    0    0 -0.58423737840E+02  0.26462709735E+02 -0.92204391030E+03  0.93269855021E+03  0.12509198574E+03 0.  0.
          5    1    3    3  502    0 -0.64963111696E+02  0.66754415176E+02 -0.49636319266E+03  0.50504479926E+03  0.41800000000E+01 0.  1.
         -5    1    3    3    0  502  0.65393738565E+01 -0.40291705441E+02 -0.42568071763E+03  0.42765375095E+03  0.41800000000E+01 0.  1.
        -11    1    1    2    0    0  0.36504535794E+02  0.28897220120E+02 -0.37499006444E+02  0.59781317721E+02  0.00000000000E+00 0. -1.
         11    1    1    2    0    0  0.21919202046E+02 -0.55359929855E+02 -0.12110861326E+03  0.13495358261E+03  0.00000000000E+00 0.  1.
</event>
<event>
 7    1  0.2714042E-009  0.1077769E+03  0.7561462E-02  0.1264743E+00
          1   -1    0    0  501    0  0.00000000000E+00  0.00000000000E+00  0.47374990539E+03  0.47374990539E+03  0.00000000000E+00 0. -1.
         -1   -1    0    0    0  501 -0.00000000000E+00 -0.00000000000E+00 -0.61473753256E+02  0.61473753256E+02  0.00000000000E+00 0.  1.
         25    2    1    2    0    0 -0.15363224275E+02  0.78772518501E+02  0.38242577193E+03  0.41029123524E+03  0.12509311869E+03 0.  0.
          5    1    3    3  502    0 -0.43518524707E+01  0.91086091122E+02  0.38250964261E+03  0.39325146370E+03  0.41800000000E+01 0. -1.
         -5    1    3    3    0  502 -0.11011371804E+02 -0.12313572620E+02 -0.83870675230E-01  0.17039771535E+02  0.41800000000E+01 0. -1.
        -11    1    1    2    0    0  0.22961403600E+02 -0.90437679084E+02  0.45649144997E+02  0.10387513799E+03  0.00000000000E+00 0. -1.
         11    1    1    2    0    0 -0.75981793249E+01  0.11665160583E+02 -0.15798764791E+02  0.21057285423E+02  0.00000000000E+00 0.  1.
</event>
<event>
 7    1  0.2714042E-009  0.1353262E+03  0.7561462E-02  0.1219760E+00
         -2   -1    0    0    0  501 -0.00000000000E+00  0.00000000000E+00  0.50327203486E+02  0.50327203486E+02  0.00000000000E+00 0.  1.
          2   -1    0    0  501    0  0.00000000000E+00 -0.00000000000E+00 -0.38331598136E+03  0.38331598136E+03  0.00000000000E+00 0. -1.
         25    2    1    2    0    0  0.99622719218E+01  0.80620962079E+02 -0.13460298176E+03  0.20091189314E+03  0.12509452312E+03 0.  0.
          5    1    3    3  502    0  0.43700776036E+02  0.10046028514E+03 -0.94858606830E+02  0.14497466816E+03  0.41800000000E+01 0. -1.
         -5    1    3    3    0  502 -0.33738504114E+02 -0.19839323064E+02 -0.39744374934E+02  0.55937224980E+02  0.41800000000E+01 0. -1.
        -11    1    1    2    0    0 -0.49904529676E+02 -0.34631237025E+02 -0.10149487023E+03  0.11828352946E+03  0.00000000000E+00 0.  1.
         11    1    1    2    0    0  0.39942257754E+02 -0.45989725054E+02 -0.96890925882E+02  0.11444776225E+03  0.00000000000E+00 0. -1.
</event>
<event>
 7    1  0.2714042E-009  0.7443088E+02  0.7561462E-02  0.1345643E+00
          1   -1    0    0  501    0  0.00000000000E+00  0.00000000000E+00  0.22009245638E+03  0.22009245638E+03  0.00000000000E+00 0. -1.
         -1   -1    0    0    0  501 -0.00000000000E+00 -0.00000000000E+00 -0.63859153796E+02  0.63859153796E+02  0.00000000000E+00 0.  1.
         25    2    1    2    0    0 -0.34241452765E+02  0.28353133619E+02  0.11604091816E+03  0.17631836102E+03  0.12508514090E+03 0.  0.
          5    1    3    3  502    0  0.75714789824E+01  0.55607109882E+01 -0.25194543330E+02  0.27211876346E+02  0.41800000000E+01 0. -1.
         -5    1    3    3    0  502 -0.41812931747E+02  0.22792422631E+02  0.14123546149E+03  0.14910648468E+03  0.41800000000E+01 0. -1.
        -11    1    1    2    0    0  0.57972664740E+02 -0.32833074955E+02  0.75829911972E+01  0.67054771818E+02  0.00000000000E+00 0.  1.
         11    1    1    2    0    0 -0.23731211975E+02  0.44799413356E+01  0.32609393227E+02  0.40578477335E+02  0.00000000000E+00 0. -1.
</event>
<event>
 7    1  0.2714042E-009  0.9739523E+02  0.7561462E-02  0.1285871E+00
          2   -1    0    0  501    0  0.00000000000E+00  0.00000000000E+00  0.36456836925E+03  0.36456836925E+03  0.00000000000E+00 0. -1.
         -2   -1    0    0    0  501 -0.00000000000E+00 -0.00000000000E+00 -0.32818806113E+02  0.32818806113E+02  0.00000000000E+00 0.  1.
         25    2    1    2    0    0 -0.74713132315E+01  0.92406309479E+00  0.15525006965E+03  0.19951744710E+03  0.12509177893E+03 0.  0.
          5    1    3    3  502    0 -0.52180158225E+01 -0.60067381612E+02  0.53108039329E+02  0.80456536491E+02  0.41800000000E+01 0.  1.
         -5    1    3    3    0  502 -0.22532974090E+01  0.60991444706E+02  0.10214203033E+03  0.11906091061E+03  0.41800000000E+01 0.  1.
        -11    1    1    2    0    0 -0.32795222049E+02  0.15666670941E+01  0.25495141104E+02  0.41569017970E+02  0.00000000000E+00 0.  1.
         11    1    1    2    0    0  0.40266535281E+02 -0.24907301889E+01  0.15100435237E+03  0.15630071029E+03  0.00000000000E+00 0. -1.
</event>
<event>
 7    1  0.2714042E-009  0.1026899E+03  0.7561462E-02  0.1274739E+00
          2   -1    0    0  501    0  0.00000000000E+00  0.00000000000E+00  0.38503612601E+03  0.38503612601E+03  0.00000000000E+00 0. -1.
         -2   -1    0    0    0  501 -0.00000000000E+00 -0.00000000000E+00 -0.39839940756E+02  0.39839940756E+02  0.00000000000E+00 0.  1.
         25    2    1    2    0    0 -0.17183632933E+02  0.54066556732E+02  0.22852366244E+03  0.26662584816E+03  0.12509120199E+03 0.  0.
          5    1    3    3  502    0  0.22950741110E+02  0.56405624968E+02  0.38087694455E+02  0.71947730433E+02  0.41800000000E+01 0. -1.
         -5    1    3    3    0  502 -0.40134374043E+02 -0.23390682365E+01  0.19043596798E+03  0.19467811773E+03  0.41800000000E+01 0. -1.
        -11    1    1    2    0    0  0.38462253254E+02  0.71418654202E+01  0.26669100768E+02  0.47345454933E+02  0.00000000000E+00 0.  1.
         11    1    1    2    0    0 -0.21278620322E+02 -0.61208422152E+02  0.90003422053E+02  0.11090476368E+03  0.00000000000E+00 0. -1.
</event>
<event>
 7    1  0.2714042E-009  0.9668045E+02  0.7561462E-02  0.1287436E+00
         -1   -1    0    0    0  501 -0.00000000000E+00  0.00000000000E+00  0.59714746297E+03  0.59714746297E+03  0.00000000000E+00 0.  1.
          1   -1    0    0  501    0  0.00000000000E+00 -0.00000000000E+00 -0.25645621053E+02  0.25645621053E+02  0.00000000000E+00 0. -1.
         25    2    1    2    0    0  0.24216697926E+02 -0.57341036574E+02  0.32587983129E+03  0.35456952833E+03  0.12508973997E+03 0.  0.
          5    1    3    3  502    0  0.70696519330E+02 -0.29710849077E+02  0.24835024692E+03  0.25995393811E+03  0.41800000000E+01 0. -1.
         -5    1    3    3    0  502 -0.46479821404E+02 -0.27630187498E+02  0.77529584376E+02  0.94615590219E+02  0.41800000000E+01 0. -1.
        -11    1    1    2    0    0 -0.38400527096E+01  0.12442133014E+02 -0.41225873849E+01  0.13658272420E+02  0.00000000000E+00 0. -1.
         11    1    1    2    0    0 -0.20376645216E+02  0.44898903560E+02  0.24974459801E+03  0.25456528327E+03  0.00000000000E+00 0.  1.
</event>
<event>
 7    1  0.2714042E-009  0.1264521E+03  0.7561462E-02  0.1232817E+00
         -2   -1    0    0    0  501 -0.00000000000E+00  0.00000000000E+00  0.81733869191E+03  0.81733869191E+03  0.00000000000E+00 0.  1.
          2   -1    0    0  501    0  0.00000000000E+00 -0.00000000000E+00 -0.21786465545E+02  0.21786465545E+02  0.00000000000E+00 0. -1.
         25    2    1    2    0    0 -0.63636820413E+02  0.20955519907E+02  0.31093783138E+03  0.34178812836E+03  0.12509201006E+03 0.  0.
          5    1    3    3  502    0 -0.10051407208E+03  0.27210881714E+02  0.23244179994E+03  0.25473549719E+03  0.41800000000E+01 0. -1.
         -5    1    3    3    0  502  0.36877251671E+02 -0.62553618065E+01  0.78496031444E+02  0.87052631176E+02  0.41800000000E+01 0. -1.
        -11    1    1    2    0    0  0.63289599747E+02 -0.50830275610E+02  0.37784880652E+03  0.38646993537E+03  0.00000000000E+00 0.  1.
         11    1    1    2    0    0  0.34722066646E+00  0.29874755703E+02  0.10676558847E+03  0.11086709373E+03  0.00000000000E+00 0. -1.
</event>
<event>
 7    1  0.2714042E-009  0.7881761E+02  0.7561462E-02  0.1332441E+00
         -2   -1    0    0    0  501 -0.00000000000E+00  0.00000000000E+00  0.68411904131E+02  0.68411904131E+02  0.00000000000E+00 0.  1.
          2   -1    0    0  501    0  0.00000000000E+00 -0.00000000000E+00 -0.20927405753E+03  0.20927405753E+03  0.00000000000E+00 0. -1.
         25    2    1    2    0    0 -0.30168073413E+02  0.33533060340E+02 -0.54301547574E+02  0.14365066522E+03  0.12510905946E+03 0.  0.
          5    1    3    3  502    0 -0.14186893547E+02  0.37513880265E+02 -0.93011094970E+02  0.10137600973E+03  0.41800000000E+01 0.  1.
         -5    1    3    3    0  502 -0.15981179866E+02 -0.39808199247E+01  0.38709547395E+02  0.42274655489E+02  0.41800000000E+01 0.  1.
        -11    1    1    2    0    0  0.11124614420E+02 -0.63689324887E+02 -0.67995665872E+02  0.93826956297E+02  0.00000000000E+00 0. -1.
         11    1    1    2    0    0  0.19043458993E+02  0.30156264547E+02 -0.18564939954E+02  0.40208340146E+02  0.00000000000E+00 0.  1.
</event>
<event>
 7    1  0.2714042E-009  0.5455679E+03  0.7561462E-02  0.1002525E+00
         -1   -1    0    0    0  501 -0.00000000000E+00  0.00000000000E+00  0.26971426559E+03  0.26971426559E+03  0.00000000000E+00 0.  1.
          1   -1    0    0  501    0  0.00000000000E+00 -0.00000000000E+00 -0.11528044708E+04  0.11528044708E+04  0.00000000000E+00 0. -1.
         25    2    1    2    0    0  0.85686262590E+02 -0.53817796372E+03 -0.38444417404E+03  0.67854480884E+03  0.12509227963E+03 0.  0.
          5    1    3    3  502    0  0.60857260461E+02 -0.27577809564E+03 -0.27146183778E+03  0.39174757939E+03  0.41800000000E+01 0. -1.
         -5    1    3    3    0  502  0.24829002129E+02 -0.26239986808E+03 -0.11298233625E+03  0.28679722945E+03  0.41800000000E+01 0. -1.
        -11    1    1    2    0    0 -0.64656764717E+02  0.43588748676E+03 -0.35222917794E+03  0.56413100618E+03  0.00000000000E+00 0.  1.
         11    1    1    2    0    0 -0.21029497873E+02  0.10229047696E+03 -0.14641685325E+03  0.17984292139E+03  0.00000000000E+00 0. -1.
</event>
<event>
 7    1  0.2714042E-009  0.1030459E+03  0.7561462E-02  0.1274018E+00
          3   -1    0    0  501    0  0.00000000000E+00  0.00000000000E+00  0.54465571499E+02  0.54465571499E+02  0.00000000000E+00 0. -1.
         -3   -1    0    0    0  501 -0.00000000000E+00 -0.00000000000E+00 -0.34850789603E+03  0.34850789603E+03  0.00000000000E+00 0.  1.
         25    2    1    2    0    0  0.58733564880E+01  0.67594340911E+02 -0.23662349037E+03  0.27611979747E+03  0.12509186674E+03 0.  0.
          5    1    3    3  502    0 -0.24053128259E+02 -0.11547572503E+02 -0.15881570147E+03  0.16109562018E+03  0.41800000000E+01 0. -1.
         -5    1    3    3    0  502  0.29926484747E+02  0.79141913414E+02 -0.77807788898E+02  0.11502417729E+03  0.41800000000E+01 0. -1.
        -11    1    1    2    0    0  0.29269019054E+02 -0.21063589179E+02 -0.58283421903E+02  0.68536906366E+02  0.00000000000E+00 0.  1.
         11    1    1    2    0    0 -0.35142375542E+02 -0.46530751732E+02  0.86458773506E+00  0.58316763692E+02  0.00000000000E+00 0. -1.
</event>
<event>
 7    1  0.2714042E-009  0.2018866E+03  0.7561462E-02  0.1148157E+00
         -1   -1    0    0    0  501 -0.00000000000E+00  0.00000000000E+00  0.98848976110E+02  0.98848976110E+02  0.00000000000E+00 0.  1.
          1   -1    0    0  501    0  0.00000000000E+00 -0.00000000000E+00 -0.50687935328E+03  0.50687935328E+03  0.00000000000E+00 0. -1.
         25    2    1    2    0    0  0.14083420396E+03 -0.10434590598E+03 -0.32845704107E+03  0.39275132100E+03  0.12508889328E+03 0.  0.
          5    1    3    3  502    0 -0.14148259529E+02 -0.42884774266E+02 -0.10088977821E+03  0.11061418019E+03  0.41800000000E+01 0.  1.
         -5    1    3    3    0  502  0.15498246349E+03 -0.61461131713E+02 -0.22756726285E+03  0.28213714081E+03  0.41800000000E+01 0.  1.
        -11    1    1    2    0    0 -0.13934201076E+03  0.11513410638E+03 -0.59776111902E+02  0.19038183203E+03  0.00000000000E+00 0.  1.
         11    1    1    2    0    0 -0.14921932054E+01 -0.10788200401E+02 -0.19797224200E+02  0.22595176354E+02  0.00000000000E+00 0. -1.
</event>
<event>
 7    1  0.2714042E-009  0.1076266E+03  0.7561462E-02  0.1265029E+00
         -2   -1    0    0    0  501 -0.00000000000E+00  0.00000000000E+00  0.54549815881E+02  0.54549815881E+02  0.00000000000E+00 0.  1.
          2   -1    0    0  501    0  0.00000000000E+00 -0.00000000000E+00 -0.30931123087E+03  0.30931123087E+03  0.00000000000E+00 0. -1.
         25    2    1    2    0    0  0.61321747999E+02 -0.36600124625E+02 -0.14584295012E+03  0.20498127457E+03  0.12508889208E+03 0.  0.
          5    1    3    3  502    0  0.18169619961E+02  0.22698904541E+02 -0.12531221434E+03  0.12870896946E+03  0.41800000000E+01 0.  1.
         -5    1    3    3    0  502  0.43152128038E+02 -0.59299029166E+02 -0.20530735779E+02  0.76272305104E+02  0.41800000000E+01 0.  1.
        -11    1    1    2    0    0 -0.81061275977E+02  0.13738170000E+02 -0.61562755715E+02  0.10271144371E+03  0.00000000000E+00 0.  1.
         11    1    1    2    0    0  0.19739527978E+02  0.22861954624E+02 -0.47355709150E+02  0.56168328470E+02  0.00000000000E+00 0. -1.
</event>
<event>
 7    1  0.2714042E-009  0.1312075E+03  0.7561462E-02  0.1225675E+00
         -1   -1    0    0    0  501 -0.00000000000E+00  0.00000000000E+00  0.16583296058E+03  0.16583296058E+03  0.00000000000E+00 0.  1.
          1   -1    0    0  501    0  0.00000000000E+00 -0.00000000000E+00 -0.13266014222E+03  0.13266014222E+03  0.00000000000E+00 0. -1.
         25    2    1    2    0    0  0.93368974849E+02 -0.30904957397E+02  0.43385168356E+02  0.16493496244E+03  0.12509351360E+03 0.  0.
          5    1    3    3  502    0 -0.23107758722E+02  0.10473838377E+02  0.31535679549E+02  0.40689572229E+02  0.41800000000E+01 0.  1.
         -5    1    3    3    0  502  0.11647673357E+03 -0.41378795774E+02  0.11849488807E+02  0.12424539021E+03  0.41800000000E+01 0.  1.
        -11    1    1    2    0    0 -0.21928011263E+02  0.35180029158E+02 -0.38525633271E+02  0.56592371822E+02  0.00000000000E+00 0. -1.
         11    1    1    2    0    0 -0.71440963586E+02 -0.42750717605E+01  0.28313283280E+02  0.76965768539E+02  0.00000000000E+00 0.  1.
</event>
<event>
 7    1  0.2714042E-009  0.1050949E+03  0.7561462E-02  0.1269933E+00
          1   -1    0    0  501    0  0.00000000000E+00  0.00000000000E+00  0.86839061291E+03  0.86839061291E+03  0.00000000000E+00 0. -1.
         -1   -1    0    0    0  501 -0.00000000000E+00 -0.00000000000E+00 -0.29175099284E+02  0.29175099284E+02  0.00000000000E+00 0.  1.
         25    2    1    2    0    0  0.59038401763E+02  0.24725131436E+02  0.72352869638E+03  0.73704649108E+03  0.12508753144E+03 0.  0.
          5    1    3    3  502    0  0.73755426230E+02 -0.28402406309E+02  0.31485643357E+03  0.32465151431E+03  0.41800000000E+01 0.  1.
         -5    1    3    3    0  502 -0.14717024468E+02  0.53127537744E+02  0.40867226281E+03  0.41239497677E+03  0.41800000000E+01 0.  1.
        -11    1    1    2    0    0 -0.15265252562E+02  0.11359954122E+02  0.99813322283E+02  0.10161090394E+03  0.00000000000E+00 0. -1.
         11    1    1    2    0    0 -0.43773149200E+02 -0.36085085558E+02  0.15873494964E+02  0.58908317180E+02  0.00000000000E+00 0.  1.
</event>
<event>
 7    1  0.2714042E-009  0.2382568E+03  0.7561462E-02  0.1120960E+00
          2   -1    0    0  501    0  0.00000000000E+00  0.00000000000E+00  0.18214036958E+04  0.18214036958E+04  0.00000000000E+00 0. -1.
         -2   -1    0    0    0  501 -0.00000000000E+00 -0.00000000000E+00 -0.34209139960E+02  0.34209139960E+02  0.00000000000E+00 0.  1.
         25    2    1    2    0    0  0.67132687951E+02  0.21313558675E+03  0.10291554989E+04  0.10605384981E+04  0.12508912336E+03 0.  0.
          5    1    3    3  502    0  0.93695335175E+02  0.15096078350E+03  0.86290931226E+03  0.88102095751E+03  0.41800000000E+01 0. -1.
         -5    1    3    3    0  502 -0.26562647224E+02  0.62174803250E+02  0.16624618669E+03  0.17951754058E+03  0.41800000000E+01 0. -1.
        -11    1    1    2    0    0  0.10332321965E+02 -0.41094380534E+02  0.24074183111E+03  0.24444249678E+03  0.00000000000E+00 0. -1.
         11    1    1    2    0    0 -0.77465009916E+02 -0.17204120621E+03  0.51729722579E+03  0.55063184089E+03  0.00000000000E+00 0.  1.
</event>
<event>
 7    1  0.2714042E-009  0.1391019E+03  0.7561462E-02  0.1214543E+00
          2   -1    0    0  501    0  0.00000000000E+00  0.00000000000E+00  0.78765866782E+03  0.78765866782E+03  0.00000000000E+00 0. -1.
         -2   -1    0    0    0  501 -0.00000000000E+00 -0.00000000000E+00 -0.52716751630E+02  0.52716751630E+02  0.00000000000E+00 0.  1.
         25    2    1    2    0    0  0.30140391664E+02  0.93283058829E+02  0.67593729516E+03  0.69436925865E+03  0.12508904063E+03 0.  0.
          5    1    3    3  502    0 -0.43054999164E+02  0.59909233745E+02  0.40597368704E+03  0.41264386123E+03  0.41800000000E+01 0.  1.
         -5    1    3    3    0  502  0.73195390828E+02  0.33373825084E+02  0.26996360812E+03  0.28172539742E+03  0.41800000000E+01 0.  1.
        -11    1    1    2    0    0 -0.37993103830E+02 -0.89168446037E+01 -0.56402289871E+01  0.39430929984E+02  0.00000000000E+00 0.  1.
         11    1    1    2    0    0  0.78527121663E+01 -0.84366214226E+02  0.64644850017E+02  0.10657523082E+03  0.00000000000E+00 0. -1.
</event>
<event>
 7    1  0.2714042E-009  0.1402962E+03  0.7561462E-02  0.1212931E+00
         -1   -1    0    0    0  501 -0.00000000000E+00  0.00000000000E+00  0.99292326135E+02  0.99292326135E+02  0.00000000000E+00 0.  1.
          1   -1    0    0  501    0  0.00000000000E+00 -0.00000000000E+00 -0.34902312623E+03  0.34902312623E+03  0.00000000000E+00 0. -1.
         25    2    1    2    0    0 -0.94219284062E+02 -0.94189229976E+02 -0.22027485777E+03  0.28620975840E+03  0.12508448467E+03 0.  0.
          5    1    3    3  502    0 -0.90782025221E+02 -0.84886914714E+02 -0.85285508763E+02  0.15079209130E+03  0.41800000000E+01 0.  1.
         -5    1    3    3    0  502 -0.34372588416E+01 -0.93023152620E+01 -0.13498934901E+03  0.13541766710E+03  0.41800000000E+01 0.  1.
        -11    1    1    2    0    0 -0.40900760914E+01  0.24818007639E+02  0.19882371830E+02  0.32061985827E+02  0.00000000000E+00 0.  1.
         11    1    1    2    0    0  0.98309360154E+02  0.69371222337E+02 -0.49338314150E+02  0.13004370814E+03  0.00000000000E+00 0. -1.
</event>
<event>
 7    1  0.2714042E-009  0.1079028E+03  0.7561462E-02  0.1264504E+00
          1   -1    0    0  501    0  0.00000000000E+00  0.00000000000E+00  0.15452748278E+04  0.15452748278E+04  0.00000000000E+00 0. -1.
         -1   -1    0    0    0  501 -0.00000000000E+00 -0.00000000000E+00 -0.17518889521E+02  0.17518889521E+02  0.00000000000E+00 0.  1.
         25    2    1    2    0    0 -0.61643303123E+02  0.49258797586E+02  0.12648740694E+04  0.12734910920E+04  0.12508726520E+03 0.  0.
          5    1    3    3  502    0 -0.69092840361E+02 -0.11600436411E+02  0.95537547224E+03  0.95794997577E+03  0.41800000000E+01 0.  1.
         -5    1    3    3    0  502  0.74495372382E+01  0.60859233997E+02  0.30949859718E+03  0.31554111622E+03  0.41800000000E+01 0.  1.
        -11    1    1    2    0    0  0.39680034438E+02 -0.12966953249E+02  0.23467829311E+03  0.23836222072E+03  0.00000000000E+00 0. -1.
         11    1    1    2    0    0  0.21963268685E+02 -0.36291844337E+02  0.28203575734E+02  0.50940404601E+02  0.00000000000E+00 0.  1.
</event>
<event>
 7    1  0.2854623E-009  0.1443804E+03  0.7561462E-02  0.1207553E+00
         -1   -1    0    0    0  501 -0.00000000000E+00  0.00000000000E+00  0.18671094482E+02  0.18671094482E+02  0.00000000000E+00 0.  1.
          1   -1    0    0  501    0  0.00000000000E+00 -0.00000000000E+00 -0.12837261968E+04  0.12837261968E+04  0.00000000000E+00 0. -1.
         25    2    1    2    0    0 -0.56362501393E+02 -0.90305458136E+02 -0.80665542893E+03  0.82320730190E+03  0.12508186739E+03 0.  0.
          5    1    3    3  502    0  0.16839071079E+02 -0.71355975585E+02 -0.22592978550E+03  0.23756466476E+03  0.41800000000E+01 0.  1.
         -5    1    3    3    0  502 -0.73201572472E+02 -0.18949482551E+02 -0.58072564343E+03  0.58564263714E+03  0.41800000000E+01 0.  1.
        -11    1    1    2    0    0 -0.16924348854E+02  0.56328185281E+02 -0.19722326259E+03  0.20580649491E+03  0.00000000000E+00 0.  1.
         11    1    1    2    0    0  0.73286850247E+02  0.33977272855E+02 -0.26117641077E+03  0.27338349444E+03  0.00000000000E+00 0. -1.
</event>
<event>
 7    1  0.2714042E-009  0.1124696E+03  0.7561462E-02  0.1256064E+00
         -2   -1    0    0    0  501 -0.00000000000E+00  0.00000000000E+00  0.55524327000E+02  0.55524327000E+02  0.00000000000E+00 0.  1.
          2   -1    0    0  501    0  0.00000000000E+00 -0.00000000000E+00 -0.25631247748E+03  0.25631247748E+03  0.00000000000E+00 0. -1.
         25    2    1    2    0    0  0.15531347031E+02  0.38199531431E+02 -0.77363181906E+02  0.15274843198E+03  0.12508634864E+03 0.  0.
          5    1    3    3  502    0 -0.45341578063E+02 -0.13045567575E+02 -0.10003422787E+02  0.48410602166E+02  0.41800000000E+01 0. -1.
         -5    1    3    3    0  502  0.60872925094E+02  0.51245099006E+02 -0.67359759119E+02  0.10433782981E+03  0.41800000000E+01 0. -1.
        -11    1    1    2    0    0 -0.48033724306E+02 -0.39291444489E+00 -0.43037643882E+02  0.64495207910E+02  0.00000000000E+00 0.  1.
         11    1    1    2    0    0  0.32502377274E+02 -0.37806616986E+02 -0.80387324695E+02  0.94593164595E+02  0.00000000000E+00 0. -1.
</event>
<event>
 7    1  0.2714042E-009  0.1415472E+03  0.7561462E-02  0.1211262E+00
         -1   -1    0    0    0  501 -0.00000000000E+00  0.00000000000E+00  0.59287319213E+02  0.59287319213E+02  0.00000000000E+00 0.  1.
          1   -1    0    0  501    0  0.00000000000E+00 -0.00000000000E+00 -0.45778633138E+03  0.45778633138E+03  0.00000000000E+00 0. -1.
         25    2    1    2    0    0 -0.89014667081E+01  0.10522683224E+03 -0.11117038333E+03  0.19788560136E+03  0.12509170540E+03 0.  0.
          5    1    3    3  502    0 -0.54805711742E+02  0.65908499526E+02 -0.10698924065E+03  0.13715599281E+03  0.41800000000E+01 0. -1.
         -5    1    3    3    0  502  0.45904245034E+02  0.39318332717E+02 -0.41811426796E+01  0.60729608543E+02  0.41800000000E+01 0. -1.
        -11    1    1    2    0    0  0.42267661901E+02 -0.91153069883E+02 -0.18322935345E+03  0.20896993410E+03  0.00000000000E+00 0. -1.
         11    1    1    2    0    0 -0.33366195193E+02 -0.14073762359E+02 -0.10409927539E+03  0.11021811514E+03  0.00000000000E+00 0.  1.
</event>
<event>
 7    1  0.2874536E-009  0.1951979E+03  0.7561462E-02  0.1153855E+00
         -2   -1    0    0    0  501 -0.00000000000E+00  0.00000000000E+00  0.11601416969E+03  0.11601416969E+03  0.00000000000E+00 0.  1.
          2   -1    0    0  501    0  0.00000000000E+00 -0.00000000000E+00 -0.38832781178E+03  0.38832781178E+03  0.00000000000E+00 0. -1.
         25    2    1    2    0    0 -0.11387463856E+02  0.17624265279E+03 -0.89049562257E+02  0.23402881272E+03  0.12509401923E+03 0.  0.
          5    1    3    3  502    0  0.48794842174E+02  0.41050104283E+02 -0.49396328933E+02  0.80768294500E+02  0.41800000000E+01 0.  1.
         -5    1    3    3    0  502 -0.60182306031E+02  0.13519254851E+03 -0.39653233324E+02  0.15326051822E+03  0.41800000000E+01 0.  1.
        -11    1    1    2    0    0 -0.83014044910E+01 -0.51873025306E+02 -0.11648472555E+03  0.12778268802E+03  0.00000000000E+00 0. -1.
         11    1    1    2    0    0  0.19688868347E+02 -0.12436962749E+03 -0.66779354280E+02  0.14253048073E+03  0.00000000000E+00 0.  1.
</event>
<event>
 7    1  0.2714042E-009  0.1373775E+03  0.7561462E-02  0.1216902E+00
          1   -1    0    0  501    0  0.00000000000E+00  0.00000000000E+00  0.27667674336E+03  0.27667674336E+03  0.00000000000E+00 0. -1.
         -1   -1    0    0    0  501 -0.00000000000E+00 -0.00000000000E+00 -0.77044329651E+02  0.77044329651E+02  0.00000000000E+00 0.  1.
         25    2    1    2    0    0 -0.89696189657E+02 -0.35465947056E+02  0.13220624249E+03  0.20599255901E+03  0.12510477199E+03 0.  0.
          5    1    3    3  502    0 -0.57905856237E+02  0.43402949908E+02  0.67603882171E+02  0.99119430647E+02  0.41800000000E+01 0. -1.
         -5    1    3    3    0  502 -0.31790333420E+02 -0.78868896963E+02  0.64602360321E+02  0.10687312836E+03  0.41800000000E+01 0. -1.
        -11    1    1    2    0    0  0.64798233892E+02  0.55386905120E+02  0.76541208578E+02  0.11456472836E+03  0.00000000000E+00 0. -1.
         11    1    1    2    0    0  0.24897955766E+02 -0.19920958065E+02 -0.91150373628E+01  0.33163785635E+02  0.00000000000E+00 0.  1.
</event>
<event>
 7    1  0.2714042E-009  0.5215030E+03  0.7561462E-02  0.1008314E+00
         -1   -1    0    0    0  501 -0.00000000000E+00  0.00000000000E+00  0.36486762583E+03  0.36486762583E+03  0.00000000000E+00 0.  1.
          1   -1    0    0  501    0  0.00000000000E+00 -0.00000000000E+00 -0.94945582013E+03  0.94945582013E+03  0.00000000000E+00 0. -1.
         25    2    1    2    0    0  0.38299919182E+03  0.35091704043E+03 -0.10038687567E+02  0.53439696857E+03  0.12509274385E+03 0.  0.
          5    1    3    3  502    0  0.22284123279E+03  0.19029393525E+03  0.55457241563E+02  0.29826661709E+03  0.41800000000E+01 0.  1.
         -5    1    3    3    0  502  0.16015795903E+03  0.16062310518E+03 -0.65495929130E+02  0.23613035148E+03  0.41800000000E+01 0.  1.
        -11    1    1    2    0    0 -0.29942795348E+03 -0.30629073014E+03 -0.50619309392E+03  0.66310071559E+03  0.00000000000E+00 0. -1.
         11    1    1    2    0    0 -0.83571238342E+02 -0.44626310294E+02 -0.68356412817E+02  0.11682576181E+03  0.00000000000E+00 0.  1.
</event>
<event>
 7    1  0.2714042E-009  0.1332054E+03  0.7561462E-02  0.1222776E+00
          1   -1    0    0  501    0  0.00000000000E+00  0.00000000000E+00  0.22825945853E+03  0.22825945853E+03  0.00000000000E+00 0. -1.
         -1   -1    0    0    0  501 -0.00000000000E+00 -0.00000000000E+00 -0.11625295917E+03  0.11625295917E+03  0.00000000000E+00 0.  1.
         25    2    1    2    0    0 -0.92725262743E+02 -0.73047428704E+02  0.80224578629E+02  0.18978248823E+03  0.12509000212E+03 0.  0.
          5    1    3    3  502    0  0.84387044537E+01 -0.32190601423E+02  0.73029140912E+02  0.80362767344E+02  0.41800000000E+01 0. -1.
         -5    1    3    3    0  502 -0.10116396720E+03 -0.40856827281E+02  0.71954377177E+01  0.10941972088E+03  0.41800000000E+01 0. -1.
        -11    1    1    2    0    0  0.84477667408E+02  0.47660059724E+02  0.61449192151E+02  0.11482143005E+03  0.00000000000E+00 0. -1.
         11    1    1    2    0    0  0.82475953348E+01  0.25387368980E+02 -0.29667271419E+02  0.39908499420E+02  0.00000000000E+00 0.  1.
</event>
<event>
 7    1  0.2714042E-009  0.1145745E+03  0.7561462E-02  0.1252326E+00
          2   -1    0    0  501    0  0.00000000000E+00  0.00000000000E+00  0.49654195848E+03  0.49654195848E+03  0.00000000000E+00 0. -1.
         -2   -1    0    0    0  501 -0.00000000000E+00 -0.00000000000E+00 -0.30089743231E+02  0.30089743231E+02  0.00000000000E+00 0.  1.
         25    2    1    2    0    0 -0.49625836806E+02  0.26849047973E+02  0.24401746547E+03  0.27995540262E+03  0.12508760508E+03 0.  0.
          5    1    3    3  502    0  0.32013518603E+02 -0.85963194992E+01  0.13543721767E+03  0.13949722009E+03  0.41800000000E+01 0. -1.
         -5    1    3    3    0  502 -0.81639355409E+02  0.35445367472E+02  0.10858024780E+03  0.14045818253E+03  0.41800000000E+01 0. -1.
        -11    1    1    2    0    0  0.49899556635E+02 -0.57416700193E+02  0.15829328341E+03  0.17562291077E+03  0.00000000000E+00 0. -1.
         11    1    1    2    0    0 -0.27371982886E+00  0.30567652221E+02  0.64141466360E+02  0.71053388319E+02  0.00000000000E+00 0.  1.
</event>
<event>
 7    1  0.2714042E-009  0.7659476E+02  0.7561462E-02  0.1339002E+00
          2   -1    0    0  501    0  0.00000000000E+00  0.00000000000E+00  0.63127717052E+02  0.63127717052E+02  0.00000000000E+00 0. -1.
         -2   -1    0    0    0  501 -0.00000000000E+00 -0.00000000000E+00 -0.19749544948E+03  0.19749544948E+03  0.00000000000E+00 0.  1.
         25    2    1    2    0    0 -0.60797409668E+00  0.20638057649E+02 -0.10175393966E+03  0.16257331262E+03  0.12509963503E+03 0.  0.
          5    1    3    3  502    0  0.24330175544E+02  0.48830129271E+02 -0.11085638684E+03  0.12362422849E+03  0.41800000000E+01 0.  1.
         -5    1    3    3    0  502 -0.24938149641E+02 -0.28192071622E+02  0.91024471801E+01  0.38949084129E+02  0.41800000000E+01 0.  1.
        -11    1    1    2    0    0 -0.27646619931E+02 -0.16081589549E+02 -0.53698614120E+02  0.62501954165E+02  0.00000000000E+00 0.  1.
         11    1    1    2    0    0  0.28254594027E+02 -0.45564680998E+01  0.21084821350E+02  0.35547899749E+02  0.00000000000E+00 0. -1.
</event>
<event>
 7    1  0.2714042E-009  0.1008378E+03  0.7561462E-02  0.1278544E+00
         -2   -1    0    0    0  501 -0.00000000000E+00  0.00000000000E+00  0.42618999924E+02  0.42618999924E+02  0.00000000000E+00 0.  1.
          2   -1    0    0  501    0  0.00000000000E+00 -0.00000000000E+00 -0.29606456542E+03  0.29606456542E+03  0.00000000000E+00 0. -1.
         25    2    1    2    0    0 -0.24987271549E+02 -0.10044070368E+02 -0.12848604408E+03  0.18133833700E+03  0.12509868846E+03 0.  0.
          5    1    3    3  502    0 -0.73874018207E+02 -0.17664061350E+02 -0.60747665002E+02  0.97350607767E+02  0.41800000000E+01 0.  1.
         -5    1    3    3    0  502  0.48886746658E+02  0.76199909819E+01 -0.67738379083E+02  0.83987729236E+02  0.41800000000E+01 0.  1.
        -11    1    1    2    0    0 -0.19762184404E+02  0.22058956262E+02 -0.67454903001E+01  0.30375041122E+02  0.00000000000E+00 0.  1.
         11    1    1    2    0    0  0.44749455953E+02 -0.12014885894E+02 -0.11821403111E+03  0.12697018722E+03  0.00000000000E+00 0. -1.
</event>
<event>
 7    1  0.2714042E-009  0.1267959E+03  0.7561462E-02  0.1232289E+00
          2   -1    0    0  501    0  0.00000000000E+00  0.00000000000E+00  0.30461350201E+03  0.30461350201E+03  0.00000000000E+00 0. -1.
         -2   -1    0    0    0  501 -0.00000000000E+00 -0.00000000000E+00 -0.64875438588E+02  0.64875438588E+02  0.00000000000E+00 0.  1.
         25    2    1    2    0    0 -0.20941380749E+02  0.84236927259E+02  0.14362956096E+03  0.20931117443E+03  0.12508923062E+03 0.  0.
          5    1    3    3  502    0 -0.15165913374E+02  0.10959750076E+03  0.14557407147E+03  0.18289587143E+03  0.41800000000E+01 0. -1.
         -5    1    3    3    0  502 -0.57754673746E+01 -0.25360573500E+02 -0.19445105083E+01  0.26415303004E+02  0.41800000000E+01 0. -1.
        -11    1    1    2    0    0 -0.22304368305E+02 -0.65868329337E+02  0.88542661327E+02  0.11258740840E+03  0.00000000000E+00 0.  1.
         11    1    1    2    0    0  0.43245749053E+02 -0.18368597922E+02  0.75658411399E+01  0.47590357773E+02  0.00000000000E+00 0. -1.
</event>
<event>
 7    1  0.2714042E-009  0.1006759E+03  0.7561462E-02  0.1278881E+00
          1   -1    0    0  501    0  0.00000000000E+00  0.00000000000E+00  0.37951555848E+03  0.37951555848E+03  0.00000000000E+00 0. -1.
         -1   -1    0    0    0  501 -0.00000000000E+00 -0.00000000000E+00 -0.40481186875E+02  0.40481186875E+02  0.00000000000E+00 0.  1.
         25    2    1    2    0    0 -0.23212608374E+02 -0.16243692613E+02  0.27994346072E+03  0.30792637542E+03  0.12509048222E+03 0.  0.
          5    1    3    3  502    0 -0.26983788610E+02  0.43018175634E+02  0.53880773634E+02  0.74157254871E+02  0.41800000000E+01 0.  1.
         -5    1    3    3    0  502  0.37711802365E+01 -0.59261868247E+02  0.22606268709E+03  0.23376912055E+03  0.41800000000E+01 0.  1.
        -11    1    1    2    0    0 -0.19462319941E+01 -0.34329741677E+02  0.39297703035E+02  0.52217127902E+02  0.00000000000E+00 0.  1.
         11    1    1    2    0    0  0.25158840368E+02  0.50573434290E+02  0.19793207845E+02  0.59853242029E+02  0.00000000000E+00 0. -1.
</event>
<event>
 7    1  0.2714042E-009  0.7373031E+02  0.7561462E-02  0.1347849E+00
          1   -1    0    0  501    0  0.00000000000E+00  0.00000000000E+00  0.24113352866E+03  0.24113352866E+03  0.00000000000E+00 0. -1.
         -1   -1    0    0    0  501 -0.00000000000E+00 -0.00000000000E+00 -0.63534347979E+02  0.63534347979E+02  0.00000000000E+00 0.  1.
         25    2    1    2    0    0  0.67141937472E+02  0.17868476786E+02  0.66983153523E+02  0.15799466262E+03  0.12509295875E+03 0.  0.
          5    1    3    3  502    0  0.58362068155E+02  0.22283771144E+01 -0.25376746660E+02  0.63816520862E+02  0.41800000000E+01 0. -1.
         -5    1    3    3    0  502  0.87798693171E+01  0.15640099672E+02  0.92359900182E+02  0.94178141756E+02  0.41800000000E+01 0. -1.
        -11    1    1    2    0    0 -0.35327257705E+02 -0.15528251871E+02  0.82630541612E+01  0.39464158514E+02  0.00000000000E+00 0.  1.
         11    1    1    2    0    0 -0.31814679767E+02 -0.23402249153E+01  0.10235297299E+03  0.10720905550E+03  0.00000000000E+00 0. -1.
</event>
<event>
 7    1  0.2714042E-009  0.1487644E+03  0.7561462E-02  0.1202000E+00
          2   -1    0    0  501    0  0.00000000000E+00  0.00000000000E+00  0.24300418832E+02  0.24300418832E+02  0.00000000000E+00 0.  1.
         -2   -1    0    0    0  501 -0.00000000000E+00 -0.00000000000E+00 -0.14211752730E+04  0.14211752730E+04  0.00000000000E+00 0. -1.
         25    2    1    2    0    0 -0.81569480560E+02  0.59952543794E+02 -0.11434340336E+04  0.11547016303E+04  0.12508628230E+03 0.  0.
          5    1    3    3  502    0  0.29540370492E+02  0.13674838183E+01 -0.12381061956E+03  0.12736186799E+03  0.41800000000E+01 0. -1.
         -5    1    3    3    0  502 -0.11110985105E+03  0.58585059975E+02 -0.10196234141E+04  0.10273397623E+04  0.41800000000E+01 0. -1.
        -11    1    1    2    0    0  0.10152437983E+03 -0.29765157633E+02 -0.17718731206E+03  0.20636983273E+03  0.00000000000E+00 0.  1.
         11    1    1    2    0    0 -0.19954899275E+02 -0.30187386160E+02 -0.76253508507E+02  0.84404228851E+02  0.00000000000E+00 0. -1.
</event>
<event>
 7    1  0.2714042E-009  0.1680810E+03  0.7561462E-02  0.1179864E+00
          1   -1    0    0  501    0  0.00000000000E+00  0.00000000000E+00  0.88118427049E+03  0.88118427049E+03  0.00000000000E+00 0. -1.
         -1   -1    0    0    0  501 -0.00000000000E+00 -0.00000000000E+00 -0.65644728191E+02  0.65644728191E+02  0.00000000000E+00 0.  1.
         25    2    1    2    0    0  0.14872667718E+03 -0.37492293094E+02  0.71751203380E+03  0.74430894209E+03  0.12508791341E+03 0.  0.
          5    1    3    3  502    0  0.68933434244E+02  0.22668706250E+02  0.13548884286E+03  0.15375430901E+03  0.41800000000E+01 0. -1.
         -5    1    3    3    0  502  0.79793242936E+02 -0.60160999345E+02  0.58202319094E+03  0.59055463308E+03  0.41800000000E+01 0. -1.
        -11    1    1    2    0    0 -0.80178373554E+02  0.48977283477E+02  0.93994097085E+02  0.13289934601E+03  0.00000000000E+00 0. -1.
         11    1    1    2    0    0 -0.68548303626E+02 -0.11484990383E+02  0.40334114125E+01  0.69620710580E+02  0.00000000000E+00 0.  1.
</event>
<event>
 7    1  0.2714042E-009  0.8105215E+02  0.7561462E-02  0.1326092E+00
         -1   -1    0    0    0  501 -0.00000000000E+00  0.00000000000E+00  0.20617277764E+03  0.20617277764E+03  0.00000000000E+00 0.  1.
          1   -1    0    0  501    0  0.00000000000E+00 -0.00000000000E+00 -0.82712947268E+02  0.82712947268E+02  0.00000000000E+00 0. -1.
         25    2    1    2    0    0 -0.84468561201E+01 -0.21781578874E+02  0.14425768831E+03  0.19236089291E+03  0.12508655375E+03 0.  0.
          5    1    3    3  502    0  0.99312221316E+01  0.38786615400E+02  0.11624510627E+03  0.12301799803E+03  0.41800000000E+01 0. -1.
         -5    1    3    3    0  502 -0.18378078252E+02 -0.60568194275E+02  0.28012582039E+02  0.69342894880E+02  0.41800000000E+01 0. -1.
        -11    1    1    2    0    0 -0.22846032580E+02  0.77913320243E+01 -0.47362232850E+02  0.53158509760E+02  0.00000000000E+00 0. -1.
         11    1    1    2    0    0  0.31292888700E+02  0.13990246850E+02  0.26564374916E+02  0.43366322242E+02  0.00000000000E+00 0.  1.
</event>
<event>
 7    1  0.2714042E-009  0.1157325E+03  0.7561462E-02  0.1250308E+00
          3   -1    0    0  501    0  0.00000000000E+00  0.00000000000E+00  0.22481749808E+03  0.22481749808E+03  0.00000000000E+00 0. -1.
         -3   -1    0    0    0  501 -0.00000000000E+00 -0.00000000000E+00 -0.74771954616E+02  0.74771954616E+02  0.00000000000E+00 0.  1.
         25    2    1    2    0    0 -0.44795449299E+02 -0.39843926181E+01  0.20271857711E+02  0.13446340570E+03  0.12508777556E+03 0.  0.
          5    1    3    3  502    0 -0.33374557932E+02  0.58885948704E+02  0.18898473505E+01  0.67841432731E+02  0.41800000000E+01 0. -1.
         -5    1    3    3    0  502 -0.11420891367E+02 -0.62870341322E+02  0.18382010361E+02  0.66621972970E+02  0.41800000000E+01 0. -1.
        -11    1    1    2    0    0 -0.71029632341E+01 -0.34360392197E+02  0.63989198554E+02  0.72977436035E+02  0.00000000000E+00 0. -1.
         11    1    1    2    0    0  0.51898412533E+02  0.38344784816E+02  0.65784487202E+02  0.92148610963E+02  0.00000000000E+00 0.  1.
</event>
<event>
 7    1  0.2714042E-009  0.1152560E+03  0.7561462E-02  0.1251135E+00
          1   -1    0    0  501    0  0.00000000000E+00  0.00000000000E+00  0.68069733800E+03  0.68069733800E+03  0.00000000000E+00 0. -1.
         -1   -1    0    0    0  501 -0.00000000000E+00 -0.00000000000E+00 -0.28598854297E+02  0.28598854297E+02  0.00000000000E+00 0.  1.
         25    2    1    2    0    0  0.31106181298E+02 -0.75663245981E+02  0.32925633179E+03  0.36159370074E+03  0.12509097123E+03 0.  0.
          5    1    3    3  502    0  0.58148966710E+02 -0.28635664344E+02  0.65353563063E+02  0.92140459120E+02  0.41800000000E+01 0. -1.
         -5    1    3    3    0  502 -0.27042785412E+02 -0.47027581637E+02  0.26390276872E+03  0.26945324162E+03  0.41800000000E+01 0. -1.
        -11    1    1    2    0    0  0.24037406209E+02  0.11809896656E+02  0.20269834344E+02  0.33587746882E+02  0.00000000000E+00 0.  1.
         11    1    1    2    0    0 -0.55143587507E+02  0.63853349325E+02  0.30257231757E+03  0.31411474468E+03  0.00000000000E+00 0. -1.
</event>
<event>
 7    1  0.2714042E-009  0.1214823E+03  0.7561462E-02  0.1240672E+00
         -2   -1    0    0    0  501 -0.00000000000E+00  0.00000000000E+00  0.61459378827E+02  0.61459378827E+02  0.00000000000E+00 0.  1.
          2   -1    0    0  501    0  0.00000000000E+00 -0.00000000000E+00 -0.26611329184E+03  0.26611329184E+03  0.00000000000E+00 0. -1.
         25    2    1    2    0    0  0.24095621821E+02 -0.73325865093E+02 -0.75867629582E+02  0.16541124860E+03  0.12509077689E+03 0.  0.
          5    1    3    3  502    0  0.14828630013E+02 -0.10760954453E+03 -0.69676507916E+02  0.12912006234E+03  0.41800000000E+01 0.  1.
         -5    1    3    3    0  502  0.92669918080E+01  0.34283679439E+02 -0.61911216657E+01  0.36291186265E+02  0.41800000000E+01 0.  1.
        -11    1    1    2    0    0  0.38533852220E+01  0.70278377067E+02 -0.94162560862E+02  0.11756056622E+03  0.00000000000E+00 0.  1.
         11    1    1    2    0    0 -0.27949007043E+02  0.30474880262E+01 -0.34623722574E+02  0.44600855853E+02  0.00000000000E+00 0. -1.
</event>
<event>
 7    1  0.2714042E-009  0.6041716E+02  0.7561462E-02  0.1396089E+00
         -2   -1    0    0    0  501 -0.00000000000E+00  0.00000000000E+00  0.19802139686E+03  0.19802139686E+03  0.00000000000E+00 0.  1.
          2   -1    0    0  501    0  0.00000000000E+00 -0.00000000000E+00 -0.78643098250E+02  0.78643098250E+02  0.00000000000E+00 0. -1.
         25    2    1    2    0    0 -0.16413205646E+02  0.50802744368E+01  0.12748509059E+03  0.17942798129E+03  0.12508696831E+03 0.  0.
          5    1    3    3  502    0  0.27986114948E+01  0.71470096348E+01  0.14954819337E+03  0.14980335949E+03  0.41800000000E+01 0. -1.
         -5    1    3    3    0  502 -0.19211817141E+02 -0.20667351979E+01 -0.22063102787E+02  0.29624621800E+02  0.41800000000E+01 0. -1.
        -11    1    1    2    0    0  0.39428533991E+02 -0.36262727701E+02  0.99424122659E+01  0.54483449548E+02  0.00000000000E+00 0. -1.
         11    1    1    2    0    0 -0.23015328346E+02  0.31182453264E+02 -0.18049204247E+02  0.42753064268E+02  0.00000000000E+00 0.  1.
</event>
<event>
 7    1  0.2714042E-009  0.1006958E+03  0.7561462E-02  0.1278839E+00
         -1   -1    0    0    0  501 -0.00000000000E+00  0.00000000000E+00  0.28832034837E+03  0.28832034837E+03  0.00000000000E+00 0.  1.
          1   -1    0    0  501    0  0.00000000000E+00 -0.00000000000E+00 -0.50607019724E+02  0.50607019724E+02  0.00000000000E+00 0. -1.
         25    2    1    2    0    0  0.14012915458E+02  0.45501879942E+02  0.16192120496E+03  0.21008053863E+03  0.12509425733E+03 0.  0.
          5    1    3    3  502    0 -0.15476400496E+01 -0.28669484357E+02 -0.23631397857E+01  0.29109987164E+02  0.41800000000E+01 0. -1.
         -5    1    3    3    0  502  0.15560555507E+02  0.74171364300E+02  0.16428434474E+03  0.18097055146E+03  0.41800000000E+01 0. -1.
        -11    1    1    2    0    0  0.31648083407E+02  0.51190116793E+00  0.36550778812E+01  0.31862561424E+02  0.00000000000E+00 0. -1.
         11    1    1    2    0    0 -0.45660998865E+02 -0.46013781110E+02  0.72137045805E+02  0.96984268038E+02  0.00000000000E+00 0.  1.
</event>
<event>
 7    1  0.2714042E-009  0.1845016E+03  0.7561462E-02  0.1163516E+00
         -1   -1    0    0    0  501 -0.00000000000E+00  0.00000000000E+00  0.15188779757E+03  0.15188779757E+03  0.00000000000E+00 0.  1.
          1   -1    0    0  501    0  0.00000000000E+00 -0.00000000000E+00 -0.28496848807E+03  0.28496848807E+03  0.00000000000E+00 0. -1.
         25    2    1    2    0    0 -0.13308773228E+03  0.97584298117E+02 -0.13722246508E+03  0.24841783216E+03  0.12508546953E+03 0.  0.
          5    1    3    3  502    0 -0.81231201771E+02  0.11437513461E+03 -0.57315915845E+02  0.15160067997E+03  0.41800000000E+01 0. -1.
         -5    1    3    3    0  502 -0.51856530512E+02 -0.16790836496E+02 -0.79906549231E+02  0.96817152184E+02  0.41800000000E+01 0. -1.
        -11    1    1    2    0    0  0.78604988798E+02 -0.23530991076E+02  0.38054890462E+02  0.90446815825E+02  0.00000000000E+00 0.  1.
         11    1    1    2    0    0  0.54482743485E+02 -0.74053307041E+02 -0.33913115885E+02  0.97991637656E+02  0.00000000000E+00 0. -1.
</event>
<event>
 7    1  0.2714042E-009  0.9170153E+02  0.7561462E-02  0.1298783E+00
          1   -1    0    0  501    0  0.00000000000E+00  0.00000000000E+00  0.11656735912E+03  0.11656735912E+03  0.00000000000E+00 0. -1.
         -1   -1    0    0    0  501 -0.00000000000E+00 -0.00000000000E+00 -0.10989876518E+03  0.10989876518E+03  0.00000000000E+00 0.  1.
         25    2    1    2    0    0  0.21805405602E+02 -0.21122490624E+02  0.14076503202E+02  0.12948779238E+03  0.12508918862E+03 0.  0.
          5    1    3    3  502    0  0.73850815574E+02 -0.14163129401E+02  0.14774526351E+01  0.75327235856E+02  0.41800000000E+01 0.  1.
         -5    1    3    3    0  502 -0.52045409972E+02 -0.69593612226E+01  0.12599050567E+02  0.54160556524E+02  0.41800000000E+01 0.  1.
        -11    1    1    2    0    0  0.14631652148E+02  0.80811689064E+01 -0.41916829560E+02  0.45126612280E+02  0.00000000000E+00 0.  1.
         11    1    1    2    0    0 -0.36437057750E+02  0.13041321717E+02  0.34508920292E+02  0.51851719637E+02  0.00000000000E+00 0. -1.
</event>
<event>
 7    1  0.2714042E-009  0.1210113E+03  0.7561462E-02  0.1241438E+00
         -2   -1    0    0    0  501 -0.00000000000E+00  0.00000000000E+00  0.56042665214E+02  0.56042665214E+02  0.00000000000E+00 0.  1.
          2   -1    0    0  501    0  0.00000000000E+00 -0.00000000000E+00 -0.35797351087E+03  0.35797351087E+03  0.00000000000E+00 0. -1.
         25    2    1    2    0    0  0.60757425486E+02  0.25343060387E+02 -0.25389802116E+03  0.29059248939E+03  0.12508418878E+03 0.  0.
          5    1    3    3  502    0  0.92865553422E+02  0.35784961666E+02 -0.14068670604E+03  0.17237980204E+03  0.41800000000E+01 0.  1.
         -5    1    3    3    0  502 -0.32108127936E+02 -0.10441901279E+02 -0.11321131512E+03  0.11821268736E+03  0.41800000000E+01 0.  1.
        -11    1    1    2    0    0 -0.82672841892E+02 -0.14477729869E+02 -0.51866977311E+02  0.98664009569E+02  0.00000000000E+00 0. -1.
         11    1    1    2    0    0  0.21915416406E+02 -0.10865330518E+02  0.38341528087E+01  0.24759677124E+02  0.00000000000E+00 0.  1.
</event>
<event>
 7    1  0.2714042E-009  0.1275119E+03  0.7561462E-02  0.1231195E+00
          4   -1    0    0  501    0  0.00000000000E+00  0.00000000000E+00  0.39319009652E+03  0.39319009652E+03  0.00000000000E+00 0.  1.
         -4   -1    0    0    0  501 -0.00000000000E+00 -0.00000000000E+00 -0.63316367177E+02  0.63316367177E+02  0.00000000000E+00 0. -1.
         25    2    1    2    0    0  0.73498476390E+02  0.66542681525E+02  0.94305069540E+02  0.18539398117E+03  0.12509007801E+03 0.  0.
          5    1    3    3  502    0  0.42512416508E+01 -0.31198629031E+02  0.46589824070E+02  0.56387158253E+02  0.41800000000E+01 0. -1.
         -5    1    3    3    0  502  0.69247234739E+02  0.97741310556E+02  0.47715245470E+02  0.12900682291E+03  0.41800000000E+01 0. -1.
        -11    1    1    2    0    0 -0.10026983338E+02 -0.26553992877E+02  0.16726903992E+03  0.16966020939E+03  0.00000000000E+00 0.  1.
         11    1    1    2    0    0 -0.63471493052E+02 -0.39988688648E+02  0.68299619879E+02  0.10145227314E+03  0.00000000000E+00 0. -1.
</event>
<event>
 7    1  0.2714042E-009  0.1128676E+03  0.7561462E-02  0.1255350E+00
          2   -1    0    0  501    0  0.00000000000E+00  0.00000000000E+00  0.52194506414E+03  0.52194506414E+03  0.00000000000E+00 0. -1.
         -2   -1    0    0    0  501 -0.00000000000E+00 -0.00000000000E+00 -0.37315885647E+02  0.37315885647E+02  0.00000000000E+00 0.  1.
         25    2    1    2    0    0  0.85258379229E+02  0.19833085680E+02  0.25182964448E+03  0.29449548379E+03  0.12508827930E+03 0.  0.
          5    1    3    3  502    0  0.65443584088E+02 -0.28564351666E+02  0.22392703597E+03  0.23507355173E+03  0.41800000000E+01 0.  1.
         -5    1    3    3    0  502  0.19814795141E+02  0.48397437346E+02  0.27902608505E+02  0.59421932058E+02  0.41800000000E+01 0.  1.
        -11    1    1    2    0    0 -0.59217403481E+02 -0.37666596068E+02  0.21962186801E+03  0.23056287265E+03  0.00000000000E+00 0. -1.
         11    1    1    2    0    0 -0.26040975748E+02  0.17833510388E+02  0.13177666005E+02  0.34202593352E+02  0.00000000000E+00 0.  1.
</event>
<event>
 7    1  0.2714042E-009  0.7882420E+02  0.7561462E-02  0.1332422E+00
         -2   -1    0    0    0  501 -0.00000000000E+00  0.00000000000E+00  0.31358945709E+02  0.31358945709E+02  0.00000000000E+00 0.  1.
          2   -1    0    0  501    0  0.00000000000E+00 -0.00000000000E+00 -0.53184343513E+03  0.53184343513E+03  0.00000000000E+00 0. -1.
         25    2    1    2    0    0 -0.66973194642E+02  0.21869076182E+02 -0.26354916899E+03  0.30011647248E+03  0.12509223511E+03 0.  0.
          5    1    3    3  502    0 -0.23296533338E+02  0.25434642813E+02 -0.25230002843E+03  0.25468102848E+03  0.41800000000E+01 0. -1.
         -5    1    3    3    0  502 -0.43676661304E+02 -0.35655666301E+01 -0.11249140555E+02  0.45435443998E+02  0.41800000000E+01 0. -1.
        -11    1    1    2    0    0  0.46819130737E+02 -0.31618370243E+02 -0.23374011196E+03  0.24047077219E+03  0.00000000000E+00 0. -1.
         11    1    1    2    0    0  0.20154063906E+02  0.97492940602E+01 -0.31952084701E+01  0.22615136165E+02  0.00000000000E+00 0.  1.
</event>
<event>
 7    1  0.2714042E-009  0.9955255E+02  0.7561462E-02  0.1281240E+00
         -1   -1    0    0    0  501 -0.00000000000E+00  0.00000000000E+00  0.10290783763E+03  0.10290783763E+03  0.00000000000E+00 0.  1.
          1   -1    0    0  501    0  0.00000000000E+00 -0.00000000000E+00 -0.14851502081E+03  0.14851502081E+03  0.00000000000E+00 0. -1.
         25    2    1    2    0    0  0.56841950078E+02 -0.18967322605E+02 -0.30995093544E+02  0.14212260823E+03  0.12508946131E+03 0.  0.
          5    1    3    3  502    0  0.69064592928E+02 -0.16746522934E+01  0.31472491416E+02  0.76030997446E+02  0.41800000000E+01 0. -1.
         -5    1    3    3    0  502 -0.12222642851E+02 -0.17292670312E+02 -0.62467584960E+02  0.66091610780E+02  0.41800000000E+01 0. -1.
        -11    1    1    2    0    0  0.24894842263E+02  0.40448651039E+01 -0.27751886411E+01  0.25373525120E+02  0.00000000000E+00 0. -1.
         11    1    1    2    0    0 -0.81736792341E+02  0.14922457501E+02 -0.11836900996E+02  0.83926725095E+02  0.00000000000E+00 0.  1.
</event>
<event>
 7    1  0.2714042E-009  0.9154497E+02  0.7561462E-02  0.1299153E+00
         -3   -1    0    0    0  501 -0.00000000000E+00  0.00000000000E+00  0.53317079098E+02  0.53317079098E+02  0.00000000000E+00 0.  1.
          3   -1    0    0  501    0  0.00000000000E+00 -0.00000000000E+00 -0.22021417454E+03  0.22021417454E+03  0.00000000000E+00 0. -1.
         25    2    1    2    0    0 -0.23905440645E+01  0.24660952271E+02 -0.64983803383E+02  0.14312314909E+03  0.12508982307E+03 0.  0.
          5    1    3    3  502    0  0.60439444134E+02  0.21422585492E+02 -0.28713321057E+02  0.70383100120E+02  0.41800000000E+01 0.  1.
         -5    1    3    3    0  502 -0.62829988198E+02  0.32383667797E+01 -0.36270482326E+02  0.72740048973E+02  0.41800000000E+01 0.  1.
        -11    1    1    2    0    0  0.24702864753E+02 -0.33597268807E+01 -0.10711574990E+01  0.24953289765E+02  0.00000000000E+00 0.  1.
         11    1    1    2    0    0 -0.22312320688E+02 -0.21301225391E+02 -0.10084213456E+03  0.10545481478E+03  0.00000000000E+00 0. -1.
</event>
<event>
 7    1  0.2714042E-009  0.2034234E+03  0.7561462E-02  0.1146882E+00
         -1   -1    0    0    0  501 -0.00000000000E+00  0.00000000000E+00  0.23510838777E+02  0.23510838777E+02  0.00000000000E+00 0.  1.
          1   -1    0    0  501    0  0.00000000000E+00 -0.00000000000E+00 -0.33246995461E+04  0.33246995461E+04  0.00000000000E+00 0. -1.
         25    2    1    2    0    0 -0.13170905068E+03  0.12191391878E+03 -0.28083132196E+04  0.28168213300E+04  0.12509591672E+03 0.  0.
          5    1    3    3  502    0 -0.87597027332E+02 -0.46874156780E+00 -0.12588374657E+04  0.12618885435E+04  0.41800000000E+01 0.  1.
         -5    1    3    3    0  502 -0.44112023344E+02  0.12238266034E+03 -0.15494757539E+04  0.15549327865E+04  0.41800000000E+01 0.  1.
        -11    1    1    2    0    0  0.94302575550E+02 -0.11847985043E+03 -0.31392958292E+03  0.34854301563E+03  0.00000000000E+00 0.  1.
         11    1    1    2    0    0  0.37406475126E+02 -0.34340683464E+01 -0.17894590484E+03  0.18284603924E+03  0.00000000000E+00 0. -1.
</event>
<event>
 7    1  0.2714042E-009  0.1177842E+03  0.7561462E-02  0.1246798E+00
         -1   -1    0    0    0  501 -0.00000000000E+00  0.00000000000E+00  0.26647124719E+02  0.26647124719E+02  0.00000000000E+00 0. -1.
          1   -1    0    0  501    0  0.00000000000E+00 -0.00000000000E+00 -0.78416010431E+03  0.78416010431E+03  0.00000000000E+00 0.  1.
         25    2    1    2    0    0  0.64051011065E+02  0.48849828526E+02 -0.54978844664E+03  0.56956485459E+03  0.12509176534E+03 0.  0.
          5    1    3    3  502    0  0.33630614739E+02 -0.20656590639E+02 -0.49060128197E+02  0.63103736523E+02  0.41800000000E+01 0.  1.
         -5    1    3    3    0  502  0.30420396326E+02  0.69506419165E+02 -0.50072831844E+03  0.50646111806E+03  0.41800000000E+01 0.  1.
        -11    1    1    2    0    0  0.14425417668E+02 -0.38029954841E+02 -0.47730029576E+02  0.62709854596E+02  0.00000000000E+00 0.  1.
         11    1    1    2    0    0 -0.78476428733E+02 -0.10819873685E+02 -0.15999450338E+03  0.17853251985E+03  0.00000000000E+00 0. -1.
</event>
<event>
 7    1  0.2714042E-009  0.1318646E+03  0.7561462E-02  0.1224715E+00
         -1   -1    0    0    0  501 -0.00000000000E+00  0.00000000000E+00  0.54249169489E+02  0.54249169489E+02  0.00000000000E+00 0.  1.
          1   -1    0    0  501    0  0.00000000000E+00 -0.00000000000E+00 -0.33297212931E+03  0.33297212931E+03  0.00000000000E+00 0. -1.
         25    2    1    2    0    0 -0.47705299359E+02  0.58376952956E+02 -0.19038886376E+03  0.23995674435E+03  0.12509058915E+03 0.  0.
          5    1    3    3  502    0  0.38938879269E+02  0.42573954010E+02 -0.77927611847E+02  0.97051341912E+02  0.41800000000E+01 0.  1.
         -5    1    3    3    0  502 -0.86644178629E+02  0.15802998946E+02 -0.11246125191E+03  0.14290540244E+03  0.41800000000E+01 0.  1.
        -11    1    1    2    0    0 -0.26367739054E+02 -0.25455467443E+02 -0.30620487203E+02  0.47758273860E+02  0.00000000000E+00 0.  1.
         11    1    1    2    0    0  0.74073038413E+02 -0.32921485512E+02 -0.57713608861E+02  0.99506280586E+02  0.00000000000E+00 0. -1.
</event>
<event>
 7    1  0.2714042E-009  0.3698792E+03  0.7561462E-02  0.1054739E+00
         -2   -1    0    0    0  501 -0.00000000000E+00  0.00000000000E+00  0.10996444651E+03  0.10996444651E+03  0.00000000000E+00 0.  1.
          2   -1    0    0  501    0  0.00000000000E+00 -0.00000000000E+00 -0.13068870275E+04  0.13068870275E+04  0.00000000000E+00 0. -1.
         25    2    1    2    0    0  0.18312452655E+03  0.30994710356E+03 -0.69868988503E+03  0.79587564789E+03  0.12509473300E+03 0.  0.
          5    1    3    3  502    0  0.19888813967E+03  0.26658075105E+03 -0.58234941683E+03  0.67064901746E+03  0.41800000000E+01 0.  1.
         -5    1    3    3    0  502 -0.15763613114E+02  0.43366352513E+02 -0.11634046819E+03  0.12522663043E+03  0.41800000000E+01 0.  1.
        -11    1    1    2    0    0 -0.11664565046E+03 -0.17414174168E+03 -0.35750182746E+03  0.41441417761E+03  0.00000000000E+00 0. -1.
         11    1    1    2    0    0 -0.66478876096E+02 -0.13580536188E+03 -0.14073086848E+03  0.20656164849E+03  0.00000000000E+00 0.  1.
</event>
<event>
 7    1  0.2714042E-009  0.6042893E+02  0.7561462E-02  0.1396040E+00
         -1   -1    0    0    0  501 -0.00000000000E+00  0.00000000000E+00  0.16352222400E+03  0.16352222400E+03  0.00000000000E+00 0.  1.
          1   -1    0    0  501    0  0.00000000000E+00 -0.00000000000E+00 -0.80825393409E+02  0.80825393409E+02  0.00000000000E+00 0. -1.
         25    2    1    2    0    0  0.38550552913E+02 -0.90502843771E+01  0.43804668763E+02  0.13832411268E+03  0.12508660346E+03 0.  0.
          5    1    3    3  502    0  0.40186009420E+02  0.13687508788E+02  0.82696160011E+02  0.93050473027E+02  0.41800000000E+01 0. -1.
         -5    1    3    3    0  502 -0.16354565070E+01 -0.22737793165E+02 -0.38891491248E+02  0.45273639654E+02  0.41800000000E+01 0. -1.
        -11    1    1    2    0    0 -0.15406252231E+02 -0.15100539173E+02 -0.25536510173E+02  0.33428913277E+02  0.00000000000E+00 0. -1.
         11    1    1    2    0    0 -0.23144300682E+02  0.24150823550E+02  0.64428671998E+02  0.72594591450E+02  0.00000000000E+00 0.  1.
</event>
<event>
 7    1  0.2714042E-009  0.1318544E+03  0.7561462E-02  0.1224730E+00
         -3   -1    0    0    0  501 -0.00000000000E+00  0.00000000000E+00  0.74512576289E+03  0.74512576289E+03  0.00000000000E+00 0.  1.
          3   -1    0    0  501    0  0.00000000000E+00 -0.00000000000E+00 -0.27276601130E+02  0.27276601130E+02  0.00000000000E+00 0. -1.
         25    2    1    2    0    0  0.15506229120E+00  0.88002350622E+02  0.46097869626E+03  0.48568814551E+03  0.12508868263E+03 0.  0.
          5    1    3    3  502    0  0.37551073026E+02 -0.14175763876E+02  0.82234162295E+02  0.91602211847E+02  0.41800000000E+01 0. -1.
         -5    1    3    3    0  502 -0.37396010735E+02  0.10217811450E+03  0.37874453396E+03  0.39408593366E+03  0.41800000000E+01 0. -1.
        -11    1    1    2    0    0  0.36013583897E+02 -0.53424746285E+02  0.79013414477E+02  0.10195244680E+03  0.00000000000E+00 0. -1.
         11    1    1    2    0    0 -0.36168646188E+02 -0.34577604336E+02  0.17785705102E+03  0.18476177172E+03  0.00000000000E+00 0.  1.
</event>
<event>
 7    1  0.2714042E-009  0.1183647E+03  0.7561462E-02  0.1245819E+00
          1   -1    0    0  501    0  0.00000000000E+00  0.00000000000E+00  0.16095292859E+03  0.16095292859E+03  0.00000000000E+00 0. -1.
         -1   -1    0    0    0  501 -0.00000000000E+00 -0.00000000000E+00 -0.96228665241E+02  0.96228665241E+02  0.00000000000E+00 0.  1.
         25    2    1    2    0    0 -0.41352894191E+02  0.52411697980E+02  0.58202197258E+02  0.15327212308E+03  0.12509116677E+03 0.  0.
          5    1    3    3  502    0 -0.26682208604E+02 -0.35881731595E+02 -0.26053074234E+01  0.44985541511E+02  0.41800000000E+01 0.  1.
         -5    1    3    3    0  502 -0.14670685587E+02  0.88293429575E+02  0.60807504682E+02  0.10828658157E+03  0.41800000000E+01 0.  1.
        -11    1    1    2    0    0 -0.15739969218E+02  0.91909146006E+01 -0.55552388843E+01  0.19054664028E+02  0.00000000000E+00 0. -1.
         11    1    1    2    0    0  0.57092863409E+02 -0.61602612580E+02  0.12077304975E+02  0.84854806725E+02  0.00000000000E+00 0.  1.
</event>
<event>
 7    1  0.2714042E-009  0.8561802E+02  0.7561462E-02  0.1313824E+00
         -1   -1    0    0    0  501 -0.00000000000E+00  0.00000000000E+00  0.23471583783E+02  0.23471583783E+02  0.00000000000E+00 0.  1.
          1   -1    0    0  501    0  0.00000000000E+00 -0.00000000000E+00 -0.60496083318E+03  0.60496083318E+03  0.00000000000E+00 0. -1.
         25    2    1    2    0    0 -0.38416515193E+02  0.11124004892E+02 -0.40871623391E+03  0.42929935903E+03  0.12509759260E+03 0.  0.
          5    1    3    3  502    0 -0.74256343465E+02 -0.15680048024E+02 -0.33012316357E+03  0.33876045221E+03  0.41800000000E+01 0.  1.
         -5    1    3    3    0  502  0.35839828271E+02  0.26804052916E+02 -0.78593070340E+02  0.90538906823E+02  0.41800000000E+01 0.  1.
        -11    1    1    2    0    0  0.81583570102E+01 -0.17542409487E+02  0.39311891908E+01  0.19742065955E+02  0.00000000000E+00 0.  1.
         11    1    1    2    0    0  0.30258158183E+02  0.64184045945E+01 -0.17670420467E+03  0.17939099198E+03  0.00000000000E+00 0. -1.
</event>
<event>
 7    1  0.2714042E-009  0.1177804E+03  0.7561462E-02  0.1246804E+00
          2   -1    0    0  501    0  0.00000000000E+00  0.00000000000E+00  0.17315566105E+04  0.17315566105E+04  0.00000000000E+00 0. -1.
         -2   -1    0    0    0  501 -0.00000000000E+00 -0.00000000000E+00 -0.10643833488E+02  0.10643833488E+02  0.00000000000E+00 0.  1.
         25    2    1    2    0    0 -0.38131764096E+02 -0.43662176398E+02  0.13068774915E+04  0.13141296260E+04  0.12508988422E+03 0.  0.
          5    1    3    3  502    0 -0.50228889766E+02  0.25635282504E+02  0.84686668969E+03  0.84875247957E+03  0.41800000000E+01 0. -1.
         -5    1    3    3    0  502  0.12097125670E+02 -0.69297458902E+02  0.46001080181E+03  0.46537714646E+03  0.41800000000E+01 0. -1.
        -11    1    1    2    0    0  0.48302884893E+01 -0.28585594058E+02  0.10020636975E+03  0.10431579177E+03  0.00000000000E+00 0.  1.
         11    1    1    2    0    0  0.33301475607E+02  0.72247770457E+02  0.31382891573E+03  0.32375502616E+03  0.00000000000E+00 0. -1.
</event>
<event>
 7    1  0.2714042E-009  0.1646151E+03  0.7561462E-02  0.1183583E+00
          1   -1    0    0  501    0  0.00000000000E+00  0.00000000000E+00  0.64771709914E+03  0.64771709914E+03  0.00000000000E+00 0. -1.
         -1   -1    0    0    0  501 -0.00000000000E+00 -0.00000000000E+00 -0.63023407285E+02  0.63023407285E+02  0.00000000000E+00 0.  1.
         25    2    1    2    0    0 -0.82104878913E+02  0.12589731679E+03  0.44812177205E+03  0.48893004980E+03  0.12509246779E+03 0.  0.
          5    1    3    3  502    0  0.11676953172E+02 -0.75977796456E+01  0.30226620497E+01  0.14855516713E+02  0.41800000000E+01 0. -1.
         -5    1    3    3    0  502 -0.93781832086E+02  0.13349509643E+03  0.44509911000E+03  0.47407453309E+03  0.41800000000E+01 0. -1.
        -11    1    1    2    0    0  0.61636033651E+02 -0.10774762139E+03  0.54994002043E+02  0.13576778270E+03  0.00000000000E+00 0.  1.
         11    1    1    2    0    0  0.20468845262E+02 -0.18149695400E+02  0.81577917763E+02  0.86042673924E+02  0.00000000000E+00 0. -1.
</event>
<event>
 7    1  0.2714042E-009  0.9615598E+02  0.7561462E-02  0.1288594E+00
         -2   -1    0    0    0  501 -0.00000000000E+00  0.00000000000E+00  0.11891761069E+02  0.11891761069E+02  0.00000000000E+00 0. -1.
          2   -1    0    0  501    0  0.00000000000E+00 -0.00000000000E+00 -0.36418043174E+04  0.36418043174E+04  0.00000000000E+00 0.  1.
         25    2    1    2    0    0 -0.21330222931E+02  0.20940380495E+02 -0.34182566000E+04  0.34206751843E+04  0.12508818979E+03 0.  0.
          5    1    3    3  502    0 -0.38920582435E+02 -0.24753659941E+02 -0.28271871023E+04  0.28275664341E+04  0.41800000000E+01 0.  1.
         -5    1    3    3    0  502  0.17590359504E+02  0.45694040436E+02 -0.59106949762E+03  0.59310875014E+03  0.41800000000E+01 0.  1.
        -11    1    1    2    0    0  0.29842624625E+02  0.31697253957E+02 -0.82278744294E+02  0.93086464728E+02  0.00000000000E+00 0. -1.
         11    1    1    2    0    0 -0.85124016942E+01 -0.52637634452E+02 -0.12937721204E+03  0.13993442943E+03  0.00000000000E+00 0.  1.
</event>
<event>
 7    1  0.2714042E-009  0.1147702E+03  0.7561462E-02  0.1251983E+00
          1   -1    0    0  501    0  0.00000000000E+00  0.00000000000E+00  0.14876255064E+03  0.14876255064E+03  0.00000000000E+00 0. -1.
         -1   -1    0    0    0  501 -0.00000000000E+00 -0.00000000000E+00 -0.17353433776E+03  0.17353433776E+03  0.00000000000E+00 0.  1.
         25    2    1    2    0    0  0.68831999904E+02 -0.61732226735E+02  0.60822243773E+02  0.16701483356E+03  0.12508356112E+03 0.  0.
          5    1    3    3  502    0  0.57759884912E+02 -0.66820723277E+02  0.95423319915E+02  0.13009341162E+03  0.41800000000E+01 0.  1.
         -5    1    3    3    0  502  0.11072114992E+02  0.50884965416E+01 -0.34601076142E+02  0.36921421934E+02  0.41800000000E+01 0.  1.
        -11    1    1    2    0    0 -0.49892190222E+02 -0.12656670620E+02 -0.45398726596E+02  0.68632837133E+02  0.00000000000E+00 0.  1.
         11    1    1    2    0    0 -0.18939809683E+02  0.74388897355E+02 -0.40195304297E+02  0.86649217700E+02  0.00000000000E+00 0. -1.
</event>
<event>
 7    1  0.2714042E-009  0.1179054E+03  0.7561462E-02  0.1246593E+00
         -3   -1    0    0    0  501 -0.00000000000E+00  0.00000000000E+00  0.27901010676E+03  0.27901010676E+03  0.00000000000E+00 0.  1.
          3   -1    0    0  501    0  0.00000000000E+00 -0.00000000000E+00 -0.56752483983E+02  0.56752483983E+02  0.00000000000E+00 0. -1.
         25    2    1    2    0    0  0.60786358021E+02 -0.11163894423E+02  0.11322801613E+03  0.17968937546E+03  0.12509226257E+03 0.  0.
          5    1    3    3  502    0  0.17630471781E+02  0.50642620575E+02  0.15075155905E+02  0.55859119931E+02  0.41800000000E+01 0. -1.
         -5    1    3    3    0  502  0.43155886240E+02 -0.61806514998E+02  0.98152860227E+02  0.12383025553E+03  0.41800000000E+01 0. -1.
        -11    1    1    2    0    0  0.11814114666E+01 -0.31352970434E+02  0.12582696480E+02  0.33804271014E+02  0.00000000000E+00 0. -1.
         11    1    1    2    0    0 -0.61967769488E+02  0.42516864857E+02  0.96446910163E+02  0.12226894427E+03  0.00000000000E+00 0.  1.
</event>
<event>
 7    1  0.2714042E-009  0.1652773E+03  0.7561462E-02  0.1182864E+00
          1   -1    0    0  501    0  0.00000000000E+00  0.00000000000E+00  0.16964403902E+04  0.16964403902E+04  0.00000000000E+00 0. -1.
         -1   -1    0    0    0  501 -0.00000000000E+00 -0.00000000000E+00 -0.29942111484E+02  0.29942111484E+02  0.00000000000E+00 0.  1.
         25    2    1    2    0    0  0.14572676419E+03 -0.55240623893E+02  0.13221554375E+04  0.13371725232E+04  0.12509012525E+03 0.  0.
          5    1    3    3  502    0  0.23059654009E+02 -0.45991804469E+02  0.15125416013E+03  0.15981954536E+03  0.41800000000E+01 0. -1.
         -5    1    3    3    0  502  0.12266711018E+03 -0.92488194246E+01  0.11709012774E+04  0.11773529778E+04  0.41800000000E+01 0. -1.
        -11    1    1    2    0    0 -0.73760724720E+02  0.27340638623E+02  0.27298615678E+03  0.28409434494E+03  0.00000000000E+00 0. -1.
         11    1    1    2    0    0 -0.71966039466E+02  0.27899985270E+02  0.71356684471E+02  0.10511563363E+03  0.00000000000E+00 0.  1.
</event>
<event>
 7    1  0.2714042E-009  0.1697649E+03  0.7561462E-02  0.1178093E+00
         -2   -1    0    0    0  501 -0.00000000000E+00  0.00000000000E+00  0.13802014372E+03  0.13802014372E+03  0.00000000000E+00 0.  1.
          2   -1    0    0  501    0  0.00000000000E+00 -0.00000000000E+00 -0.56418839186E+03  0.56418839186E+03  0.00000000000E+00 0. -1.
         25    2    1    2    0    0 -0.10254328091E+03  0.66815006539E+02 -0.48935559097E+03  0.51970625949E+03  0.12508529963E+03 0.  0.
          5    1    3    3  502    0 -0.18400989540E+02 -0.32816303158E+02 -0.59819963765E+02  0.70791289252E+02  0.41800000000E+01 0. -1.
         -5    1    3    3    0  502 -0.84142291365E+02  0.99631309698E+02 -0.42953562720E+03  0.44891497024E+03  0.41800000000E+01 0. -1.
        -11    1    1    2    0    0  0.11661081050E+02 -0.78686265814E+02  0.28166208551E+02  0.84385096688E+02  0.00000000000E+00 0. -1.
         11    1    1    2    0    0  0.90882199855E+02  0.11871259275E+02  0.35021134272E+02  0.98117179398E+02  0.00000000000E+00 0.  1.
</event>
<event>
 7    1  0.2714042E-009  0.7340129E+02  0.7561462E-02  0.1348894E+00
          2   -1    0    0  501    0  0.00000000000E+00  0.00000000000E+00  0.64119845459E+02  0.64119845459E+02  0.00000000000E+00 0. -1.
         -2   -1    0    0    0  501 -0.00000000000E+00 -0.00000000000E+00 -0.28596356561E+03  0.28596356561E+03  0.00000000000E+00 0.  1.
         25    2    1    2    0    0 -0.16080288043E+02 -0.64398640490E+02 -0.66281564294E+02  0.15635499936E+03  0.12509148452E+03 0.  0.
          5    1    3    3  502    0 -0.19658228259E+02 -0.59815249094E+01 -0.90485396746E+02  0.92883281611E+02  0.41800000000E+01 0.  1.
         -5    1    3    3    0  502  0.35779402159E+01 -0.58417115581E+02  0.24203832452E+02  0.63471717752E+02  0.41800000000E+01 0.  1.
        -11    1    1    2    0    0  0.13242785285E+02  0.31953487895E+02 -0.15735341945E+03  0.16111019634E+03  0.00000000000E+00 0.  1.
         11    1    1    2    0    0  0.28375027582E+01  0.32445152596E+02  0.17912635908E+01  0.32618215373E+02  0.00000000000E+00 0. -1.
</event>
<event>
 7    1  0.2714042E-009  0.1261631E+03  0.7561462E-02  0.1233263E+00
         -2   -1    0    0    0  501 -0.00000000000E+00  0.00000000000E+00  0.25030091798E+02  0.25030091798E+02  0.00000000000E+00 0.  1.
          2   -1    0    0  501    0  0.00000000000E+00 -0.00000000000E+00 -0.10058845243E+04  0.10058845243E+04  0.00000000000E+00 0. -1.
         25    2    1    2    0    0  0.79974506999E+02  0.23680295911E+02 -0.78357293592E+03  0.79786634465E+03  0.12508988703E+03 0.  0.
          5    1    3    3  502    0 -0.21221078555E+02 -0.28450525537E+02 -0.15623420237E+03  0.16026966329E+03  0.41800000000E+01 0.  1.
         -5    1    3    3    0  502  0.10119558555E+03  0.52130821448E+02 -0.62733873355E+03  0.63759668137E+03  0.41800000000E+01 0.  1.
        -11    1    1    2    0    0 -0.59557492297E+02  0.12758048434E+02 -0.17585556449E+03  0.18610492269E+03  0.00000000000E+00 0. -1.
         11    1    1    2    0    0 -0.20417014703E+02 -0.36438344345E+02 -0.21425932127E+02  0.46943348788E+02  0.00000000000E+00 0.  1.
</event>
<event>
 7    1  0.2714042E-009  0.1308516E+03  0.7561462E-02  0.1226198E+00
         -1   -1    0    0    0  501 -0.00000000000E+00  0.00000000000E+00  0.32518984818E+03  0.32518984818E+03  0.00000000000E+00 0.  1.
          1   -1    0    0  501    0  0.00000000000E+00 -0.00000000000E+00 -0.93478624778E+02  0.93478624778E+02  0.00000000000E+00 0. -1.
         25    2    1    2    0    0  0.87063218949E+02  0.67872589683E+02  0.21757850649E+03  0.27417889774E+03  0.12508784495E+03 0.  0.
          5    1    3    3  502    0  0.98973540698E+02  0.84650017172E+02  0.12978694861E+03  0.18391169510E+03  0.41800000000E+01 0.  1.
         -5    1    3    3    0  502 -0.11910321749E+02 -0.16777427489E+02  0.87791557875E+02  0.90267202634E+02  0.41800000000E+01 0.  1.
        -11    1    1    2    0    0 -0.84250708954E+01 -0.59814271093E+01  0.39848215358E+02  0.41166000013E+02  0.00000000000E+00 0.  1.
         11    1    1    2    0    0 -0.78638148053E+02 -0.61891162574E+02 -0.25715498441E+02  0.10332357521E+03  0.00000000000E+00 0. -1.
</event>
<event>
 7    1  0.2714042E-009  0.1203597E+03  0.7561462E-02  0.1242505E+00
          2   -1    0    0  501    0  0.00000000000E+00  0.00000000000E+00  0.42885767164E+03  0.42885767164E+03  0.00000000000E+00 0. -1.
         -2   -1    0    0    0  501 -0.00000000000E+00 -0.00000000000E+00 -0.39995628528E+02  0.39995628528E+02  0.00000000000E+00 0.  1.
         25    2    1    2    0    0 -0.27970968482E+01 -0.52075985208E+02  0.12417023439E+03  0.18380411314E+03  0.12508386352E+03 0.  0.
          5    1    3    3  502    0  0.15104270736E+02  0.39007688439E+02  0.46618616178E+02  0.62773453993E+02  0.41800000000E+01 0. -1.
         -5    1    3    3    0  502 -0.17901367584E+02 -0.91083673647E+02  0.77551618208E+02  0.12103065915E+03  0.41800000000E+01 0. -1.
        -11    1    1    2    0    0 -0.43213327217E+02  0.38271425190E+02  0.14120423031E+03  0.15254746243E+03  0.00000000000E+00 0.  1.
         11    1    1    2    0    0  0.46010424065E+02  0.13804560019E+02  0.12348757841E+03  0.13250172460E+03  0.00000000000E+00 0. -1.
</event>
<event>
 7    1  0.2714042E-009  0.1577351E+03  0.7561462E-02  0.1191278E+00
         -1   -1    0    0    0  501 -0.00000000000E+00  0.00000000000E+00  0.23579785779E+03  0.23579785779E+03  0.00000000000E+00 0. -1.
          1   -1    0    0  501    0  0.00000000000E+00 -0.00000000000E+00 -0.11926242203E+03  0.11926242203E+03  0.00000000000E+00 0.  1.
         25    2    1    2    0    0 -0.59499934830E+02  0.10711348643E+03  0.98764096348E+02  0.20103647452E+03  0.12509107139E+03 0.  0.
          5    1    3    3  502    0 -0.64829007587E+01 -0.26407913189E+02  0.16131597432E+01  0.27558674961E+02  0.41800000000E+01 0. -1.
         -5    1    3    3    0  502 -0.53017034072E+02  0.13352139962E+03  0.97150936605E+02  0.17347779956E+03  0.41800000000E+01 0. -1.
        -11    1    1    2    0    0 -0.22027350241E+01 -0.74334280795E+02  0.34804501145E+02  0.82108407869E+02  0.00000000000E+00 0.  1.
         11    1    1    2    0    0  0.61702669854E+02 -0.32779205635E+02 -0.17033161731E+02  0.71915397432E+02  0.00000000000E+00 0. -1.
</event>
<event>
 7    1  0.2714042E-009  0.1197995E+03  0.7561462E-02  0.1243428E+00
          2   -1    0    0  501    0  0.00000000000E+00  0.00000000000E+00  0.90362309172E+02  0.90362309172E+02  0.00000000000E+00 0.  1.
         -2   -1    0    0    0  501 -0.00000000000E+00 -0.00000000000E+00 -0.17597955498E+03  0.17597955498E+03  0.00000000000E+00 0. -1.
         25    2    1    2    0    0  0.55995076362E+02 -0.11827263689E+02 -0.65424500049E+02  0.15232400169E+03  0.12508758348E+03 0.  0.
          5    1    3    3  502    0  0.66725654440E+02  0.40087502284E+02 -0.15696168790E+02  0.79518318107E+02  0.41800000000E+01 0. -1.
         -5    1    3    3    0  502 -0.10730578078E+02 -0.51914765972E+02 -0.49728331259E+02  0.72805683581E+02  0.41800000000E+01 0. -1.
        -11    1    1    2    0    0 -0.67255621808E+01 -0.37884846873E+02 -0.21376710623E+02  0.44016571497E+02  0.00000000000E+00 0.  1.
         11    1    1    2    0    0 -0.49269514181E+02  0.49712110562E+02  0.11839648658E+01  0.70001290966E+02  0.00000000000E+00 0. -1.
</event>
<event>
 7    1  0.2714042E-009  0.1296737E+03  0.7561462E-02  0.1227941E+00
          1   -1    0    0  501    0  0.00000000000E+00  0.00000000000E+00  0.73424404568E+02  0.73424404568E+02  0.00000000000E+00 0. -1.
         -1   -1    0    0    0  501 -0.00000000000E+00 -0.00000000000E+00 -0.28394199355E+03  0.28394199355E+03  0.00000000000E+00 0.  1.
         25    2    1    2    0    0 -0.72491950287E+02  0.24415827477E+02 -0.42327656514E+02  0.15261405543E+03  0.12509278125E+03 0.  0.
          5    1    3    3  502    0 -0.89935148231E+02 -0.22474738334E+02 -0.11017977779E+02  0.93446845773E+02  0.41800000000E+01 0.  1.
         -5    1    3    3    0  502  0.17443197944E+02  0.46890565811E+02 -0.31309678735E+02  0.59167209661E+02  0.41800000000E+01 0.  1.
        -11    1    1    2    0    0 -0.16791759440E+02 -0.21149138180E+02 -0.46732270075E+02  0.53973644468E+02  0.00000000000E+00 0. -1.
         11    1    1    2    0    0  0.89283709728E+02 -0.32666892966E+01 -0.12145766239E+03  0.15077869821E+03  0.00000000000E+00 0.  1.
</event>
<event>
 7    1  0.2714042E-009  0.1136374E+03  0.7561462E-02  0.1253978E+00
         -2   -1    0    0    0  501 -0.00000000000E+00  0.00000000000E+00  0.36300122537E+02  0.36300122537E+02  0.00000000000E+00 0.  1.
          2   -1    0    0  501    0  0.00000000000E+00 -0.00000000000E+00 -0.45925151403E+03  0.45925151403E+03  0.00000000000E+00 0. -1.
         25    2    1    2    0    0  0.11355783673E+02  0.66914767988E+02 -0.27292179337E+03  0.30779834965E+03  0.12508788411E+03 0.  0.
          5    1    3    3  502    0  0.49772799817E+02 -0.10926790614E+02 -0.66932691003E+02  0.84226978336E+02  0.41800000000E+01 0.  1.
         -5    1    3    3    0  502 -0.38417016143E+02  0.77841558602E+02 -0.20598910237E+03  0.22357137131E+03  0.41800000000E+01 0.  1.
        -11    1    1    2    0    0 -0.31415574291E+02 -0.60515229944E+02 -0.47534481793E+02  0.83117737713E+02  0.00000000000E+00 0.  1.
         11    1    1    2    0    0  0.20059790618E+02 -0.63995380439E+01 -0.10249511633E+03  0.10463554921E+03  0.00000000000E+00 0. -1.
</event>
<event>
 7    1  0.2714042E-009  0.1113797E+03  0.7561462E-02  0.1258036E+00
          4   -1    0    0  501    0  0.00000000000E+00  0.00000000000E+00  0.47402330033E+03  0.47402330033E+03  0.00000000000E+00 0. -1.
         -4   -1    0    0    0  501 -0.00000000000E+00 -0.00000000000E+00 -0.41154825684E+02  0.41154825684E+02  0.00000000000E+00 0.  1.
         25    2    1    2    0    0 -0.40543491899E+02  0.61503690266E+02  0.32188127725E+03  0.35310236509E+03  0.12508894810E+03 0.  0.
          5    1    3    3  502    0 -0.37064875541E+02  0.92868581760E+02  0.16463953126E+03  0.19267077134E+03  0.41800000000E+01 0. -1.
         -5    1    3    3    0  502 -0.34786163589E+01 -0.31364891494E+02  0.15724174599E+03  0.16043159375E+03  0.41800000000E+01 0. -1.
        -11    1    1    2    0    0  0.12244335106E+01 -0.49811798869E+02  0.11031918908E+03  0.12104973367E+03  0.00000000000E+00 0. -1.
         11    1    1    2    0    0  0.39319058389E+02 -0.11691891397E+02  0.66800832246E+00  0.41026027253E+02  0.00000000000E+00 0.  1.
</event>
<event>
 7    1  0.2714042E-009  0.5852802E+02  0.7561462E-02  0.1404115E+00
         -1   -1    0    0    0  501 -0.00000000000E+00  0.00000000000E+00  0.26753301965E+03  0.26753301965E+03  0.00000000000E+00 0.  1.
          1   -1    0    0  501    0  0.00000000000E+00 -0.00000000000E+00 -0.44351832820E+02  0.44351832820E+02  0.00000000000E+00 0. -1.
         25    2    1    2    0    0 -0.46237299441E+01  0.83175419176E+01  0.12718600238E+03  0.17864349040E+03  0.12508659832E+03 0.  0.
          5    1    3    3  502    0 -0.49230100304E+01 -0.33182688274E+02 -0.10002529524E+02  0.35254075307E+02  0.41800000000E+01 0.  1.
         -5    1    3    3    0  502  0.29928008625E+00  0.41500230192E+02  0.13718853190E+03  0.14338941509E+03  0.41800000000E+01 0.  1.
        -11    1    1    2    0    0 -0.15617343384E+02  0.60172683664E+01 -0.13168144130E+02  0.21295749642E+02  0.00000000000E+00 0. -1.
         11    1    1    2    0    0  0.20241073328E+02 -0.14334810284E+02  0.10916332858E+03  0.11194561243E+03  0.00000000000E+00 0.  1.
</event>
<event>
 7    1  0.2714042E-009  0.1643753E+03  0.7561462E-02  0.1183844E+00
          1   -1    0    0  501    0  0.00000000000E+00  0.00000000000E+00  0.15901790757E+04  0.15901790757E+04  0.00000000000E+00 0. -1.
         -1   -1    0    0    0  501 -0.00000000000E+00 -0.00000000000E+00 -0.25599085770E+02  0.25599085770E+02  0.00000000000E+00 0.  1.
         25    2    1    2    0    0 -0.76777557335E+02  0.96949088998E+02  0.12838684954E+04  0.12958628563E+04  0.12509320412E+03 0.  0.
          5    1    3    3  502    0 -0.11016007828E+03  0.59164997067E+02  0.88561996109E+03  0.89441373402E+03  0.41800000000E+01 0. -1.
         -5    1    3    3    0  502  0.33382520941E+02  0.37784091931E+02  0.39824853427E+03  0.40144912225E+03  0.41800000000E+01 0. -1.
        -11    1    1    2    0    0 -0.19665005837E+02 -0.29126578022E+02  0.74619946338E+02  0.82481551836E+02  0.00000000000E+00 0. -1.
         11    1    1    2    0    0  0.96442563172E+02 -0.67822510977E+02  0.20609154828E+03  0.23743375341E+03  0.00000000000E+00 0.  1.
</event>
<event>
 7    1  0.2714042E-009  0.1075544E+03  0.7561462E-02  0.1265167E+00
         -2   -1    0    0    0  501 -0.00000000000E+00  0.00000000000E+00  0.17152131386E+03  0.17152131386E+03  0.00000000000E+00 0.  1.
          2   -1    0    0  501    0  0.00000000000E+00 -0.00000000000E+00 -0.97100791069E+02  0.97100791069E+02  0.00000000000E+00 0. -1.
         25    2    1    2    0    0 -0.64725745700E+02  0.51746399876E+01  0.58660022228E+02  0.15265830007E+03  0.12508940529E+03 0.  0.
          5    1    3    3  502    0 -0.12679871991E+02  0.37559839527E+02  0.78543282905E+02  0.88079738808E+02  0.41800000000E+01 0. -1.
         -5    1    3    3    0  502 -0.52045873710E+02 -0.32385199540E+02 -0.19883260677E+02  0.64578561261E+02  0.41800000000E+01 0. -1.
        -11    1    1    2    0    0  0.49362657089E+02 -0.47667007124E+02  0.16983451719E+01  0.68641822961E+02  0.00000000000E+00 0. -1.
         11    1    1    2    0    0  0.15363088611E+02  0.42492367137E+02  0.14062155391E+02  0.47321981899E+02  0.00000000000E+00 0.  1.
</event>
<event>
 7    1  0.2714042E-009  0.1539379E+03  0.7561462E-02  0.1195716E+00
         -1   -1    0    0    0  501 -0.00000000000E+00  0.00000000000E+00  0.14689599702E+03  0.14689599702E+03  0.00000000000E+00 0.  1.
          1   -1    0    0  501    0  0.00000000000E+00 -0.00000000000E+00 -0.17477620637E+03  0.17477620637E+03  0.00000000000E+00 0. -1.
         25    2    1    2    0    0  0.72417715076E+02 -0.93502110374E+02 -0.16198739727E+02  0.17290361122E+03  0.12508512902E+03 0.  0.
          5    1    3    3  502    0 -0.34560347251E+02 -0.37828659157E+02 -0.69957447981E+01  0.51882924947E+02  0.41800000000E+01 0.  1.
         -5    1    3    3    0  502  0.10697806233E+03 -0.55673451216E+02 -0.92029949292E+01  0.12102068627E+03  0.41800000000E+01 0.  1.
        -11    1    1    2    0    0 -0.69025174047E+02  0.35359487362E+02  0.23112268057E+02  0.80925551796E+02  0.00000000000E+00 0. -1.
         11    1    1    2    0    0 -0.33925410285E+01  0.58142623012E+02 -0.34793737680E+02  0.67843040373E+02  0.00000000000E+00 0.  1.
</event>
<event>
 7    1  0.2714042E-009  0.1111319E+03  0.7561462E-02  0.1258488E+00
         -1   -1    0    0    0  501 -0.00000000000E+00  0.00000000000E+00  0.14366623382E+03  0.14366623382E+03  0.00000000000E+00 0.  1.
          1   -1    0    0  501    0  0.00000000000E+00 -0.00000000000E+00 -0.99644670835E+02  0.99644670835E+02  0.00000000000E+00 0. -1.
         25    2    1    2    0    0  0.22694816995E+02  0.43811448688E+02  0.38885041223E+02  0.13997970952E+03  0.12509106640E+03 0.  0.
          5    1    3    3  502    0  0.27382231477E+02  0.85118044940E+02  0.12040706527E+02  0.90317878567E+02  0.41800000000E+01 0.  1.
         -5    1    3    3    0  502 -0.46874144817E+01 -0.41306596252E+02  0.26844334696E+02  0.49661830954E+02  0.41800000000E+01 0.  1.
        -11    1    1    2    0    0  0.20746798985E+02 -0.42747666099E+02  0.27036895365E+02  0.54669793635E+02  0.00000000000E+00 0.  1.
         11    1    1    2    0    0 -0.43441615981E+02 -0.10637825885E+01 -0.21900373599E+02  0.48661401502E+02  0.00000000000E+00 0. -1.
</event>
<event>
 7    1  0.2714042E-009  0.1274844E+03  0.7561462E-02  0.1231237E+00
         -2   -1    0    0    0  501 -0.00000000000E+00  0.00000000000E+00  0.32355253259E+02  0.32355253259E+02  0.00000000000E+00 0.  1.
          2   -1    0    0  501    0  0.00000000000E+00 -0.00000000000E+00 -0.66462126898E+03  0.66462126898E+03  0.00000000000E+00 0. -1.
         25    2    1    2    0    0  0.28166437942E+02  0.64320678774E+02 -0.18040539744E+03  0.23048683501E+03  0.12509027039E+03 0.  0.
          5    1    3    3  502    0  0.20029485281E+02 -0.36615626172E+02 -0.57778338107E+02  0.71398131033E+02  0.41800000000E+01 0.  1.
         -5    1    3    3    0  502  0.81369526607E+01  0.10093630495E+03 -0.12262705933E+03  0.15908870398E+03  0.41800000000E+01 0.  1.
        -11    1    1    2    0    0  0.30058539137E+02 -0.36084072069E+02 -0.25432800944E+03  0.25862774874E+03  0.00000000000E+00 0.  1.
         11    1    1    2    0    0 -0.58224977079E+02 -0.28236606705E+02 -0.19753260885E+03  0.20786193849E+03  0.00000000000E+00 0. -1.
</event>
<event>
 7    1  0.2714042E-009  0.1287667E+03  0.7561462E-02  0.1229297E+00
          2   -1    0    0  501    0  0.00000000000E+00  0.00000000000E+00  0.12417532401E+03  0.12417532401E+03  0.00000000000E+00 0. -1.
         -2   -1    0    0    0  501 -0.00000000000E+00 -0.00000000000E+00 -0.14010640064E+03  0.14010640064E+03  0.00000000000E+00 0.  1.
         25    2    1    2    0    0 -0.14026366516E+02  0.69370205442E+02 -0.46193051560E+01  0.14379940503E+03  0.12509183245E+03 0.  0.
          5    1    3    3  502    0  0.36872979470E+02  0.77571973202E+02 -0.22816362233E+02  0.88966771477E+02  0.41800000000E+01 0.  1.
         -5    1    3    3    0  502 -0.50899345986E+02 -0.82017677603E+01  0.18197057077E+02  0.54832633554E+02  0.41800000000E+01 0.  1.
        -11    1    1    2    0    0  0.50486662901E+02 -0.66149939671E+02 -0.10464560713E+02  0.83870284847E+02  0.00000000000E+00 0.  1.
         11    1    1    2    0    0 -0.36460296385E+02 -0.32202657707E+01 -0.84721076821E+00  0.36612034773E+02  0.00000000000E+00 0. -1.
</event>
<event>
 7    1  0.2714042E-009  0.9372737E+02  0.7561462E-02  0.1294068E+00
          1   -1    0    0  501    0  0.00000000000E+00  0.00000000000E+00  0.24557957228E+02  0.24557957228E+02  0.00000000000E+00 0. -1.
         -1   -1    0    0    0  501 -0.00000000000E+00 -0.00000000000E+00 -0.64240839177E+03  0.64240839177E+03  0.00000000000E+00 0.  1.
         25    2    1    2    0    0 -0.18313578407E+02  0.59015614522E+02 -0.37052692876E+03  0.39592394307E+03  0.12508930349E+03 0.  0.
          5    1    3    3  502    0 -0.15268212550E+02  0.66103288542E+02 -0.37820516955E+03  0.38426473393E+03  0.41800000000E+01 0. -1.
         -5    1    3    3    0  502 -0.30453658570E+01 -0.70876740198E+01  0.76782407849E+01  0.11659209140E+02  0.41800000000E+01 0. -1.
        -11    1    1    2    0    0  0.55085275075E+02 -0.24544808035E+02 -0.12711703771E+03  0.14069675336E+03  0.00000000000E+00 0.  1.
         11    1    1    2    0    0 -0.36771696668E+02 -0.34470806488E+02 -0.12020646807E+03  0.13034565256E+03  0.00000000000E+00 0. -1.
</event>
<event>
 7    1  0.2714042E-009  0.1721490E+03  0.7561462E-02  0.1175625E+00
          2   -1    0    0  501    0  0.00000000000E+00  0.00000000000E+00  0.40454114898E+03  0.40454114898E+03  0.00000000000E+00 0. -1.
         -2   -1    0    0    0  501 -0.00000000000E+00 -0.00000000000E+00 -0.96757225012E+02  0.96757225012E+02  0.00000000000E+00 0.  1.
         25    2    1    2    0    0 -0.15531229607E+03 -0.40359745047E+02  0.20800834336E+03  0.29097303150E+03  0.12508803231E+03 0.  0.
          5    1    3    3  502    0 -0.93645259787E+01 -0.20563236659E+02 -0.12200250377E+02  0.26016524709E+02  0.41800000000E+01 0.  1.
         -5    1    3    3    0  502 -0.14594777009E+03 -0.19796508388E+02  0.22020859374E+03  0.26495650680E+03  0.41800000000E+01 0.  1.
        -11    1    1    2    0    0  0.63258903021E+02  0.51071001939E+02  0.82925069091E+02  0.11613140460E+03  0.00000000000E+00 0. -1.
         11    1    1    2    0    0  0.92053393048E+02 -0.10711256892E+02  0.16850511515E+02  0.94193937884E+02  0.00000000000E+00 0.  1.
</event>
<event>
 7    1  0.2714042E-009  0.1285983E+03  0.7561462E-02  0.1229551E+00
          1   -1    0    0  501    0  0.00000000000E+00  0.00000000000E+00  0.29230830672E+03  0.29230830672E+03  0.00000000000E+00 0. -1.
         -1   -1    0    0    0  501 -0.00000000000E+00 -0.00000000000E+00 -0.72358926081E+02  0.72358926081E+02  0.00000000000E+00 0.  1.
         25    2    1    2    0    0  0.13205539923E+02 -0.95658948820E+02  0.12604980342E+03  0.20214023371E+03  0.12508837024E+03 0.  0.
          5    1    3    3  502    0  0.48218465875E+02 -0.36839539392E+02  0.11843337592E+03  0.13313943460E+03  0.41800000000E+01 0.  1.
         -5    1    3    3    0  502 -0.35012925952E+02 -0.58819409428E+02  0.76164274919E+01  0.69000799104E+02  0.41800000000E+01 0.  1.
        -11    1    1    2    0    0  0.32783910808E+02  0.17641179737E+02  0.88016009485E+01  0.38255250746E+02  0.00000000000E+00 0.  1.
         11    1    1    2    0    0 -0.45989450731E+02  0.78017769083E+02  0.85097976280E+02  0.12427174835E+03  0.00000000000E+00 0. -1.
</event>
<event>
 7    1  0.2714042E-009  0.1314988E+03  0.7561462E-02  0.1225249E+00
         -2   -1    0    0    0  501 -0.00000000000E+00  0.00000000000E+00  0.49985062592E+03  0.49985062592E+03  0.00000000000E+00 0.  1.
          2   -1    0    0  501    0  0.00000000000E+00 -0.00000000000E+00 -0.39387015786E+02  0.39387015786E+02  0.00000000000E+00 0. -1.
         25    2    1    2    0    0  0.79876164432E+02  0.37752209025E+02  0.27443894629E+03  0.31427639766E+03  0.12508991949E+03 0.  0.
          5    1    3    3  502    0  0.72320840145E+02  0.78827219645E+02  0.22671276888E+03  0.25071933800E+03  0.41800000000E+01 0.  1.
         -5    1    3    3    0  502  0.75553242871E+01 -0.41075010621E+02  0.47726177410E+02  0.63557059661E+02  0.41800000000E+01 0.  1.
        -11    1    1    2    0    0  0.14192078849E+01 -0.32468624144E+02  0.10558544161E+03  0.11047402946E+03  0.00000000000E+00 0.  1.
         11    1    1    2    0    0 -0.81295372317E+02 -0.52835848802E+01  0.80439222237E+02  0.11448721458E+03  0.00000000000E+00 0. -1.
</event>
<event>
 7    1  0.2714042E-009  0.1683571E+03  0.7561462E-02  0.1179572E+00
          2   -1    0    0  501    0  0.00000000000E+00  0.00000000000E+00  0.38449679407E+03  0.38449679407E+03  0.00000000000E+00 0. -1.
         -2   -1    0    0    0  501 -0.00000000000E+00 -0.00000000000E+00 -0.88749382627E+02  0.88749382627E+02  0.00000000000E+00 0.  1.
         25    2    1    2    0    0  0.36535682414E+02 -0.13793931139E+03  0.20683575660E+03  0.28069446623E+03  0.12508494492E+03 0.  0.
          5    1    3    3  502    0 -0.44155413825E+02 -0.37324882474E+02  0.43175614524E+02  0.72280381234E+02  0.41800000000E+01 0. -1.
         -5    1    3    3    0  502  0.80691096239E+02 -0.10061442892E+03  0.16366014208E+03  0.20841408499E+03  0.41800000000E+01 0. -1.
        -11    1    1    2    0    0  0.40344806634E+01  0.73146824325E+02  0.90065305349E+02  0.11609691715E+03  0.00000000000E+00 0. -1.
         11    1    1    2    0    0 -0.40570163077E+02  0.64792487069E+02 -0.11536505083E+01  0.76454793323E+02  0.00000000000E+00 0.  1.
</event>
<event>
 7    1  0.2714042E-009  0.6928357E+02  0.7561462E-02  0.1362546E+00
          2   -1    0    0  501    0  0.00000000000E+00  0.00000000000E+00  0.93606193536E+02  0.93606193536E+02  0.00000000000E+00 0. -1.
         -2   -1    0    0    0  501 -0.00000000000E+00 -0.00000000000E+00 -0.15694533193E+03  0.15694533193E+03  0.00000000000E+00 0.  1.
         25    2    1    2    0    0  0.14055088545E+02 -0.51782892902E+02 -0.43233143103E+02  0.14282168377E+03  0.12509962102E+03 0.  0.
          5    1    3    3  502    0  0.14840779050E+02 -0.47747593274E+02  0.37020356140E+02  0.62354314646E+02  0.41800000000E+01 0. -1.
         -5    1    3    3    0  502 -0.78569050499E+00 -0.40352996287E+01 -0.80253499243E+02  0.80467369122E+02  0.41800000000E+01 0. -1.
        -11    1    1    2    0    0  0.12830310781E+02  0.54046467985E+02  0.20301973835E+02  0.59142266764E+02  0.00000000000E+00 0. -1.
         11    1    1    2    0    0 -0.26885399326E+02 -0.22635750823E+01 -0.40407969122E+02  0.48587574930E+02  0.00000000000E+00 0.  1.
</event>
<event>
 7    1  0.2714042E-009  0.4427527E+03  0.7561462E-02  0.1029906E+00
         -1   -1    0    0    0  501 -0.00000000000E+00  0.00000000000E+00  0.12108163655E+03  0.12108163655E+03  0.00000000000E+00 0.  1.
          1   -1    0    0  501    0  0.00000000000E+00 -0.00000000000E+00 -0.17329258207E+04  0.17329258207E+04  0.00000000000E+00 0. -1.
         25    2    1    2    0    0 -0.11898486600E+02 -0.44031158521E+03 -0.93879040001E+03  0.10445055091E+04  0.12509387369E+03 0.  0.
          5    1    3    3  502    0 -0.27705888155E+02 -0.11570046235E+03 -0.15087335639E+03  0.19218338974E+03  0.41800000000E+01 0.  1.
         -5    1    3    3    0  502  0.15807401555E+02 -0.32461112287E+03 -0.78791704362E+03  0.85232211931E+03  0.41800000000E+01 0.  1.
        -11    1    1    2    0    0 -0.96452924024E+01  0.16715079087E+03 -0.18292526477E+03  0.24797998114E+03  0.00000000000E+00 0.  1.
         11    1    1    2    0    0  0.21543779002E+02  0.27316079434E+03 -0.49012851938E+03  0.56152196706E+03  0.00000000000E+00 0. -1.
</event>
<event>
 7    1  0.2714042E-009  0.1708807E+03  0.7561462E-02  0.1176933E+00
          2   -1    0    0  501    0  0.00000000000E+00  0.00000000000E+00  0.11194816318E+03  0.11194816318E+03  0.00000000000E+00 0. -1.
         -2   -1    0    0    0  501 -0.00000000000E+00 -0.00000000000E+00 -0.41876558888E+03  0.41876558888E+03  0.00000000000E+00 0.  1.
         25    2    1    2    0    0  0.14129124737E+03  0.33234343167E+02 -0.13318874463E+02  0.19207451315E+03  0.12508991980E+03 0.  0.
          5    1    3    3  502    0  0.12703715290E+03  0.72078119363E+02  0.59473379953E+01  0.14624136466E+03  0.41800000000E+01 0.  1.
         -5    1    3    3    0  502  0.14254094471E+02 -0.38843776196E+02 -0.19266212458E+02  0.45833148493E+02  0.41800000000E+01 0.  1.
        -11    1    1    2    0    0 -0.98932514591E+02  0.20056123452E+01 -0.24857305600E+03  0.26754481698E+03  0.00000000000E+00 0.  1.
         11    1    1    2    0    0 -0.42358732778E+02 -0.35239955512E+02 -0.44925495237E+02  0.71094421928E+02  0.00000000000E+00 0. -1.
</event>
<event>
 7    1  0.2714042E-009  0.1216957E+03  0.7561462E-02  0.1240326E+00
         -1   -1    0    0    0  501 -0.00000000000E+00  0.00000000000E+00  0.96361174673E+01  0.96361174673E+01  0.00000000000E+00 0.  1.
          1   -1    0    0  501    0  0.00000000000E+00 -0.00000000000E+00 -0.17648091399E+04  0.17648091399E+04  0.00000000000E+00 0. -1.
         25    2    1    2    0    0  0.59237109293E+02 -0.44737057253E+01 -0.11929010842E+04  0.12009113183E+04  0.12508376616E+03 0.  0.
          5    1    3    3  502    0  0.45395218032E+02  0.56869315018E+02 -0.75286466873E+03  0.75638450978E+03  0.41800000000E+01 0.  1.
         -5    1    3    3    0  502  0.13841891260E+02 -0.61343020743E+02 -0.44003641551E+03  0.44452680855E+03  0.41800000000E+01 0.  1.
        -11    1    1    2    0    0 -0.77111974215E+02  0.24239618066E+02 -0.48747544240E+03  0.49413168548E+03  0.00000000000E+00 0.  1.
         11    1    1    2    0    0  0.17874864922E+02 -0.19765912341E+02 -0.74796495755E+02  0.79402253519E+02  0.00000000000E+00 0. -1.
</event>
<event>
 7    1  0.2714042E-009  0.9695183E+02  0.7561462E-02  0.1286840E+00
          1   -1    0    0  501    0  0.00000000000E+00  0.00000000000E+00  0.56021478657E+02  0.56021478657E+02  0.00000000000E+00 0. -1.
         -1   -1    0    0    0  501 -0.00000000000E+00 -0.00000000000E+00 -0.44355010231E+03  0.44355010231E+03  0.00000000000E+00 0.  1.
         25    2    1    2    0    0  0.28739829311E+01 -0.89252584981E+00 -0.38646231283E+03  0.40621320714E+03  0.12508794520E+03 0.  0.
          5    1    3    3  502    0  0.47884681376E+02 -0.32880439431E+02 -0.28230845777E+03  0.28825267343E+03  0.41800000000E+01 0. -1.
         -5    1    3    3    0  502 -0.45010698445E+02  0.31987913581E+02 -0.10415385506E+03  0.11796053371E+03  0.41800000000E+01 0. -1.
        -11    1    1    2    0    0 -0.40195761358E+02 -0.99798130528E+01 -0.24351583768E+02  0.48044724286E+02  0.00000000000E+00 0.  1.
         11    1    1    2    0    0  0.37321778427E+02  0.10872338903E+02  0.23285272951E+02  0.45313649539E+02  0.00000000000E+00 0. -1.
</event>
<event>
 7    1  0.2714042E-009  0.1589323E+03  0.7561462E-02  0.1189908E+00
          1   -1    0    0  501    0  0.00000000000E+00  0.00000000000E+00  0.47796189793E+02  0.47796189793E+02  0.00000000000E+00 0. -1.
         -1   -1    0    0    0  501 -0.00000000000E+00 -0.00000000000E+00 -0.68909234429E+03  0.68909234429E+03  0.00000000000E+00 0.  1.
         25    2    1    2    0    0 -0.49824336801E+02  0.13762424710E+03 -0.33763722447E+03  0.38867616553E+03  0.12508944148E+03 0.  0.
          5    1    3    3  502    0 -0.10426123806E+02  0.86969540789E+02 -0.30340608387E+03  0.31582452282E+03  0.41800000000E+01 0. -1.
         -5    1    3    3    0  502 -0.39398212995E+02  0.50654706308E+02 -0.34231140602E+02  0.72851642708E+02  0.41800000000E+01 0. -1.
        -11    1    1    2    0    0 -0.11526681405E+02 -0.82761986241E+02 -0.19290925618E+03  0.21022937918E+03  0.00000000000E+00 0.  1.
         11    1    1    2    0    0  0.61351018206E+02 -0.54862260856E+02 -0.11074967384E+03  0.13798298938E+03  0.00000000000E+00 0. -1.
</event>
<event>
 7    1  0.2714042E-009  0.2228543E+03  0.7561462E-02  0.1131773E+00
          1   -1    0    0  501    0  0.00000000000E+00  0.00000000000E+00  0.10695195500E+03  0.10695195500E+03  0.00000000000E+00 0. -1.
         -1   -1    0    0    0  501 -0.00000000000E+00 -0.00000000000E+00 -0.54802978309E+03  0.54802978309E+03  0.00000000000E+00 0.  1.
         25    2    1    2    0    0  0.18209698631E+03 -0.10085625063E+03 -0.14981837417E+03  0.28534924950E+03  0.12508938100E+03 0.  0.
          5    1    3    3  502    0  0.93888808324E+02 -0.11314555070E+03 -0.12439825809E+03  0.19263806214E+03  0.41800000000E+01 0. -1.
         -5    1    3    3    0  502  0.88208177988E+02  0.12289300065E+02 -0.25420116078E+02  0.92711187359E+02  0.41800000000E+01 0. -1.
        -11    1    1    2    0    0 -0.11050093978E+03  0.74029044926E+02 -0.24894079645E+03  0.28224506607E+03  0.00000000000E+00 0.  1.
         11    1    1    2    0    0 -0.71596046529E+02  0.26827205704E+02 -0.42318657464E+02  0.87387422516E+02  0.00000000000E+00 0. -1.
</event>
<event>
 7    1  0.2714042E-009  0.1744656E+03  0.7561462E-02  0.1173269E+00
          2   -1    0    0  501    0  0.00000000000E+00  0.00000000000E+00  0.90356347782E+03  0.90356347782E+03  0.00000000000E+00 0. -1.
         -2   -1    0    0    0  501 -0.00000000000E+00 -0.00000000000E+00 -0.41904993672E+02  0.41904993672E+02  0.00000000000E+00 0.  1.
         25    2    1    2    0    0 -0.10083060137E+03 -0.12024231236E+03  0.54215087273E+03  0.57809901938E+03  0.12508350632E+03 0.  0.
          5    1    3    3  502    0  0.20305226049E+02 -0.31509991379E+01  0.18384036758E+02  0.27886846505E+02  0.41800000000E+01 0.  1.
         -5    1    3    3    0  502 -0.12113582742E+03 -0.11709131322E+03  0.52376683598E+03  0.55021217288E+03  0.41800000000E+01 0.  1.
        -11    1    1    2    0    0  0.75782792267E+01  0.25071550089E+02  0.62135153846E+01  0.26918779938E+02  0.00000000000E+00 0.  1.
         11    1    1    2    0    0  0.93252322140E+02  0.95170762268E+02  0.31329409603E+03  0.34045067217E+03  0.00000000000E+00 0. -1.
</event>
<event>
 7    1  0.2714042E-009  0.2082191E+03  0.7561462E-02  0.1142984E+00
         -2   -1    0    0    0  501 -0.00000000000E+00  0.00000000000E+00  0.86837972483E+02  0.86837972483E+02  0.00000000000E+00 0. -1.
          2   -1    0    0  501    0  0.00000000000E+00 -0.00000000000E+00 -0.66794523717E+03  0.66794523717E+03  0.00000000000E+00 0.  1.
         25    2    1    2    0    0 -0.12644086028E+03  0.13204929418E+03 -0.12380484013E+03  0.25377046938E+03  0.12508998940E+03 0.  0.
          5    1    3    3  502    0 -0.99811422659E+02  0.15614306347E+03 -0.10398707285E+03  0.21254119620E+03  0.41800000000E+01 0. -1.
         -5    1    3    3    0  502 -0.26629437620E+02 -0.24093769291E+02 -0.19817767278E+02  0.41229273175E+02  0.41800000000E+01 0. -1.
        -11    1    1    2    0    0  0.44185673856E+02 -0.62662293314E+01 -0.18164899498E+03  0.18705078664E+03  0.00000000000E+00 0.  1.
         11    1    1    2    0    0  0.82255186423E+02 -0.12578306485E+03 -0.27565342957E+03  0.31396195364E+03  0.00000000000E+00 0. -1.
</event>
<event>
 7    1  0.2714042E-009  0.8445370E+02  0.7561462E-02  0.1316867E+00
          3   -1    0    0  501    0  0.00000000000E+00  0.00000000000E+00  0.24202748941E+03  0.24202748941E+03  0.00000000000E+00 0. -1.
         -3   -1    0    0    0  501 -0.00000000000E+00 -0.00000000000E+00 -0.52701259289E+02  0.52701259289E+02  0.00000000000E+00 0.  1.
         25    2    1    2    0    0  0.14279597600E+02  0.16206261909E+02  0.13494278184E+03  0.18526578048E+03  0.12508918904E+03 0.  0.
          5    1    3    3  502    0 -0.17098261065E+02  0.49558821523E+02  0.11913808251E+02  0.53924378060E+02  0.41800000000E+01 0.  1.
         -5    1    3    3    0  502  0.31377858665E+02 -0.33352559613E+02  0.12302897359E+03  0.13134140242E+03  0.41800000000E+01 0.  1.
        -11    1    1    2    0    0 -0.27518954006E+02  0.18518420679E+02 -0.10413086088E+02  0.34765746013E+02  0.00000000000E+00 0.  1.
         11    1    1    2    0    0  0.13239356405E+02 -0.34724682588E+02  0.64796534368E+02  0.74697222204E+02  0.00000000000E+00 0. -1.
</event>
<event>
 7    1  0.2714042E-009  0.9299192E+02  0.7561462E-02  0.1295764E+00
         -3   -1    0    0    0  501 -0.00000000000E+00  0.00000000000E+00  0.14010125832E+04  0.14010125832E+04  0.00000000000E+00 0.  1.
          3   -1    0    0  501    0  0.00000000000E+00 -0.00000000000E+00 -0.16369686608E+02  0.16369686608E+02  0.00000000000E+00 0. -1.
         25    2    1    2    0    0 -0.84733485904E+01  0.39556492970E+02  0.12160426540E+04  0.12231288880E+04  0.12509207317E+03 0.  0.
          5    1    3    3  502    0  0.48689892990E+01 -0.23862492968E+02  0.90699898564E+03  0.90733552668E+03  0.41800000000E+01 0. -1.
         -5    1    3    3    0  502 -0.13342337889E+02  0.63418985938E+02  0.30904366832E+03  0.31579336137E+03  0.41800000000E+01 0. -1.
        -11    1    1    2    0    0 -0.31140169225E+01  0.27805968758E+02  0.44192642279E+02  0.52305435966E+02  0.00000000000E+00 0. -1.
         11    1    1    2    0    0  0.11587365513E+02 -0.67362461728E+02  0.12440760041E+03  0.14194794584E+03  0.00000000000E+00 0.  1.
</event>
<event>
 7    1  0.2714042E-009  0.1450892E+03  0.7561462E-02  0.1206641E+00
          2   -1    0    0  501    0  0.00000000000E+00  0.00000000000E+00  0.16479643994E+03  0.16479643994E+03  0.00000000000E+00 0.  1.
         -2   -1    0    0    0  501 -0.00000000000E+00 -0.00000000000E+00 -0.13794085100E+03  0.13794085100E+03  0.00000000000E+00 0. -1.
         25    2    1    2    0    0  0.92784319169E+02 -0.29003268645E+02  0.53964560262E+02  0.16735995299E+03  0.12508821138E+03 0.  0.
          5    1    3    3  502    0  0.11325357009E+03  0.10019952247E+02  0.33556999194E+02  0.11861835935E+03  0.41800000000E+01 0. -1.
         -5    1    3    3    0  502 -0.20469250916E+02 -0.39023220892E+02  0.20407561067E+02  0.48741593640E+02  0.41800000000E+01 0. -1.
        -11    1    1    2    0    0 -0.13343529421E+02  0.48534507970E+02 -0.16016947155E+02  0.52822257027E+02  0.00000000000E+00 0. -1.
         11    1    1    2    0    0 -0.79440789748E+02 -0.19531239325E+02 -0.11092024171E+02  0.82555080919E+02  0.00000000000E+00 0.  1.
</event>
<event>
 7    1  0.2714042E-009  0.1070141E+03  0.7561462E-02  0.1266201E+00
          2   -1    0    0  501    0  0.00000000000E+00  0.00000000000E+00  0.14038378818E+04  0.14038378818E+04  0.00000000000E+00 0. -1.
         -2   -1    0    0    0  501 -0.00000000000E+00 -0.00000000000E+00 -0.21828213532E+02  0.21828213532E+02  0.00000000000E+00 0.  1.
         25    2    1    2    0    0  0.30744230853E+02 -0.14318640456E+02  0.12732494086E+04  0.12798293497E+04  0.12509547066E+03 0.  0.
          5    1    3    3  502    0  0.33950268133E+02  0.50508583976E+02  0.46827454097E+03  0.47223114666E+03  0.41800000000E+01 0. -1.
         -5    1    3    3    0  502 -0.32060372797E+01 -0.64827224432E+02  0.80497486759E+03  0.80759820304E+03  0.41800000000E+01 0. -1.
        -11    1    1    2    0    0  0.20342730627E+02 -0.18308743132E+02  0.84672828967E+01  0.28648414339E+02  0.00000000000E+00 0.  1.
         11    1    1    2    0    0 -0.51086961481E+02  0.32627383588E+02  0.10029297684E+03  0.11718833132E+03  0.00000000000E+00 0. -1.
</event>
<event>
 7    1  0.2714042E-009  0.7304900E+02  0.7561462E-02  0.1350021E+00
         -2   -1    0    0    0  501 -0.00000000000E+00  0.00000000000E+00  0.94895657003E+02  0.94895657003E+02  0.00000000000E+00 0.  1.
          2   -1    0    0  501    0  0.00000000000E+00 -0.00000000000E+00 -0.13537315845E+03  0.13537315845E+03  0.00000000000E+00 0. -1.
         25    2    1    2    0    0  0.33053002221E+02 -0.32242180781E+02 -0.22805294229E+02  0.13526307280E+03  0.12507580998E+03 0.  0.
          5    1    3    3  502    0  0.31297174430E+02 -0.15262312683E+01 -0.71121613037E+02  0.77830577218E+02  0.41800000000E+01 0. -1.
         -5    1    3    3    0  502  0.17558277918E+01 -0.30715949513E+02  0.48316318808E+02  0.57432495583E+02  0.41800000000E+01 0. -1.
        -11    1    1    2    0    0 -0.12721185360E+02 -0.22053618014E+02 -0.26050789213E+02  0.36425735999E+02  0.00000000000E+00 0. -1.
         11    1    1    2    0    0 -0.20331816861E+02  0.54295798795E+02  0.83785819908E+01  0.58580006657E+02  0.00000000000E+00 0.  1.
</event>
<event>
 7    1  0.2714042E-009  0.1225772E+03  0.7561462E-02  0.1238905E+00
          1   -1    0    0  501    0  0.00000000000E+00  0.00000000000E+00  0.56988144226E+03  0.56988144226E+03  0.00000000000E+00 0. -1.
         -1   -1    0    0    0  501 -0.00000000000E+00 -0.00000000000E+00 -0.34537065595E+02  0.34537065595E+02  0.00000000000E+00 0.  1.
         25    2    1    2    0    0  0.86678323372E+02  0.15291216291E+02  0.28787340480E+03  0.32598884030E+03  0.12510265293E+03 0.  0.
          5    1    3    3  502    0  0.99291289150E+02 -0.31383521087E+02  0.18818665208E+03  0.21511711675E+03  0.41800000000E+01 0. -1.
         -5    1    3    3    0  502 -0.12612965778E+02  0.46674737378E+02  0.99686752714E+02  0.11087172354E+03  0.41800000000E+01 0. -1.
        -11    1    1    2    0    0 -0.47469150683E+02 -0.22517036399E+02  0.37108741627E+02  0.64322592453E+02  0.00000000000E+00 0.  1.
         11    1    1    2    0    0 -0.39209172689E+02  0.72258201084E+01  0.21036223024E+03  0.21410707510E+03  0.00000000000E+00 0. -1.
</event>
<event>
 7    1  0.2714042E-009  0.1962069E+03  0.7561462E-02  0.1152979E+00
         -2   -1    0    0    0  501 -0.00000000000E+00  0.00000000000E+00  0.10368999598E+03  0.10368999598E+03  0.00000000000E+00 0.  1.
          2   -1    0    0  501    0  0.00000000000E+00 -0.00000000000E+00 -0.44244614652E+03  0.44244614652E+03  0.00000000000E+00 0. -1.
         25    2    1    2    0    0 -0.64246432218E+02 -0.16783534553E+03 -0.22973336580E+03  0.31736476440E+03  0.12508663820E+03 0.  0.
          5    1    3    3  502    0  0.77950904715E+01  0.16478718639E+01 -0.78544259394E+02  0.79057902837E+02  0.41800000000E+01 0. -1.
         -5    1    3    3    0  502 -0.72041522690E+02 -0.16948321740E+03 -0.15118910640E+03  0.23830686156E+03  0.41800000000E+01 0. -1.
        -11    1    1    2    0    0  0.85583112153E+02  0.12715448998E+03 -0.70017800956E+02  0.16850883021E+03  0.00000000000E+00 0.  1.
         11    1    1    2    0    0 -0.21336679935E+02  0.40680855552E+02 -0.39004983786E+02  0.60262547899E+02  0.00000000000E+00 0. -1.
</event>
<event>
 7    1  0.2714042E-009  0.1019910E+03  0.7561462E-02  0.1276164E+00
          1   -1    0    0  501    0  0.00000000000E+00  0.00000000000E+00  0.66623413267E+02  0.66623413267E+02  0.00000000000E+00 0. -1.
         -1   -1    0    0    0  501 -0.00000000000E+00 -0.00000000000E+00 -0.21068845859E+03  0.21068845859E+03  0.00000000000E+00 0.  1.
         25    2    1    2    0    0 -0.57702458730E+01  0.12712138092E+02 -0.28330799304E+02  0.12901604138E+03  0.12509040951E+03 0.  0.
          5    1    3    3  502    0 -0.46559000448E+02  0.47111435400E+02 -0.35084060618E+02  0.75070577309E+02  0.41800000000E+01 0.  1.
         -5    1    3    3    0  502  0.40788754575E+02 -0.34399297308E+02  0.67532613135E+01  0.53945464067E+02  0.41800000000E+01 0.  1.
        -11    1    1    2    0    0 -0.15119070849E+01  0.35400261627E+02 -0.19464300716E+02  0.40426765746E+02  0.00000000000E+00 0. -1.
         11    1    1    2    0    0  0.72821529579E+01 -0.48112399718E+02 -0.96269945306E+02  0.10786906474E+03  0.00000000000E+00 0.  1.
</event>
<event>
 7    1  0.2714042E-009  0.1254533E+03  0.7561462E-02  0.1234363E+00
         -1   -1    0    0    0  501 -0.00000000000E+00  0.00000000000E+00  0.30183400871E+03  0.30183400871E+03  0.00000000000E+00 0.  1.
          1   -1    0    0  501    0  0.00000000000E+00 -0.00000000000E+00 -0.72420224536E+02  0.72420224536E+02  0.00000000000E+00 0. -1.
         25    2    1    2    0    0 -0.10653630644E+02  0.92812271445E+02  0.17052410671E+03  0.23120116444E+03  0.12509152606E+03 0.  0.
          5    1    3    3  502    0  0.54439518816E+02  0.65099322954E+02  0.85915885081E+02  0.12083292088E+03  0.41800000000E+01 0.  1.
         -5    1    3    3    0  502 -0.65093149460E+02  0.27712948491E+02  0.84608221628E+02  0.11036824357E+03  0.41800000000E+01 0.  1.
        -11    1    1    2    0    0 -0.13392393840E+00 -0.68182888830E+02  0.82668397054E+02  0.10715870537E+03  0.00000000000E+00 0. -1.
         11    1    1    2    0    0  0.10787554582E+02 -0.24629382615E+02 -0.23778719584E+02  0.35894363442E+02  0.00000000000E+00 0.  1.
</event>
<event>
 7    1  0.2714042E-009  0.1811005E+03  0.7561462E-02  0.1166742E+00
         -2   -1    0    0    0  501 -0.00000000000E+00  0.00000000000E+00  0.31694113331E+02  0.31694113331E+02  0.00000000000E+00 0.  1.
          2   -1    0    0  501    0  0.00000000000E+00 -0.00000000000E+00 -0.13122618548E+04  0.13122618548E+04  0.00000000000E+00 0. -1.
         25    2    1    2    0    0  0.68001157926E+02 -0.14484810762E+03 -0.44933000956E+03  0.49310411605E+03  0.12509628296E+03 0.  0.
          5    1    3    3  502    0 -0.98121076372E+01 -0.10736911472E+03 -0.17618336163E+03  0.20659732227E+03  0.41800000000E+01 0.  1.
         -5    1    3    3    0  502  0.77813265564E+02 -0.37478992899E+02 -0.27314664793E+03  0.28650679378E+03  0.41800000000E+01 0.  1.
        -11    1    1    2    0    0 -0.14585720943E+02  0.12697092318E+01 -0.17485958630E+02  0.22806011623E+02  0.00000000000E+00 0.  1.
         11    1    1    2    0    0 -0.53415436984E+02  0.14357839839E+03 -0.81375177330E+03  0.82804584048E+03  0.00000000000E+00 0. -1.
</event>
<event>
 7    1  0.2714042E-009  0.1066432E+03  0.7561462E-02  0.1266915E+00
          2   -1    0    0  501    0  0.00000000000E+00  0.00000000000E+00  0.84962789732E+02  0.84962789732E+02  0.00000000000E+00 0.  1.
         -2   -1    0    0    0  501 -0.00000000000E+00 -0.00000000000E+00 -0.17578519176E+03  0.17578519176E+03  0.00000000000E+00 0. -1.
         25    2    1    2    0    0 -0.12648977006E+02 -0.35331510419E+02 -0.45623729246E+01  0.13067874963E+03  0.12509119917E+03 0.  0.
          5    1    3    3  502    0 -0.27774928685E+02 -0.77390795933E+02  0.11225492369E+02  0.83091913189E+02  0.41800000000E+01 0.  1.
         -5    1    3    3    0  502  0.15125951678E+02  0.42059285514E+02 -0.15787865294E+02  0.47586836443E+02  0.41800000000E+01 0.  1.
        -11    1    1    2    0    0  0.93792963426E+01 -0.24453398153E+02 -0.58454271443E+02  0.64053428722E+02  0.00000000000E+00 0. -1.
         11    1    1    2    0    0  0.32696806635E+01  0.59784908572E+02 -0.27805757659E+02  0.66015803136E+02  0.00000000000E+00 0.  1.
</event>
<event>
 7    1  0.2714042E-009  0.1199108E+03  0.7561462E-02  0.1243244E+00
         -2   -1    0    0    0  501 -0.00000000000E+00  0.00000000000E+00  0.41849027897E+02  0.41849027897E+02  0.00000000000E+00 0.  1.
          2   -1    0    0  501    0  0.00000000000E+00 -0.00000000000E+00 -0.43356340659E+03  0.43356340659E+03  0.00000000000E+00 0. -1.
         25    2    1    2    0    0  0.18208913244E+02  0.65059136571E+02 -0.13557421080E+03  0.19644656022E+03  0.12508648454E+03 0.  0.
          5    1    3    3  502    0  0.49881223514E+02  0.80453200542E+02 -0.12950632298E+03  0.16046873224E+03  0.41800000000E+01 0.  1.
         -5    1    3    3    0  502 -0.31672310270E+02 -0.15394063971E+02 -0.60678878269E+01  0.35977827979E+02  0.41800000000E+01 0.  1.
        -11    1    1    2    0    0 -0.34780054988E+02  0.71598806011E+01 -0.10048654715E+03  0.10657608678E+03  0.00000000000E+00 0.  1.
         11    1    1    2    0    0  0.16571141744E+02 -0.72219017172E+02 -0.15565362074E+03  0.17238978749E+03  0.00000000000E+00 0. -1.
</event>
<event>
 7    1  0.2714042E-009  0.1838344E+03  0.7561462E-02  0.1164143E+00
         -2   -1    0    0    0  501 -0.00000000000E+00  0.00000000000E+00  0.27399777786E+02  0.27399777786E+02  0.00000000000E+00 0.  1.
          2   -1    0    0  501    0  0.00000000000E+00 -0.00000000000E+00 -0.13332443811E+04  0.13332443811E+04  0.00000000000E+00 0. -1.
         25    2    1    2    0    0  0.13079491752E+03 -0.76919145016E+02 -0.54739050891E+03  0.58164661288E+03  0.12511014229E+03 0.  0.
          5    1    3    3  502    0  0.77489983102E+02 -0.10807511121E+03 -0.40774017837E+03  0.42889911705E+03  0.41800000000E+01 0. -1.
         -5    1    3    3    0  502  0.53304934417E+02  0.31155966192E+02 -0.13965033054E+03  0.15274749583E+03  0.41800000000E+01 0. -1.
        -11    1    1    2    0    0 -0.12641309166E+03  0.35802450433E+02 -0.64494368463E+03  0.65819027761E+03  0.00000000000E+00 0.  1.
         11    1    1    2    0    0 -0.43818258590E+01  0.41116694584E+02 -0.11351040980E+03  0.12080726842E+03  0.00000000000E+00 0. -1.
</event>
<event>
 7    1  0.2714042E-009  0.8369675E+02  0.7561462E-02  0.1318876E+00
          2   -1    0    0  501    0  0.00000000000E+00  0.00000000000E+00  0.18402871581E+03  0.18402871581E+03  0.00000000000E+00 0. -1.
         -2   -1    0    0    0  501 -0.00000000000E+00 -0.00000000000E+00 -0.95231128240E+02  0.95231128240E+02  0.00000000000E+00 0.  1.
         25    2    1    2    0    0 -0.69519946019E+02  0.18200022312E+02  0.46944249511E+02  0.15170905677E+03  0.12509041385E+03 0.  0.
          5    1    3    3  502    0 -0.41690931776E+02 -0.21275692042E+02  0.80176442161E+02  0.92932895908E+02  0.41800000000E+01 0.  1.
         -5    1    3    3    0  502 -0.27829014243E+02  0.39475714354E+02 -0.33232192650E+02  0.58776160863E+02  0.41800000000E+01 0.  1.
        -11    1    1    2    0    0  0.12330917976E+02 -0.43899994975E+01  0.63520426962E+02  0.64854978800E+02  0.00000000000E+00 0. -1.
         11    1    1    2    0    0  0.57189028043E+02 -0.13810022815E+02 -0.21667088906E+02  0.62695808475E+02  0.00000000000E+00 0.  1.
</event>
<event>
 7    1  0.2714042E-009  0.1357828E+03  0.7561462E-02  0.1219119E+00
         -1   -1    0    0    0  501 -0.00000000000E+00  0.00000000000E+00  0.31659322234E+02  0.31659322234E+02  0.00000000000E+00 0.  1.
          1   -1    0    0  501    0  0.00000000000E+00 -0.00000000000E+00 -0.10865330350E+04  0.10865330350E+04  0.00000000000E+00 0. -1.
         25    2    1    2    0    0 -0.15002927750E+02  0.11320611537E+03 -0.86085239102E+03  0.87735707886E+03  0.12509153570E+03 0.  0.
          5    1    3    3  502    0 -0.41959645776E+02  0.73822451809E+02 -0.76970468806E+03  0.77438565682E+03  0.41800000000E+01 0.  1.
         -5    1    3    3    0  502  0.26956718026E+02  0.39383663565E+02 -0.91147702959E+02  0.10297142204E+03  0.41800000000E+01 0.  1.
        -11    1    1    2    0    0  0.45449872125E+02 -0.88276369580E+02 -0.11079490157E+03  0.14877472405E+03  0.00000000000E+00 0. -1.
         11    1    1    2    0    0 -0.30446944375E+02 -0.24929745794E+02 -0.83226420180E+02  0.92060554328E+02  0.00000000000E+00 0.  1.
</event>
<event>
 7    1  0.3888350E-009  0.1031630E+03  0.7561462E-02  0.1273782E+00
         -2   -1    0    0    0  501 -0.00000000000E+00  0.00000000000E+00  0.10102756220E+02  0.10102756220E+02  0.00000000000E+00 0.  1.
          2   -1    0    0  501    0  0.00000000000E+00 -0.00000000000E+00 -0.14300517923E+04  0.14300517923E+04  0.00000000000E+00 0. -1.
         25    2    1    2    0    0 -0.14593813807E+02  0.19237325754E+02 -0.10744291866E+04  0.10819558985E+04  0.12508970929E+03 0.  0.
          5    1    3    3  502    0 -0.65255567355E+02  0.90846796163E+01 -0.79668919017E+03  0.79941976371E+03  0.41800000000E+01 0. -1.
         -5    1    3    3    0  502  0.50661753547E+02  0.10152646138E+02 -0.27773999639E+03  0.28253613484E+03  0.41800000000E+01 0. -1.
        -11    1    1    2    0    0 -0.10718974133E+02  0.30682013341E+02 -0.71774241581E+02  0.78789746184E+02  0.00000000000E+00 0.  1.
         11    1    1    2    0    0  0.25312787940E+02 -0.49919339095E+02 -0.27374560791E+03  0.27940890376E+03  0.00000000000E+00 0. -1.
</event>
<event>
 7    1  0.2714042E-009  0.1766185E+03  0.7561462E-02  0.1171116E+00
         -3   -1    0    0    0  501 -0.00000000000E+00  0.00000000000E+00  0.62029513168E+03  0.62029513168E+03  0.00000000000E+00 0.  1.
          3   -1    0    0  501    0  0.00000000000E+00 -0.00000000000E+00 -0.51683185028E+02  0.51683185028E+02  0.00000000000E+00 0. -1.
         25    2    1    2    0    0 -0.13133199497E+03  0.42810906654E+02  0.25641463550E+03  0.31698106135E+03  0.12509061246E+03 0.  0.
          5    1    3    3  502    0 -0.14130814789E+03  0.68111411234E+02  0.23263900863E+03  0.28061635330E+03  0.41800000000E+01 0. -1.
         -5    1    3    3    0  502  0.99761529138E+01 -0.25300504581E+02  0.23775626865E+02  0.36364708054E+02  0.41800000000E+01 0. -1.
        -11    1    1    2    0    0  0.36185064118E+01  0.24271417395E+02  0.51502952798E+02  0.57050411374E+02  0.00000000000E+00 0.  1.
         11    1    1    2    0    0  0.12771348856E+03 -0.67082324049E+02  0.26069435836E+03  0.29794684398E+03  0.00000000000E+00 0. -1.
</event>
<event>
 7    1  0.2714042E-009  0.1338509E+03  0.7561462E-02  0.1221851E+00
         -2   -1    0    0    0  501 -0.00000000000E+00  0.00000000000E+00  0.34835546616E+02  0.34835546616E+02  0.00000000000E+00 0.  1.
          2   -1    0    0  501    0  0.00000000000E+00 -0.00000000000E+00 -0.59334998133E+03  0.59334998133E+03  0.00000000000E+00 0. -1.
         25    2    1    2    0    0 -0.69952477220E+02  0.41684412365E+02 -0.39995061346E+03  0.42689505878E+03  0.12509180107E+03 0.  0.
          5    1    3    3  502    0 -0.80564711781E+02 -0.18370468760E+02 -0.28414754576E+03  0.29594838582E+03  0.41800000000E+01 0.  1.
         -5    1    3    3    0  502  0.10612234562E+02  0.60054881126E+02 -0.11580306770E+03  0.13094667296E+03  0.41800000000E+01 0.  1.
        -11    1    1    2    0    0  0.71914458008E+02  0.95653051940E+01 -0.87784907128E+02  0.11388316053E+03  0.00000000000E+00 0.  1.
         11    1    1    2    0    0 -0.19619807883E+01 -0.51249717559E+02 -0.70778914126E+02  0.87407308639E+02  0.00000000000E+00 0. -1.
</event>
<event>
 7    1  0.2714042E-009  0.1201195E+03  0.7561462E-02  0.1242900E+00
         -2   -1    0    0    0  501 -0.00000000000E+00  0.00000000000E+00  0.67160501929E+02  0.67160501929E+02  0.00000000000E+00 0.  1.
          2   -1    0    0  501    0  0.00000000000E+00 -0.00000000000E+00 -0.25707853366E+03  0.25707853366E+03  0.00000000000E+00 0. -1.
         25    2    1    2    0    0  0.86866707361E+01  0.74192475773E+02 -0.10941186907E+03  0.18220486227E+03  0.12509065925E+03 0.  0.
          5    1    3    3  502    0 -0.52955471427E+02  0.77935055698E+01 -0.52727642459E+02  0.75250896090E+02  0.41800000000E+01 0.  1.
         -5    1    3    3    0  502  0.61642142163E+02  0.66398970203E+02 -0.56684226608E+02  0.10695396618E+03  0.41800000000E+01 0.  1.
        -11    1    1    2    0    0 -0.23452721402E+02 -0.35941261615E+01 -0.63701047969E+02  0.67976256122E+02  0.00000000000E+00 0. -1.
         11    1    1    2    0    0  0.14766050666E+02 -0.70598349612E+02 -0.16805114695E+02  0.74057917201E+02  0.00000000000E+00 0.  1.
</event>
<event>
 7    1  0.2714042E-009  0.1245046E+03  0.7561462E-02  0.1235846E+00
          4   -1    0    0  501    0  0.00000000000E+00  0.00000000000E+00  0.64391774924E+03  0.64391774924E+03  0.00000000000E+00 0.  1.
         -4   -1    0    0    0  501 -0.00000000000E+00 -0.00000000000E+00 -0.26891904384E+02  0.26891904384E+02  0.00000000000E+00 0. -1.
         25    2    1    2    0    0  0.25530587761E+02  0.61396987029E+02  0.24731281888E+03  0.28501342440E+03  0.12509045040E+03 0.  0.
          5    1    3    3  502    0 -0.48888665804E+02  0.36226829410E+02  0.84755047275E+02  0.10441922836E+03  0.41800000000E+01 0. -1.
         -5    1    3    3    0  502  0.74419253565E+02  0.25170157619E+02  0.16255777160E+03  0.18059419604E+03  0.41800000000E+01 0. -1.
        -11    1    1    2    0    0 -0.37649236077E+02  0.83416561313E+01  0.10791907279E+03  0.11460180835E+03  0.00000000000E+00 0.  1.
         11    1    1    2    0    0  0.12118648316E+02 -0.69738643160E+02  0.26179395319E+03  0.27119442087E+03  0.00000000000E+00 0. -1.
</event>
<event>
 7    1  0.2714042E-009  0.1650658E+03  0.7561462E-02  0.1183093E+00
         -2   -1    0    0    0  501 -0.00000000000E+00  0.00000000000E+00  0.17611170392E+02  0.17611170392E+02  0.00000000000E+00 0.  1.
          2   -1    0    0  501    0  0.00000000000E+00 -0.00000000000E+00 -0.20010870053E+04  0.20010870053E+04  0.00000000000E+00 0. -1.
         25    2    1    2    0    0 -0.68456163293E+02  0.10833990764E+03 -0.14955129575E+04  0.15061972267E+04  0.12508915908E+03 0.  0.
          5    1    3    3  502    0  0.24020516815E+01 -0.26316578739E+02 -0.24305008833E+03  0.24451819975E+03  0.41800000000E+01 0. -1.
         -5    1    3    3    0  502 -0.70858214975E+02  0.13465648638E+03 -0.12524628692E+04  0.12616790270E+04  0.41800000000E+01 0. -1.
        -11    1    1    2    0    0  0.74952077246E+00 -0.76210993823E+02 -0.31333782805E+03  0.32247367621E+03  0.00000000000E+00 0. -1.
         11    1    1    2    0    0  0.67706642521E+02 -0.32128913821E+02 -0.17462504930E+03  0.19002727275E+03  0.00000000000E+00 0.  1.
</event>
<event>
 7    1  0.2714042E-009  0.6630331E+02  0.7561462E-02  0.1373135E+00
         -2   -1    0    0    0  501 -0.00000000000E+00  0.00000000000E+00  0.16713241423E+02  0.16713241423E+02  0.00000000000E+00 0.  1.
          2   -1    0    0  501    0  0.00000000000E+00 -0.00000000000E+00 -0.20226834570E+04  0.20226834570E+04  0.00000000000E+00 0. -1.
         25    2    1    2    0    0  0.21123573162E+02 -0.21366947222E+02 -0.18570043805E+04  0.18614551065E+04  0.12508833996E+03 0.  0.
          5    1    3    3  502    0 -0.23197725299E+02  0.76843975550E+01 -0.82262043366E+02  0.85916823752E+02  0.41800000000E+01 0.  1.
         -5    1    3    3    0  502  0.44321298460E+02 -0.29051344777E+02 -0.17747423371E+04  0.17755382828E+04  0.41800000000E+01 0.  1.
        -11    1    1    2    0    0  0.66431502969E+01  0.25707403782E+02 -0.20842092497E+00  0.26552692789E+02  0.00000000000E+00 0.  1.
         11    1    1    2    0    0 -0.27766723459E+02 -0.43404565599E+01 -0.14875741414E+03  0.15138889905E+03  0.00000000000E+00 0. -1.
</event>
<event>
 7    1  0.2714042E-009  0.1081897E+03  0.7561462E-02  0.1263960E+00
         -1   -1    0    0    0  501 -0.00000000000E+00  0.00000000000E+00  0.26014567422E+02  0.26014567422E+02  0.00000000000E+00 0. -1.
          1   -1    0    0  501    0  0.00000000000E+00 -0.00000000000E+00 -0.57657099381E+03  0.57657099381E+03  0.00000000000E+00 0.  1.
         25    2    1    2    0    0 -0.40288132106E+02  0.23539115018E+02 -0.22143933665E+03  0.25857245725E+03  0.12508841796E+03 0.  0.
          5    1    3    3  502    0  0.35249132698E+02  0.40825684598E+02 -0.70628901003E+02  0.88967139640E+02  0.41800000000E+01 0.  1.
         -5    1    3    3    0  502 -0.75537264804E+02 -0.17286569580E+02 -0.15081043565E+03  0.16960531761E+03  0.41800000000E+01 0.  1.
        -11    1    1    2    0    0 -0.19897182932E+02  0.41235148895E+00 -0.20121754840E+02  0.28301111996E+02  0.00000000000E+00 0. -1.
         11    1    1    2    0    0  0.60185315037E+02 -0.23951466507E+02 -0.30899533490E+03  0.31571199198E+03  0.00000000000E+00 0.  1.
</event>
<event>
 7    1  0.2714042E-009  0.7340669E+02  0.7561462E-02  0.1348877E+00
         -1   -1    0    0    0  501 -0.00000000000E+00  0.00000000000E+00  0.50117452128E+02  0.50117452128E+02  0.00000000000E+00 0. -1.
          1   -1    0    0  501    0  0.00000000000E+00 -0.00000000000E+00 -0.49427996347E+03  0.49427996347E+03  0.00000000000E+00 0.  1.
         25    2    1    2    0    0 -0.17762461652E+02 -0.25066636797E+01 -0.30586703833E+03  0.33094336289E+03  0.12508827242E+03 0.  0.
          5    1    3    3  502    0  0.36411480685E+02  0.13619815525E+02 -0.24370506649E+03  0.24682165045E+03  0.41800000000E+01 0. -1.
         -5    1    3    3    0  502 -0.54173942337E+02 -0.16126479205E+02 -0.62161971842E+02  0.84121712436E+02  0.41800000000E+01 0. -1.
        -11    1    1    2    0    0  0.23407883228E+02 -0.18151246201E+02 -0.17144703997E+03  0.17398702322E+03  0.00000000000E+00 0.  1.
         11    1    1    2    0    0 -0.56454215752E+01  0.20657909881E+02  0.33151566952E+02  0.39467029490E+02  0.00000000000E+00 0. -1.
</event>
<event>
 7    1  0.2714042E-009  0.9536295E+02  0.7561462E-02  0.1290361E+00
         -3   -1    0    0    0  501 -0.00000000000E+00  0.00000000000E+00  0.48307404302E+02  0.48307404302E+02  0.00000000000E+00 0.  1.
          3   -1    0    0  501    0  0.00000000000E+00 -0.00000000000E+00 -0.25523316682E+03  0.25523316682E+03  0.00000000000E+00 0. -1.
         25    2    1    2    0    0 -0.27169231168E+02  0.24533717892E+01 -0.12818287396E+03  0.18116545440E+03  0.12508351824E+03 0.  0.
          5    1    3    3  502    0  0.27917243614E+02 -0.46371863715E+02 -0.53415344986E+02  0.76160315883E+02  0.41800000000E+01 0.  1.
         -5    1    3    3    0  502 -0.55086474782E+02  0.48825235504E+02 -0.74767528977E+02  0.10500513852E+03  0.41800000000E+01 0.  1.
        -11    1    1    2    0    0 -0.14436964837E+02  0.11887121969E+02  0.11513611903E+02  0.21961167579E+02  0.00000000000E+00 0.  1.
         11    1    1    2    0    0  0.41606196005E+02 -0.14340493758E+02 -0.90256500463E+02  0.10041394915E+03  0.00000000000E+00 0. -1.
</event>
<event>
 7    1  0.2714042E-009  0.7864288E+02  0.7561462E-02  0.1332947E+00
          2   -1    0    0  501    0  0.00000000000E+00  0.00000000000E+00  0.58432341951E+03  0.58432341951E+03  0.00000000000E+00 0. -1.
         -2   -1    0    0    0  501 -0.00000000000E+00 -0.00000000000E+00 -0.29805512827E+02  0.29805512827E+02  0.00000000000E+00 0.  1.
         25    2    1    2    0    0 -0.82310327132E+01  0.15756216031E+02  0.47037241143E+03  0.48704532004E+03  0.12508768959E+03 0.  0.
          5    1    3    3  502    0 -0.33218496249E+02  0.48211519950E+02  0.40869251742E+03  0.41288601979E+03  0.41800000000E+01 0. -1.
         -5    1    3    3    0  502  0.24987463536E+02 -0.32455303920E+02  0.61679894017E+02  0.74159300242E+02  0.41800000000E+01 0. -1.
        -11    1    1    2    0    0 -0.23386438935E+02 -0.91715903249E+01 -0.10389457152E+02  0.27184267786E+02  0.00000000000E+00 0.  1.
         11    1    1    2    0    0  0.31617471648E+02 -0.65846257060E+01  0.94534952397E+02  0.99899344511E+02  0.00000000000E+00 0. -1.
</event>
<event>
 7    1  0.3354879E-009  0.1517251E+03  0.7561462E-02  0.1198369E+00
          1   -1    0    0  501    0  0.00000000000E+00  0.00000000000E+00  0.45161003533E+03  0.45161003533E+03  0.00000000000E+00 0. -1.
         -1   -1    0    0    0  501 -0.00000000000E+00 -0.00000000000E+00 -0.54616833758E+02  0.54616833758E+02  0.00000000000E+00 0.  1.
         25    2    1    2    0    0  0.10368833141E+03 -0.44734413737E+02  0.22681690420E+03  0.28256962429E+03  0.12508895515E+03 0.  0.
          5    1    3    3  502    0  0.12757667424E+03 -0.32288485465E+02  0.14277529092E+03  0.19421794511E+03  0.41800000000E+01 0.  1.
         -5    1    3    3    0  502 -0.23888342829E+02 -0.12445928271E+02  0.84041613272E+02  0.88351679186E+02  0.41800000000E+01 0.  1.
        -11    1    1    2    0    0 -0.25779439500E+02  0.59848655485E+02  0.66661185418E+02  0.93220999274E+02  0.00000000000E+00 0. -1.
         11    1    1    2    0    0 -0.77908891909E+02 -0.15114241749E+02  0.10351511196E+03  0.13043624552E+03  0.00000000000E+00 0.  1.
</event>
<event>
 7    1  0.2714042E-009  0.1579547E+03  0.7561462E-02  0.1191025E+00
          2   -1    0    0  501    0  0.00000000000E+00  0.00000000000E+00  0.15484380768E+03  0.15484380768E+03  0.00000000000E+00 0. -1.
         -2   -1    0    0    0  501 -0.00000000000E+00 -0.00000000000E+00 -0.21181888593E+03  0.21181888593E+03  0.00000000000E+00 0.  1.
         25    2    1    2    0    0  0.14074700139E+03 -0.10693004654E+02  0.25413122163E+01  0.18862140552E+03  0.12509003798E+03 0.  0.
          5    1    3    3  502    0  0.11823017096E+03  0.88246730311E+01  0.52951380400E+02  0.12991369930E+03  0.41800000000E+01 0.  1.
         -5    1    3    3    0  502  0.22516830424E+02 -0.19517677685E+02 -0.50410068184E+02  0.58707706214E+02  0.41800000000E+01 0.  1.
        -11    1    1    2    0    0 -0.17936067769E+02  0.37423942908E+02 -0.21456559382E+02  0.46718711137E+02  0.00000000000E+00 0. -1.
         11    1    1    2    0    0 -0.12281093362E+03 -0.26730938253E+02 -0.38059831091E+02  0.13132257696E+03  0.00000000000E+00 0.  1.
</event>
<event>
 7    1  0.2714042E-009  0.8151686E+02  0.7561462E-02  0.1324801E+00
         -1   -1    0    0    0  501 -0.00000000000E+00  0.00000000000E+00  0.26475299248E+02  0.26475299248E+02  0.00000000000E+00 0.  1.
          1   -1    0    0  501    0  0.00000000000E+00 -0.00000000000E+00 -0.55172415722E+03  0.55172415722E+03  0.00000000000E+00 0. -1.
         25    2    1    2    0    0  0.55365799781E+01 -0.14354093402E+02 -0.42493329230E+03  0.44322967558E+03  0.12509016225E+03 0.  0.
          5    1    3    3  502    0 -0.11582685474E+02 -0.65675226525E+02 -0.17160696393E+03  0.18415704290E+03  0.41800000000E+01 0. -1.
         -5    1    3    3    0  502  0.17119265452E+02  0.51321133122E+02 -0.25332632837E+03  0.25907263268E+03  0.41800000000E+01 0. -1.
        -11    1    1    2    0    0 -0.22190770038E+02  0.46370901262E+01 -0.11074958773E+03  0.11304602630E+03  0.00000000000E+00 0. -1.
         11    1    1    2    0    0  0.16654190060E+02  0.97170032760E+01  0.10434022056E+02  0.21923754594E+02  0.00000000000E+00 0.  1.
</event>
<event>
 7    1  0.2714042E-009  0.1224086E+03  0.7561462E-02  0.1239176E+00
         -2   -1    0    0    0  501 -0.00000000000E+00  0.00000000000E+00  0.12020800467E+03  0.12020800467E+03  0.00000000000E+00 0.  1.
          2   -1    0    0  501    0  0.00000000000E+00 -0.00000000000E+00 -0.20281633705E+03  0.20281633705E+03  0.00000000000E+00 0. -1.
         25    2    1    2    0    0 -0.10769492157E+03 -0.64007793657E+00 -0.13674536720E+02  0.16563057648E+03  0.12509152281E+03 0.  0.
          5    1    3    3  502    0  0.10792997499E+02  0.25681105287E+01  0.35355868394E+02  0.37290666615E+02  0.41800000000E+01 0.  1.
         -5    1    3    3    0  502 -0.11848791907E+03 -0.32081884653E+01 -0.49030405114E+02  0.12833990986E+03  0.41800000000E+01 0.  1.
        -11    1    1    2    0    0  0.54076582078E+02 -0.18906508861E+02 -0.80854682056E+02  0.99091939213E+02  0.00000000000E+00 0. -1.
         11    1    1    2    0    0  0.53618339492E+02  0.19546586798E+02  0.11920886398E+02  0.58301826025E+02  0.00000000000E+00 0.  1.
</event>
<event>
 7    1  0.2714042E-009  0.1099427E+03  0.7561462E-02  0.1260676E+00
         -2   -1    0    0    0  501 -0.00000000000E+00  0.00000000000E+00  0.10079601167E+03  0.10079601167E+03  0.00000000000E+00 0.  1.
          2   -1    0    0  501    0  0.00000000000E+00 -0.00000000000E+00 -0.19065726075E+03  0.19065726075E+03  0.00000000000E+00 0. -1.
         25    2    1    2    0    0 -0.71286768194E+02 -0.19435840539E+02 -0.16744520145E+01  0.14529100204E+03  0.12508843379E+03 0.  0.
          5    1    3    3  502    0 -0.59823351174E+02  0.32370103851E+02 -0.40624406165E+02  0.79337706957E+02  0.41800000000E+01 0.  1.
         -5    1    3    3    0  502 -0.11463417021E+02 -0.51805944390E+02  0.38949954150E+02  0.65953295083E+02  0.41800000000E+01 0.  1.
        -11    1    1    2    0    0  0.40708318241E+02  0.43518846615E+02 -0.89143655947E+02  0.10722708884E+03  0.00000000000E+00 0. -1.
         11    1    1    2    0    0  0.30578449954E+02 -0.24083006076E+02  0.95685888008E+00  0.38935181547E+02  0.00000000000E+00 0.  1.
</event>
<event>
 7    1  0.2714042E-009  0.1551775E+03  0.7561462E-02  0.1194251E+00
         -2   -1    0    0    0  501 -0.00000000000E+00  0.00000000000E+00  0.42015284562E+02  0.42015284562E+02  0.00000000000E+00 0.  1.
          2   -1    0    0  501    0  0.00000000000E+00 -0.00000000000E+00 -0.11636896074E+04  0.11636896074E+04  0.00000000000E+00 0. -1.
         25    2    1    2    0    0 -0.11708479682E+03 -0.34708137723E+02 -0.98643063761E+03  0.10018018439E+04  0.12509207437E+03 0.  0.
          5    1    3    3  502    0 -0.90840123075E+01  0.40288023517E+02 -0.30242582063E+03  0.30526135278E+03  0.41800000000E+01 0. -1.
         -5    1    3    3    0  502 -0.10800078451E+03 -0.74996161240E+02 -0.68400481698E+03  0.69654049108E+03  0.41800000000E+01 0. -1.
        -11    1    1    2    0    0  0.12160874933E+02 -0.16533507311E+02  0.52840361545E+01  0.21193507997E+02  0.00000000000E+00 0.  1.
         11    1    1    2    0    0  0.10492392188E+03  0.51241645034E+02 -0.14052772138E+03  0.18270954010E+03  0.00000000000E+00 0. -1.
</event>
<event>
 7    1  0.2714042E-009  0.1214369E+03  0.7561462E-02  0.1240745E+00
          2   -1    0    0  501    0  0.00000000000E+00  0.00000000000E+00  0.54135839925E+03  0.54135839925E+03  0.00000000000E+00 0. -1.
         -2   -1    0    0    0  501 -0.00000000000E+00 -0.00000000000E+00 -0.33058222875E+02  0.33058222875E+02  0.00000000000E+00 0.  1.
         25    2    1    2    0    0  0.48360226226E+02 -0.36835920205E+02  0.17611897162E+03  0.22440466635E+03  0.12507583946E+03 0.  0.
          5    1    3    3  502    0  0.66005329453E+02  0.27920990750E+02  0.93232036456E+02  0.11766890100E+03  0.41800000000E+01 0. -1.
         -5    1    3    3    0  502 -0.17645103227E+02 -0.64756910955E+02  0.82886935165E+02  0.10673576535E+03  0.41800000000E+01 0. -1.
        -11    1    1    2    0    0  0.10671879566E+02 -0.19504610204E+02  0.13162951510E+03  0.13349400016E+03  0.00000000000E+00 0. -1.
         11    1    1    2    0    0 -0.59032105792E+02  0.56340530409E+02  0.20055168966E+03  0.21651795562E+03  0.00000000000E+00 0.  1.
</event>
<event>
 7    1  0.2714042E-009  0.1114142E+03  0.7561462E-02  0.1257973E+00
          2   -1    0    0  501    0  0.00000000000E+00  0.00000000000E+00  0.82172820321E+03  0.82172820321E+03  0.00000000000E+00 0. -1.
         -2   -1    0    0    0  501 -0.00000000000E+00 -0.00000000000E+00 -0.20560230878E+02  0.20560230878E+02  0.00000000000E+00 0.  1.
         25    2    1    2    0    0  0.67167975558E+02 -0.92457172178E+01  0.45754678443E+03  0.47915935789E+03  0.12509040766E+03 0.  0.
          5    1    3    3  502    0 -0.15814759855E+02  0.14284780179E+02  0.28865558618E+03  0.28947138271E+03  0.41800000000E+01 0. -1.
         -5    1    3    3    0  502  0.82982735413E+02 -0.23530497397E+02  0.16889119825E+03  0.18968797519E+03  0.41800000000E+01 0. -1.
        -11    1    1    2    0    0 -0.28738099332E+02 -0.41883194639E+02  0.19119093589E+03  0.19782329062E+03  0.00000000000E+00 0. -1.
         11    1    1    2    0    0 -0.38429876226E+02  0.51128911857E+02  0.15243025201E+03  0.16530578557E+03  0.00000000000E+00 0.  1.
</event>
<event>
 7    1  0.2714042E-009  0.1199826E+03  0.7561462E-02  0.1243126E+00
          1   -1    0    0  501    0  0.00000000000E+00  0.00000000000E+00  0.68554805936E+03  0.68554805936E+03  0.00000000000E+00 0. -1.
         -1   -1    0    0    0  501 -0.00000000000E+00 -0.00000000000E+00 -0.36283996750E+02  0.36283996750E+02  0.00000000000E+00 0.  1.
         25    2    1    2    0    0  0.91417018087E+02 -0.45503776124E+01  0.19588495011E+03  0.24978946199E+03  0.12508430960E+03 0.  0.
          5    1    3    3  502    0 -0.10270569571E+02  0.12173194947E+02  0.12153670096E+03  0.12264710904E+03  0.41800000000E+01 0. -1.
         -5    1    3    3    0  502  0.10168758766E+03 -0.16723572559E+02  0.74348249153E+02  0.12714235295E+03  0.41800000000E+01 0. -1.
        -11    1    1    2    0    0 -0.70993114744E+02  0.38485198838E+02  0.38170021964E+03  0.39014893380E+03  0.00000000000E+00 0.  1.
         11    1    1    2    0    0 -0.20423903343E+02 -0.33934821226E+02  0.71678892848E+02  0.81893660312E+02  0.00000000000E+00 0. -1.
</event>
<event>
 7    1  0.2714042E-009  0.1587741E+03  0.7561462E-02  0.1190088E+00
          1   -1    0    0  501    0  0.00000000000E+00  0.00000000000E+00  0.34451167006E+03  0.34451167006E+03  0.00000000000E+00 0. -1.
         -1   -1    0    0    0  501 -0.00000000000E+00 -0.00000000000E+00 -0.99242303484E+02  0.99242303484E+02  0.00000000000E+00 0.  1.
         25    2    1    2    0    0 -0.13721851151E+03  0.51378309521E+02  0.14749511572E+03  0.24263364155E+03  0.12509046431E+03 0.  0.
          5    1    3    3  502    0 -0.30568261849E+02  0.55750726249E+02  0.11414787957E+03  0.13072785824E+03  0.41800000000E+01 0. -1.
         -5    1    3    3    0  502 -0.10665024966E+03 -0.43724167285E+01  0.33347236156E+02  0.11190578331E+03  0.41800000000E+01 0. -1.
        -11    1    1    2    0    0  0.10439525173E+03 -0.33539587636E+02  0.11594132130E+03  0.15957964315E+03  0.00000000000E+00 0. -1.
         11    1    1    2    0    0  0.32823259774E+02 -0.17838721885E+02 -0.18167070450E+02  0.41540688841E+02  0.00000000000E+00 0.  1.
</event>
<event>
 7    1  0.2714042E-009  0.1089404E+03  0.7561462E-02  0.1262545E+00
         -2   -1    0    0    0  501 -0.00000000000E+00  0.00000000000E+00  0.25477947450E+02  0.25477947450E+02  0.00000000000E+00 0.  1.
          2   -1    0    0  501    0  0.00000000000E+00 -0.00000000000E+00 -0.86258920843E+03  0.86258920843E+03  0.00000000000E+00 0. -1.
         25    2    1    2    0    0 -0.53248319029E+02 -0.72459730723E+02 -0.31616373875E+03  0.35170086948E+03  0.12509274894E+03 0.  0.
          5    1    3    3  502    0 -0.35329930828E+02 -0.49567659463E+02 -0.37760915852E+02  0.71753160508E+02  0.41800000000E+01 0.  1.
         -5    1    3    3    0  502 -0.17918388201E+02 -0.22892071260E+02 -0.27840282290E+03  0.27994770897E+03  0.41800000000E+01 0.  1.
        -11    1    1    2    0    0  0.43655401629E+01  0.78161610110E+02 -0.30569502903E+03  0.31555941755E+03  0.00000000000E+00 0.  1.
         11    1    1    2    0    0  0.48882778866E+02 -0.57018793863E+01 -0.21525249320E+03  0.22080686884E+03  0.00000000000E+00 0. -1.
</event>
<event>
 7    1  0.2714042E-009  0.1056351E+03  0.7561462E-02  0.1268873E+00
         -2   -1    0    0    0  501 -0.00000000000E+00  0.00000000000E+00  0.62603659848E+03  0.62603659848E+03  0.00000000000E+00 0. -1.
          2   -1    0    0  501    0  0.00000000000E+00 -0.00000000000E+00 -0.25560959024E+02  0.25560959024E+02  0.00000000000E+00 0.  1.
         25    2    1    2    0    0  0.44375307605E+02  0.35864458384E+02  0.24421654640E+03  0.28025929812E+03  0.12509246718E+03 0.  0.
          5    1    3    3  502    0  0.43518031966E+02  0.64881057386E+02  0.23766074866E+03  0.25020686355E+03  0.41800000000E+01 0. -1.
         -5    1    3    3    0  502  0.85727563894E+00 -0.29016599003E+02  0.65557977346E+01  0.30052434563E+02  0.41800000000E+01 0. -1.
        -11    1    1    2    0    0  0.12199210976E+02  0.20493868139E+02  0.61781120211E+02  0.66224815547E+02  0.00000000000E+00 0. -1.
         11    1    1    2    0    0 -0.56574518581E+02 -0.56358326523E+02  0.29447797284E+03  0.30511344384E+03  0.00000000000E+00 0.  1.
</event>
<event>
 7    1  0.2714042E-009  0.1362294E+03  0.7561462E-02  0.1218495E+00
          2   -1    0    0  501    0  0.00000000000E+00  0.00000000000E+00  0.79261207771E+02  0.79261207771E+02  0.00000000000E+00 0. -1.
         -2   -1    0    0    0  501 -0.00000000000E+00 -0.00000000000E+00 -0.32661608615E+03  0.32661608615E+03  0.00000000000E+00 0.  1.
         25    2    1    2    0    0 -0.98695657060E+02  0.14148996301E+02 -0.52095171602E+02  0.16823416469E+03  0.12509116853E+03 0.  0.
          5    1    3    3  502    0  0.22326754905E+02 -0.16354692069E+01  0.16542762724E+02  0.28147720026E+02  0.41800000000E+01 0.  1.
         -5    1    3    3    0  502 -0.12102241197E+03  0.15784465508E+02 -0.68637934327E+02  0.14008644466E+03  0.41800000000E+01 0.  1.
        -11    1    1    2    0    0  0.95244880457E+02  0.16551696365E+02 -0.10735072116E+03  0.14446357063E+03  0.00000000000E+00 0. -1.
         11    1    1    2    0    0  0.34507766029E+01 -0.30700692666E+02 -0.87908985614E+02  0.93179558600E+02  0.00000000000E+00 0.  1.
</event>
<event>
 7    1  0.2714042E-009  0.1264376E+03  0.7561462E-02  0.1232840E+00
          1   -1    0    0  501    0  0.00000000000E+00  0.00000000000E+00  0.67992805987E+02  0.67992805987E+02  0.00000000000E+00 0. -1.
         -1   -1    0    0    0  501 -0.00000000000E+00 -0.00000000000E+00 -0.34682002917E+03  0.34682002917E+03  0.00000000000E+00 0.  1.
         25    2    1    2    0    0 -0.61034190448E+01  0.93314060171E+02 -0.78590339909E+02  0.17484167690E+03  0.12509358458E+03 0.  0.
          5    1    3    3  502    0 -0.62179059491E+02  0.26397434477E+02 -0.44630278809E+02  0.81070303890E+02  0.41800000000E+01 0.  1.
         -5    1    3    3    0  502  0.56075640447E+02  0.66916625694E+02 -0.33960061100E+02  0.93771373008E+02  0.41800000000E+01 0.  1.
        -11    1    1    2    0    0  0.10721015544E+02 -0.11050109199E+02  0.70320195654E+01  0.16926145066E+02  0.00000000000E+00 0. -1.
         11    1    1    2    0    0 -0.46175964992E+01 -0.82263950972E+02 -0.20726890284E+03  0.22304501320E+03  0.00000000000E+00 0.  1.
</event>
<event>
 7    1  0.2714042E-009  0.2249211E+03  0.7561462E-02  0.1130266E+00
         -1   -1    0    0    0  501 -0.00000000000E+00  0.00000000000E+00  0.59075262393E+02  0.59075262393E+02  0.00000000000E+00 0. -1.
          1   -1    0    0  501    0  0.00000000000E+00 -0.00000000000E+00 -0.11937630251E+04  0.11937630251E+04  0.00000000000E+00 0.  1.
         25    2    1    2    0    0  0.21763467878E+03  0.27233231568E+02 -0.82396464376E+03  0.86178638947E+03  0.12510613337E+03 0.  0.
          5    1    3    3  502    0  0.16606682452E+03 -0.44879909584E+01 -0.73850248361E+03  0.75696877278E+03  0.41800000000E+01 0.  1.
         -5    1    3    3    0  502  0.51567854258E+02  0.31721222526E+02 -0.85462160145E+02  0.10481761669E+03  0.41800000000E+01 0.  1.
        -11    1    1    2    0    0 -0.11584427031E+03 -0.34647887616E+02 -0.23391617309E+03  0.26331947728E+03  0.00000000000E+00 0.  1.
         11    1    1    2    0    0 -0.10179040847E+03  0.74146560481E+01 -0.76806945905E+02  0.12773242079E+03  0.00000000000E+00 0. -1.
</event>
<event>
 7    1  0.2714042E-009  0.6924293E+02  0.7561462E-02  0.1362687E+00
          1   -1    0    0  501    0  0.00000000000E+00  0.00000000000E+00  0.11686730989E+03  0.11686730989E+03  0.00000000000E+00 0. -1.
         -1   -1    0    0    0  501 -0.00000000000E+00 -0.00000000000E+00 -0.10324048673E+03  0.10324048673E+03  0.00000000000E+00 0.  1.
         25    2    1    2    0    0 -0.52109293055E+01  0.20089291724E+02  0.12367515613E+02  0.12740156762E+03  0.12508984996E+03 0.  0.
          5    1    3    3  502    0 -0.32501935742E+02  0.30870948438E+02 -0.44482116140E+02  0.63289196082E+02  0.41800000000E+01 0.  1.
         -5    1    3    3    0  502  0.27291006437E+02 -0.10781656714E+02  0.56849631753E+02  0.64112371538E+02  0.41800000000E+01 0.  1.
        -11    1    1    2    0    0 -0.27538365610E+01 -0.41184596723E+02 -0.32205104061E+02  0.52353828424E+02  0.00000000000E+00 0.  1.
         11    1    1    2    0    0  0.79647658665E+01  0.21095305000E+02  0.33464411604E+02  0.40352400578E+02  0.00000000000E+00 0. -1.
</event>
<event>
 7    1  0.2714042E-009  0.8508076E+02  0.7561462E-02  0.1315221E+00
         -1   -1    0    0    0  501 -0.00000000000E+00  0.00000000000E+00  0.32006297590E+03  0.32006297590E+03  0.00000000000E+00 0.  1.
          1   -1    0    0  501    0  0.00000000000E+00 -0.00000000000E+00 -0.38530824623E+02  0.38530824623E+02  0.00000000000E+00 0. -1.
         25    2    1    2    0    0  0.24178215342E+02  0.10123428078E+02  0.15915802567E+03  0.20411946403E+03  0.12508560496E+03 0.  0.
          5    1    3    3  502    0 -0.28587748877E+02  0.15320414214E+02 -0.35923352218E+01  0.32899114728E+02  0.41800000000E+01 0. -1.
         -5    1    3    3    0  502  0.52765964220E+02 -0.51969861353E+01  0.16275036089E+03  0.17122034930E+03  0.41800000000E+01 0. -1.
        -11    1    1    2    0    0 -0.76888555830E+01  0.35207082744E+02  0.19785069911E+02  0.41110900828E+02  0.00000000000E+00 0. -1.
         11    1    1    2    0    0 -0.16489359759E+02 -0.45330510822E+02  0.10258905569E+03  0.11336343566E+03  0.00000000000E+00 0.  1.
</event>
<event>
 7    1  0.2714042E-009  0.9011115E+02  0.7561462E-02  0.1302583E+00
         -2   -1    0    0    0  501 -0.00000000000E+00  0.00000000000E+00  0.12688531671E+03  0.12688531671E+03  0.00000000000E+00 0.  1.
          2   -1    0    0  501    0  0.00000000000E+00 -0.00000000000E+00 -0.97837627999E+02  0.97837627999E+02  0.00000000000E+00 0. -1.
         25    2    1    2    0    0 -0.18805389352E+02 -0.85759637265E+01  0.37036223127E+01  0.12684240864E+03  0.12509232586E+03 0.  0.
          5    1    3    3  502    0  0.20494088998E+02  0.40422260426E+02 -0.30896945684E+02  0.55009639832E+02  0.41800000000E+01 0. -1.
         -5    1    3    3    0  502 -0.39299478350E+02 -0.48998224153E+02  0.34600567997E+02  0.71832768806E+02  0.41800000000E+01 0. -1.
        -11    1    1    2    0    0 -0.26080672217E+02  0.10725360908E+00  0.41850143650E+02  0.49311737854E+02  0.00000000000E+00 0.  1.
         11    1    1    2    0    0  0.44886061568E+02  0.84687101174E+01 -0.16506077250E+02  0.48568798218E+02  0.00000000000E+00 0. -1.
</event>
<event>
 7    1  0.2714042E-009  0.2199595E+03  0.7561462E-02  0.1133913E+00
         -2   -1    0    0    0  501 -0.00000000000E+00  0.00000000000E+00  0.42916280395E+03  0.42916280395E+03  0.00000000000E+00 0. -1.
          2   -1    0    0  501    0  0.00000000000E+00 -0.00000000000E+00 -0.12979888050E+03  0.12979888050E+03  0.00000000000E+00 0.  1.
         25    2    1    2    0    0 -0.11226602130E+03 -0.17605398017E+03  0.13912125061E+03  0.28036105337E+03  0.12509570098E+03 0.  0.
          5    1    3    3  502    0 -0.87696141894E+02 -0.16086775624E+03  0.16095557472E+03  0.24391231566E+03  0.41800000000E+01 0.  1.
         -5    1    3    3    0  502 -0.24569879404E+02 -0.15186223931E+02 -0.21834324105E+02  0.36448737706E+02  0.41800000000E+01 0.  1.
        -11    1    1    2    0    0  0.10932304878E+03  0.90662563364E+02  0.10832991308E+03  0.17862418497E+03  0.00000000000E+00 0. -1.
         11    1    1    2    0    0  0.29429725165E+01  0.85391416805E+02  0.51912759765E+02  0.99976446114E+02  0.00000000000E+00 0.  1.
</event>
<event>
 7    1  0.2714042E-009  0.1279795E+03  0.7561462E-02  0.1230485E+00
          1   -1    0    0  501    0  0.00000000000E+00  0.00000000000E+00  0.18101193459E+04  0.18101193459E+04  0.00000000000E+00 0. -1.
         -1   -1    0    0    0  501 -0.00000000000E+00 -0.00000000000E+00 -0.10681240947E+02  0.10681240947E+02  0.00000000000E+00 0.  1.
         25    2    1    2    0    0  0.62685084897E+02  0.48004117450E+02  0.12242897611E+04  0.12331937272E+04  0.12509010603E+03 0.  0.
          5    1    3    3  502    0 -0.26948142240E+02  0.36164989570E+02  0.67311474758E+03  0.67463697249E+03  0.41800000000E+01 0. -1.
         -5    1    3    3    0  502  0.89633227138E+02  0.11839127881E+02  0.55117501350E+03  0.55855675474E+03  0.41800000000E+01 0. -1.
        -11    1    1    2    0    0 -0.34091481876E+02  0.24655624185E+02  0.21792376827E+03  0.22194796173E+03  0.00000000000E+00 0. -1.
         11    1    1    2    0    0 -0.28593603021E+02 -0.72659741635E+02  0.35722457561E+03  0.36565889789E+03  0.00000000000E+00 0.  1.
</event>
<event>
 7    1  0.2714042E-009  0.1345900E+03  0.7561462E-02  0.1220800E+00
          2   -1    0    0  501    0  0.00000000000E+00  0.00000000000E+00  0.57783166641E+03  0.57783166641E+03  0.00000000000E+00 0. -1.
         -2   -1    0    0    0  501 -0.00000000000E+00 -0.00000000000E+00 -0.41428798083E+02  0.41428798083E+02  0.00000000000E+00 0.  1.
         25    2    1    2    0    0 -0.75567410344E+02 -0.76930858171E+02  0.24038353897E+03  0.29165124641E+03  0.12508962101E+03 0.  0.
          5    1    3    3  502    0 -0.55775215087E+02 -0.10641531774E+03  0.13704643197E+03  0.18230274650E+03  0.41800000000E+01 0.  1.
         -5    1    3    3    0  502 -0.19792195257E+02  0.29484459571E+02  0.10333710700E+03  0.10934849991E+03  0.41800000000E+01 0.  1.
        -11    1    1    2    0    0  0.40313477423E+02  0.64030956945E+02  0.27363185315E+03  0.28390056528E+03  0.00000000000E+00 0. -1.
         11    1    1    2    0    0  0.35253932921E+02  0.12899901226E+02  0.22387476203E+02  0.43708652791E+02  0.00000000000E+00 0.  1.
</event>
<event>
 7    1  0.2714042E-009  0.1593158E+03  0.7561462E-02  0.1189471E+00
         -1   -1    0    0    0  501 -0.00000000000E+00  0.00000000000E+00  0.74607002859E+02  0.74607002859E+02  0.00000000000E+00 0. -1.
          1   -1    0    0  501    0  0.00000000000E+00 -0.00000000000E+00 -0.45587607790E+03  0.45587607790E+03  0.00000000000E+00 0.  1.
         25    2    1    2    0    0  0.13441368817E+03  0.16996560491E+02 -0.11204487875E+03  0.21577122316E+03  0.12508894138E+03 0.  0.
          5    1    3    3  502    0  0.10844448376E+03 -0.23994178728E+02 -0.21859852089E+02  0.11327511732E+03  0.41800000000E+01 0.  1.
         -5    1    3    3    0  502  0.25969204405E+02  0.40990739219E+02 -0.90185026656E+02  0.10249610584E+03  0.41800000000E+01 0.  1.
        -11    1    1    2    0    0 -0.12421058324E+03 -0.42525860681E+02 -0.24548865509E+03  0.27839072828E+03  0.00000000000E+00 0. -1.
         11    1    1    2    0    0 -0.10203104926E+02  0.25529300190E+02 -0.23735541201E+02  0.36321129311E+02  0.00000000000E+00 0.  1.
</event>
<event>
 7    1  0.2714042E-009  0.1647739E+03  0.7561462E-02  0.1183410E+00
          2   -1    0    0  501    0  0.00000000000E+00  0.00000000000E+00  0.33215997307E+03  0.33215997307E+03  0.00000000000E+00 0. -1.
         -2   -1    0    0    0  501 -0.00000000000E+00 -0.00000000000E+00 -0.14799046987E+03  0.14799046987E+03  0.00000000000E+00 0.  1.
         25    2    1    2    0    0 -0.53088838065E+02 -0.13845162455E+03 -0.38505304253E+02  0.19778452299E+03  0.12509509187E+03 0.  0.
          5    1    3    3  502    0 -0.60461340701E+02 -0.14060836520E+03  0.52108989031E+01  0.15320219304E+03  0.41800000000E+01 0.  1.
         -5    1    3    3    0  502  0.73725026358E+01  0.21567406526E+01 -0.43716203156E+02  0.44582329950E+02  0.41800000000E+01 0.  1.
        -11    1    1    2    0    0 -0.20564984532E+02  0.36832069798E+02  0.91853393980E+02  0.10107702973E+03  0.00000000000E+00 0. -1.
         11    1    1    2    0    0  0.73653822597E+02  0.10161955475E+03  0.13082141348E+03  0.18128889022E+03  0.00000000000E+00 0.  1.
</event>
<event>
 7    1  0.2714042E-009  0.7012266E+02  0.7561462E-02  0.1359676E+00
          2   -1    0    0  501    0  0.00000000000E+00  0.00000000000E+00  0.51970713315E+03  0.51970713315E+03  0.00000000000E+00 0. -1.
         -2   -1    0    0    0  501 -0.00000000000E+00 -0.00000000000E+00 -0.32438437792E+02  0.32438437792E+02  0.00000000000E+00 0.  1.
         25    2    1    2    0    0  0.13994612094E+02 -0.17391603333E+02  0.41844143847E+03  0.43730882071E+03  0.12508976860E+03 0.  0.
          5    1    3    3  502    0 -0.10900109105E+02 -0.28688844306E+02  0.17819227094E+02  0.35733169749E+02  0.41800000000E+01 0. -1.
         -5    1    3    3    0  502  0.24894721199E+02  0.11297240973E+02  0.40062221137E+03  0.40157565096E+03  0.41800000000E+01 0. -1.
        -11    1    1    2    0    0  0.23066351165E+02 -0.18843575171E+02  0.52734372354E+02  0.60564436007E+02  0.00000000000E+00 0. -1.
         11    1    1    2    0    0 -0.37060963259E+02  0.36235178504E+02  0.16092884537E+02  0.54272314227E+02  0.00000000000E+00 0.  1.
</event>
<event>
 7    1  0.2714042E-009  0.1778601E+03  0.7561462E-02  0.1169890E+00
         -1   -1    0    0    0  501 -0.00000000000E+00  0.00000000000E+00  0.71246315345E+02  0.71246315345E+02  0.00000000000E+00 0.  1.
          1   -1    0    0  501    0  0.00000000000E+00 -0.00000000000E+00 -0.45698892136E+03  0.45698892136E+03  0.00000000000E+00 0. -1.
         25    2    1    2    0    0 -0.10616471260E+03  0.95750881768E+02 -0.22476742219E+03  0.29429227335E+03  0.12509344711E+03 0.  0.
          5    1    3    3  502    0  0.28694832053E+02  0.16969977974E+02 -0.35742358584E+02  0.49054685160E+02  0.41800000000E+01 0. -1.
         -5    1    3    3    0  502 -0.13485954465E+03  0.78780903793E+02 -0.18902506361E+03  0.24523758818E+03  0.41800000000E+01 0. -1.
        -11    1    1    2    0    0  0.87030770437E+02 -0.22109525675E+02 -0.11159837933E+03  0.14323890672E+03  0.00000000000E+00 0. -1.
         11    1    1    2    0    0  0.19133942160E+02 -0.73641356093E+02 -0.49376804490E+02  0.90704056642E+02  0.00000000000E+00 0.  1.
</event>
<event>
 7    1  0.2714042E-009  0.7741801E+02  0.7561462E-02  0.1336543E+00
          1   -1    0    0  501    0  0.00000000000E+00  0.00000000000E+00  0.83957696521E+03  0.83957696521E+03  0.00000000000E+00 0. -1.
         -1   -1    0    0    0  501 -0.00000000000E+00 -0.00000000000E+00 -0.16566979876E+02  0.16566979876E+02  0.00000000000E+00 0.  1.
         25    2    1    2    0    0  0.40060093366E+02  0.10648543810E+02  0.53450492347E+03  0.55050971662E+03  0.12508889764E+03 0.  0.
          5    1    3    3  502    0  0.53420206571E+02  0.21300437619E+02  0.98400555064E+02  0.11405072884E+03  0.41800000000E+01 0.  1.
         -5    1    3    3    0  502 -0.13360113206E+02 -0.10651893809E+02  0.43610436841E+03  0.43645898778E+03  0.41800000000E+01 0.  1.
        -11    1    1    2    0    0  0.19058129079E+02 -0.71726927075E+01  0.13753052780E+02  0.24572469665E+02  0.00000000000E+00 0.  1.
         11    1    1    2    0    0 -0.59118222445E+02 -0.34758511023E+01  0.27475200908E+03  0.28106175880E+03  0.00000000000E+00 0. -1.
</event>
<event>
 7    1  0.2714042E-009  0.2949987E+03  0.7561462E-02  0.1087768E+00
          1   -1    0    0  501    0  0.00000000000E+00  0.00000000000E+00  0.36335761850E+03  0.36335761850E+03  0.00000000000E+00 0. -1.
         -1   -1    0    0    0  501 -0.00000000000E+00 -0.00000000000E+00 -0.37853422144E+03  0.37853422144E+03  0.00000000000E+00 0.  1.
         25    2    1    2    0    0  0.13118280667E+03  0.25468756647E+03  0.20061956605E+03  0.37144295033E+03  0.12508784828E+03 0.  0.
          5    1    3    3  502    0  0.14664114834E+03  0.23098900241E+03  0.20578241673E+03  0.34237906049E+03  0.41800000000E+01 0.  1.
         -5    1    3    3    0  502 -0.15458341674E+02  0.23698564060E+02 -0.51628506801E+01  0.29063889845E+02  0.41800000000E+01 0.  1.
        -11    1    1    2    0    0 -0.75267472788E+02 -0.11663425092E+03 -0.15893034726E+03  0.21101563029E+03  0.00000000000E+00 0.  1.
         11    1    1    2    0    0 -0.55915333880E+02 -0.13805331555E+03 -0.56865821734E+02  0.15943325932E+03  0.00000000000E+00 0. -1.
</event>
<event>
 7    1  0.2714042E-009  0.1696514E+03  0.7561462E-02  0.1178212E+00
          4   -1    0    0  501    0  0.00000000000E+00  0.00000000000E+00  0.33566377012E+03  0.33566377012E+03  0.00000000000E+00 0. -1.
         -4   -1    0    0    0  501 -0.00000000000E+00 -0.00000000000E+00 -0.13250180651E+03  0.13250180651E+03  0.00000000000E+00 0.  1.
         25    2    1    2    0    0 -0.15666197479E+03 -0.59220817162E+00  0.67730257256E+01  0.20059003264E+03  0.12508861764E+03 0.  0.
          5    1    3    3  502    0 -0.14654648997E+03  0.27605461986E+00  0.50843520211E+02  0.15517243916E+03  0.41800000000E+01 0. -1.
         -5    1    3    3    0  502 -0.10115484821E+02 -0.86826279148E+00 -0.44070494485E+02  0.45417593481E+02  0.41800000000E+01 0. -1.
        -11    1    1    2    0    0  0.14330942960E+03  0.32656895415E+02  0.15730665809E+03  0.21528922432E+03  0.00000000000E+00 0. -1.
         11    1    1    2    0    0  0.13352545192E+02 -0.32064687244E+02  0.39082279786E+02  0.52286319668E+02  0.00000000000E+00 0.  1.
</event>
<event>
 7    1  0.2714042E-009  0.4489969E+02  0.7561462E-02  0.1474969E+00
         -1   -1    0    0    0  501 -0.00000000000E+00  0.00000000000E+00  0.22189818040E+02  0.22189818040E+02  0.00000000000E+00 0.  1.
          1   -1    0    0  501    0  0.00000000000E+00 -0.00000000000E+00 -0.57296774515E+03  0.57296774515E+03  0.00000000000E+00 0. -1.
         25    2    1    2    0    0  0.21291597022E+02  0.10365984647E+02 -0.42272637206E+03  0.44148110864E+03  0.12508876012E+03 0.  0.
          5    1    3    3  502    0  0.27491414904E+02  0.13793037795E+02 -0.16465594361E+02  0.35137074191E+02  0.41800000000E+01 0. -1.
         -5    1    3    3    0  502 -0.61998178817E+01 -0.34270531480E+01 -0.40626077770E+03  0.40634403445E+03  0.41800000000E+01 0. -1.
        -11    1    1    2    0    0 -0.33308202165E+02 -0.16355671383E+02 -0.13396209575E+03  0.13900642941E+03  0.00000000000E+00 0. -1.
         11    1    1    2    0    0  0.12016605143E+02  0.59896867358E+01  0.59105407024E+01  0.14670025145E+02  0.00000000000E+00 0.  1.
</event>
<event>
 7    1  0.2714042E-009  0.1091715E+03  0.7561462E-02  0.1262112E+00
         -1   -1    0    0    0  501 -0.00000000000E+00  0.00000000000E+00  0.14486037701E+02  0.14486037701E+02  0.00000000000E+00 0.  1.
          1   -1    0    0  501    0  0.00000000000E+00 -0.00000000000E+00 -0.92608481744E+03  0.92608481744E+03  0.00000000000E+00 0. -1.
         25    2    1    2    0    0  0.43423509824E+01  0.23440326664E+02 -0.38305663456E+03  0.40366917286E+03  0.12509240947E+03 0.  0.
          5    1    3    3  502    0  0.50880622043E+02  0.48960470124E+02 -0.26282032296E+03  0.27217266559E+03  0.41800000000E+01 0.  1.
         -5    1    3    3    0  502 -0.46538271061E+02 -0.25520143459E+02 -0.12023631160E+03  0.13149650726E+03  0.41800000000E+01 0.  1.
        -11    1    1    2    0    0 -0.25408426342E+02  0.28581311028E+02 -0.21749267061E+03  0.22082921283E+03  0.00000000000E+00 0.  1.
         11    1    1    2    0    0  0.21066075359E+02 -0.52021637692E+02 -0.31104947456E+03  0.31607246945E+03  0.00000000000E+00 0. -1.
</event>
<event>
 7    1  0.2714042E-009  0.1656774E+03  0.7561462E-02  0.1182432E+00
         -2   -1    0    0    0  501 -0.00000000000E+00  0.00000000000E+00  0.61194116390E+02  0.61194116390E+02  0.00000000000E+00 0.  1.
          2   -1    0    0  501    0  0.00000000000E+00 -0.00000000000E+00 -0.58069103785E+03  0.58069103785E+03  0.00000000000E+00 0. -1.
         25    2    1    2    0    0  0.55089553869E+02  0.14578019270E+03 -0.24064451532E+03  0.31279830813E+03  0.12508507220E+03 0.  0.
          5    1    3    3  502    0  0.74377217808E+02  0.98073772737E+02 -0.87204609760E+02  0.15090577123E+03  0.41800000000E+01 0.  1.
         -5    1    3    3    0  502 -0.19287663939E+02  0.47706419963E+02 -0.15343990556E+03  0.16189253690E+03  0.41800000000E+01 0.  1.
        -11    1    1    2    0    0 -0.72240095969E+01 -0.37378017343E+02 -0.14682172678E+03  0.15167703171E+03  0.00000000000E+00 0.  1.
         11    1    1    2    0    0 -0.47865544273E+02 -0.10840217536E+03 -0.13203067936E+03  0.17740981439E+03  0.00000000000E+00 0. -1.
</event>
<event>
 7    1  0.2714042E-009  0.1394076E+03  0.7561462E-02  0.1214128E+00
          2   -1    0    0  501    0  0.00000000000E+00  0.00000000000E+00  0.13293212312E+03  0.13293212312E+03  0.00000000000E+00 0. -1.
         -2   -1    0    0    0  501 -0.00000000000E+00 -0.00000000000E+00 -0.16553776424E+03  0.16553776424E+03  0.00000000000E+00 0.  1.
         25    2    1    2    0    0 -0.72854912183E+02 -0.66876213007E+02 -0.60291981228E+01  0.15957494427E+03  0.12509014954E+03 0.  0.
          5    1    3    3  502    0  0.28607005747E+02 -0.47770744058E+02 -0.67368958360E+01  0.56242892272E+02  0.41800000000E+01 0.  1.
         -5    1    3    3    0  502 -0.10146191793E+03 -0.19105468950E+02  0.70769771327E+00  0.10333205200E+03  0.41800000000E+01 0.  1.
        -11    1    1    2    0    0  0.80365148974E+02  0.74037174434E+02 -0.44660581449E+02  0.11804502490E+03  0.00000000000E+00 0.  1.
         11    1    1    2    0    0 -0.75102367905E+01 -0.71609614262E+01  0.18084138455E+02  0.20849918198E+02  0.00000000000E+00 0. -1.
</event>
<event>
 7    1  0.2714042E-009  0.6493595E+02  0.7561462E-02  0.1378213E+00
          1   -1    0    0  501    0  0.00000000000E+00  0.00000000000E+00  0.10718469746E+04  0.10718469746E+04  0.00000000000E+00 0. -1.
         -1   -1    0    0    0  501 -0.00000000000E+00 -0.00000000000E+00 -0.96309733793E+01  0.96309733793E+01  0.00000000000E+00 0.  1.
         25    2    1    2    0    0  0.37052477785E+02  0.90532648688E+01  0.76460887531E+03  0.77571069557E+03  0.12508198634E+03 0.  0.
          5    1    3    3  502    0  0.35120320617E+02 -0.12618342737E+02  0.74552263190E+03  0.74646776660E+03  0.41800000000E+01 0. -1.
         -5    1    3    3    0  502  0.19321571689E+01  0.21671607606E+02  0.19086243412E+02  0.29242928977E+02  0.41800000000E+01 0. -1.
        -11    1    1    2    0    0 -0.43760928754E+02  0.14165297418E+02  0.19658820164E+03  0.20189748776E+03  0.00000000000E+00 0.  1.
         11    1    1    2    0    0  0.67084509683E+01 -0.23218562287E+02  0.10101892430E+03  0.10386976468E+03  0.00000000000E+00 0. -1.
</event>
<event>
 7    1  0.2714042E-009  0.1267833E+03  0.7561462E-02  0.1232308E+00
          1   -1    0    0  501    0  0.00000000000E+00  0.00000000000E+00  0.64970041101E+03  0.64970041101E+03  0.00000000000E+00 0. -1.
         -1   -1    0    0    0  501 -0.00000000000E+00 -0.00000000000E+00 -0.38030679637E+02  0.38030679637E+02  0.00000000000E+00 0.  1.
         25    2    1    2    0    0  0.85336165262E+02 -0.64203387133E+02  0.25317815562E+03  0.30191327341E+03  0.12509240646E+03 0.  0.
          5    1    3    3  502    0  0.11483788389E+02  0.27160200203E+01 -0.12764620897E+02  0.17879096933E+02  0.41800000000E+01 0.  1.
         -5    1    3    3    0  502  0.73852376873E+02 -0.66919407153E+02  0.26594277652E+03  0.28403417647E+03  0.41800000000E+01 0.  1.
        -11    1    1    2    0    0 -0.51312058679E+02 -0.16350329184E+02  0.16283702073E+03  0.17151138723E+03  0.00000000000E+00 0.  1.
         11    1    1    2    0    0 -0.34024106583E+02  0.80553716317E+02  0.19565455503E+03  0.21430643001E+03  0.00000000000E+00 0. -1.
</event>
<event>
 7    1  0.2714042E-009  0.1264656E+03  0.7561462E-02  0.1232796E+00
          1   -1    0    0  501    0  0.00000000000E+00  0.00000000000E+00  0.72818953176E+03  0.72818953176E+03  0.00000000000E+00 0.  1.
         -1   -1    0    0    0  501 -0.00000000000E+00 -0.00000000000E+00 -0.30341978038E+02  0.30341978038E+02  0.00000000000E+00 0. -1.
         25    2    1    2    0    0  0.69633949928E+02  0.70542552842E+02  0.31322963396E+03  0.35154801357E+03  0.12509222001E+03 0.  0.
          5    1    3    3  502    0  0.57902365515E+02  0.10676496980E+02  0.39386267767E+02  0.70960707498E+02  0.41800000000E+01 0.  1.
         -5    1    3    3    0  502  0.11731584413E+02  0.59866055863E+02  0.27384336619E+03  0.28058730607E+03  0.41800000000E+01 0.  1.
        -11    1    1    2    0    0  0.19644611576E+02 -0.27096396184E+02  0.85490029365E+02  0.91807791450E+02  0.00000000000E+00 0.  1.
         11    1    1    2    0    0 -0.89278561504E+02 -0.43446156658E+02  0.29912789040E+03  0.31517570479E+03  0.00000000000E+00 0. -1.
</event>
<event>
 7    1  0.2714042E-009  0.1009477E+03  0.7561462E-02  0.1278316E+00
         -2   -1    0    0    0  501 -0.00000000000E+00  0.00000000000E+00  0.49036317524E+03  0.49036317524E+03  0.00000000000E+00 0.  1.
          2   -1    0    0  501    0  0.00000000000E+00 -0.00000000000E+00 -0.24345637181E+02  0.24345637181E+02  0.00000000000E+00 0. -1.
         25    2    1    2    0    0  0.46990510983E+01  0.13944409660E+02  0.23285167008E+03  0.26473525140E+03  0.12509326694E+03 0.  0.
          5    1    3    3  502    0  0.58386890375E+02  0.25509517262E+02  0.80604340991E+02  0.10283139902E+03  0.41800000000E+01 0. -1.
         -5    1    3    3    0  502 -0.53687839277E+02 -0.11565107602E+02  0.15224732909E+03  0.16190385238E+03  0.41800000000E+01 0. -1.
        -11    1    1    2    0    0 -0.42140356073E+02  0.21832309049E+01  0.69501416007E+02  0.81308197214E+02  0.00000000000E+00 0. -1.
         11    1    1    2    0    0  0.37441304974E+02 -0.16127640565E+02  0.16366445198E+03  0.16866536381E+03  0.00000000000E+00 0.  1.
</event>
<event>
 7    1  0.2714042E-009  0.1033747E+03  0.7561462E-02  0.1273355E+00
          2   -1    0    0  501    0  0.00000000000E+00  0.00000000000E+00  0.39800922424E+02  0.39800922424E+02  0.00000000000E+00 0. -1.
         -2   -1    0    0    0  501 -0.00000000000E+00 -0.00000000000E+00 -0.34644467966E+03  0.34644467966E+03  0.00000000000E+00 0.  1.
         25    2    1    2    0    0  0.13991820917E+01  0.90999009446E+01 -0.24060582292E+03  0.27133637842E+03  0.12508997692E+03 0.  0.
          5    1    3    3  502    0  0.34434148871E+02  0.49445938157E+02 -0.18667210126E+03  0.19620029866E+03  0.41800000000E+01 0. -1.
         -5    1    3    3    0  502 -0.33034966780E+02 -0.40346037212E+02 -0.53933721664E+02  0.75136079758E+02  0.41800000000E+01 0. -1.
        -11    1    1    2    0    0  0.34696525081E+01 -0.51370544094E+02 -0.36264080710E+02  0.62976621367E+02  0.00000000000E+00 0.  1.
         11    1    1    2    0    0 -0.48688345999E+01  0.42270643149E+02 -0.29773853611E+02  0.51932602298E+02  0.00000000000E+00 0. -1.
</event>
<event>
 7    1  0.2714042E-009  0.2094072E+03  0.7561462E-02  0.1142036E+00
          1   -1    0    0  501    0  0.00000000000E+00  0.00000000000E+00  0.13149700265E+04  0.13149700265E+04  0.00000000000E+00 0. -1.
         -1   -1    0    0    0  501 -0.00000000000E+00 -0.00000000000E+00 -0.83921735676E+02  0.83921735676E+02  0.00000000000E+00 0.  1.
         25    2    1    2    0    0  0.26977615213E+02 -0.19780515105E+03  0.11355365678E+04  0.11597179323E+04  0.12509083202E+03 0.  0.
          5    1    3    3  502    0  0.11597169060E+02 -0.66917952957E+02  0.73267146600E+03  0.73582433790E+03  0.41800000000E+01 0. -1.
         -5    1    3    3    0  502  0.15380446152E+02 -0.13088719809E+03  0.40286510176E+03  0.42389359439E+03  0.41800000000E+01 0. -1.
        -11    1    1    2    0    0  0.20843154726E+02  0.14949388526E+03  0.59464632200E+02  0.16223101217E+03  0.00000000000E+00 0.  1.
         11    1    1    2    0    0 -0.47820769939E+02  0.48311265792E+02  0.36047090896E+02  0.76942817741E+02  0.00000000000E+00 0. -1.
</event>
<event>
 7    1  0.2774929E-009  0.1606344E+03  0.7561462E-02  0.1187982E+00
          2   -1    0    0  501    0  0.00000000000E+00  0.00000000000E+00  0.24831145331E+03  0.24831145331E+03  0.00000000000E+00 0. -1.
         -2   -1    0    0    0  501 -0.00000000000E+00 -0.00000000000E+00 -0.12727978239E+03  0.12727978239E+03  0.00000000000E+00 0.  1.
         25    2    1    2    0    0 -0.12953111612E+03  0.47123672364E+02  0.92363234568E+02  0.20779265304E+03  0.12509144262E+03 0.  0.
          5    1    3    3  502    0 -0.88448807536E+02 -0.17970445735E+02  0.94409509003E+02  0.13067806344E+03  0.41800000000E+01 0. -1.
         -5    1    3    3    0  502 -0.41082308580E+02  0.65094118098E+02 -0.20462744347E+01  0.77114589595E+02  0.41800000000E+01 0. -1.
        -11    1    1    2    0    0  0.72319608116E+02  0.99688625007E+01 -0.17009729152E+02  0.74958887554E+02  0.00000000000E+00 0.  1.
         11    1    1    2    0    0  0.57211508001E+02 -0.57092534864E+02  0.45678165503E+02  0.92839695113E+02  0.00000000000E+00 0. -1.
</event>
<event>
 7    1  0.2714042E-009  0.1044923E+03  0.7561462E-02  0.1271123E+00
          2   -1    0    0  501    0  0.00000000000E+00  0.00000000000E+00  0.64373345644E+02  0.64373345644E+02  0.00000000000E+00 0. -1.
         -2   -1    0    0    0  501 -0.00000000000E+00 -0.00000000000E+00 -0.29125053239E+03  0.29125053239E+03  0.00000000000E+00 0.  1.
         25    2    1    2    0    0  0.70500689169E+02  0.17959726947E+02 -0.17708366984E+03  0.22869032570E+03  0.12509092686E+03 0.  0.
          5    1    3    3  502    0  0.59898833657E+01  0.51451256855E+02 -0.20235400411E+02  0.55767861394E+02  0.41800000000E+01 0. -1.
         -5    1    3    3    0  502  0.64510805803E+02 -0.33491529908E+02 -0.15684826943E+03  0.17292246431E+03  0.41800000000E+01 0. -1.
        -11    1    1    2    0    0 -0.36073784710E+02 -0.30833771725E+02 -0.70320147852E+02  0.84834913898E+02  0.00000000000E+00 0.  1.
         11    1    1    2    0    0 -0.34426904459E+02  0.12874044778E+02  0.20526630946E+02  0.42098638429E+02  0.00000000000E+00 0. -1.
</event>
<event>
 7    1  0.2714042E-009  0.2369025E+03  0.7561462E-02  0.1121874E+00
          1   -1    0    0  501    0  0.00000000000E+00  0.00000000000E+00  0.81181712117E+03  0.81181712117E+03  0.00000000000E+00 0. -1.
         -1   -1    0    0    0  501 -0.00000000000E+00 -0.00000000000E+00 -0.94287776999E+02  0.94287776999E+02  0.00000000000E+00 0.  1.
         25    2    1    2    0    0 -0.14787200833E+03  0.17896616421E+03  0.53717702026E+03  0.59841542615E+03  0.12508737896E+03 0.  0.
          5    1    3    3  502    0 -0.51592035380E+02  0.10472459177E+03  0.13642359118E+03  0.17960469612E+03  0.41800000000E+01 0.  1.
         -5    1    3    3    0  502 -0.96279972950E+02  0.74241572438E+02  0.40075342908E+03  0.41881073003E+03  0.41800000000E+01 0.  1.
        -11    1    1    2    0    0  0.10380307410E+03 -0.15066356764E+03  0.91537309324E+02  0.20458168981E+03  0.00000000000E+00 0.  1.
         11    1    1    2    0    0  0.44068934230E+02 -0.28302596571E+02  0.88815014585E+02  0.10310778221E+03  0.00000000000E+00 0. -1.
</event>
<event>
 7    1  0.2714042E-009  0.1695228E+03  0.7561462E-02  0.1178346E+00
         -1   -1    0    0    0  501 -0.00000000000E+00  0.00000000000E+00  0.39822921607E+02  0.39822921607E+02  0.00000000000E+00 0.  1.
          1   -1    0    0  501    0  0.00000000000E+00 -0.00000000000E+00 -0.77189982497E+03  0.77189982497E+03  0.00000000000E+00 0. -1.
         25    2    1    2    0    0  0.11381407166E+03 -0.73419359416E+02 -0.38003566345E+03  0.42239646119E+03  0.12509044603E+03 0.  0.
          5    1    3    3  502    0 -0.21895691882E+02 -0.34627021674E+02 -0.62105864523E+02  0.74518875200E+02  0.41800000000E+01 0. -1.
         -5    1    3    3    0  502  0.13570976354E+03 -0.38792337742E+02 -0.31792979893E+03  0.34787758599E+03  0.41800000000E+01 0. -1.
        -11    1    1    2    0    0 -0.41673247808E+02  0.73527546783E+02 -0.25338032003E+03  0.26710399902E+03  0.00000000000E+00 0.  1.
         11    1    1    2    0    0 -0.72140823851E+02 -0.10818736703E+00 -0.98660919885E+02  0.12222228636E+03  0.00000000000E+00 0. -1.
</event>
<event>
 7    1  0.2714042E-009  0.1425226E+03  0.7561462E-02  0.1209974E+00
         -3   -1    0    0    0  501 -0.00000000000E+00  0.00000000000E+00  0.14982436739E+03  0.14982436739E+03  0.00000000000E+00 0.  1.
          3   -1    0    0  501    0  0.00000000000E+00 -0.00000000000E+00 -0.17111471935E+03  0.17111471935E+03  0.00000000000E+00 0. -1.
         25    2    1    2    0    0 -0.86652030071E+02  0.57296158812E+02  0.47119075438E+02  0.16929105807E+03  0.12509129043E+03 0.  0.
          5    1    3    3  502    0  0.32264231045E+02  0.75521562755E+01  0.60630440029E+01  0.33944787109E+02  0.41800000000E+01 0.  1.
         -5    1    3    3    0  502 -0.11891626112E+03  0.49744002536E+02  0.41056031435E+02  0.13534627096E+03  0.41800000000E+01 0.  1.
        -11    1    1    2    0    0  0.29458047891E+02 -0.58469607905E+02 -0.41328134561E+01  0.65601461730E+02  0.00000000000E+00 0.  1.
         11    1    1    2    0    0  0.57193982181E+02  0.11734490933E+01 -0.64276613942E+02  0.86046566929E+02  0.00000000000E+00 0. -1.
</event>
<event>
 7    1  0.2714042E-009  0.2286554E+03  0.7561462E-02  0.1127590E+00
          2   -1    0    0  501    0  0.00000000000E+00  0.00000000000E+00  0.25312358426E+03  0.25312358426E+03  0.00000000000E+00 0. -1.
         -2   -1    0    0    0  501 -0.00000000000E+00 -0.00000000000E+00 -0.24127417402E+03  0.24127417402E+03  0.00000000000E+00 0.  1.
         25    2    1    2    0    0 -0.17044249355E+03 -0.13788630455E+03  0.40302344070E+02  0.25560543113E+03  0.12508629380E+03 0.  0.
          5    1    3    3  502    0 -0.92837728939E+02 -0.57243940298E+02 -0.41653287627E+02  0.11682543124E+03  0.41800000000E+01 0. -1.
         -5    1    3    3    0  502 -0.77604764615E+02 -0.80642364250E+02  0.81955631696E+02  0.13877999989E+03  0.41800000000E+01 0. -1.
        -11    1    1    2    0    0  0.73057891935E+02  0.11481295788E+03 -0.26788311188E+02  0.13869781717E+03  0.00000000000E+00 0. -1.
         11    1    1    2    0    0  0.97384601619E+02  0.23073346667E+02 -0.16646226420E+01  0.10009450998E+03  0.00000000000E+00 0.  1.
</event>
<event>
 7    1  0.2714042E-009  0.1104320E+03  0.7561462E-02  0.1259772E+00
          2   -1    0    0  501    0  0.00000000000E+00  0.00000000000E+00  0.50065458595E+03  0.50065458595E+03  0.00000000000E+00 0. -1.
         -2   -1    0    0    0  501 -0.00000000000E+00 -0.00000000000E+00 -0.25675546964E+02  0.25675546964E+02  0.00000000000E+00 0.  1.
         25    2    1    2    0    0  0.14012645422E+02 -0.31581831040E+02  0.26374821569E+03  0.29394619950E+03  0.12508989023E+03 0.  0.
          5    1    3    3  502    0  0.52691945763E+02  0.24477360787E+02  0.15475801102E+03  0.16535748158E+03  0.41800000000E+01 0.  1.
         -5    1    3    3    0  502 -0.38679300342E+02 -0.56059191827E+02  0.10899020467E+03  0.12858871792E+03  0.41800000000E+01 0.  1.
        -11    1    1    2    0    0  0.36567851704E+02  0.40548921670E+01  0.10910498219E+03  0.11514142203E+03  0.00000000000E+00 0.  1.
         11    1    1    2    0    0 -0.50580497126E+02  0.27526938873E+02  0.10212584111E+03  0.11724251139E+03  0.00000000000E+00 0. -1.
</event>
<event>
 7    1  0.2714042E-009  0.1095060E+03  0.7561462E-02  0.1261487E+00
          1   -1    0    0  501    0  0.00000000000E+00  0.00000000000E+00  0.56860401460E+02  0.56860401460E+02  0.00000000000E+00 0. -1.
         -1   -1    0    0    0  501 -0.00000000000E+00 -0.00000000000E+00 -0.21676481957E+03  0.21676481957E+03  0.00000000000E+00 0.  1.
         25    2    1    2    0    0 -0.14630358861E+02  0.13632374904E+02 -0.11100520518E+03  0.16843385311E+03  0.12509163941E+03 0.  0.
          5    1    3    3  502    0 -0.59765101964E+02  0.41941436091E+02 -0.60731845160E+02  0.95061984466E+02  0.41800000000E+01 0.  1.
         -5    1    3    3    0  502  0.45134743102E+02 -0.28309061187E+02 -0.50273360017E+02  0.73371868639E+02  0.41800000000E+01 0.  1.
        -11    1    1    2    0    0  0.42315314343E+02  0.21696427843E+02 -0.31566746993E+02  0.57076968427E+02  0.00000000000E+00 0.  1.
         11    1    1    2    0    0 -0.27684955481E+02 -0.35328802747E+02 -0.17332465941E+02  0.48114399499E+02  0.00000000000E+00 0. -1.
</event>
<event>
 7    1  0.2714042E-009  0.1055022E+03  0.7561462E-02  0.1269133E+00
         -1   -1    0    0    0  501 -0.00000000000E+00  0.00000000000E+00  0.37463912380E+03  0.37463912380E+03  0.00000000000E+00 0.  1.
          1   -1    0    0  501    0  0.00000000000E+00 -0.00000000000E+00 -0.36427020517E+02  0.36427020517E+02  0.00000000000E+00 0. -1.
         25    2    1    2    0    0 -0.19814324464E+01 -0.41588458106E+02  0.21230552966E+03  0.24990832620E+03  0.12508799966E+03 0.  0.
          5    1    3    3  502    0  0.26998440372E+02  0.34471536300E+02  0.11412637287E+03  0.12230905111E+03  0.41800000000E+01 0.  1.
         -5    1    3    3    0  502 -0.28979872818E+02 -0.76059994406E+02  0.98179156783E+02  0.12759927509E+03  0.41800000000E+01 0.  1.
        -11    1    1    2    0    0  0.33201031995E+02 -0.39022109143E+00  0.94443957881E+02  0.10011054879E+03  0.00000000000E+00 0. -1.
         11    1    1    2    0    0 -0.31219599549E+02  0.41978679197E+02  0.31462615743E+02  0.61047269329E+02  0.00000000000E+00 0.  1.
</event>
<event>
 7    1  0.2714042E-009  0.1095684E+03  0.7561462E-02  0.1261371E+00
         -2   -1    0    0    0  501 -0.00000000000E+00  0.00000000000E+00  0.25897073720E+03  0.25897073720E+03  0.00000000000E+00 0.  1.
          2   -1    0    0  501    0  0.00000000000E+00 -0.00000000000E+00 -0.75861321181E+02  0.75861321181E+02  0.00000000000E+00 0. -1.
         25    2    1    2    0    0  0.54401294529E+02 -0.10032604400E+01  0.18317118234E+03  0.22838300883E+03  0.12508640734E+03 0.  0.
          5    1    3    3  502    0  0.14794982446E+02  0.49226950272E+02  0.24187049689E+02  0.56962004102E+02  0.41800000000E+01 0.  1.
         -5    1    3    3    0  502  0.39606312082E+02 -0.50230210712E+02  0.15898413265E+03  0.17142100472E+03  0.41800000000E+01 0.  1.
        -11    1    1    2    0    0 -0.16593956492E+01 -0.37892432414E+02 -0.12115268575E+02  0.39816702034E+02  0.00000000000E+00 0. -1.
         11    1    1    2    0    0 -0.52741898879E+02  0.38895692854E+02  0.12053502254E+02  0.66632347524E+02  0.00000000000E+00 0.  1.
</event>
<event>
 7    1  0.3058379E-009  0.7081414E+02  0.7561462E-02  0.1357346E+00
         -1   -1    0    0    0  501 -0.00000000000E+00  0.00000000000E+00  0.56860511678E+02  0.56860511678E+02  0.00000000000E+00 0. -1.
          1   -1    0    0  501    0  0.00000000000E+00 -0.00000000000E+00 -0.28315850431E+03  0.28315850431E+03  0.00000000000E+00 0.  1.
         25    2    1    2    0    0 -0.36807367121E+02 -0.32455941160E+02 -0.66374739494E+02  0.14986758589E+03  0.12508603786E+03 0.  0.
          5    1    3    3  502    0  0.27755817386E+01 -0.35590807132E+02  0.29186771148E+02  0.46300641640E+02  0.41800000000E+01 0. -1.
         -5    1    3    3    0  502 -0.39582948859E+02  0.31348659715E+01 -0.95561510642E+02  0.10356694425E+03  0.41800000000E+01 0. -1.
        -11    1    1    2    0    0  0.38552890635E+02  0.57300600528E+01 -0.15861829276E+03  0.16333683529E+03  0.00000000000E+00 0.  1.
         11    1    1    2    0    0 -0.17455235148E+01  0.26725881108E+02 -0.13049603810E+01  0.26814594812E+02  0.00000000000E+00 0. -1.
</event>
<event>
 7    1  0.3807195E-009  0.1192123E+03  0.7561462E-02  0.1244402E+00
         -2   -1    0    0    0  501 -0.00000000000E+00  0.00000000000E+00  0.11115310302E+02  0.11115310302E+02  0.00000000000E+00 0.  1.
          2   -1    0    0  501    0  0.00000000000E+00 -0.00000000000E+00 -0.15348011234E+04  0.15348011234E+04  0.00000000000E+00 0. -1.
         25    2    1    2    0    0 -0.64579279682E+02 -0.29435721879E+02 -0.94080724209E+03  0.95173716824E+03  0.12509366713E+03 0.  0.
          5    1    3    3  502    0 -0.83839364625E+01 -0.59332174183E+02 -0.21810853739E+03  0.22622865373E+03  0.41800000000E+01 0.  1.
         -5    1    3    3    0  502 -0.56195343220E+02  0.29896452304E+02 -0.72269870470E+03  0.72550851452E+03  0.41800000000E+01 0.  1.
        -11    1    1    2    0    0  0.24774137087E+02  0.59652331085E+02 -0.36202328555E+03  0.36774042170E+03  0.00000000000E+00 0.  1.
         11    1    1    2    0    0  0.39805142595E+02 -0.30216609206E+02 -0.22085528548E+03  0.22643884378E+03  0.00000000000E+00 0. -1.
</event>
<event>
 7    1  0.2714042E-009  0.1093211E+03  0.7561462E-02  0.1261832E+00
         -1   -1    0    0    0  501 -0.00000000000E+00  0.00000000000E+00  0.50058890927E+02  0.50058890927E+02  0.00000000000E+00 0.  1.
          1   -1    0    0  501    0  0.00000000000E+00 -0.00000000000E+00 -0.31723750977E+03  0.31723750977E+03  0.00000000000E+00 0. -1.
         25    2    1    2    0    0  0.66234794046E+02 -0.59532232959E+00 -0.11832441394E+03  0.18448845435E+03  0.12509164842E+03 0.  0.
          5    1    3    3  502    0  0.81358975755E+02  0.44627061312E+02 -0.68647511379E+02  0.11550242749E+03  0.41800000000E+01 0. -1.
         -5    1    3    3    0  502 -0.15124181708E+02 -0.45222383642E+02 -0.49676902557E+02  0.68986026862E+02  0.41800000000E+01 0. -1.
        -11    1    1    2    0    0 -0.25343704999E+02  0.20322236031E+02 -0.61586196998E+01  0.33063957068E+02  0.00000000000E+00 0.  1.
         11    1    1    2    0    0 -0.40891089048E+02 -0.19726913701E+02 -0.14269558521E+03  0.14974398928E+03  0.00000000000E+00 0. -1.
</event>
<event>
 7    1  0.3938923E-009  0.9504035E+02  0.7561462E-02  0.1291085E+00
          1   -1    0    0  501    0  0.00000000000E+00  0.00000000000E+00  0.26897497453E+03  0.26897497453E+03  0.00000000000E+00 0. -1.
         -1   -1    0    0    0  501 -0.00000000000E+00 -0.00000000000E+00 -0.61728988033E+02  0.61728988033E+02  0.00000000000E+00 0.  1.
         25    2    1    2    0    0  0.36402445182E+02  0.10446252616E+02  0.18909516167E+03  0.22986802969E+03  0.12509224075E+03 0.  0.
          5    1    3    3  502    0 -0.39675311754E+02 -0.19554056700E+02  0.96640681830E+02  0.10636439856E+03  0.41800000000E+01 0.  1.
         -5    1    3    3    0  502  0.76077756935E+02  0.30000309316E+02  0.92454479841E+02  0.12350363113E+03  0.41800000000E+01 0.  1.
        -11    1    1    2    0    0 -0.40685151393E+01 -0.27093749713E+02 -0.29912955287E+02  0.40563641145E+02  0.00000000000E+00 0.  1.
         11    1    1    2    0    0 -0.32333930043E+02  0.16647497097E+02  0.48063780108E+02  0.60272291726E+02  0.00000000000E+00 0. -1.
</event>
<event>
 7    1  0.2714042E-009  0.1968799E+03  0.7561462E-02  0.1152398E+00
         -1   -1    0    0    0  501 -0.00000000000E+00  0.00000000000E+00  0.11901029395E+03  0.11901029395E+03  0.00000000000E+00 0.  1.
          1   -1    0    0  501    0  0.00000000000E+00 -0.00000000000E+00 -0.37008105901E+03  0.37008105901E+03  0.00000000000E+00 0. -1.
         25    2    1    2    0    0 -0.70103237060E+02 -0.16461684926E+03 -0.11038223003E+03  0.24463269210E+03  0.12509095263E+03 0.  0.
          5    1    3    3  502    0 -0.86988393048E+02 -0.14906684193E+03 -0.12839824121E+03  0.21515455987E+03  0.41800000000E+01 0. -1.
         -5    1    3    3    0  502  0.16885155988E+02 -0.15550007333E+02  0.18016011178E+02  0.29478132226E+02  0.41800000000E+01 0. -1.
        -11    1    1    2    0    0 -0.15891841015E+00  0.10678139676E+03 -0.58091102427E+02  0.12156014203E+03  0.00000000000E+00 0. -1.
         11    1    1    2    0    0  0.70262155470E+02  0.57835452499E+02 -0.82597432607E+02  0.12289851883E+03  0.00000000000E+00 0.  1.
</event>
<event>
 7    1  0.2714042E-009  0.1145098E+03  0.7561462E-02  0.1252439E+00
          1   -1    0    0  501    0  0.00000000000E+00  0.00000000000E+00  0.93555520166E+03  0.93555520166E+03  0.00000000000E+00 0. -1.
         -1   -1    0    0    0  501 -0.00000000000E+00 -0.00000000000E+00 -0.29843873208E+02  0.29843873208E+02  0.00000000000E+00 0.  1.
         25    2    1    2    0    0 -0.45445509369E+02 -0.23314868746E+02  0.81700111374E+03  0.82809867028E+03  0.12509080880E+03 0.  0.
          5    1    3    3  502    0 -0.73296927994E+02 -0.54855988569E+02  0.60737061352E+03  0.61424600422E+03  0.41800000000E+01 0.  1.
         -5    1    3    3    0  502  0.27851418625E+02  0.31541119823E+02  0.20963050022E+03  0.21385266606E+03  0.41800000000E+01 0.  1.
        -11    1    1    2    0    0  0.15492036167E+02  0.51609056081E+02  0.20582020409E+02  0.57681170396E+02  0.00000000000E+00 0.  1.
         11    1    1    2    0    0  0.29953473203E+02 -0.28294187335E+02  0.68128194302E+02  0.79619234188E+02  0.00000000000E+00 0. -1.
</event>
<event>
 7    1  0.2887791E-009  0.1501445E+03  0.7561462E-02  0.1200296E+00
         -3   -1    0    0    0  501 -0.00000000000E+00  0.00000000000E+00  0.37955660737E+02  0.37955660737E+02  0.00000000000E+00 0.  1.
          3   -1    0    0  501    0  0.00000000000E+00 -0.00000000000E+00 -0.74386612034E+03  0.74386612034E+03  0.00000000000E+00 0. -1.
         25    2    1    2    0    0  0.14642011226E+02 -0.12108745224E+03 -0.46168027071E+03  0.49363309674E+03  0.12509357398E+03 0.  0.
          5    1    3    3  502    0 -0.92862198578E+00 -0.13947432539E+03 -0.30951984442E+03  0.33952018537E+03  0.41800000000E+01 0. -1.
         -5    1    3    3    0  502  0.15570633212E+02  0.18386873152E+02 -0.15216042629E+03  0.15411291137E+03  0.41800000000E+01 0. -1.
        -11    1    1    2    0    0  0.18203039438E+02  0.87286677287E+02 -0.89080066174E+02  0.12603798184E+03  0.00000000000E+00 0.  1.
         11    1    1    2    0    0 -0.32845050664E+02  0.33800774952E+02 -0.15515012272E+03  0.16215070250E+03  0.00000000000E+00 0. -1.
</event>
<event>
 7    1  0.2714042E-009  0.1035319E+03  0.7561462E-02  0.1273039E+00
          1   -1    0    0  501    0  0.00000000000E+00  0.00000000000E+00  0.96517733676E+03  0.96517733676E+03  0.00000000000E+00 0. -1.
         -1   -1    0    0    0  501 -0.00000000000E+00 -0.00000000000E+00 -0.16325084315E+02  0.16325084315E+02  0.00000000000E+00 0.  1.
         25    2    1    2    0    0  0.52762587194E+02 -0.13671286615E+02  0.65836813245E+03  0.67235859817E+03  0.12508673801E+03 0.  0.
          5    1    3    3  502    0  0.33087994225E+02 -0.54125058086E+02  0.56573186993E+03  0.56929285814E+03  0.41800000000E+01 0.  1.
         -5    1    3    3    0  502  0.19674592969E+02  0.40453771471E+02  0.92636262521E+02  0.10306574003E+03  0.41800000000E+01 0.  1.
        -11    1    1    2    0    0  0.19710623019E+02  0.16612494678E+02  0.13674491826E+03  0.13915335537E+03  0.00000000000E+00 0.  1.
         11    1    1    2    0    0 -0.72473210213E+02 -0.29412080628E+01  0.15373920173E+03  0.16999046753E+03  0.00000000000E+00 0. -1.
</event>
<event>
 7    1  0.2714042E-009  0.1299632E+03  0.7561462E-02  0.1227510E+00
         -2   -1    0    0    0  501 -0.00000000000E+00  0.00000000000E+00  0.29355072082E+02  0.29355072082E+02  0.00000000000E+00 0.  1.
          2   -1    0    0  501    0  0.00000000000E+00 -0.00000000000E+00 -0.72528442486E+03  0.72528442486E+03  0.00000000000E+00 0. -1.
         25    2    1    2    0    0  0.87458182842E+02  0.36760771361E+02 -0.44090517210E+03  0.46802442546E+03  0.12509677849E+03 0.  0.
          5    1    3    3  502    0  0.10646660147E+03  0.59670788207E+01 -0.39638977466E+03  0.41050343374E+03  0.41800000000E+01 0.  1.
         -5    1    3    3    0  502 -0.19008418631E+02  0.30793692540E+02 -0.44515397434E+02  0.57520991714E+02  0.41800000000E+01 0.  1.
        -11    1    1    2    0    0 -0.49571968642E+02  0.15765167291E+02 -0.18067432444E+03  0.18801364867E+03  0.00000000000E+00 0. -1.
         11    1    1    2    0    0 -0.37886214200E+02 -0.52525938652E+02 -0.74349856244E+02  0.98601422815E+02  0.00000000000E+00 0.  1.
</event>
<event>
 7    1  0.2714042E-009  0.1094058E+03  0.7561462E-02  0.1261674E+00
          1   -1    0    0  501    0  0.00000000000E+00  0.00000000000E+00  0.60290562240E+02  0.60290562240E+02  0.00000000000E+00 0. -1.
         -1   -1    0    0    0  501 -0.00000000000E+00 -0.00000000000E+00 -0.38116756499E+03  0.38116756499E+03  0.00000000000E+00 0.  1.
         25    2    1    2    0    0  0.67075883291E+02 -0.32881160947E+02 -0.28315780612E+03  0.31844380195E+03  0.12509103471E+03 0.  0.
          5    1    3    3  502    0  0.34156495874E+02  0.38434431939E+02 -0.47946293242E+02  0.70428624894E+02  0.41800000000E+01 0. -1.
         -5    1    3    3    0  502  0.32919387417E+02 -0.71315592886E+02 -0.23521151288E+03  0.24801517705E+03  0.41800000000E+01 0. -1.
        -11    1    1    2    0    0 -0.89242488301E+01 -0.12108610871E+02 -0.46589694056E+02  0.48957739599E+02  0.00000000000E+00 0.  1.
         11    1    1    2    0    0 -0.58151634461E+02  0.44989771818E+02  0.88704974290E+01  0.74056585685E+02  0.00000000000E+00 0. -1.
</event>
<event>
 7    1  0.2714042E-009  0.1490768E+03  0.7561462E-02  0.1201612E+00
          3   -1    0    0  501    0  0.00000000000E+00  0.00000000000E+00  0.21423525969E+03  0.21423525969E+03  0.00000000000E+00 0. -1.
         -3   -1    0    0    0  501 -0.00000000000E+00 -0.00000000000E+00 -0.12751907078E+03  0.12751907078E+03  0.00000000000E+00 0.  1.
         25    2    1    2    0    0  0.10611719236E+03 -0.80940598445E+01  0.11357669717E+03  0.19968719647E+03  0.12509571525E+03 0.  0.
          5    1    3    3  502    0  0.72926243260E+01 -0.51427442164E+02  0.58910029569E+02  0.78650035988E+02  0.41800000000E+01 0.  1.
         -5    1    3    3    0  502  0.98824568034E+02  0.43333382320E+02  0.54666667600E+02  0.12103716048E+03  0.41800000000E+01 0.  1.
        -11    1    1    2    0    0 -0.10138192291E+03  0.37631332277E+02 -0.29339771621E+02  0.11205013905E+03  0.00000000000E+00 0. -1.
         11    1    1    2    0    0 -0.47352694478E+01 -0.29537272432E+02  0.24792633612E+01  0.30016994958E+02  0.00000000000E+00 0.  1.
</event>
<event>
 7    1  0.2714042E-009  0.1791855E+03  0.7561462E-02  0.1168594E+00
         -1   -1    0    0    0  501 -0.00000000000E+00  0.00000000000E+00  0.27577463262E+02  0.27577463262E+02  0.00000000000E+00 0.  1.
          1   -1    0    0  501    0  0.00000000000E+00 -0.00000000000E+00 -0.15852396860E+04  0.15852396860E+04  0.00000000000E+00 0. -1.
         25    2    1    2    0    0 -0.43554100427E+02  0.16897524156E+03 -0.96317784892E+03  0.98681788309E+03  0.12509346035E+03 0.  0.
          5    1    3    3  502    0 -0.18787579416E+02  0.21687105499E+02 -0.48440764336E+03  0.48527470677E+03  0.41800000000E+01 0. -1.
         -5    1    3    3    0  502 -0.24766521011E+02  0.14728813606E+03 -0.47877020555E+03  0.50154317632E+03  0.41800000000E+01 0. -1.
        -11    1    1    2    0    0  0.35826973212E+02 -0.54478838841E+02 -0.10794541944E+03  0.12610998957E+03  0.00000000000E+00 0.  1.
         11    1    1    2    0    0  0.77271272147E+01 -0.11449640271E+03 -0.48653895434E+03  0.49988927656E+03  0.00000000000E+00 0. -1.
</event>
<event>
 7    1  0.2714042E-009  0.1090451E+03  0.7561462E-02  0.1262348E+00
         -1   -1    0    0    0  501 -0.00000000000E+00  0.00000000000E+00  0.41358648040E+02  0.41358648040E+02  0.00000000000E+00 0.  1.
          1   -1    0    0  501    0  0.00000000000E+00 -0.00000000000E+00 -0.43300697135E+03  0.43300697135E+03  0.00000000000E+00 0. -1.
         25    2    1    2    0    0 -0.30396042356E+02  0.15750603924E+02 -0.90243770957E+02  0.15799851159E+03  0.12509032957E+03 0.  0.
          5    1    3    3  502    0 -0.40600202164E+02 -0.47077715610E+02 -0.63090254755E+02  0.88670966882E+02  0.41800000000E+01 0. -1.
         -5    1    3    3    0  502  0.10204159808E+02  0.62828319534E+02 -0.27153516202E+02  0.69327544707E+02  0.41800000000E+01 0. -1.
        -11    1    1    2    0    0  0.57016610645E+02 -0.27010181400E+02 -0.15901811507E+03  0.17107660480E+03  0.00000000000E+00 0.  1.
         11    1    1    2    0    0 -0.26620568289E+02  0.11259577476E+02 -0.14238643728E+03  0.14529050300E+03  0.00000000000E+00 0. -1.
</event>
<event>
 7    1  0.2714042E-009  0.1674517E+03  0.7561462E-02  0.1180532E+00
          2   -1    0    0  501    0  0.00000000000E+00  0.00000000000E+00  0.16126609947E+04  0.16126609947E+04  0.00000000000E+00 0. -1.
         -2   -1    0    0    0  501 -0.00000000000E+00 -0.00000000000E+00 -0.27173932510E+02  0.27173932510E+02  0.00000000000E+00 0.  1.
         25    2    1    2    0    0  0.84848917897E+02  0.96945680568E+02  0.13099585105E+04  0.13222091031E+04  0.12509120348E+03 0.  0.
          5    1    3    3  502    0  0.11281676301E+03  0.51685264829E+02  0.81896540937E+03  0.82832409283E+03  0.41800000000E+01 0. -1.
         -5    1    3    3    0  502 -0.27967845114E+02  0.45260415739E+02  0.49099310112E+03  0.49388501024E+03  0.41800000000E+01 0. -1.
        -11    1    1    2    0    0 -0.11083615637E+02 -0.81189743617E+02  0.15776998547E+03  0.17778073383E+03  0.00000000000E+00 0.  1.
         11    1    1    2    0    0 -0.73765302261E+02 -0.15755936951E+02  0.11775856628E+03  0.13984509036E+03  0.00000000000E+00 0. -1.
</event>
<event>
 7    1  0.2714042E-009  0.1613154E+03  0.7561462E-02  0.1187220E+00
         -2   -1    0    0    0  501 -0.00000000000E+00  0.00000000000E+00  0.96774957325E+02  0.96774957325E+02  0.00000000000E+00 0.  1.
          2   -1    0    0  501    0  0.00000000000E+00 -0.00000000000E+00 -0.35245570924E+03  0.35245570924E+03  0.00000000000E+00 0. -1.
         25    2    1    2    0    0  0.10903824810E+02  0.12713892911E+03 -0.40340172730E+02  0.18318759809E+03  0.12508863205E+03 0.  0.
          5    1    3    3  502    0  0.35355954529E+02 -0.41437927714E+01  0.14632532449E+02  0.38714311889E+02  0.41800000000E+01 0.  1.
         -5    1    3    3    0  502 -0.24452129719E+02  0.13128272188E+03 -0.54972705179E+02  0.14447328620E+03  0.41800000000E+01 0.  1.
        -11    1    1    2    0    0  0.32243537414E+02 -0.92160187374E+02 -0.11094179402E+03  0.14778777859E+03  0.00000000000E+00 0. -1.
         11    1    1    2    0    0 -0.43147362224E+02 -0.34978741733E+02 -0.10439878517E+03  0.11825528988E+03  0.00000000000E+00 0.  1.
</event>
<event>
 7    1  0.2714042E-009  0.9960015E+02  0.7561462E-02  0.1281139E+00
          3   -1    0    0  501    0  0.00000000000E+00  0.00000000000E+00  0.87268515510E+01  0.87268515510E+01  0.00000000000E+00 0. -1.
         -3   -1    0    0    0  501 -0.00000000000E+00 -0.00000000000E+00 -0.14358824118E+04  0.14358824118E+04  0.00000000000E+00 0.  1.
         25    2    1    2    0    0  0.19089999045E+02 -0.53146109414E+01 -0.94418650932E+03  0.95264278749E+03  0.12508973984E+03 0.  0.
          5    1    3    3  502    0 -0.37442498344E+02 -0.25463166434E+02 -0.16543028883E+03  0.17156621576E+03  0.41800000000E+01 0.  1.
         -5    1    3    3    0  502  0.56532497388E+02  0.20148555493E+02 -0.77875622049E+03  0.78107657173E+03  0.41800000000E+01 0.  1.
        -11    1    1    2    0    0 -0.62996720643E+01  0.48304740156E+02 -0.24052719539E+03  0.24541060594E+03  0.00000000000E+00 0. -1.
         11    1    1    2    0    0 -0.12790326980E+02 -0.42990129215E+02 -0.24244185559E+03  0.24655586997E+03  0.00000000000E+00 0.  1.
</event>
<event>
 7    1  0.2714042E-009  0.1727993E+03  0.7561462E-02  0.1174960E+00
          1   -1    0    0  501    0  0.00000000000E+00  0.00000000000E+00  0.24993866114E+03  0.24993866114E+03  0.00000000000E+00 0.  1.
         -1   -1    0    0    0  501 -0.00000000000E+00 -0.00000000000E+00 -0.14123251442E+03  0.14123251442E+03  0.00000000000E+00 0. -1.
         25    2    1    2    0    0 -0.38337362925E+02 -0.14713165377E+03  0.51319528685E+02  0.20346598159E+03  0.12508890719E+03 0.  0.
          5    1    3    3  502    0 -0.22824288425E+02 -0.15513500798E+03  0.85626097436E+01  0.15709426956E+03  0.41800000000E+01 0. -1.
         -5    1    3    3    0  502 -0.15513074501E+02  0.80033542108E+01  0.42756918941E+02  0.46371712028E+02  0.41800000000E+01 0. -1.
        -11    1    1    2    0    0 -0.23847104419E+02  0.31647335904E+02 -0.90947708536E+01  0.40656526117E+02  0.00000000000E+00 0. -1.
         11    1    1    2    0    0  0.62184467344E+02  0.11548431786E+03  0.66481388882E+02  0.14704866786E+03  0.00000000000E+00 0.  1.
</event>
<event>
 7    1  0.2714042E-009  0.1056336E+03  0.7561462E-02  0.1268876E+00
          1   -1    0    0  501    0  0.00000000000E+00  0.00000000000E+00  0.20424999500E+03  0.20424999500E+03  0.00000000000E+00 0. -1.
         -1   -1    0    0    0  501 -0.00000000000E+00 -0.00000000000E+00 -0.64189433427E+02  0.64189433427E+02  0.00000000000E+00 0.  1.
         25    2    1    2    0    0 -0.13390213713E+02  0.34298302097E+02  0.92510440931E+02  0.15987741305E+03  0.12508770592E+03 0.  0.
          5    1    3    3  502    0  0.17943980978E+02  0.75896180604E+02  0.53317039587E+02  0.94564241624E+02  0.41800000000E+01 0.  1.
         -5    1    3    3    0  502 -0.31334194692E+02 -0.41597878507E+02  0.39193401344E+02  0.65313171429E+02  0.41800000000E+01 0.  1.
        -11    1    1    2    0    0  0.18487446344E+02  0.19505996431E+02 -0.10858062425E+02  0.28985635903E+02  0.00000000000E+00 0.  1.
         11    1    1    2    0    0 -0.50972326304E+01 -0.53804298528E+02  0.58408183062E+02  0.79576379467E+02  0.00000000000E+00 0. -1.
</event>
<event>
 7    1  0.2714042E-009  0.4890980E+03  0.7561462E-02  0.1016664E+00
          2   -1    0    0  501    0  0.00000000000E+00  0.00000000000E+00  0.25995801931E+03  0.25995801931E+03  0.00000000000E+00 0.  1.
         -2   -1    0    0    0  501 -0.00000000000E+00 -0.00000000000E+00 -0.10435332128E+04  0.10435332128E+04  0.00000000000E+00 0. -1.
         25    2    1    2    0    0  0.42765289188E+03 -0.23401559886E+03 -0.57920997255E+03  0.76732153767E+03  0.12509138031E+03 0.  0.
          5    1    3    3  502    0  0.37198658157E+03 -0.20043893484E+03 -0.55558445132E+03  0.69802674620E+03  0.41800000000E+01 0. -1.
         -5    1    3    3    0  502  0.55666310317E+02 -0.33576664024E+02 -0.23625521225E+02  0.69294791467E+02  0.41800000000E+01 0. -1.
        -11    1    1    2    0    0 -0.48670756335E+02  0.47810522138E+02 -0.28277011522E+01  0.68283851994E+02  0.00000000000E+00 0.  1.
         11    1    1    2    0    0 -0.37898213555E+03  0.18620507672E+03 -0.20153751977E+03  0.46788584242E+03  0.00000000000E+00 0. -1.
</event>
<event>
 7    1  0.2714042E-009  0.7947235E+02  0.7561462E-02  0.1330556E+00
         -3   -1    0    0    0  501 -0.00000000000E+00  0.00000000000E+00  0.20708919701E+03  0.20708919701E+03  0.00000000000E+00 0.  1.
          3   -1    0    0  501    0  0.00000000000E+00 -0.00000000000E+00 -0.74646287426E+02  0.74646287426E+02  0.00000000000E+00 0. -1.
         25    2    1    2    0    0 -0.37625739720E+02 -0.11912891541E+02  0.23529717947E+02  0.13326152512E+03  0.12508946069E+03 0.  0.
          5    1    3    3  502    0  0.16586426672E+02 -0.18559156941E+02  0.61588923362E+02  0.66559895861E+02  0.41800000000E+01 0.  1.
         -5    1    3    3    0  502 -0.54212166392E+02  0.66462653999E+01 -0.38059205415E+02  0.66701629257E+02  0.41800000000E+01 0.  1.
        -11    1    1    2    0    0  0.56277184903E+02 -0.92531268545E+00  0.11226515804E+03  0.12558440768E+03  0.00000000000E+00 0.  1.
         11    1    1    2    0    0 -0.18651445183E+02  0.12838204226E+02 -0.33519664030E+01  0.22889551633E+02  0.00000000000E+00 0. -1.
</event>
<event>
 7    1  0.2714042E-009  0.1036553E+03  0.7561462E-02  0.1272792E+00
          2   -1    0    0  501    0  0.00000000000E+00  0.00000000000E+00  0.47952428402E+03  0.47952428402E+03  0.00000000000E+00 0.  1.
         -2   -1    0    0    0  501 -0.00000000000E+00 -0.00000000000E+00 -0.33224609515E+02  0.33224609515E+02  0.00000000000E+00 0. -1.
         25    2    1    2    0    0  0.24069602303E+02 -0.57679443033E+02  0.28562220172E+03  0.31801671339E+03  0.12509326111E+03 0.  0.
          5    1    3    3  502    0 -0.52960537937E+01  0.33338737243E+02  0.31107244361E+02  0.46093954468E+02  0.41800000000E+01 0.  1.
         -5    1    3    3    0  502  0.29365656097E+02 -0.91018180276E+02  0.25451495736E+03  0.27192275892E+03  0.41800000000E+01 0.  1.
        -11    1    1    2    0    0  0.60384505925E+01  0.44145607688E+02  0.15494995443E+03  0.16122898604E+03  0.00000000000E+00 0.  1.
         11    1    1    2    0    0 -0.30108052896E+02  0.13533835345E+02  0.57275183528E+01  0.33503194099E+02  0.00000000000E+00 0. -1.
</event>
<event>
 7    1  0.3526690E-009  0.1306334E+03  0.7561462E-02  0.1226519E+00
         -1   -1    0    0    0  501 -0.00000000000E+00  0.00000000000E+00  0.37008775473E+02  0.37008775473E+02  0.00000000000E+00 0.  1.
          1   -1    0    0  501    0  0.00000000000E+00 -0.00000000000E+00 -0.65042611387E+03  0.65042611387E+03  0.00000000000E+00 0. -1.
         25    2    1    2    0    0  0.10493993521E+03 -0.52132507993E+00 -0.25375257959E+03  0.30174547758E+03  0.12508916743E+03 0.  0.
          5    1    3    3  502    0 -0.15630198231E+01 -0.21211468642E+02  0.40150834713E+01  0.22044562327E+02  0.41800000000E+01 0. -1.
         -5    1    3    3    0  502  0.10650295503E+03  0.20690143562E+02 -0.25776766307E+03  0.27970091525E+03  0.41800000000E+01 0. -1.
        -11    1    1    2    0    0 -0.41781488749E+02 -0.38467486327E+02 -0.93755266792E+02  0.10961519218E+03  0.00000000000E+00 0. -1.
         11    1    1    2    0    0 -0.63158446461E+02  0.38988811407E+02 -0.26590949201E+03  0.27607421958E+03  0.00000000000E+00 0.  1.
</event>
<event>
 7    1  0.2714042E-009  0.1061990E+03  0.7561462E-02  0.1267775E+00
          1   -1    0    0  501    0  0.00000000000E+00  0.00000000000E+00  0.17982298224E+03  0.17982298224E+03  0.00000000000E+00 0. -1.
         -1   -1    0    0    0  501 -0.00000000000E+00 -0.00000000000E+00 -0.16263276684E+03  0.16263276684E+03  0.00000000000E+00 0.  1.
         25    2    1    2    0    0  0.49105303137E+02  0.52071947785E+02  0.12037866049E+03  0.18778174279E+03  0.12509253568E+03 0.  0.
          5    1    3    3  502    0  0.79631515240E+02  0.22840121303E+02  0.30507016307E+02  0.88379860854E+02  0.41800000000E+01 0.  1.
         -5    1    3    3    0  502 -0.30526212104E+02  0.29231826482E+02  0.89871644180E+02  0.99401881937E+02  0.41800000000E+01 0.  1.
        -11    1    1    2    0    0 -0.76655615317E+01 -0.44122567115E+02 -0.10317893864E+03  0.11247868750E+03  0.00000000000E+00 0.  1.
         11    1    1    2    0    0 -0.41439741605E+02 -0.79493806703E+01 -0.95064536276E-02  0.42195318789E+02  0.00000000000E+00 0. -1.
</event>
<event>
 7    1  0.2714042E-009  0.1220000E+03  0.7561462E-02  0.1239834E+00
         -1   -1    0    0    0  501 -0.00000000000E+00  0.00000000000E+00  0.19652137611E+03  0.19652137611E+03  0.00000000000E+00 0.  1.
          1   -1    0    0  501    0  0.00000000000E+00 -0.00000000000E+00 -0.13147741514E+03  0.13147741514E+03  0.00000000000E+00 0. -1.
         25    2    1    2    0    0  0.74019640833E+02 -0.74728191412E+02  0.90261872455E+02  0.18669581390E+03  0.12507962060E+03 0.  0.
          5    1    3    3  502    0  0.38738039301E+02 -0.17583156589E+01 -0.24556692350E+02  0.46089379493E+02  0.41800000000E+01 0. -1.
         -5    1    3    3    0  502  0.35281601532E+02 -0.72969875753E+02  0.11481856481E+03  0.14060643441E+03  0.41800000000E+01 0. -1.
        -11    1    1    2    0    0  0.12152094099E+02  0.13281497040E+02 -0.30410821527E+02  0.35339632434E+02  0.00000000000E+00 0. -1.
         11    1    1    2    0    0 -0.86171734932E+02  0.61446694372E+02  0.51929100367E+01  0.10596334491E+03  0.00000000000E+00 0.  1.
</event>
<event>
 7    1  0.2714042E-009  0.1406028E+03  0.7561462E-02  0.1212520E+00
         -1   -1    0    0    0  501 -0.00000000000E+00  0.00000000000E+00  0.13225915001E+02  0.13225915001E+02  0.00000000000E+00 0.  1.
          1   -1    0    0  501    0  0.00000000000E+00 -0.00000000000E+00 -0.19599582206E+04  0.19599582206E+04  0.00000000000E+00 0. -1.
         25    2    1    2    0    0  0.87161996721E+02 -0.70465032316E+02 -0.12874605352E+04  0.12983698558E+04  0.12508844226E+03 0.  0.
          5    1    3    3  502    0  0.22615552616E+02 -0.70838513169E+02 -0.31196812739E+03  0.32073531623E+03  0.41800000000E+01 0. -1.
         -5    1    3    3    0  502  0.64546444105E+02  0.37348085298E+00 -0.97549240782E+03  0.97763453961E+03  0.41800000000E+01 0. -1.
        -11    1    1    2    0    0 -0.10383255027E+03  0.70264651666E+02 -0.61141471242E+03  0.62413641965E+03  0.00000000000E+00 0.  1.
         11    1    1    2    0    0  0.16670553546E+02  0.20038065059E+00 -0.47857057989E+02  0.50677860129E+02  0.00000000000E+00 0. -1.
</event>
<event>
 7    1  0.2714042E-009  0.2435345E+03  0.7561462E-02  0.1117460E+00
          2   -1    0    0  501    0  0.00000000000E+00  0.00000000000E+00  0.15253948158E+04  0.15253948158E+04  0.00000000000E+00 0.  1.
         -2   -1    0    0    0  501 -0.00000000000E+00 -0.00000000000E+00 -0.46836834996E+02  0.46836834996E+02  0.00000000000E+00 0. -1.
         25    2    1    2    0    0 -0.23882981784E+03  0.17522543146E+02  0.61997741822E+03  0.67628820431E+03  0.12508802811E+03 0.  0.
          5    1    3    3  502    0 -0.14612987684E+03 -0.18170048875E+02  0.22459543929E+03  0.26859760857E+03  0.41800000000E+01 0. -1.
         -5    1    3    3    0  502 -0.92699940998E+02  0.35692592021E+02  0.39538197894E+03  0.40769059574E+03  0.41800000000E+01 0. -1.
        -11    1    1    2    0    0  0.17892134440E+02 -0.67805252746E+01  0.16406590103E+02  0.25204765356E+02  0.00000000000E+00 0. -1.
         11    1    1    2    0    0  0.22093768340E+03 -0.10742017871E+02  0.84217397251E+03  0.87073868116E+03  0.00000000000E+00 0.  1.
</event>
<event>
 7    1  0.2714042E-009  0.9280400E+02  0.7561462E-02  0.1296200E+00
          1   -1    0    0  501    0  0.00000000000E+00  0.00000000000E+00  0.19263281545E+03  0.19263281545E+03  0.00000000000E+00 0. -1.
         -1   -1    0    0    0  501 -0.00000000000E+00 -0.00000000000E+00 -0.60266462622E+02  0.60266462622E+02  0.00000000000E+00 0.  1.
         25    2    1    2    0    0 -0.28111766856E+02  0.77977167174E+01  0.52376700182E+02  0.13871726638E+03  0.12509230771E+03 0.  0.
          5    1    3    3  502    0 -0.32815474679E+02 -0.46838042496E+02 -0.70183817976E+01  0.57770127975E+02  0.41800000000E+01 0. -1.
         -5    1    3    3    0  502  0.47037078227E+01  0.54635759213E+02  0.59395081980E+02  0.80947138402E+02  0.41800000000E+01 0. -1.
        -11    1    1    2    0    0  0.24814857435E+02  0.27946115766E+02  0.15673050150E+02  0.40526621336E+02  0.00000000000E+00 0.  1.
         11    1    1    2    0    0  0.32969094208E+01 -0.35743832483E+02  0.64316602493E+02  0.73655390357E+02  0.00000000000E+00 0. -1.
</event>
<event>
 7    1  0.2714042E-009  0.1952476E+03  0.7561462E-02  0.1153812E+00
         -2   -1    0    0    0  501 -0.00000000000E+00  0.00000000000E+00  0.10560060307E+03  0.10560060307E+03  0.00000000000E+00 0.  1.
          2   -1    0    0  501    0  0.00000000000E+00 -0.00000000000E+00 -0.93194840542E+03  0.93194840542E+03  0.00000000000E+00 0. -1.
         25    2    1    2    0    0  0.16404882597E+03  0.81984699762E+02 -0.41146182782E+02  0.22577570431E+03  0.12509257372E+03 0.  0.
          5    1    3    3  502    0  0.54608105333E+01  0.34196425406E+01  0.32972141694E+02  0.33854821439E+02  0.41800000000E+01 0. -1.
         -5    1    3    3    0  502  0.15858801544E+03  0.78565057221E+02 -0.74118324476E+02  0.19192088287E+03  0.41800000000E+01 0. -1.
        -11    1    1    2    0    0 -0.13027869385E+03 -0.15478800313E+02 -0.51808801352E+03  0.53444112967E+03  0.00000000000E+00 0. -1.
         11    1    1    2    0    0 -0.33770132128E+02 -0.66505899449E+02 -0.26711360605E+03  0.27733217452E+03  0.00000000000E+00 0.  1.
</event>
<event>
 7    1  0.2714042E-009  0.3121021E+03  0.7561462E-02  0.1079343E+00
          2   -1    0    0  501    0  0.00000000000E+00  0.00000000000E+00  0.27915441108E+03  0.27915441108E+03  0.00000000000E+00 0. -1.
         -2   -1    0    0    0  501 -0.00000000000E+00 -0.00000000000E+00 -0.51858312245E+03  0.51858312245E+03  0.00000000000E+00 0.  1.
         25    2    1    2    0    0 -0.26996082083E+03  0.14820826491E+03 -0.32526402009E+03  0.46506843332E+03  0.12508968914E+03 0.  0.
          5    1    3    3  502    0 -0.20371048678E+03  0.12508063513E+03 -0.16623343400E+03  0.29119435896E+03  0.41800000000E+01 0. -1.
         -5    1    3    3    0  502 -0.66250334051E+02  0.23127629775E+02 -0.15903058609E+03  0.17387407436E+03  0.41800000000E+01 0. -1.
        -11    1    1    2    0    0  0.86252602998E+02 -0.14151709038E+02  0.54742217249E+02  0.10313337356E+03  0.00000000000E+00 0. -1.
         11    1    1    2    0    0  0.18370821783E+03 -0.13405655587E+03  0.31093091475E+02  0.22953572665E+03  0.00000000000E+00 0.  1.
</event>
<event>
 7    1  0.2714042E-009  0.1338016E+03  0.7561462E-02  0.1221921E+00
          3   -1    0    0  501    0  0.00000000000E+00  0.00000000000E+00  0.13516182538E+03  0.13516182538E+03  0.00000000000E+00 0. -1.
         -3   -1    0    0    0  501 -0.00000000000E+00 -0.00000000000E+00 -0.20919785561E+03  0.20919785561E+03  0.00000000000E+00 0.  1.
         25    2    1    2    0    0  0.79750748528E+02  0.67670766845E+02 -0.11520342296E+03  0.19964589616E+03  0.12508853111E+03 0.  0.
          5    1    3    3  502    0  0.34486113523E+02 -0.16467747015E+02 -0.94187287186E+02  0.10173099914E+03  0.41800000000E+01 0. -1.
         -5    1    3    3    0  502  0.45264635005E+02  0.84138513860E+02 -0.21016135775E+02  0.97914897026E+02  0.41800000000E+01 0. -1.
        -11    1    1    2    0    0  0.18397912544E+01  0.16323944169E+02 -0.73059224470E+01  0.17978667578E+02  0.00000000000E+00 0.  1.
         11    1    1    2    0    0 -0.81590539782E+02 -0.83994711014E+02  0.48473315173E+02  0.12673511725E+03  0.00000000000E+00 0. -1.
</event>
<event>
 7    1  0.2714042E-009  0.9576557E+02  0.7561462E-02  0.1289461E+00
         -1   -1    0    0    0  501 -0.00000000000E+00  0.00000000000E+00  0.60678957895E+02  0.60678957895E+02  0.00000000000E+00 0.  1.
          1   -1    0    0  501    0  0.00000000000E+00 -0.00000000000E+00 -0.28910686133E+03  0.28910686133E+03  0.00000000000E+00 0. -1.
         25    2    1    2    0    0 -0.40319945253E+02 -0.37777252545E+02 -0.56927410402E+02  0.14812668802E+03  0.12509183368E+03 0.  0.
          5    1    3    3  502    0 -0.15962219087E+02  0.33119137259E+02 -0.62721976883E+02  0.72822994137E+02  0.41800000000E+01 0.  1.
         -5    1    3    3    0  502 -0.24357726166E+02 -0.70896389804E+02  0.57945664804E+01  0.75303693879E+02  0.41800000000E+01 0.  1.
        -11    1    1    2    0    0  0.12394182509E+01  0.40269791069E+02 -0.15324589492E+03  0.15845345229E+03  0.00000000000E+00 0. -1.
         11    1    1    2    0    0  0.39080527002E+02 -0.24925385242E+01 -0.18254598109E+02  0.43205678922E+02  0.00000000000E+00 0.  1.
</event>
<event>
 7    1  0.2714042E-009  0.1005772E+03  0.7561462E-02  0.1279087E+00
         -4   -1    0    0    0  501 -0.00000000000E+00  0.00000000000E+00  0.65275185306E+02  0.65275185306E+02  0.00000000000E+00 0.  1.
          4   -1    0    0  501    0  0.00000000000E+00 -0.00000000000E+00 -0.20471723438E+03  0.20471723438E+03  0.00000000000E+00 0. -1.
         25    2    1    2    0    0  0.22725680891E+02  0.13613827876E+02 -0.39484547982E+02  0.13382134558E+03  0.12508928860E+03 0.  0.
          5    1    3    3  502    0 -0.29428232326E+02 -0.42018356984E+02 -0.17182178036E+02  0.54261061761E+02  0.41800000000E+01 0. -1.
         -5    1    3    3    0  502  0.52153913217E+02  0.55632184860E+02 -0.22302369946E+02  0.79560283819E+02  0.41800000000E+01 0. -1.
        -11    1    1    2    0    0 -0.89742393207E+01  0.28044794292E+02 -0.84783596690E+02  0.89751355009E+02  0.00000000000E+00 0. -1.
         11    1    1    2    0    0 -0.13751441571E+02 -0.41658622168E+02 -0.15173904403E+02  0.46419719097E+02  0.00000000000E+00 0.  1.
</event>
<event>
 7    1  0.2714042E-009  0.1622116E+03  0.7561462E-02  0.1186222E+00
         -3   -1    0    0    0  501 -0.00000000000E+00  0.00000000000E+00  0.84761402037E+03  0.84761402037E+03  0.00000000000E+00 0.  1.
          3   -1    0    0  501    0  0.00000000000E+00 -0.00000000000E+00 -0.36372250091E+02  0.36372250091E+02  0.00000000000E+00 0. -1.
         25    2    1    2    0    0 -0.12235586637E+03 -0.59332683589E+02  0.49961898733E+03  0.53268810712E+03  0.12508461771E+03 0.  0.
          5    1    3    3  502    0 -0.24146318104E+02 -0.71301332119E+02  0.13250385542E+03  0.15245218510E+03  0.41800000000E+01 0.  1.
         -5    1    3    3    0  502 -0.98209548267E+02  0.11968648531E+02  0.36711513191E+03  0.38023592202E+03  0.41800000000E+01 0.  1.
        -11    1    1    2    0    0  0.35443734417E+02 -0.12153376009E+02  0.29920621182E+02  0.47950040978E+02  0.00000000000E+00 0.  1.
         11    1    1    2    0    0  0.86912131954E+02  0.71486059598E+02  0.28170216177E+03  0.30334812236E+03  0.00000000000E+00 0. -1.
</event>
<event>
 7    1  0.2714042E-009  0.1119107E+03  0.7561462E-02  0.1257072E+00
         -1   -1    0    0    0  501 -0.00000000000E+00  0.00000000000E+00  0.51641053968E+02  0.51641053968E+02  0.00000000000E+00 0.  1.
          1   -1    0    0  501    0  0.00000000000E+00 -0.00000000000E+00 -0.29621424858E+03  0.29621424858E+03  0.00000000000E+00 0. -1.
         25    2    1    2    0    0 -0.36455142250E+02  0.18741142834E+02 -0.19605251733E+03  0.23614454503E+03  0.12508976282E+03 0.  0.
          5    1    3    3  502    0 -0.31564138090E+02 -0.49206349976E+02 -0.12253132516E+03  0.13582694039E+03  0.41800000000E+01 0.  1.
         -5    1    3    3    0  502 -0.48910041603E+01  0.67947492810E+02 -0.73521192171E+02  0.10031760463E+03  0.41800000000E+01 0.  1.
        -11    1    1    2    0    0 -0.22657731868E+02 -0.29169116463E+02 -0.43620387711E+01  0.37191901684E+02  0.00000000000E+00 0.  1.
         11    1    1    2    0    0  0.59112874119E+02  0.10427973629E+02 -0.44158638514E+02  0.74518855842E+02  0.00000000000E+00 0. -1.
</event>
<event>
 7    1  0.3273202E-009  0.8976281E+02  0.7561462E-02  0.1303427E+00
          1   -1    0    0  501    0  0.00000000000E+00  0.00000000000E+00  0.89635698258E+03  0.89635698258E+03  0.00000000000E+00 0. -1.
         -1   -1    0    0    0  501 -0.00000000000E+00 -0.00000000000E+00 -0.16137087873E+02  0.16137087873E+02  0.00000000000E+00 0.  1.
         25    2    1    2    0    0  0.30430783228E+02 -0.32683965796E+02  0.39401605806E+03  0.41580073389E+03  0.12508925656E+03 0.  0.
          5    1    3    3  502    0  0.49887920362E+02 -0.32013942040E+02  0.72824050186E+02  0.93992083541E+02  0.41800000000E+01 0.  1.
         -5    1    3    3    0  502 -0.19457137134E+02 -0.67002375622E+00  0.32119200788E+03  0.32180865035E+03  0.41800000000E+01 0.  1.
        -11    1    1    2    0    0 -0.50501622923E+02  0.51891056005E+02  0.38477354478E+03  0.39152749121E+03  0.00000000000E+00 0.  1.
         11    1    1    2    0    0  0.20070839695E+02 -0.19207090209E+02  0.10143029186E+03  0.10516584534E+03  0.00000000000E+00 0. -1.
</event>
<event>
 7    1  0.2714042E-009  0.9298804E+02  0.7561462E-02  0.1295773E+00
          1   -1    0    0  501    0  0.00000000000E+00  0.00000000000E+00  0.10787611975E+03  0.10787611975E+03  0.00000000000E+00 0. -1.
         -1   -1    0    0    0  501 -0.00000000000E+00 -0.00000000000E+00 -0.12705026277E+03  0.12705026277E+03  0.00000000000E+00 0.  1.
         25    2    1    2    0    0  0.70039567716E+01 -0.21647521244E+02  0.19963110064E+02  0.12870147165E+03  0.12509145636E+03 0.  0.
          5    1    3    3  502    0 -0.38379108427E+02 -0.48412723024E+01 -0.37101320634E+02  0.53762201164E+02  0.41800000000E+01 0.  1.
         -5    1    3    3    0  502  0.45383065198E+02 -0.16806248941E+02  0.57064430698E+02  0.74939270487E+02  0.41800000000E+01 0.  1.
        -11    1    1    2    0    0 -0.34133352238E+02  0.49163802422E+02 -0.27520469712E+02  0.65875196067E+02  0.00000000000E+00 0. -1.
         11    1    1    2    0    0  0.27129395467E+02 -0.27516281179E+02 -0.11616783377E+02  0.40349714799E+02  0.00000000000E+00 0.  1.
</event>
<event>
 7    1  0.3166268E-009  0.8642952E+02  0.7561462E-02  0.1311736E+00
          1   -1    0    0  501    0  0.00000000000E+00  0.00000000000E+00  0.92270725759E+03  0.92270725759E+03  0.00000000000E+00 0. -1.
         -1   -1    0    0    0  501 -0.00000000000E+00 -0.00000000000E+00 -0.17732215187E+02  0.17732215187E+02  0.00000000000E+00 0.  1.
         25    2    1    2    0    0  0.49712172476E+02  0.11773618184E+02  0.66593942805E+03  0.67950908231E+03  0.12508937976E+03 0.  0.
          5    1    3    3  502    0  0.66146605685E+02  0.27613822676E+02  0.19174860686E+03  0.20475081753E+03  0.41800000000E+01 0. -1.
         -5    1    3    3    0  502 -0.16434433209E+02 -0.15840204492E+02  0.47419082120E+03  0.47475826479E+03  0.41800000000E+01 0. -1.
        -11    1    1    2    0    0  0.11324263654E+02 -0.12427486762E+02  0.29355363970E+01  0.17067476336E+02  0.00000000000E+00 0.  1.
         11    1    1    2    0    0 -0.61036436130E+02  0.65386857819E+00  0.23610007796E+03  0.24386291413E+03  0.00000000000E+00 0. -1.
</event>
<event>
 7    1  0.2714042E-009  0.1337469E+03  0.7561462E-02  0.1222000E+00
         -1   -1    0    0    0  501 -0.00000000000E+00  0.00000000000E+00  0.31838599688E+02  0.31838599688E+02  0.00000000000E+00 0.  1.
          1   -1    0    0  501    0  0.00000000000E+00 -0.00000000000E+00 -0.71553913916E+03  0.71553913916E+03  0.00000000000E+00 0. -1.
         25    2    1    2    0    0  0.24609740680E+02  0.86345673179E+02 -0.49912007504E+03  0.52233036595E+03  0.12508775828E+03 0.  0.
          5    1    3    3  502    0 -0.44778738320E+02  0.31729649623E+02 -0.10651082640E+03  0.11989134502E+03  0.41800000000E+01 0. -1.
         -5    1    3    3    0  502  0.69388479000E+02  0.54616023556E+02 -0.39260924864E+03  0.40243902093E+03  0.41800000000E+01 0. -1.
        -11    1    1    2    0    0  0.31926153667E+02 -0.24387477726E+02 -0.90440938366E+02  0.98962577221E+02  0.00000000000E+00 0. -1.
         11    1    1    2    0    0 -0.56535894347E+02 -0.61958195452E+02 -0.94139526066E+02  0.12608479568E+03  0.00000000000E+00 0.  1.
</event>
<event>
 7    1  0.2714042E-009  0.1143440E+03  0.7561462E-02  0.1252731E+00
         -2   -1    0    0    0  501 -0.00000000000E+00  0.00000000000E+00  0.52542853373E+02  0.52542853373E+02  0.00000000000E+00 0.  1.
          2   -1    0    0  501    0  0.00000000000E+00 -0.00000000000E+00 -0.34279176185E+03  0.34279176185E+03  0.00000000000E+00 0. -1.
         25    2    1    2    0    0 -0.39044420074E+02 -0.56752934739E+02 -0.21427398571E+03  0.25750046979E+03  0.12509112138E+03 0.  0.
          5    1    3    3  502    0  0.14184899725E+02 -0.67095083289E+02 -0.18134275672E+03  0.19392170945E+03  0.41800000000E+01 0. -1.
         -5    1    3    3    0  502 -0.53229319800E+02  0.10342148550E+02 -0.32931228991E+02  0.63578760336E+02  0.41800000000E+01 0. -1.
        -11    1    1    2    0    0 -0.21207287954E+02  0.36165810981E+02 -0.45846868394E+01  0.42175043565E+02  0.00000000000E+00 0.  1.
         11    1    1    2    0    0  0.60251708028E+02  0.20587123758E+02 -0.71390235925E+02  0.95659101869E+02  0.00000000000E+00 0. -1.
</event>
<event>
 7    1  0.2714042E-009  0.2112942E+03  0.7561462E-02  0.1140545E+00
         -1   -1    0    0    0  501 -0.00000000000E+00  0.00000000000E+00  0.69736874114E+02  0.69736874114E+02  0.00000000000E+00 0.  1.
          1   -1    0    0  501    0  0.00000000000E+00 -0.00000000000E+00 -0.72268112530E+03  0.72268112530E+03  0.00000000000E+00 0. -1.
         25    2    1    2    0    0 -0.14423062816E+03 -0.11196390682E+03 -0.44849304612E+03  0.50013204847E+03  0.12509061902E+03 0.  0.
          5    1    3    3  502    0 -0.16338494075E+03 -0.11247904317E+03 -0.42809260539E+03  0.47183357788E+03  0.41800000000E+01 0.  1.
         -5    1    3    3    0  502  0.19154312597E+02  0.51513635226E+00 -0.20400440722E+02  0.28298470598E+02  0.41800000000E+01 0.  1.
        -11    1    1    2    0    0  0.78308600129E+02  0.44199565061E+01 -0.10810025441E+03  0.13355687131E+03  0.00000000000E+00 0. -1.
         11    1    1    2    0    0  0.65922028028E+02  0.10754395031E+03 -0.96350950659E+02  0.15872907963E+03  0.00000000000E+00 0.  1.
</event>
<event>
 7    1  0.2714042E-009  0.8202120E+02  0.7561462E-02  0.1323411E+00
         -2   -1    0    0    0  501 -0.00000000000E+00  0.00000000000E+00  0.41830220353E+02  0.41830220353E+02  0.00000000000E+00 0.  1.
          2   -1    0    0  501    0  0.00000000000E+00 -0.00000000000E+00 -0.37023309723E+03  0.37023309723E+03  0.00000000000E+00 0. -1.
         25    2    1    2    0    0  0.36600464732E+01 -0.29275697921E+02 -0.27427825459E+03  0.30290087980E+03  0.12509963875E+03 0.  0.
          5    1    3    3  502    0  0.45263459211E+02 -0.59431644851E+02 -0.13438031337E+03  0.15380650887E+03  0.41800000000E+01 0. -1.
         -5    1    3    3    0  502 -0.41603412738E+02  0.30155946931E+02 -0.13989794122E+03  0.14909437093E+03  0.41800000000E+01 0. -1.
        -11    1    1    2    0    0  0.10018283433E+02  0.12003740179E+02 -0.76310265524E+02  0.77895522372E+02  0.00000000000E+00 0. -1.
         11    1    1    2    0    0 -0.13678329906E+02  0.17271957741E+02  0.22185643237E+02  0.31266915407E+02  0.00000000000E+00 0.  1.
</event>
<event>
 7    1  0.2714042E-009  0.1486082E+03  0.7561462E-02  0.1202194E+00
         -1   -1    0    0    0  501 -0.00000000000E+00  0.00000000000E+00  0.51819327545E+03  0.51819327545E+03  0.00000000000E+00 0.  1.
          1   -1    0    0  501    0  0.00000000000E+00 -0.00000000000E+00 -0.59868000709E+02  0.59868000709E+02  0.00000000000E+00 0. -1.
         25    2    1    2    0    0 -0.73037843182E+02 -0.85038561986E+02  0.36825648770E+03  0.40475663094E+03  0.12509598712E+03 0.  0.
          5    1    3    3  502    0 -0.69993213613E+02 -0.11608159441E+03  0.28138381633E+03  0.31235926592E+03  0.41800000000E+01 0.  1.
         -5    1    3    3    0  502 -0.30446295693E+01  0.31043032426E+02  0.86872671365E+02  0.92397365014E+02  0.41800000000E+01 0.  1.
        -11    1    1    2    0    0  0.35875566048E+02  0.85759719408E+02  0.21661636340E+02  0.95451622308E+02  0.00000000000E+00 0. -1.
         11    1    1    2    0    0  0.37162277134E+02 -0.72115742277E+00  0.68407150701E+02  0.77853022914E+02  0.00000000000E+00 0.  1.
</event>
<event>
 7    1  0.2714042E-009  0.1244025E+03  0.7561462E-02  0.1236006E+00
          2   -1    0    0  501    0  0.00000000000E+00  0.00000000000E+00  0.17067463256E+04  0.17067463256E+04  0.00000000000E+00 0. -1.
         -2   -1    0    0    0  501 -0.00000000000E+00 -0.00000000000E+00 -0.10244104453E+02  0.10244104453E+02  0.00000000000E+00 0.  1.
         25    2    1    2    0    0  0.45570780639E+02  0.52273258018E+02  0.11224036956E+04  0.11314794222E+04  0.12508572034E+03 0.  0.
          5    1    3    3  502    0 -0.24406789619E+02 -0.21307100856E+02  0.13663732062E+03  0.14048812659E+03  0.41800000000E+01 0.  1.
         -5    1    3    3    0  502  0.69977570258E+02  0.73580358874E+02  0.98576637496E+03  0.99099129560E+03  0.41800000000E+01 0.  1.
        -11    1    1    2    0    0 -0.24343260720E+02 -0.77677834941E+02  0.43249095126E+03  0.44008506372E+03  0.00000000000E+00 0. -1.
         11    1    1    2    0    0 -0.21227519919E+02  0.25404576924E+02  0.14160757434E+03  0.14542594419E+03  0.00000000000E+00 0.  1.
</event>
<event>
 7    1  0.2714042E-009  0.1322028E+03  0.7561462E-02  0.1224223E+00
          1   -1    0    0  501    0  0.00000000000E+00  0.00000000000E+00  0.12584211435E+03  0.12584211435E+03  0.00000000000E+00 0. -1.
         -1   -1    0    0    0  501 -0.00000000000E+00 -0.00000000000E+00 -0.16502740927E+03  0.16502740927E+03  0.00000000000E+00 0.  1.
         25    2    1    2    0    0 -0.88127325320E+02 -0.13557023440E+01  0.14454283685E+02  0.15370477947E+03  0.12509184433E+03 0.  0.
          5    1    3    3  502    0 -0.49323274453E+02 -0.55917363167E+02  0.36459629757E+02  0.83104235201E+02  0.41800000000E+01 0.  1.
         -5    1    3    3    0  502 -0.38804050867E+02  0.54561660823E+02 -0.22005346072E+02  0.70600544270E+02  0.41800000000E+01 0.  1.
        -11    1    1    2    0    0  0.24081761061E+02 -0.39796603560E+02 -0.49028085099E+01  0.46773265890E+02  0.00000000000E+00 0. -1.
         11    1    1    2    0    0  0.64045564259E+02  0.41152305904E+02 -0.48736770094E+02  0.90391478258E+02  0.00000000000E+00 0.  1.
</event>
<event>
 7    1  0.2714042E-009  0.1148696E+03  0.7561462E-02  0.1251809E+00
          3   -1    0    0  501    0  0.00000000000E+00  0.00000000000E+00  0.37180673164E+03  0.37180673164E+03  0.00000000000E+00 0. -1.
         -3   -1    0    0    0  501 -0.00000000000E+00 -0.00000000000E+00 -0.41292335206E+02  0.41292335206E+02  0.00000000000E+00 0.  1.
         25    2    1    2    0    0 -0.19518617095E+02 -0.35717461195E+02  0.25870552406E+03  0.29022830063E+03  0.12508878792E+03 0.  0.
          5    1    3    3  502    0  0.85913334337E+01 -0.78750752606E+02  0.14247636030E+03  0.16307200155E+03  0.41800000000E+01 0. -1.
         -5    1    3    3    0  502 -0.28109950528E+02  0.43033291412E+02  0.11622916376E+03  0.12715629908E+03  0.41800000000E+01 0. -1.
        -11    1    1    2    0    0 -0.26003153015E+02 -0.15535550161E+02  0.29692250349E+02  0.42416353171E+02  0.00000000000E+00 0. -1.
         11    1    1    2    0    0  0.45521770110E+02  0.51253011356E+02  0.42116622034E+02  0.80454413046E+02  0.00000000000E+00 0.  1.
</event>
<event>
 7    1  0.2714042E-009  0.7561762E+02  0.7561462E-02  0.1341969E+00
          2   -1    0    0  501    0  0.00000000000E+00  0.00000000000E+00  0.12731082458E+03  0.12731082458E+03  0.00000000000E+00 0. -1.
         -2   -1    0    0    0  501 -0.00000000000E+00 -0.00000000000E+00 -0.17111444676E+03  0.17111444676E+03  0.00000000000E+00 0.  1.
         25    2    1    2    0    0 -0.23135437204E+02 -0.66233150149E+02  0.48185065184E+02  0.15129880272E+03  0.12508976203E+03 0.  0.
          5    1    3    3  502    0  0.20877411684E+01 -0.32673615300E+02 -0.41002212574E+02  0.52636276806E+02  0.41800000000E+01 0.  1.
         -5    1    3    3    0  502 -0.25223178372E+02 -0.33559534849E+02  0.89187277758E+02  0.98662525917E+02  0.41800000000E+01 0.  1.
        -11    1    1    2    0    0 -0.32009721930E+01  0.35168827383E+02  0.10500393511E+02  0.36842243503E+02  0.00000000000E+00 0. -1.
         11    1    1    2    0    0  0.26336409397E+02  0.31064322766E+02 -0.10248908088E+03  0.11028422511E+03  0.00000000000E+00 0.  1.
</event>
<event>
 7    1  0.2714042E-009  0.7056214E+02  0.7561462E-02  0.1358192E+00
         -2   -1    0    0    0  501 -0.00000000000E+00  0.00000000000E+00  0.18371435580E+03  0.18371435580E+03  0.00000000000E+00 0.  1.
          2   -1    0    0  501    0  0.00000000000E+00 -0.00000000000E+00 -0.76638436051E+02  0.76638436051E+02  0.00000000000E+00 0. -1.
         25    2    1    2    0    0 -0.48643790091E+02  0.77446833755E+01  0.55109395554E+02  0.14529484874E+03  0.12508936469E+03 0.  0.
          5    1    3    3  502    0 -0.68335067098E+01  0.16462749138E+02  0.88842961655E+02  0.90709774328E+02  0.41800000000E+01 0.  1.
         -5    1    3    3    0  502 -0.41810283381E+02 -0.87180657627E+01 -0.33733566101E+02  0.54585074416E+02  0.41800000000E+01 0.  1.
        -11    1    1    2    0    0 -0.82543558372E+01  0.16191794792E+02  0.50107720837E+02  0.53301897680E+02  0.00000000000E+00 0.  1.
         11    1    1    2    0    0  0.56898145928E+02 -0.23936478167E+02  0.18588033611E+01  0.61756045429E+02  0.00000000000E+00 0. -1.
</event>
<event>
 7    1  0.2714042E-009  0.1031358E+03  0.7561462E-02  0.1273837E+00
          1   -1    0    0  501    0  0.00000000000E+00  0.00000000000E+00  0.63534287031E+03  0.63534287031E+03  0.00000000000E+00 0. -1.
         -1   -1    0    0    0  501 -0.00000000000E+00 -0.00000000000E+00 -0.34193194627E+02  0.34193194627E+02  0.00000000000E+00 0.  1.
         25    2    1    2    0    0  0.85585094885E+02  0.21798987167E+02  0.42965157789E+03  0.45612360017E+03  0.12509298919E+03 0.  0.
          5    1    3    3  502    0  0.48948449757E+01  0.22872009591E+02  0.55599424431E+01  0.24402329603E+02  0.41800000000E+01 0.  1.
         -5    1    3    3    0  502  0.80690249909E+02 -0.10730224239E+01  0.42409163544E+03  0.43172127057E+03  0.41800000000E+01 0.  1.
        -11    1    1    2    0    0  0.13846400049E+01 -0.14350854896E+02 -0.59972313071E+01  0.15615090379E+02  0.00000000000E+00 0.  1.
         11    1    1    2    0    0 -0.86969734889E+02 -0.74481322707E+01  0.17749532911E+03  0.19779737439E+03  0.00000000000E+00 0. -1.
</event>
<event>
 7    1  0.2714042E-009  0.1126559E+03  0.7561462E-02  0.1255729E+00
         -1   -1    0    0    0  501 -0.00000000000E+00  0.00000000000E+00  0.78398889718E+03  0.78398889718E+03  0.00000000000E+00 0.  1.
          1   -1    0    0  501    0  0.00000000000E+00 -0.00000000000E+00 -0.20443775315E+02  0.20443775315E+02  0.00000000000E+00 0. -1.
         25    2    1    2    0    0  0.12607304774E+02 -0.53411708285E+02  0.53304514364E+03  0.55026577416E+03  0.12507414736E+03 0.  0.
          5    1    3    3  502    0  0.59368529708E+02 -0.32997030765E+02  0.42837764941E+03  0.43374913173E+03  0.41800000000E+01 0.  1.
         -5    1    3    3    0  502 -0.46761224934E+02 -0.20414677520E+02  0.10466749423E+03  0.11651664243E+03  0.41800000000E+01 0.  1.
        -11    1    1    2    0    0  0.38016590557E+02  0.98280661695E+01  0.68884242656E+02  0.79289916941E+02  0.00000000000E+00 0. -1.
         11    1    1    2    0    0 -0.50623895331E+02  0.43583642116E+02  0.16161573558E+03  0.17487698140E+03  0.00000000000E+00 0.  1.
</event>
<event>
 7    1  0.2714042E-009  0.2436701E+03  0.7561462E-02  0.1117372E+00
         -2   -1    0    0    0  501 -0.00000000000E+00  0.00000000000E+00  0.25440792889E+03  0.25440792889E+03  0.00000000000E+00 0.  1.
          2   -1    0    0  501    0  0.00000000000E+00 -0.00000000000E+00 -0.34182456258E+03  0.34182456258E+03  0.00000000000E+00 0. -1.
         25    2    1    2    0    0 -0.19367357460E+03 -0.99943974361E+02  0.12284032941E+03  0.27970803667E+03  0.12509431537E+03 0.  0.
          5    1    3    3  502    0  0.16065427654E+02  0.39223706367E+01  0.10817870054E+02  0.20198556127E+02  0.41800000000E+01 0. -1.
         -5    1    3    3    0  502 -0.20973900226E+03 -0.10386634500E+03  0.11202245936E+03  0.25950948054E+03  0.41800000000E+01 0. -1.
        -11    1    1    2    0    0  0.50479642381E+02  0.75666771374E+02 -0.72060916688E+02  0.11604494948E+03  0.00000000000E+00 0.  1.
         11    1    1    2    0    0  0.14319393222E+03  0.24277202987E+02 -0.13819604641E+03  0.20047950532E+03  0.00000000000E+00 0. -1.
</event>
<event>
 7    1  0.2714042E-009  0.1063470E+03  0.7561462E-02  0.1267488E+00
         -1   -1    0    0    0  501 -0.00000000000E+00  0.00000000000E+00  0.20473545663E+02  0.20473545663E+02  0.00000000000E+00 0.  1.
          1   -1    0    0  501    0  0.00000000000E+00 -0.00000000000E+00 -0.69868583587E+03  0.69868583587E+03  0.00000000000E+00 0. -1.
         25    2    1    2    0    0 -0.41912122368E+02  0.28060117977E+02 -0.36569154233E+03  0.38977491770E+03  0.12510070391E+03 0.  0.
          5    1    3    3  502    0 -0.39125407199E+02  0.64206484107E+02 -0.12202372965E+03  0.14338944552E+03  0.41800000000E+01 0. -1.
         -5    1    3    3    0  502 -0.27867151686E+01 -0.36146366130E+02 -0.24366781268E+03  0.24638547218E+03  0.41800000000E+01 0. -1.
        -11    1    1    2    0    0  0.67462849169E+02 -0.70765204393E+01 -0.16901330924E+03  0.18211757702E+03  0.00000000000E+00 0. -1.
         11    1    1    2    0    0 -0.25550726801E+02 -0.20983597538E+02 -0.14350743864E+03  0.14726688681E+03  0.00000000000E+00 0.  1.
</event>
<event>
 7    1  0.2714042E-009  0.1383497E+03  0.7561462E-02  0.1215567E+00
         -2   -1    0    0    0  501 -0.00000000000E+00  0.00000000000E+00  0.32122846027E+03  0.32122846027E+03  0.00000000000E+00 0.  1.
          2   -1    0    0  501    0  0.00000000000E+00 -0.00000000000E+00 -0.73608903234E+02  0.73608903234E+02  0.00000000000E+00 0. -1.
         25    2    1    2    0    0 -0.39309065315E+02  0.88938693856E+02  0.19218688293E+03  0.24907476579E+03  0.12508855705E+03 0.  0.
          5    1    3    3  502    0  0.44942108763E+02  0.37294360305E+02  0.58401225299E+02  0.82697266987E+02  0.41800000000E+01 0. -1.
         -5    1    3    3    0  502 -0.84251174078E+02  0.51644333551E+02  0.13378565763E+03  0.16637749881E+03  0.41800000000E+01 0. -1.
        -11    1    1    2    0    0  0.30839210277E+02 -0.95881569484E+00 -0.13495539873E+02  0.33676487562E+02  0.00000000000E+00 0. -1.
         11    1    1    2    0    0  0.84698550384E+01 -0.87979878161E+02  0.68928213976E+02  0.11208611015E+03  0.00000000000E+00 0.  1.
</event>
<event>
 7    1  0.2714042E-009  0.1430281E+03  0.7561462E-02  0.1209312E+00
         -1   -1    0    0    0  501 -0.00000000000E+00  0.00000000000E+00  0.94244178436E+02  0.94244178436E+02  0.00000000000E+00 0.  1.
          1   -1    0    0  501    0  0.00000000000E+00 -0.00000000000E+00 -0.27634099616E+03  0.27634099616E+03  0.00000000000E+00 0. -1.
         25    2    1    2    0    0  0.48057743355E+02 -0.87553132437E+02 -0.16984916969E+03  0.23339276347E+03  0.12509334074E+03 0.  0.
          5    1    3    3  502    0  0.44857501913E+02  0.14525369177E+02 -0.96815300637E+02  0.10776760490E+03  0.41800000000E+01 0. -1.
         -5    1    3    3    0  502  0.32002414413E+01 -0.10207850161E+03 -0.73033869053E+02  0.12562515857E+03  0.41800000000E+01 0. -1.
        -11    1    1    2    0    0  0.25550542385E+02  0.44273563163E+02 -0.16036449767E+01  0.51142450944E+02  0.00000000000E+00 0.  1.
         11    1    1    2    0    0 -0.73608285740E+02  0.43279569274E+02 -0.10644003053E+02  0.86049960181E+02  0.00000000000E+00 0. -1.
</event>
<event>
 7    1  0.2714042E-009  0.8644960E+02  0.7561462E-02  0.1311685E+00
         -2   -1    0    0    0  501 -0.00000000000E+00  0.00000000000E+00  0.10157500998E+03  0.10157500998E+03  0.00000000000E+00 0.  1.
          2   -1    0    0  501    0  0.00000000000E+00 -0.00000000000E+00 -0.16148162006E+03  0.16148162006E+03  0.00000000000E+00 0. -1.
         25    2    1    2    0    0  0.32036748429E+02  0.58852511096E+02 -0.25246289983E+02  0.14413622913E+03  0.12509159076E+03 0.  0.
          5    1    3    3  502    0  0.27941790647E+02 -0.67621017017E+01 -0.62167344732E+02  0.68620119754E+02  0.41800000000E+01 0.  1.
         -5    1    3    3    0  502  0.40949577821E+01  0.65614612798E+02  0.36921054749E+02  0.75516109379E+02  0.41800000000E+01 0.  1.
        -11    1    1    2    0    0 -0.16200173610E+01 -0.44167800505E+02  0.24694397968E+02  0.50628374937E+02  0.00000000000E+00 0.  1.
         11    1    1    2    0    0 -0.30416731068E+02 -0.14684710591E+02 -0.59354718064E+02  0.68292025966E+02  0.00000000000E+00 0. -1.
</event>
<event>
 7    1  0.2714042E-009  0.1532009E+03  0.7561462E-02  0.1196594E+00
          3   -1    0    0  501    0  0.00000000000E+00  0.00000000000E+00  0.43112711615E+03  0.43112711615E+03  0.00000000000E+00 0. -1.
         -3   -1    0    0    0  501 -0.00000000000E+00 -0.00000000000E+00 -0.58069289820E+02  0.58069289820E+02  0.00000000000E+00 0.  1.
         25    2    1    2    0    0  0.87375151865E+02  0.73033698738E+02  0.17313012352E+03  0.24205394751E+03  0.12509090901E+03 0.  0.
          5    1    3    3  502    0 -0.74991734610E+01  0.73602683889E+02  0.79876620347E+02  0.10895567703E+03  0.41800000000E+01 0.  1.
         -5    1    3    3    0  502  0.94874325326E+02 -0.56898515143E+00  0.93253503176E+02  0.13309827048E+03  0.41800000000E+01 0.  1.
        -11    1    1    2    0    0 -0.71661008083E+02 -0.99834842793E+01  0.14503610475E+03  0.16208158969E+03  0.00000000000E+00 0.  1.
         11    1    1    2    0    0 -0.15714143781E+02 -0.63050214458E+02  0.54891598060E+02  0.85060868769E+02  0.00000000000E+00 0. -1.
</event>
<event>
 7    1  0.2714042E-009  0.1544989E+03  0.7561462E-02  0.1195051E+00
         -1   -1    0    0    0  501 -0.00000000000E+00  0.00000000000E+00  0.11345040677E+03  0.11345040677E+03  0.00000000000E+00 0.  1.
          1   -1    0    0  501    0  0.00000000000E+00 -0.00000000000E+00 -0.27451634470E+03  0.27451634470E+03  0.00000000000E+00 0. -1.
         25    2    1    2    0    0 -0.10904651445E+03 -0.81428136761E+02 -0.51829733631E+02  0.19197103819E+03  0.12507947252E+03 0.  0.
          5    1    3    3  502    0 -0.11557874951E+03 -0.58656375205E+02 -0.81965914468E+02  0.15341089018E+03  0.41800000000E+01 0.  1.
         -5    1    3    3    0  502  0.65322350611E+01 -0.22771761555E+02  0.30136180836E+02  0.38560148011E+02  0.41800000000E+01 0.  1.
        -11    1    1    2    0    0  0.64284817065E+02  0.89078717072E+02 -0.10220325185E+03  0.15004352778E+03  0.00000000000E+00 0. -1.
         11    1    1    2    0    0  0.44761697387E+02 -0.76505803114E+01 -0.70329524425E+01  0.45952185499E+02  0.00000000000E+00 0.  1.
</event>
<event>
 7    1  0.2714042E-009  0.2908654E+03  0.7561462E-02  0.1089898E+00
          2   -1    0    0  501    0  0.00000000000E+00  0.00000000000E+00  0.47871607722E+03  0.47871607722E+03  0.00000000000E+00 0. -1.
         -2   -1    0    0    0  501 -0.00000000000E+00 -0.00000000000E+00 -0.17720600907E+03  0.17720600907E+03  0.00000000000E+00 0.  1.
         25    2    1    2    0    0  0.23388783139E+03  0.13522990322E+03  0.15249993196E+03  0.33450633463E+03  0.12509042435E+03 0.  0.
          5    1    3    3  502    0  0.12722439627E+03  0.14195451855E+03  0.93606264833E+02  0.21240700921E+03  0.41800000000E+01 0.  1.
         -5    1    3    3    0  502  0.10666343512E+03 -0.67246153286E+01  0.58893667127E+02  0.12209932543E+03  0.41800000000E+01 0.  1.
        -11    1    1    2    0    0 -0.98159480373E+02 -0.10749978870E+03  0.65225142105E+02  0.15951742012E+03  0.00000000000E+00 0. -1.
         11    1    1    2    0    0 -0.13572835102E+03 -0.27730114522E+02  0.83784994090E+02  0.16189833154E+03  0.00000000000E+00 0.  1.
</event>
<event>
 7    1  0.2714042E-009  0.1955110E+03  0.7561462E-02  0.1153583E+00
         -1   -1    0    0    0  501 -0.00000000000E+00  0.00000000000E+00  0.29578124661E+03  0.29578124661E+03  0.00000000000E+00 0.  1.
          1   -1    0    0  501    0  0.00000000000E+00 -0.00000000000E+00 -0.14040767437E+03  0.14040767437E+03  0.00000000000E+00 0. -1.
         25    2    1    2    0    0  0.12780651962E+03 -0.11473621839E+03  0.61580849226E+02  0.22122274493E+03  0.12509354745E+03 0.  0.
          5    1    3    3  502    0  0.85562471245E+02 -0.11571145713E+02 -0.12452415076E+02  0.87334775090E+02  0.41800000000E+01 0.  1.
         -5    1    3    3    0  502  0.42244048373E+02 -0.10316507268E+03  0.74033264302E+02  0.13388796984E+03  0.41800000000E+01 0.  1.
        -11    1    1    2    0    0 -0.10684039518E+03  0.12912379768E+03  0.85996435101E+02  0.18836988087E+03  0.00000000000E+00 0.  1.
         11    1    1    2    0    0 -0.20966124442E+02 -0.14387579293E+02  0.77962879095E+01  0.26596295178E+02  0.00000000000E+00 0. -1.
</event>
<event>
 7    1  0.2714042E-009  0.9840291E+02  0.7561462E-02  0.1283691E+00
          2   -1    0    0  501    0  0.00000000000E+00  0.00000000000E+00  0.69899638790E+02  0.69899638790E+02  0.00000000000E+00 0. -1.
         -2   -1    0    0    0  501 -0.00000000000E+00 -0.00000000000E+00 -0.23901335428E+03  0.23901335428E+03  0.00000000000E+00 0.  1.
         25    2    1    2    0    0 -0.60835538320E+02  0.29090867157E+02 -0.68898382622E+02  0.15792331355E+03  0.12508215124E+03 0.  0.
          5    1    3    3  502    0 -0.57819233984E+02  0.41331907417E+02 -0.10077660951E+03  0.12338876696E+03  0.41800000000E+01 0. -1.
         -5    1    3    3    0  502 -0.30163043369E+01 -0.12241040260E+02  0.31878226884E+02  0.34534546584E+02  0.41800000000E+01 0. -1.
        -11    1    1    2    0    0  0.45093395886E+02  0.28018101850E+02 -0.55213139948E+02  0.76595817162E+02  0.00000000000E+00 0. -1.
         11    1    1    2    0    0  0.15742142434E+02 -0.57108969008E+02 -0.45002192923E+02  0.74393862364E+02  0.00000000000E+00 0.  1.
</event>
<event>
 7    1  0.2714042E-009  0.2574208E+03  0.7561462E-02  0.1108703E+00
         -3   -1    0    0    0  501 -0.00000000000E+00  0.00000000000E+00  0.36212613921E+03  0.36212613921E+03  0.00000000000E+00 0.  1.
          3   -1    0    0  501    0  0.00000000000E+00 -0.00000000000E+00 -0.30152344369E+03  0.30152344369E+03  0.00000000000E+00 0. -1.
         25    2    1    2    0    0 -0.82196830303E+02  0.22111922500E+03 -0.17550348397E+03  0.31952805841E+03  0.12508667654E+03 0.  0.
          5    1    3    3  502    0 -0.25276173321E+02 -0.10394969060E+02 -0.10576611714E+02  0.29601983630E+02  0.41800000000E+01 0.  1.
         -5    1    3    3    0  502 -0.56920656982E+02  0.23151419406E+03 -0.16492687225E+03  0.28992607478E+03  0.41800000000E+01 0.  1.
        -11    1    1    2    0    0  0.71036685055E+02 -0.79197305479E+02  0.12041066643E+03  0.16067716829E+03  0.00000000000E+00 0.  1.
         11    1    1    2    0    0  0.11160145248E+02 -0.14192191952E+03  0.11569551306E+03  0.18344435621E+03  0.00000000000E+00 0. -1.
</event>
<event>
 7    1  0.2714042E-009  0.1169859E+03  0.7561462E-02  0.1248154E+00
         -2   -1    0    0    0  501 -0.00000000000E+00  0.00000000000E+00  0.12996150699E+03  0.12996150699E+03  0.00000000000E+00 0. -1.
          2   -1    0    0  501    0  0.00000000000E+00 -0.00000000000E+00 -0.15369279960E+03  0.15369279960E+03  0.00000000000E+00 0.  1.
         25    2    1    2    0    0 -0.85912665371E+02 -0.26898881586E+02 -0.55760156563E+01  0.15421814026E+03  0.12509039504E+03 0.  0.
          5    1    3    3  502    0 -0.11059468449E+03 -0.35175280807E+02 -0.28168441626E+02  0.11949651928E+03  0.41800000000E+01 0.  1.
         -5    1    3    3    0  502  0.24682019118E+02  0.82763992215E+01  0.22592425969E+02  0.34721620973E+02  0.41800000000E+01 0.  1.
        -11    1    1    2    0    0  0.41005517471E+02  0.43773291788E+01 -0.53836784217E+02  0.67816021769E+02  0.00000000000E+00 0.  1.
         11    1    1    2    0    0  0.44907147900E+02  0.22521552407E+02  0.35681507264E+02  0.61620144563E+02  0.00000000000E+00 0. -1.
</event>
<event>
 7    1  0.2714042E-009  0.8273956E+02  0.7561462E-02  0.1321452E+00
          2   -1    0    0  501    0  0.00000000000E+00  0.00000000000E+00  0.12541510223E+03  0.12541510223E+03  0.00000000000E+00 0. -1.
         -2   -1    0    0    0  501 -0.00000000000E+00 -0.00000000000E+00 -0.12066837854E+03  0.12066837854E+03  0.00000000000E+00 0.  1.
         25    2    1    2    0    0  0.32045295859E+02  0.45395337265E+02 -0.61061493681E+01  0.13701177462E+03  0.12508918295E+03 0.  0.
          5    1    3    3  502    0  0.49058380902E+01  0.52451868709E+01 -0.62207110483E+02  0.62759670389E+02  0.41800000000E+01 0.  1.
         -5    1    3    3    0  502  0.27139457769E+02  0.40150150394E+02  0.56100961115E+02  0.74252104231E+02  0.41800000000E+01 0.  1.
        -11    1    1    2    0    0  0.15474037215E+02 -0.57454360276E+02  0.55353357237E+01  0.59758591718E+02  0.00000000000E+00 0.  1.
         11    1    1    2    0    0 -0.47519333075E+02  0.12059023011E+02  0.53175373346E+01  0.49313114434E+02  0.00000000000E+00 0. -1.
</event>
<event>
 7    1  0.2714042E-009  0.4147055E+03  0.7561462E-02  0.1038803E+00
         -4   -1    0    0    0  501 -0.00000000000E+00  0.00000000000E+00  0.15043193980E+03  0.15043193980E+03  0.00000000000E+00 0.  1.
          4   -1    0    0  501    0  0.00000000000E+00 -0.00000000000E+00 -0.15859603208E+04  0.15859603208E+04  0.00000000000E+00 0. -1.
         25    2    1    2    0    0  0.45118922610E+02 -0.40209216718E+03 -0.11689167152E+04  0.12432729852E+04  0.12509036970E+03 0.  0.
          5    1    3    3  502    0  0.40624300811E+02 -0.50021999146E+02 -0.11249079611E+03  0.12970807926E+03  0.41800000000E+01 0.  1.
         -5    1    3    3    0  502  0.44946217993E+01 -0.35207016804E+03 -0.10564259191E+04  0.11135649060E+04  0.41800000000E+01 0.  1.
        -11    1    1    2    0    0 -0.66714718934E+02  0.23693028484E+03 -0.13431747336E+03  0.28040684237E+03  0.00000000000E+00 0.  1.
         11    1    1    2    0    0  0.21595796324E+02  0.16516188234E+03 -0.13229419236E+03  0.21271243295E+03  0.00000000000E+00 0. -1.
</event>
<event>
 7    1  0.2714042E-009  0.2166095E+03  0.7561462E-02  0.1136436E+00
          2   -1    0    0  501    0  0.00000000000E+00  0.00000000000E+00  0.42267979172E+03  0.42267979172E+03  0.00000000000E+00 0. -1.
         -2   -1    0    0    0  501 -0.00000000000E+00 -0.00000000000E+00 -0.33440699468E+03  0.33440699468E+03  0.00000000000E+00 0.  1.
         25    2    1    2    0    0 -0.73199575174E+02 -0.18918968748E+03 -0.25532011007E+03  0.34926734679E+03  0.12509358606E+03 0.  0.
          5    1    3    3  502    0 -0.79897586217E+02 -0.20084855069E+03 -0.25611310824E+03  0.33516437939E+03  0.41800000000E+01 0.  1.
         -5    1    3    3    0  502  0.66980110429E+01  0.11658863215E+02  0.79299817121E+00  0.14102967401E+02  0.41800000000E+01 0.  1.
        -11    1    1    2    0    0  0.21153117399E+02  0.62256567765E+02  0.46355648847E+02  0.80449865044E+02  0.00000000000E+00 0.  1.
         11    1    1    2    0    0  0.52046457775E+02  0.12693311971E+03  0.29723725827E+03  0.32736957457E+03  0.00000000000E+00 0. -1.
</event>
<event>
 7    1  0.2714042E-009  0.5537609E+02  0.7561462E-02  0.1418329E+00
         -2   -1    0    0    0  501 -0.00000000000E+00  0.00000000000E+00  0.11719586289E+03  0.11719586289E+03  0.00000000000E+00 0.  1.
          2   -1    0    0  501    0  0.00000000000E+00 -0.00000000000E+00 -0.12627597768E+03  0.12627597768E+03  0.00000000000E+00 0. -1.
         25    2    1    2    0    0  0.59764205359E+01  0.41910395962E+02  0.31544440133E+02  0.13577394564E+03  0.12508922304E+03 0.  0.
          5    1    3    3  502    0  0.58499932029E+01  0.39869066851E+02 -0.44159308457E+02  0.59927304590E+02  0.41800000000E+01 0.  1.
         -5    1    3    3    0  502  0.12642733302E+00  0.20413291105E+01  0.75703748590E+02  0.75846641053E+02  0.41800000000E+01 0.  1.
        -11    1    1    2    0    0  0.13131875855E+02  0.56766400242E+01  0.22318406821E+02  0.26510029959E+02  0.00000000000E+00 0.  1.
         11    1    1    2    0    0 -0.19108296390E+02 -0.47587035986E+02 -0.62942961749E+02  0.81187864971E+02  0.00000000000E+00 0. -1.
</event>
<event>
 7    1  0.2714042E-009  0.6142819E+02  0.7561462E-02  0.1391934E+00
          2   -1    0    0  501    0  0.00000000000E+00  0.00000000000E+00  0.32680157796E+03  0.32680157796E+03  0.00000000000E+00 0. -1.
         -2   -1    0    0    0  501 -0.00000000000E+00 -0.00000000000E+00 -0.39891523229E+02  0.39891523229E+02  0.00000000000E+00 0.  1.
         25    2    1    2    0    0 -0.39543368051E+01  0.85155186999E+01  0.11349261533E+03  0.16916389237E+03  0.12509075868E+03 0.  0.
          5    1    3    3  502    0 -0.16379207285E+02  0.11792373665E+02  0.13888178377E+03  0.14040285172E+03  0.41800000000E+01 0.  1.
         -5    1    3    3    0  502  0.12424870480E+02 -0.32768549650E+01 -0.25389168438E+02  0.28761040643E+02  0.41800000000E+01 0.  1.
        -11    1    1    2    0    0 -0.41196584999E+02  0.52511552189E+01  0.11593774648E+03  0.12315150956E+03  0.00000000000E+00 0. -1.
         11    1    1    2    0    0  0.45150921804E+02 -0.13766673919E+02  0.57479692910E+02  0.74377699263E+02  0.00000000000E+00 0.  1.
</event>
<event>
 7    1  0.2714042E-009  0.1612781E+03  0.7561462E-02  0.1187261E+00
          3   -1    0    0  501    0  0.00000000000E+00  0.00000000000E+00  0.11090696588E+03  0.11090696588E+03  0.00000000000E+00 0. -1.
         -3   -1    0    0    0  501 -0.00000000000E+00 -0.00000000000E+00 -0.37260842027E+03  0.37260842027E+03  0.00000000000E+00 0.  1.
         25    2    1    2    0    0 -0.83337089719E+01  0.13684538763E+03 -0.25961093591E+03  0.31912604030E+03  0.12508989061E+03 0.  0.
          5    1    3    3  502    0  0.29715667102E+02  0.10358407027E+03 -0.85039716425E+02  0.13733865536E+03  0.41800000000E+01 0.  1.
         -5    1    3    3    0  502 -0.38049376074E+02  0.33261317359E+02 -0.17457121948E+03  0.18178738494E+03  0.41800000000E+01 0.  1.
        -11    1    1    2    0    0 -0.40782122978E+02 -0.70650371176E+02  0.44969094409E+01  0.81699930823E+02  0.00000000000E+00 0.  1.
         11    1    1    2    0    0  0.49115831950E+02 -0.66195016457E+02 -0.65874279234E+01  0.82689415033E+02  0.00000000000E+00 0. -1.
</event>
<event>
 7    1  0.2714042E-009  0.6260981E+02  0.7561462E-02  0.1387195E+00
         -1   -1    0    0    0  501 -0.00000000000E+00  0.00000000000E+00  0.31772682703E+02  0.31772682703E+02  0.00000000000E+00 0.  1.
          1   -1    0    0  501    0  0.00000000000E+00 -0.00000000000E+00 -0.38946759929E+03  0.38946759929E+03  0.00000000000E+00 0. -1.
         25    2    1    2    0    0  0.50517565899E+01 -0.19342879595E+01 -0.14375834657E+03  0.19064008070E+03  0.12509163220E+03 0.  0.
          5    1    3    3  502    0 -0.20598383628E+02  0.12211855436E+02 -0.15653437033E+03  0.15841055621E+03  0.41800000000E+01 0. -1.
         -5    1    3    3    0  502  0.25650140218E+02 -0.14146143396E+02  0.12776023762E+02  0.32229524497E+02  0.41800000000E+01 0. -1.
        -11    1    1    2    0    0 -0.35998279564E+02  0.13267971699E+02 -0.48130210532E+02  0.61550242651E+02  0.00000000000E+00 0.  1.
         11    1    1    2    0    0  0.30946522974E+02 -0.11333683740E+02 -0.16580635948E+03  0.16904995864E+03  0.00000000000E+00 0. -1.
</event>
<event>
 7    1  0.2714042E-009  0.1324296E+03  0.7561462E-02  0.1223895E+00
          2   -1    0    0  501    0  0.00000000000E+00  0.00000000000E+00  0.37085715234E+03  0.37085715234E+03  0.00000000000E+00 0. -1.
         -2   -1    0    0    0  501 -0.00000000000E+00 -0.00000000000E+00 -0.86127393544E+02  0.86127393544E+02  0.00000000000E+00 0.  1.
         25    2    1    2    0    0  0.92071735358E+02 -0.72773340481E+02  0.48610497775E+02  0.17827721128E+03  0.12508645023E+03 0.  0.
          5    1    3    3  502    0  0.90228115842E+02 -0.61600406545E+02 -0.17807362327E+02  0.11077137504E+03  0.41800000000E+01 0.  1.
         -5    1    3    3    0  502  0.18436195163E+01 -0.11172933935E+02  0.66417860102E+02  0.67505836238E+02  0.41800000000E+01 0.  1.
        -11    1    1    2    0    0  0.13253681188E+02  0.23936362909E+02  0.21880014678E+02  0.35033477941E+02  0.00000000000E+00 0.  1.
         11    1    1    2    0    0 -0.10532541655E+03  0.48836977572E+02  0.21423924634E+03  0.24367385666E+03  0.00000000000E+00 0. -1.
</event>
<event>
 7    1  0.2714042E-009  0.1311469E+03  0.7561462E-02  0.1225764E+00
         -2   -1    0    0    0  501 -0.00000000000E+00  0.00000000000E+00  0.11271333531E+04  0.11271333531E+04  0.00000000000E+00 0.  1.
          2   -1    0    0  501    0  0.00000000000E+00 -0.00000000000E+00 -0.25604536057E+02  0.25604536057E+02  0.00000000000E+00 0. -1.
         25    2    1    2    0    0  0.13557648404E+02 -0.10502347350E+03  0.79062601760E+03  0.80743535737E+03  0.12509443159E+03 0.  0.
          5    1    3    3  502    0  0.53815080420E+00 -0.98330168970E+02  0.78509107571E+03  0.79123610970E+03  0.41800000000E+01 0.  1.
         -5    1    3    3    0  502  0.13019497600E+02 -0.66933045330E+01  0.55349418839E+01  0.16199247667E+02  0.41800000000E+01 0.  1.
        -11    1    1    2    0    0  0.45178162321E+02  0.34346920935E+02  0.14386969653E+03  0.15465854942E+03  0.00000000000E+00 0.  1.
         11    1    1    2    0    0 -0.58735810725E+02  0.70676552568E+02  0.16703310294E+03  0.19064398239E+03  0.00000000000E+00 0. -1.
</event>
<event>
 7    1  0.2714042E-009  0.1540581E+03  0.7561462E-02  0.1195573E+00
         -1   -1    0    0    0  501 -0.00000000000E+00  0.00000000000E+00  0.14119353254E+03  0.14119353254E+03  0.00000000000E+00 0.  1.
          1   -1    0    0  501    0  0.00000000000E+00 -0.00000000000E+00 -0.23192263466E+03  0.23192263466E+03  0.00000000000E+00 0. -1.
         25    2    1    2    0    0 -0.14119630442E+03  0.21510202083E+02 -0.64999399272E+02  0.20067551873E+03  0.12508659695E+03 0.  0.
          5    1    3    3  502    0 -0.67696000441E+02  0.16127084932E+02 -0.97632399459E+02  0.11996828401E+03  0.41800000000E+01 0. -1.
         -5    1    3    3    0  502 -0.73500303982E+02  0.53831171512E+01  0.32633000186E+02  0.80707234725E+02  0.41800000000E+01 0. -1.
        -11    1    1    2    0    0  0.11544176272E+02 -0.32478913689E+02  0.12754276075E+02  0.36753495050E+02  0.00000000000E+00 0.  1.
         11    1    1    2    0    0  0.12965212815E+03  0.10968711606E+02 -0.38483978923E+02  0.13568715342E+03  0.00000000000E+00 0. -1.
</event>
<event>
 7    1  0.2714042E-009  0.1163862E+03  0.7561462E-02  0.1249181E+00
          2   -1    0    0  501    0  0.00000000000E+00  0.00000000000E+00  0.67575955687E+03  0.67575955687E+03  0.00000000000E+00 0. -1.
         -2   -1    0    0    0  501 -0.00000000000E+00 -0.00000000000E+00 -0.30500494797E+02  0.30500494797E+02  0.00000000000E+00 0.  1.
         25    2    1    2    0    0 -0.46241489348E+02 -0.77558944126E+02  0.28900939191E+03  0.32760870169E+03  0.12508943863E+03 0.  0.
          5    1    3    3  502    0 -0.14969974189E+01 -0.53131045153E+02  0.25354106958E+02  0.59037717605E+02  0.41800000000E+01 0. -1.
         -5    1    3    3    0  502 -0.44744491929E+02 -0.24427898973E+02  0.26365528495E+03  0.26857098408E+03  0.41800000000E+01 0. -1.
        -11    1    1    2    0    0  0.17473767881E+02  0.93703221735E+02  0.26547202985E+03  0.28206563946E+03  0.00000000000E+00 0.  1.
         11    1    1    2    0    0  0.28767721467E+02 -0.16144277608E+02  0.90777640308E+02  0.96585710525E+02  0.00000000000E+00 0. -1.
</event>
<event>
 7    1  0.2714042E-009  0.1421514E+03  0.7561462E-02  0.1210463E+00
          2   -1    0    0  501    0  0.00000000000E+00  0.00000000000E+00  0.52884393546E+03  0.52884393546E+03  0.00000000000E+00 0.  1.
         -2   -1    0    0    0  501 -0.00000000000E+00 -0.00000000000E+00 -0.61892611548E+02  0.61892611548E+02  0.00000000000E+00 0. -1.
         25    2    1    2    0    0  0.11858280872E+03 -0.55875397885E+02  0.14632584416E+03  0.23290229745E+03  0.12509310483E+03 0.  0.
          5    1    3    3  502    0  0.46739687636E+02  0.17750139024E+02 -0.44073429084E+01  0.50364301913E+02  0.41800000000E+01 0.  1.
         -5    1    3    3    0  502  0.71843121084E+02 -0.73625536909E+02  0.15073318707E+03  0.18253799554E+03  0.41800000000E+01 0.  1.
        -11    1    1    2    0    0 -0.59695820879E+02  0.30806734147E+02  0.26389086379E+03  0.27230687448E+03  0.00000000000E+00 0. -1.
         11    1    1    2    0    0 -0.58886987840E+02  0.25068663737E+02  0.56734615968E+02  0.85527375077E+02  0.00000000000E+00 0.  1.
</event>
<event>
 7    1  0.2714042E-009  0.1826415E+03  0.7561462E-02  0.1165271E+00
         -2   -1    0    0    0  501 -0.00000000000E+00  0.00000000000E+00  0.13061751241E+03  0.13061751241E+03  0.00000000000E+00 0.  1.
          2   -1    0    0  501    0  0.00000000000E+00 -0.00000000000E+00 -0.33981059506E+03  0.33981059506E+03  0.00000000000E+00 0. -1.
         25    2    1    2    0    0 -0.14802333282E+03 -0.25586519881E+02  0.25373823733E+01  0.19549725108E+03  0.12508860784E+03 0.  0.
          5    1    3    3  502    0  0.13583174524E+02 -0.30109496906E+02  0.55004868699E+01  0.33746291498E+02  0.41800000000E+01 0. -1.
         -5    1    3    3    0  502 -0.16160650734E+03  0.45229770251E+01 -0.29631044967E+01  0.16175095958E+03  0.41800000000E+01 0. -1.
        -11    1    1    2    0    0  0.11274357657E+03  0.53959255445E+02 -0.18193379087E+03  0.22073200848E+03  0.00000000000E+00 0. -1.
         11    1    1    2    0    0  0.35279756253E+02 -0.28372735564E+02 -0.29796674157E+02  0.54198847917E+02  0.00000000000E+00 0.  1.
</event>
<event>
 7    1  0.2714042E-009  0.1204204E+03  0.7561462E-02  0.1242405E+00
          4   -1    0    0  501    0  0.00000000000E+00  0.00000000000E+00  0.31133365108E+02  0.31133365108E+02  0.00000000000E+00 0. -1.
         -4   -1    0    0    0  501 -0.00000000000E+00 -0.00000000000E+00 -0.74827120746E+03  0.74827120746E+03  0.00000000000E+00 0.  1.
         25    2    1    2    0    0  0.43800683989E+02  0.39586434009E+02 -0.61205020324E+03  0.62748596571E+03  0.12509036814E+03 0.  0.
          5    1    3    3  502    0 -0.18194714173E+02  0.66505651457E+02 -0.26246806037E+03  0.27140560866E+03  0.41800000000E+01 0.  1.
         -5    1    3    3    0  502  0.61995398162E+02 -0.26919217449E+02 -0.34958214287E+03  0.35608035705E+03  0.41800000000E+01 0.  1.
        -11    1    1    2    0    0 -0.58834525324E+02 -0.56394435926E+02 -0.99630824760E+02  0.12871726775E+03  0.00000000000E+00 0.  1.
         11    1    1    2    0    0  0.15033841335E+02  0.16808001918E+02 -0.54568143531E+01  0.23201339113E+02  0.00000000000E+00 0. -1.
</event>
<event>
 7    1  0.2714042E-009  0.1370785E+03  0.7561462E-02  0.1217315E+00
          1   -1    0    0  501    0  0.00000000000E+00  0.00000000000E+00  0.32090907677E+03  0.32090907677E+03  0.00000000000E+00 0. -1.
         -1   -1    0    0    0  501 -0.00000000000E+00 -0.00000000000E+00 -0.76729114206E+02  0.76729114206E+02  0.00000000000E+00 0.  1.
         25    2    1    2    0    0 -0.10432287976E+03 -0.25411563840E+02  0.17141362030E+03  0.23782397241E+03  0.12509437162E+03 0.  0.
          5    1    3    3  502    0 -0.18008451847E+02 -0.56620097101E+02  0.11634893587E+03  0.13070840452E+03  0.41800000000E+01 0.  1.
         -5    1    3    3    0  502 -0.86314427910E+02  0.31208533262E+02  0.55064684437E+02  0.10711556790E+03  0.41800000000E+01 0.  1.
        -11    1    1    2    0    0  0.10489111255E+03  0.78914504552E+01  0.23857836144E+02  0.10785924544E+03  0.00000000000E+00 0.  1.
         11    1    1    2    0    0 -0.56823279113E+00  0.17520113385E+02  0.48908506111E+02  0.51954973116E+02  0.00000000000E+00 0. -1.
</event>
<event>
 7    1  0.2714042E-009  0.2238704E+03  0.7561462E-02  0.1131030E+00
         -2   -1    0    0    0  501 -0.00000000000E+00  0.00000000000E+00  0.49400027174E+03  0.49400027174E+03  0.00000000000E+00 0.  1.
          2   -1    0    0  501    0  0.00000000000E+00 -0.00000000000E+00 -0.14176089667E+03  0.14176089667E+03  0.00000000000E+00 0. -1.
         25    2    1    2    0    0  0.18685354684E+03 -0.86018599330E+02  0.31425171570E+03  0.39587368999E+03  0.12509352585E+03 0.  0.
          5    1    3    3  502    0  0.56152928710E+02 -0.93956646714E+02  0.13495277390E+03  0.17381233111E+03  0.41800000000E+01 0.  1.
         -5    1    3    3    0  502  0.13070061813E+03  0.79380473835E+01  0.17929894180E+03  0.22206135888E+03  0.41800000000E+01 0.  1.
        -11    1    1    2    0    0 -0.64874273920E+02  0.17089861738E+02  0.69161518228E+02  0.96353777272E+02  0.00000000000E+00 0.  1.
         11    1    1    2    0    0 -0.12197927292E+03  0.68928737592E+02 -0.31173858862E+02  0.14353370114E+03  0.00000000000E+00 0. -1.
</event>
<event>
 7    1  0.2714042E-009  0.2281406E+03  0.7561462E-02  0.1127955E+00
         -1   -1    0    0    0  501 -0.00000000000E+00  0.00000000000E+00  0.70692176024E+03  0.70692176024E+03  0.00000000000E+00 0.  1.
          1   -1    0    0  501    0  0.00000000000E+00 -0.00000000000E+00 -0.96054063185E+02  0.96054063185E+02  0.00000000000E+00 0. -1.
         25    2    1    2    0    0 -0.13897068860E+03  0.15594297155E+03  0.48702309567E+03  0.54449036860E+03  0.12508878096E+03 0.  0.
          5    1    3    3  502    0  0.22378414867E+02  0.14602707597E+02  0.78996268223E+02  0.83497995870E+02  0.41800000000E+01 0. -1.
         -5    1    3    3    0  502 -0.16134910346E+03  0.14134026395E+03  0.40802682745E+03  0.46099237273E+03  0.41800000000E+01 0. -1.
        -11    1    1    2    0    0  0.27798267032E+02 -0.66998310394E+01 -0.88394588607E+01  0.29929373847E+02  0.00000000000E+00 0.  1.
         11    1    1    2    0    0  0.11117242156E+03 -0.14924314051E+03  0.13268406024E+03  0.22855608097E+03  0.00000000000E+00 0. -1.
</event>
<event>
 7    1  0.2714042E-009  0.2171753E+03  0.7561462E-02  0.1136007E+00
          2   -1    0    0  501    0  0.00000000000E+00  0.00000000000E+00  0.55453469059E+03  0.55453469059E+03  0.00000000000E+00 0. -1.
         -2   -1    0    0    0  501 -0.00000000000E+00 -0.00000000000E+00 -0.10411330873E+03  0.10411330873E+03  0.00000000000E+00 0.  1.
         25    2    1    2    0    0 -0.18469266199E+03 -0.10798341643E+03  0.21617833769E+03  0.32886504839E+03  0.12508936304E+03 0.  0.
          5    1    3    3  502    0 -0.10619871347E+03 -0.32292335252E+02  0.33402563553E+02  0.11599209159E+03  0.41800000000E+01 0.  1.
         -5    1    3    3    0  502 -0.78493948520E+02 -0.75691081182E+02  0.18277577414E+03  0.21287295680E+03  0.41800000000E+01 0.  1.
        -11    1    1    2    0    0  0.78665756609E+02  0.51381621144E+02  0.41678884505E+02  0.10278862616E+03  0.00000000000E+00 0.  1.
         11    1    1    2    0    0  0.10602690538E+03  0.56601795291E+02  0.19256415967E+03  0.22699432478E+03  0.00000000000E+00 0. -1.
</event>
<event>
 7    1  0.2714042E-009  0.5067981E+03  0.7561462E-02  0.1012020E+00
         -2   -1    0    0    0  501 -0.00000000000E+00  0.00000000000E+00  0.11810533920E+03  0.11810533920E+03  0.00000000000E+00 0.  1.
          2   -1    0    0  501    0  0.00000000000E+00 -0.00000000000E+00 -0.22158039576E+04  0.22158039576E+04  0.00000000000E+00 0. -1.
         25    2    1    2    0    0 -0.48716879537E+03 -0.11054512033E+03 -0.10399729903E+04  0.11604925605E+04  0.12508198740E+03 0.  0.
          5    1    3    3  502    0 -0.23179411875E+03 -0.11456254538E+03 -0.55822527388E+03  0.61521217404E+03  0.41800000000E+01 0.  1.
         -5    1    3    3    0  502 -0.25537467662E+03  0.40174250473E+01 -0.48174771646E+03  0.54528038648E+03  0.41800000000E+01 0.  1.
        -11    1    1    2    0    0  0.74212993004E+02  0.15745355505E+02 -0.94961387883E+02  0.12154484662E+03  0.00000000000E+00 0.  1.
         11    1    1    2    0    0  0.41295580236E+03  0.94799764827E+02 -0.96276424019E+03  0.10518718897E+04  0.00000000000E+00 0. -1.
</event>
<event>
 7    1  0.2714042E-009  0.3968050E+03  0.7561462E-02  0.1044892E+00
          2   -1    0    0  501    0  0.00000000000E+00  0.00000000000E+00  0.53035941873E+03  0.53035941873E+03  0.00000000000E+00 0. -1.
         -2   -1    0    0    0  501 -0.00000000000E+00 -0.00000000000E+00 -0.48906365702E+03  0.48906365702E+03  0.00000000000E+00 0.  1.
         25    2    1    2    0    0  0.18753742699E+03  0.33862515455E+03 -0.29167173409E+03  0.50055709348E+03  0.12509085317E+03 0.  0.
          5    1    3    3  502    0  0.11451276085E+03  0.30036324072E+03 -0.25451606863E+03  0.41003310886E+03  0.41800000000E+01 0.  1.
         -5    1    3    3    0  502  0.73024666142E+02  0.38261913834E+02 -0.37155665460E+02  0.90523984618E+02  0.41800000000E+01 0.  1.
        -11    1    1    2    0    0 -0.49479849942E+02 -0.53987247974E+02  0.10876919729E+03  0.13112443240E+03  0.00000000000E+00 0.  1.
         11    1    1    2    0    0 -0.13805757705E+03 -0.28463790658E+03  0.22419829851E+03  0.38774154987E+03  0.00000000000E+00 0. -1.
</event>
<event>
 7    1  0.2714042E-009  0.1510558E+03  0.7561462E-02  0.1199182E+00
         -2   -1    0    0    0  501 -0.00000000000E+00  0.00000000000E+00  0.13697305679E+03  0.13697305679E+03  0.00000000000E+00 0.  1.
          2   -1    0    0  501    0  0.00000000000E+00 -0.00000000000E+00 -0.25670797508E+03  0.25670797508E+03  0.00000000000E+00 0. -1.
         25    2    1    2    0    0  0.99098453538E+02  0.83685478394E+02 -0.14728946574E+03  0.23273286753E+03  0.12508652254E+03 0.  0.
          5    1    3    3  502    0  0.69153244846E+02 -0.12260405657E+02 -0.98186520620E+02  0.12079136580E+03  0.41800000000E+01 0. -1.
         -5    1    3    3    0  502  0.29945208692E+02  0.95945884051E+02 -0.49102945117E+02  0.11194150173E+03  0.41800000000E+01 0. -1.
        -11    1    1    2    0    0 -0.33583919482E+02 -0.40851014365E+02  0.56597119940E+02  0.77459144121E+02  0.00000000000E+00 0.  1.
         11    1    1    2    0    0 -0.65514534057E+02 -0.42834464030E+02 -0.29042572485E+02  0.83489020224E+02  0.00000000000E+00 0. -1.
</event>
<event>
 7    1  0.2714042E-009  0.9517109E+02  0.7561462E-02  0.1290791E+00
          2   -1    0    0  501    0  0.00000000000E+00  0.00000000000E+00  0.14498720480E+03  0.14498720480E+03  0.00000000000E+00 0. -1.
         -2   -1    0    0    0  501 -0.00000000000E+00 -0.00000000000E+00 -0.90512308613E+02  0.90512308613E+02  0.00000000000E+00 0.  1.
         25    2    1    2    0    0 -0.21412613981E+02  0.30675749920E+02  0.39736635169E+02  0.13648947112E+03  0.12510345272E+03 0.  0.
          5    1    3    3  502    0 -0.12931121964E+02 -0.48506980409E+02  0.20973802702E+02  0.54566600255E+02  0.41800000000E+01 0. -1.
         -5    1    3    3    0  502 -0.84814920179E+01  0.79182730328E+02  0.18762832467E+02  0.81922870868E+02  0.41800000000E+01 0. -1.
        -11    1    1    2    0    0  0.34976020674E+02 -0.30879983478E+02 -0.27834010264E+02  0.54328883011E+02  0.00000000000E+00 0.  1.
         11    1    1    2    0    0 -0.13563406693E+02  0.20423355810E+00  0.42572271282E+02  0.44681159280E+02  0.00000000000E+00 0. -1.
</event>
<event>
 7    1  0.2714042E-009  0.1449286E+03  0.7561462E-02  0.1206847E+00
          1   -1    0    0  501    0  0.00000000000E+00  0.00000000000E+00  0.41869374859E+02  0.41869374859E+02  0.00000000000E+00 0. -1.
         -1   -1    0    0    0  501 -0.00000000000E+00 -0.00000000000E+00 -0.73245630133E+03  0.73245630133E+03  0.00000000000E+00 0.  1.
         25    2    1    2    0    0  0.18653024604E+02  0.12412852235E+03 -0.48625773579E+03  0.51754180975E+03  0.12508842410E+03 0.  0.
          5    1    3    3  502    0 -0.47994136708E+01 -0.19403477441E+01  0.59263469299E+01  0.89102923008E+01  0.41800000000E+01 0.  1.
         -5    1    3    3    0  502  0.23452438275E+02  0.12606887009E+03 -0.49218408272E+03  0.50863151745E+03  0.41800000000E+01 0.  1.
        -11    1    1    2    0    0 -0.54114522323E+02 -0.54708235371E+02 -0.90057510076E+02  0.11845559364E+03  0.00000000000E+00 0.  1.
         11    1    1    2    0    0  0.35461497719E+02 -0.69420286979E+02 -0.11427168061E+03  0.13832827279E+03  0.00000000000E+00 0. -1.
</event>
<event>
 7    1  0.2714042E-009  0.9891758E+02  0.7561462E-02  0.1282589E+00
          1   -1    0    0  501    0  0.00000000000E+00  0.00000000000E+00  0.10806145345E+03  0.10806145345E+03  0.00000000000E+00 0. -1.
         -1   -1    0    0    0  501 -0.00000000000E+00 -0.00000000000E+00 -0.12787820773E+03  0.12787820773E+03  0.00000000000E+00 0.  1.
         25    2    1    2    0    0 -0.41026720495E+02  0.19598227617E+02 -0.16036560000E+02  0.13405841447E+03  0.12508878812E+03 0.  0.
          5    1    3    3  502    0 -0.21240405927E+02  0.53359085163E+02  0.36679325748E+02  0.68272923994E+02  0.41800000000E+01 0.  1.
         -5    1    3    3    0  502 -0.19786314568E+02 -0.33760857546E+02 -0.52715885748E+02  0.65785490472E+02  0.41800000000E+01 0.  1.
        -11    1    1    2    0    0  0.47250190980E+02 -0.50627061875E+02 -0.89089312284E+01  0.69821551096E+02  0.00000000000E+00 0. -1.
         11    1    1    2    0    0 -0.62234704855E+01  0.31028834259E+02  0.51287369468E+01  0.32059695616E+02  0.00000000000E+00 0.  1.
</event>
<event>
 7    1  0.2714042E-009  0.1709452E+03  0.7561462E-02  0.1176866E+00
          2   -1    0    0  501    0  0.00000000000E+00  0.00000000000E+00  0.35363172853E+03  0.35363172853E+03  0.00000000000E+00 0. -1.
         -2   -1    0    0    0  501 -0.00000000000E+00 -0.00000000000E+00 -0.10374682643E+03  0.10374682643E+03  0.00000000000E+00 0.  1.
         25    2    1    2    0    0  0.10792124203E+03 -0.82203350221E+02  0.35173308026E+02  0.18785001947E+03  0.12508430337E+03 0.  0.
          5    1    3    3  502    0 -0.26718966558E+02 -0.17699970798E+02 -0.61171335546E+01  0.32895043139E+02  0.41800000000E+01 0. -1.
         -5    1    3    3    0  502  0.13464020859E+03 -0.64503379423E+02  0.41290441581E+02  0.15495497634E+03  0.41800000000E+01 0. -1.
        -11    1    1    2    0    0 -0.65949429969E+02 -0.21649223431E+01  0.11315156302E+03  0.13098584052E+03  0.00000000000E+00 0. -1.
         11    1    1    2    0    0 -0.41971812059E+02  0.84368272564E+02  0.10156003105E+03  0.13854269497E+03  0.00000000000E+00 0.  1.
</event>
<event>
 7    1  0.2714042E-009  0.7810347E+02  0.7561462E-02  0.1334521E+00
          1   -1    0    0  501    0  0.00000000000E+00  0.00000000000E+00  0.19471526097E+03  0.19471526097E+03  0.00000000000E+00 0. -1.
         -1   -1    0    0    0  501 -0.00000000000E+00 -0.00000000000E+00 -0.75040077946E+02  0.75040077946E+02  0.00000000000E+00 0.  1.
         25    2    1    2    0    0 -0.11357158873E+02 -0.31734857813E+02  0.20183787929E+02  0.13110434091E+03  0.12507948134E+03 0.  0.
          5    1    3    3  502    0 -0.41713699867E+02 -0.34317907238E+02  0.59970403308E+02  0.80818767540E+02  0.41800000000E+01 0.  1.
         -5    1    3    3    0  502  0.30356540994E+02  0.25830494257E+01 -0.39786615379E+02  0.50285573366E+02  0.41800000000E+01 0.  1.
        -11    1    1    2    0    0 -0.30447537538E+01  0.48829824352E+02  0.10481655573E+03  0.11567252321E+03  0.00000000000E+00 0. -1.
         11    1    1    2    0    0  0.14401912627E+02 -0.17094966539E+02 -0.53251606315E+01  0.22978474798E+02  0.00000000000E+00 0.  1.
</event>
<event>
 7    1  0.2714042E-009  0.1016910E+03  0.7561462E-02  0.1276780E+00
          1   -1    0    0  501    0  0.00000000000E+00  0.00000000000E+00  0.83042007972E+02  0.83042007972E+02  0.00000000000E+00 0. -1.
         -1   -1    0    0    0  501 -0.00000000000E+00 -0.00000000000E+00 -0.27679859213E+03  0.27679859213E+03  0.00000000000E+00 0.  1.
         25    2    1    2    0    0 -0.14166842840E+01  0.15114114083E+02 -0.22789705520E+03  0.26041234022E+03  0.12508827176E+03 0.  0.
          5    1    3    3  502    0  0.52703695597E+02 -0.25007413398E+02 -0.10816775336E+03  0.12296660328E+03  0.41800000000E+01 0. -1.
         -5    1    3    3    0  502 -0.54120379881E+02  0.40121527481E+02 -0.11972930183E+03  0.13744573694E+03  0.41800000000E+01 0. -1.
        -11    1    1    2    0    0 -0.28376606207E+02 -0.32306232876E+02  0.46071632796E+02  0.63019995327E+02  0.00000000000E+00 0. -1.
         11    1    1    2    0    0  0.29793290491E+02  0.17192118794E+02 -0.11931161755E+02  0.36408264553E+02  0.00000000000E+00 0.  1.
</event>
<event>
 7    1  0.2714042E-009  0.8085633E+02  0.7561462E-02  0.1326639E+00
          1   -1    0    0  501    0  0.00000000000E+00  0.00000000000E+00  0.47221390244E+03  0.47221390244E+03  0.00000000000E+00 0. -1.
         -1   -1    0    0    0  501 -0.00000000000E+00 -0.00000000000E+00 -0.48718187200E+02  0.48718187200E+02  0.00000000000E+00 0.  1.
         25    2    1    2    0    0 -0.93274324487E+00 -0.30855164734E+02  0.40245191894E+03  0.42257455455E+03  0.12509514735E+03 0.  0.
          5    1    3    3  502    0  0.26288606008E+02 -0.35805185155E+02  0.42766938086E+02  0.61802795107E+02  0.41800000000E+01 0.  1.
         -5    1    3    3    0  502 -0.27221349253E+02  0.49500204202E+01  0.35968498086E+03  0.36077175944E+03  0.41800000000E+01 0.  1.
        -11    1    1    2    0    0  0.17291871957E+02  0.56283001347E+02  0.30978428146E+02  0.66531557074E+02  0.00000000000E+00 0. -1.
         11    1    1    2    0    0 -0.16359128712E+02 -0.25427836612E+02 -0.99346318462E+01  0.31825978020E+02  0.00000000000E+00 0.  1.
</event>
<event>
 7    1  0.2714042E-009  0.8488248E+02  0.7561462E-02  0.1315740E+00
          1   -1    0    0  501    0  0.00000000000E+00  0.00000000000E+00  0.59698882002E+03  0.59698882002E+03  0.00000000000E+00 0. -1.
         -1   -1    0    0    0  501 -0.00000000000E+00 -0.00000000000E+00 -0.15904317221E+02  0.15904317221E+02  0.00000000000E+00 0.  1.
         25    2    1    2    0    0  0.52291008560E+02 -0.17184412210E+01  0.36052618128E+03  0.38518475599E+03  0.12510342217E+03 0.  0.
          5    1    3    3  502    0  0.30333144023E+02  0.51080475411E+02  0.85194102728E+02  0.10394624637E+03  0.41800000000E+01 0. -1.
         -5    1    3    3    0  502  0.21957864537E+02 -0.52798916632E+02  0.27533207855E+03  0.28123850962E+03  0.41800000000E+01 0. -1.
        -11    1    1    2    0    0 -0.42624272348E+02  0.43786548391E+01  0.20314655011E+03  0.20761628557E+03  0.00000000000E+00 0. -1.
         11    1    1    2    0    0 -0.96667362119E+01 -0.26602136181E+01  0.17411771413E+02  0.20092095690E+02  0.00000000000E+00 0.  1.
</event>
<event>
 7    1  0.2714042E-009  0.1453214E+03  0.7561462E-02  0.1206343E+00
          2   -1    0    0  501    0  0.00000000000E+00  0.00000000000E+00  0.74485076947E+02  0.74485076947E+02  0.00000000000E+00 0. -1.
         -2   -1    0    0    0  501 -0.00000000000E+00 -0.00000000000E+00 -0.36379631208E+03  0.36379631208E+03  0.00000000000E+00 0.  1.
         25    2    1    2    0    0 -0.50121463503E+02 -0.92626995584E+02 -0.69107530837E+02  0.17752638064E+03  0.12509134099E+03 0.  0.
          5    1    3    3  502    0  0.28928263273E+02 -0.73244254399E+02 -0.16634153516E+02  0.80596108353E+02  0.41800000000E+01 0. -1.
         -5    1    3    3    0  502 -0.79049726776E+02 -0.19382741186E+02 -0.52473377320E+02  0.96930272292E+02  0.41800000000E+01 0. -1.
        -11    1    1    2    0    0 -0.17545502421E+02  0.27164746750E+01 -0.59095016036E+01  0.18712191188E+02  0.00000000000E+00 0. -1.
         11    1    1    2    0    0  0.67666965924E+02  0.89910520909E+02 -0.21429420269E+03  0.24204281719E+03  0.00000000000E+00 0.  1.
</event>
<event>
 7    1  0.2714042E-009  0.1482978E+03  0.7561462E-02  0.1202580E+00
         -1   -1    0    0    0  501 -0.00000000000E+00  0.00000000000E+00  0.34407906285E+03  0.34407906285E+03  0.00000000000E+00 0.  1.
          1   -1    0    0  501    0  0.00000000000E+00 -0.00000000000E+00 -0.93319403769E+02  0.93319403769E+02  0.00000000000E+00 0. -1.
         25    2    1    2    0    0  0.47417098655E+02 -0.12222219851E+03  0.99466940288E+02  0.20670694672E+03  0.12508973801E+03 0.  0.
          5    1    3    3  502    0  0.36337990266E+02 -0.10458328423E+03  0.12917660342E+03  0.17018278453E+03  0.41800000000E+01 0. -1.
         -5    1    3    3    0  502  0.11079108389E+02 -0.17638914281E+02 -0.29709663137E+02  0.36524162186E+02  0.41800000000E+01 0. -1.
        -11    1    1    2    0    0  0.27208299139E+02  0.65163950265E+02  0.28651990845E+02  0.76207404729E+02  0.00000000000E+00 0. -1.
         11    1    1    2    0    0 -0.74625397795E+02  0.57058248250E+02  0.12264072795E+03  0.15448411517E+03  0.00000000000E+00 0.  1.
</event>
<event>
 7    1  0.2714042E-009  0.1080045E+03  0.7561462E-02  0.1264310E+00
          2   -1    0    0  501    0  0.00000000000E+00  0.00000000000E+00  0.25761379435E+03  0.25761379435E+03  0.00000000000E+00 0. -1.
         -2   -1    0    0    0  501 -0.00000000000E+00 -0.00000000000E+00 -0.58151884328E+02  0.58151884328E+02  0.00000000000E+00 0.  1.
         25    2    1    2    0    0 -0.48460582102E+02 -0.26857925163E+02  0.10904626312E+03  0.17495665513E+03  0.12509583331E+03 0.  0.
          5    1    3    3  502    0  0.35791499229E+02 -0.33711279236E+02  0.57875961290E+02  0.76056433391E+02  0.41800000000E+01 0. -1.
         -5    1    3    3    0  502 -0.84252081331E+02  0.68533540737E+01  0.51170301827E+02  0.98900221737E+02  0.41800000000E+01 0. -1.
        -11    1    1    2    0    0  0.59870774413E+02  0.33721890458E+02  0.23561527891E+02  0.72641731267E+02  0.00000000000E+00 0.  1.
         11    1    1    2    0    0 -0.11410192311E+02 -0.68639652955E+01  0.66854119018E+02  0.68167292288E+02  0.00000000000E+00 0. -1.
</event>
<event>
 7    1  0.2714042E-009  0.1460845E+03  0.7561462E-02  0.1205369E+00
          1   -1    0    0  501    0  0.00000000000E+00  0.00000000000E+00  0.55900442983E+03  0.55900442983E+03  0.00000000000E+00 0. -1.
         -1   -1    0    0    0  501 -0.00000000000E+00 -0.00000000000E+00 -0.83843580435E+02  0.83843580435E+02  0.00000000000E+00 0.  1.
         25    2    1    2    0    0  0.34769575059E+02  0.11749176389E+03  0.45658064328E+03  0.48900671425E+03  0.12509374417E+03 0.  0.
          5    1    3    3  502    0 -0.32060881346E+02  0.87142726474E+02  0.17698675038E+03  0.19990882197E+03  0.41800000000E+01 0. -1.
         -5    1    3    3    0  502  0.66830456404E+02  0.30349037420E+02  0.27959389289E+03  0.28909789228E+03  0.41800000000E+01 0. -1.
        -11    1    1    2    0    0 -0.11527488140E+01 -0.52680334702E+02 -0.35018911704E+02  0.63268243780E+02  0.00000000000E+00 0.  1.
         11    1    1    2    0    0 -0.33616826245E+02 -0.64811429192E+02  0.53599117822E+02  0.90573052239E+02  0.00000000000E+00 0. -1.
</event>
<event>
 7    1  0.2714042E-009  0.1915444E+03  0.7561462E-02  0.1157076E+00
          4   -1    0    0  501    0  0.00000000000E+00  0.00000000000E+00  0.12335274762E+03  0.12335274762E+03  0.00000000000E+00 0.  1.
         -4   -1    0    0    0  501 -0.00000000000E+00 -0.00000000000E+00 -0.32221894204E+03  0.32221894204E+03  0.00000000000E+00 0. -1.
         25    2    1    2    0    0  0.14205906119E+03  0.87410682962E+02 -0.85546593487E+02  0.22535967450E+03  0.12508940351E+03 0.  0.
          5    1    3    3  502    0 -0.15328219216E+02  0.10893682842E+02 -0.40127156451E+02  0.44511658192E+02  0.41800000000E+01 0. -1.
         -5    1    3    3    0  502  0.15738728041E+03  0.76517000119E+02 -0.45419437035E+02  0.18084801631E+03  0.41800000000E+01 0. -1.
        -11    1    1    2    0    0 -0.11935744217E+03 -0.24437965908E+02 -0.70851535762E+02  0.14093740915E+03  0.00000000000E+00 0.  1.
         11    1    1    2    0    0 -0.22701619024E+02 -0.62972717054E+02 -0.42468065171E+02  0.79274606015E+02  0.00000000000E+00 0. -1.
</event>
<event>
 7    1  0.2714042E-009  0.1049104E+03  0.7561462E-02  0.1270296E+00
         -2   -1    0    0    0  501 -0.00000000000E+00  0.00000000000E+00  0.53386437373E+02  0.53386437373E+02  0.00000000000E+00 0.  1.
          2   -1    0    0  501    0  0.00000000000E+00 -0.00000000000E+00 -0.45538764372E+03  0.45538764372E+03  0.00000000000E+00 0. -1.
         25    2    1    2    0    0 -0.20198755810E+02  0.24926098446E+01 -0.39720775783E+02  0.13281222791E+03  0.12508854869E+03 0.  0.
          5    1    3    3  502    0  0.17802727605E+02 -0.48615372276E+02 -0.45062771729E+02  0.68764215459E+02  0.41800000000E+01 0.  1.
         -5    1    3    3    0  502 -0.38001483416E+02  0.51107982121E+02  0.53419959457E+01  0.64048012451E+02  0.41800000000E+01 0.  1.
        -11    1    1    2    0    0  0.48699904942E+02  0.24749937731E+02 -0.14131127539E+03  0.15150286040E+03  0.00000000000E+00 0.  1.
         11    1    1    2    0    0 -0.28501149132E+02 -0.27242547575E+02 -0.22096915517E+03  0.22445899278E+03  0.00000000000E+00 0. -1.
</event>
<event>
 7    1  0.2714042E-009  0.1489373E+03  0.7561462E-02  0.1201785E+00
          2   -1    0    0  501    0  0.00000000000E+00  0.00000000000E+00  0.39385537548E+03  0.39385537548E+03  0.00000000000E+00 0. -1.
         -2   -1    0    0    0  501 -0.00000000000E+00 -0.00000000000E+00 -0.77072773020E+02  0.77072773020E+02  0.00000000000E+00 0.  1.
         25    2    1    2    0    0 -0.97318436161E+02  0.94243406576E+02  0.18347864447E+03  0.26012494237E+03  0.12509146641E+03 0.  0.
          5    1    3    3  502    0 -0.70790144673E+02  0.62687638569E+02  0.19530724368E+03  0.21703312293E+03  0.41800000000E+01 0.  1.
         -5    1    3    3    0  502 -0.26528291488E+02  0.31555768007E+02 -0.11828599215E+02  0.43091819446E+02  0.41800000000E+01 0.  1.
        -11    1    1    2    0    0  0.55776375240E+02  0.31916534875E+01  0.60044650798E+02  0.82015552039E+02  0.00000000000E+00 0. -1.
         11    1    1    2    0    0  0.41542060921E+02 -0.97435060063E+02  0.73259307193E+02  0.12878765409E+03  0.00000000000E+00 0.  1.
</event>
<event>
 7    1  0.2714042E-009  0.2851843E+03  0.7561462E-02  0.1092891E+00
         -1   -1    0    0    0  501 -0.00000000000E+00  0.00000000000E+00  0.39832737593E+03  0.39832737593E+03  0.00000000000E+00 0.  1.
          1   -1    0    0  501    0  0.00000000000E+00 -0.00000000000E+00 -0.21704594011E+03  0.21704594011E+03  0.00000000000E+00 0. -1.
         25    2    1    2    0    0  0.27138676168E+03  0.27306901393E+02  0.10285946804E+03  0.31721211410E+03  0.12508802455E+03 0.  0.
          5    1    3    3  502    0  0.36985763164E+02 -0.38833481893E+02  0.27731736186E+01  0.53862314142E+02  0.41800000000E+01 0.  1.
         -5    1    3    3    0  502  0.23440099852E+03  0.66140383287E+02  0.10008629442E+03  0.26334979996E+03  0.41800000000E+01 0.  1.
        -11    1    1    2    0    0 -0.12845939863E+03 -0.72921442754E+01  0.84124268381E+02  0.15372665675E+03  0.00000000000E+00 0.  1.
         11    1    1    2    0    0 -0.14292736306E+03 -0.20014757118E+02 -0.57023005987E+01  0.14443454519E+03  0.00000000000E+00 0. -1.
</event>
<event>
 7    1  0.2714042E-009  0.2619665E+03  0.7561462E-02  0.1105967E+00
         -2   -1    0    0    0  501 -0.00000000000E+00  0.00000000000E+00  0.95145856897E+02  0.95145856897E+02  0.00000000000E+00 0.  1.
          2   -1    0    0  501    0  0.00000000000E+00 -0.00000000000E+00 -0.83584213149E+03  0.83584213149E+03  0.00000000000E+00 0. -1.
         25    2    1    2    0    0  0.22777612929E+03 -0.10149093273E+03 -0.49929665351E+03  0.57194920254E+03  0.12508544113E+03 0.  0.
          5    1    3    3  502    0  0.87615318276E+02 -0.98520287037E+02 -0.30515283218E+03  0.33244309941E+03  0.41800000000E+01 0. -1.
         -5    1    3    3    0  502  0.14016081101E+03 -0.29706456922E+01 -0.19414382132E+03  0.23950610313E+03  0.41800000000E+01 0. -1.
        -11    1    1    2    0    0 -0.21012871238E+03  0.82229322068E+02 -0.16854937308E+03  0.28164628231E+03  0.00000000000E+00 0.  1.
         11    1    1    2    0    0 -0.17647416905E+02  0.19261610661E+02 -0.72850248010E+02  0.77392503537E+02  0.00000000000E+00 0. -1.
</event>
<event>
 7    1  0.2714042E-009  0.9745891E+02  0.7561462E-02  0.1285732E+00
          1   -1    0    0  501    0  0.00000000000E+00  0.00000000000E+00  0.30005529928E+02  0.30005529928E+02  0.00000000000E+00 0. -1.
         -1   -1    0    0    0  501 -0.00000000000E+00 -0.00000000000E+00 -0.53780516569E+03  0.53780516569E+03  0.00000000000E+00 0.  1.
         25    2    1    2    0    0  0.20900318244E+02  0.22368810344E+02 -0.41021878795E+03  0.42996156167E+03  0.12510117325E+03 0.  0.
          5    1    3    3  502    0 -0.27453357832E+02 -0.39901702453E+02 -0.12847219858E+03  0.13736233444E+03  0.41800000000E+01 0.  1.
         -5    1    3    3    0  502  0.48353676077E+02  0.62270512797E+02 -0.28174658937E+03  0.29259922723E+03  0.41800000000E+01 0.  1.
        -11    1    1    2    0    0 -0.40785206260E+02 -0.52627820535E+01 -0.47654911717E+01  0.41398548654E+02  0.00000000000E+00 0. -1.
         11    1    1    2    0    0  0.19884888015E+02 -0.17106028291E+02 -0.92815356647E+02  0.96450585300E+02  0.00000000000E+00 0.  1.
</event>
<event>
 7    1  0.2714042E-009  0.1307750E+03  0.7561462E-02  0.1226310E+00
          4   -1    0    0  501    0  0.00000000000E+00  0.00000000000E+00  0.21053816951E+03  0.21053816951E+03  0.00000000000E+00 0. -1.
         -4   -1    0    0    0  501 -0.00000000000E+00 -0.00000000000E+00 -0.13656376128E+03  0.13656376128E+03  0.00000000000E+00 0.  1.
         25    2    1    2    0    0  0.70557202188E+02  0.57567994005E+02 -0.54365017835E+02  0.16399919957E+03  0.12509112511E+03 0.  0.
          5    1    3    3  502    0  0.17878994769E+02 -0.38949914752E+02 -0.48441536375E+01  0.43332349782E+02  0.41800000000E+01 0. -1.
         -5    1    3    3    0  502  0.52678207419E+02  0.96517908757E+02 -0.49520864197E+02  0.12066684979E+03  0.41800000000E+01 0. -1.
        -11    1    1    2    0    0  0.70094094020E+01 -0.22055781987E+02 -0.60521709645E+01  0.23921080925E+02  0.00000000000E+00 0.  1.
         11    1    1    2    0    0 -0.77566611590E+02 -0.35512212018E+02  0.13439159703E+03  0.15918165029E+03  0.00000000000E+00 0. -1.
</event>
<event>
 7    1  0.2714042E-009  0.8701675E+02  0.7561462E-02  0.1310241E+00
          3   -1    0    0  501    0  0.00000000000E+00  0.00000000000E+00  0.10933467180E+03  0.10933467180E+03  0.00000000000E+00 0. -1.
         -3   -1    0    0    0  501 -0.00000000000E+00 -0.00000000000E+00 -0.10281014574E+03  0.10281014574E+03  0.00000000000E+00 0.  1.
         25    2    1    2    0    0  0.67513235293E+01 -0.21231767713E+02 -0.43669790191E+02  0.13435184724E+03  0.12508796886E+03 0.  0.
          5    1    3    3  502    0  0.58309801141E+02  0.50696928362E+01 -0.48490234844E+02  0.76121678711E+02  0.41800000000E+01 0. -1.
         -5    1    3    3    0  502 -0.51558477612E+02 -0.26301460549E+02  0.48204446532E+01  0.58230168533E+02  0.41800000000E+01 0. -1.
        -11    1    1    2    0    0 -0.29994227040E+02  0.11401259453E+02  0.17687423944E+02  0.36639969140E+02  0.00000000000E+00 0.  1.
         11    1    1    2    0    0  0.23242903510E+02  0.98305082604E+01  0.32506892307E+02  0.41153001151E+02  0.00000000000E+00 0. -1.
</event>
<event>
 7    1  0.2714042E-009  0.1435415E+03  0.7561462E-02  0.1208642E+00
          1   -1    0    0  501    0  0.00000000000E+00  0.00000000000E+00  0.65842802640E+02  0.65842802640E+02  0.00000000000E+00 0. -1.
         -1   -1    0    0    0  501 -0.00000000000E+00 -0.00000000000E+00 -0.36329316520E+03  0.36329316520E+03  0.00000000000E+00 0.  1.
         25    2    1    2    0    0 -0.58217768993E+02 -0.94023791479E+02 -0.14037260114E+03  0.21813217262E+03  0.12508955028E+03 0.  0.
          5    1    3    3  502    0 -0.13458016751E+02 -0.10466363441E+03 -0.13533139836E+03  0.17166145276E+03  0.41800000000E+01 0.  1.
         -5    1    3    3    0  502 -0.44759752242E+02  0.10639842933E+02 -0.50412027821E+01  0.46470719856E+02  0.41800000000E+01 0.  1.
        -11    1    1    2    0    0 -0.18503915516E+02  0.30488914706E+02 -0.70569808344E+02  0.79070011123E+02  0.00000000000E+00 0.  1.
         11    1    1    2    0    0  0.76721684509E+02  0.63534876773E+02 -0.86507953071E+02  0.13193378409E+03  0.00000000000E+00 0. -1.
</event>
<event>
 7    1  0.2714042E-009  0.1213616E+03  0.7561462E-02  0.1240868E+00
          4   -1    0    0  501    0  0.00000000000E+00  0.00000000000E+00  0.72520975806E+03  0.72520975806E+03  0.00000000000E+00 0. -1.
         -4   -1    0    0    0  501 -0.00000000000E+00 -0.00000000000E+00 -0.28201109839E+02  0.28201109839E+02  0.00000000000E+00 0.  1.
         25    2    1    2    0    0 -0.64224625089E+02 -0.23873967245E+01  0.20374198738E+03  0.24756559496E+03  0.12508966486E+03 0.  0.
          5    1    3    3  502    0  0.34243916902E+02  0.13130781331E+02  0.83676207462E+02  0.91456237395E+02  0.41800000000E+01 0.  1.
         -5    1    3    3    0  502 -0.98468541991E+02 -0.15518178056E+02  0.12006577992E+03  0.15610935757E+03  0.41800000000E+01 0.  1.
        -11    1    1    2    0    0 -0.15808999548E+02 -0.17488157218E+02  0.54252324487E+02  0.59152978132E+02  0.00000000000E+00 0.  1.
         11    1    1    2    0    0  0.80033624637E+02  0.19875553943E+02  0.43901433635E+03  0.44669229480E+03  0.00000000000E+00 0. -1.
</event>
<event>
 7    1  0.2714042E-009  0.8465816E+02  0.7561462E-02  0.1316329E+00
         -1   -1    0    0    0  501 -0.00000000000E+00  0.00000000000E+00  0.24465882311E+03  0.24465882311E+03  0.00000000000E+00 0.  1.
          1   -1    0    0  501    0  0.00000000000E+00 -0.00000000000E+00 -0.49717957489E+02  0.49717957489E+02  0.00000000000E+00 0. -1.
         25    2    1    2    0    0  0.64555700381E+01 -0.84849935474E+01  0.86775566697E+02  0.15261673171E+03  0.12509275887E+03 0.  0.
          5    1    3    3  502    0  0.53860782972E+02 -0.40137582119E+02  0.36860820815E+02  0.76734620295E+02  0.41800000000E+01 0. -1.
         -5    1    3    3    0  502 -0.47405212934E+02  0.31652588571E+02  0.49914745882E+02  0.75882111416E+02  0.41800000000E+01 0. -1.
        -11    1    1    2    0    0 -0.22188565378E+02 -0.65125963579E+01 -0.73134157539E+01  0.24253502734E+02  0.00000000000E+00 0. -1.
         11    1    1    2    0    0  0.15732995340E+02  0.14997589905E+02  0.11547871468E+03  0.11750654616E+03  0.00000000000E+00 0.  1.
</event>
<event>
 7    1  0.2714042E-009  0.2221885E+03  0.7561462E-02  0.1132262E+00
         -1   -1    0    0    0  501 -0.00000000000E+00  0.00000000000E+00  0.23815146736E+03  0.23815146736E+03  0.00000000000E+00 0.  1.
          1   -1    0    0  501    0  0.00000000000E+00 -0.00000000000E+00 -0.33252895383E+03  0.33252895383E+03  0.00000000000E+00 0. -1.
         25    2    1    2    0    0 -0.21056190424E+03 -0.53784152661E+02 -0.19171169539E+03  0.31564556996E+03  0.12509876533E+03 0.  0.
          5    1    3    3  502    0 -0.10142351944E+03 -0.63940626886E+01 -0.16468163743E+03  0.19355910839E+03  0.41800000000E+01 0. -1.
         -5    1    3    3    0  502 -0.10913838481E+03 -0.47390089972E+02 -0.27030057962E+02  0.12208646157E+03  0.41800000000E+01 0. -1.
        -11    1    1    2    0    0  0.15616517559E+03  0.63080661475E+02  0.10624456856E+03  0.19913472893E+03  0.00000000000E+00 0.  1.
         11    1    1    2    0    0  0.54396728655E+02 -0.92965088146E+01 -0.89103596317E+01  0.55900122301E+02  0.00000000000E+00 0. -1.
</event>
<event>
 7    1  0.2714042E-009  0.1334924E+03  0.7561462E-02  0.1222364E+00
         -2   -1    0    0    0  501 -0.00000000000E+00  0.00000000000E+00  0.20370945842E+02  0.20370945842E+02  0.00000000000E+00 0.  1.
          2   -1    0    0  501    0  0.00000000000E+00 -0.00000000000E+00 -0.97966099172E+03  0.97966099172E+03  0.00000000000E+00 0. -1.
         25    2    1    2    0    0  0.57855723403E+02 -0.63614185783E+02 -0.60573070900E+03  0.62446111772E+03  0.12509175177E+03 0.  0.
          5    1    3    3  502    0  0.82837555185E+02 -0.11015663801E+02 -0.24155657400E+03  0.25563735298E+03  0.41800000000E+01 0. -1.
         -5    1    3    3    0  502 -0.24981831782E+02 -0.52598521982E+02 -0.36417413500E+03  0.36882376474E+03  0.41800000000E+01 0. -1.
        -11    1    1    2    0    0  0.27214394569E+00 -0.21698816679E+02 -0.40762619282E+02  0.46179041115E+02  0.00000000000E+00 0.  1.
         11    1    1    2    0    0 -0.58127867349E+02  0.85313002462E+02 -0.31279671759E+03  0.32939177872E+03  0.00000000000E+00 0. -1.
</event>
<event>
 7    1  0.2714042E-009  0.1269553E+03  0.7561462E-02  0.1232045E+00
          2   -1    0    0  501    0  0.00000000000E+00  0.00000000000E+00  0.25477302985E+03  0.25477302985E+03  0.00000000000E+00 0. -1.
         -2   -1    0    0    0  501 -0.00000000000E+00 -0.00000000000E+00 -0.73799243209E+02  0.73799243209E+02  0.00000000000E+00 0.  1.
         25    2    1    2    0    0 -0.74833994793E+02 -0.10742915434E+02  0.15654207013E+03  0.21416842346E+03  0.12508859611E+03 0.  0.
          5    1    3    3  502    0 -0.10804905099E+03 -0.48397583432E+01  0.13820276714E+03  0.17554343601E+03  0.41800000000E+01 0.  1.
         -5    1    3    3    0  502  0.33215056192E+02 -0.59031570907E+01  0.18339302986E+02  0.38624987450E+02  0.41800000000E+01 0.  1.
        -11    1    1    2    0    0 -0.29528995948E+01 -0.25636094463E+02  0.37671072725E+01  0.26079111422E+02  0.00000000000E+00 0. -1.
         11    1    1    2    0    0  0.77786894388E+02  0.36379009897E+02  0.20664609241E+02  0.88324738181E+02  0.00000000000E+00 0.  1.
</event>
<event>
 7    1  0.2714042E-009  0.1301263E+03  0.7561462E-02  0.1227268E+00
         -1   -1    0    0    0  501 -0.00000000000E+00  0.00000000000E+00  0.41233040430E+02  0.41233040430E+02  0.00000000000E+00 0.  1.
          1   -1    0    0  501    0  0.00000000000E+00 -0.00000000000E+00 -0.52839849416E+03  0.52839849416E+03  0.00000000000E+00 0. -1.
         25    2    1    2    0    0 -0.71347448559E+02  0.71224120269E+02 -0.31171083617E+03  0.35067785787E+03  0.12509188978E+03 0.  0.
          5    1    3    3  502    0 -0.85679008003E+02  0.22207413223E+01 -0.13033922590E+03  0.15605002503E+03  0.41800000000E+01 0. -1.
         -5    1    3    3    0  502  0.14331559444E+02  0.69003378946E+02 -0.18137161027E+03  0.19462783283E+03  0.41800000000E+01 0. -1.
        -11    1    1    2    0    0  0.22333182412E+02 -0.39748152919E+02 -0.14594597067E+02  0.47871588240E+02  0.00000000000E+00 0.  1.
         11    1    1    2    0    0  0.49014266147E+02 -0.31475967350E+02 -0.16086002049E+03  0.17108208848E+03  0.00000000000E+00 0. -1.
</event>
<event>
 7    1  0.3331690E-009  0.2039429E+03  0.7561462E-02  0.1146454E+00
         -2   -1    0    0    0  501 -0.00000000000E+00  0.00000000000E+00  0.83685382876E+02  0.83685382876E+02  0.00000000000E+00 0.  1.
          2   -1    0    0  501    0  0.00000000000E+00 -0.00000000000E+00 -0.52215795926E+03  0.52215795926E+03  0.00000000000E+00 0. -1.
         25    2    1    2    0    0  0.12037079978E+03 -0.13139967500E+03 -0.22172734314E+03  0.31075042453E+03  0.12509119720E+03 0.  0.
          5    1    3    3  502    0  0.13852640284E+03 -0.98873201504E+02 -0.21224353833E+03  0.27208503491E+03  0.41800000000E+01 0. -1.
         -5    1    3    3    0  502 -0.18155603060E+02 -0.32526473495E+02 -0.94838048143E+01  0.38665389617E+02  0.41800000000E+01 0. -1.
        -11    1    1    2    0    0 -0.84027213863E+02  0.24917097724E+02 -0.90401200549E+02  0.12591191957E+03  0.00000000000E+00 0.  1.
         11    1    1    2    0    0 -0.36343585922E+02  0.10648257727E+03 -0.12634403270E+03  0.16918099804E+03  0.00000000000E+00 0. -1.
</event>
<event>
 7    1  0.2714042E-009  0.7407336E+02  0.7561462E-02  0.1346765E+00
          1   -1    0    0  501    0  0.00000000000E+00  0.00000000000E+00  0.13275800336E+03  0.13275800336E+03  0.00000000000E+00 0. -1.
         -1   -1    0    0    0  501 -0.00000000000E+00 -0.00000000000E+00 -0.12839894841E+03  0.12839894841E+03  0.00000000000E+00 0.  1.
         25    2    1    2    0    0  0.64310770215E+02  0.21887751756E+02 -0.26985506284E+02  0.14487281320E+03  0.12507983696E+03 0.  0.
          5    1    3    3  502    0  0.62424131267E+02  0.61291634716E+01 -0.72812830242E+02  0.96195215354E+02  0.41800000000E+01 0.  1.
         -5    1    3    3    0  502  0.18866389480E+01  0.15758588284E+02  0.45827323958E+02  0.48677597849E+02  0.41800000000E+01 0.  1.
        -11    1    1    2    0    0 -0.41281931525E+02 -0.82225050177E+01  0.62405040652E+02  0.75274142691E+02  0.00000000000E+00 0. -1.
         11    1    1    2    0    0 -0.23028838690E+02 -0.13665246738E+02 -0.31060479417E+02  0.41009995872E+02  0.00000000000E+00 0.  1.
</event>
<event>
 7    1  0.2714042E-009  0.8459934E+02  0.7561462E-02  0.1316484E+00
         -2   -1    0    0    0  501 -0.00000000000E+00  0.00000000000E+00  0.14665848986E+02  0.14665848986E+02  0.00000000000E+00 0.  1.
          2   -1    0    0  501    0  0.00000000000E+00 -0.00000000000E+00 -0.11115237523E+04  0.11115237523E+04  0.00000000000E+00 0. -1.
         25    2    1    2    0    0  0.49167935130E+02 -0.31372749589E+02 -0.74398651350E+03  0.75668020545E+03  0.12508903143E+03 0.  0.
          5    1    3    3  502    0  0.42687392304E+02 -0.40540069563E+02 -0.13219252941E+03  0.14476894671E+03  0.41800000000E+01 0. -1.
         -5    1    3    3    0  502  0.64805428260E+01  0.91673199737E+01 -0.61179398410E+03  0.61191125874E+03  0.41800000000E+01 0. -1.
        -11    1    1    2    0    0 -0.65886407424E+02  0.38509904938E+01 -0.30329475436E+03  0.31039258502E+03  0.00000000000E+00 0. -1.
         11    1    1    2    0    0  0.16718472294E+02  0.27521759095E+02 -0.49576635495E+02  0.59116810863E+02  0.00000000000E+00 0.  1.
</event>
<event>
 7    1  0.2714042E-009  0.1334012E+03  0.7561462E-02  0.1222495E+00
          2   -1    0    0  501    0  0.00000000000E+00  0.00000000000E+00  0.57148751223E+02  0.57148751223E+02  0.00000000000E+00 0. -1.
         -2   -1    0    0    0  501 -0.00000000000E+00 -0.00000000000E+00 -0.32720661133E+03  0.32720661133E+03  0.00000000000E+00 0.  1.
         25    2    1    2    0    0  0.37153444334E+02 -0.69572328894E+02 -0.14128010431E+03  0.20452023826E+03  0.12509105729E+03 0.  0.
          5    1    3    3  502    0  0.23256708996E+02 -0.10451260315E+03 -0.12089042252E+03  0.16154171408E+03  0.41800000000E+01 0.  1.
         -5    1    3    3    0  502  0.13896735339E+02  0.34940274253E+02 -0.20389681786E+02  0.42978524187E+02  0.41800000000E+01 0.  1.
        -11    1    1    2    0    0 -0.48764543836E+02  0.87667724563E+02 -0.12050977053E+03  0.15679992174E+03  0.00000000000E+00 0.  1.
         11    1    1    2    0    0  0.11611099502E+02 -0.18095395669E+02 -0.82679852752E+01  0.23035202551E+02  0.00000000000E+00 0. -1.
</event>
<event>
 7    1  0.2714042E-009  0.1072193E+03  0.7561462E-02  0.1265808E+00
         -2   -1    0    0    0  501 -0.00000000000E+00  0.00000000000E+00  0.72905904580E+02  0.72905904580E+02  0.00000000000E+00 0. -1.
          2   -1    0    0  501    0  0.00000000000E+00 -0.00000000000E+00 -0.25630348547E+03  0.25630348547E+03  0.00000000000E+00 0.  1.
         25    2    1    2    0    0 -0.41223585171E+02 -0.61063755300E+02 -0.14293812615E+03  0.20373183080E+03  0.12508870768E+03 0.  0.
          5    1    3    3  502    0  0.17494817212E+02 -0.77490046975E+02 -0.10524505274E+03  0.13192713723E+03  0.41800000000E+01 0. -1.
         -5    1    3    3    0  502 -0.58718402383E+02  0.16426291675E+02 -0.37693073405E+02  0.71804693575E+02  0.41800000000E+01 0. -1.
        -11    1    1    2    0    0  0.29367037972E+02  0.46435699601E+02  0.22792217521E+02  0.59482621800E+02  0.00000000000E+00 0. -1.
         11    1    1    2    0    0  0.11856547199E+02  0.14628055699E+02 -0.63251672261E+02  0.65994937448E+02  0.00000000000E+00 0.  1.
</event>
<event>
 7    1  0.2714042E-009  0.1368135E+03  0.7561462E-02  0.1217682E+00
         -2   -1    0    0    0  501 -0.00000000000E+00  0.00000000000E+00  0.16230539488E+03  0.16230539488E+03  0.00000000000E+00 0.  1.
          2   -1    0    0  501    0  0.00000000000E+00 -0.00000000000E+00 -0.19150111362E+03  0.19150111362E+03  0.00000000000E+00 0. -1.
         25    2    1    2    0    0 -0.13322175526E+02 -0.10824450706E+03 -0.10359989915E+03  0.19564022283E+03  0.12509118281E+03 0.  0.
          5    1    3    3  502    0 -0.65364979483E+02 -0.34109063422E+02 -0.33821379767E+02  0.81224176694E+02  0.41800000000E+01 0. -1.
         -5    1    3    3    0  502  0.52042803957E+02 -0.74135443635E+02 -0.69778519383E+02  0.11441604614E+03  0.41800000000E+01 0. -1.
        -11    1    1    2    0    0  0.59134812577E+01  0.60488059928E+02  0.88919855858E+02  0.10770568890E+03  0.00000000000E+00 0.  1.
         11    1    1    2    0    0  0.74086942682E+01  0.47756447129E+02 -0.14515675448E+02  0.50460596775E+02  0.00000000000E+00 0. -1.
</event>
<event>
 7    1  0.2714042E-009  0.1067815E+03  0.7561462E-02  0.1266649E+00
         -1   -1    0    0    0  501 -0.00000000000E+00  0.00000000000E+00  0.28861317419E+02  0.28861317419E+02  0.00000000000E+00 0.  1.
          1   -1    0    0  501    0  0.00000000000E+00 -0.00000000000E+00 -0.64917094772E+03  0.64917094772E+03  0.00000000000E+00 0. -1.
         25    2    1    2    0    0  0.51494133390E+02 -0.25763321684E+02 -0.32215898005E+03  0.35035591494E+03  0.12508982447E+03 0.  0.
          5    1    3    3  502    0  0.52681574852E+02 -0.63847831740E+02 -0.12829166438E+03  0.15273544938E+03  0.41800000000E+01 0.  1.
         -5    1    3    3    0  502 -0.11874414615E+01  0.38084510056E+02 -0.19386731567E+03  0.19762046556E+03  0.41800000000E+01 0.  1.
        -11    1    1    2    0    0 -0.24938035230E+02 -0.24841945958E+02 -0.14075828353E+02  0.37909851278E+02  0.00000000000E+00 0.  1.
         11    1    1    2    0    0 -0.26556098161E+02  0.50605267642E+02 -0.28407482190E+03  0.28976649892E+03  0.00000000000E+00 0. -1.
</event>
<event>
 7    1  0.2714042E-009  0.1829041E+03  0.7561462E-02  0.1165022E+00
          1   -1    0    0  501    0  0.00000000000E+00  0.00000000000E+00  0.92787199585E+03  0.92787199585E+03  0.00000000000E+00 0. -1.
         -1   -1    0    0    0  501 -0.00000000000E+00 -0.00000000000E+00 -0.41391884066E+02  0.41391884066E+02  0.00000000000E+00 0.  1.
         25    2    1    2    0    0 -0.15708670597E+03  0.16046330005E+02  0.56167732539E+03  0.59670885987E+03  0.12508528163E+03 0.  0.
          5    1    3    3  502    0 -0.16109874559E+03  0.35422899455E+02  0.38486324199E+03  0.41874189552E+03  0.41800000000E+01 0. -1.
         -5    1    3    3    0  502  0.40120396117E+01 -0.19376569450E+02  0.17681408341E+03  0.17796696434E+03  0.41800000000E+01 0. -1.
        -11    1    1    2    0    0  0.14495580457E+03  0.16460370515E+02  0.28158467395E+03  0.31713255538E+03  0.00000000000E+00 0.  1.
         11    1    1    2    0    0  0.12130901406E+02 -0.32506700520E+02  0.43218112437E+02  0.55422464672E+02  0.00000000000E+00 0. -1.
</event>
<event>
 7    1  0.2714042E-009  0.8826199E+02  0.7561462E-02  0.1307116E+00
          2   -1    0    0  501    0  0.00000000000E+00  0.00000000000E+00  0.48304951312E+03  0.48304951312E+03  0.00000000000E+00 0. -1.
         -2   -1    0    0    0  501 -0.00000000000E+00 -0.00000000000E+00 -0.33767532764E+02  0.33767532764E+02  0.00000000000E+00 0.  1.
         25    2    1    2    0    0 -0.33702373151E+02 -0.38446798531E+02  0.31499449362E+03  0.34275711964E+03  0.12508759244E+03 0.  0.
          5    1    3    3  502    0 -0.46537579980E+02  0.30064845409E+02  0.20560339983E+03  0.21297857100E+03  0.41800000000E+01 0. -1.
         -5    1    3    3    0  502  0.12835206829E+02 -0.68511643940E+02  0.10939109378E+03  0.12977854864E+03  0.41800000000E+01 0. -1.
        -11    1    1    2    0    0  0.99238624961E+01  0.10782513872E+02 -0.14649338688E+02  0.20720733004E+02  0.00000000000E+00 0.  1.
         11    1    1    2    0    0  0.23778510655E+02  0.27664284659E+02  0.14893682543E+03  0.15333919324E+03  0.00000000000E+00 0. -1.
</event>
<event>
 7    1  0.2714042E-009  0.9680586E+02  0.7561462E-02  0.1287160E+00
          2   -1    0    0  501    0  0.00000000000E+00  0.00000000000E+00  0.20708800187E+03  0.20708800187E+03  0.00000000000E+00 0. -1.
         -2   -1    0    0    0  501 -0.00000000000E+00 -0.00000000000E+00 -0.84612916800E+02  0.84612916800E+02  0.00000000000E+00 0.  1.
         25    2    1    2    0    0  0.38021809241E+02  0.57563087982E+02  0.10098812517E+03  0.17494525800E+03  0.12509226514E+03 0.  0.
          5    1    3    3  502    0  0.42190594367E+02  0.73127316148E+02  0.12182330437E+03  0.14827690484E+03  0.41800000000E+01 0. -1.
         -5    1    3    3    0  502 -0.41687851256E+01 -0.15564228166E+02 -0.20835179209E+02  0.26668353164E+02  0.41800000000E+01 0. -1.
        -11    1    1    2    0    0 -0.24323626111E+02 -0.69894302737E+02 -0.15335603861E+02  0.75577993411E+02  0.00000000000E+00 0.  1.
         11    1    1    2    0    0 -0.13698183130E+02  0.12331214755E+02  0.36822563765E+02  0.41177667256E+02  0.00000000000E+00 0. -1.
</event>
<event>
 7    1  0.3020477E-009  0.1094682E+03  0.7561462E-02  0.1261558E+00
         -3   -1    0    0    0  501 -0.00000000000E+00  0.00000000000E+00  0.11767899438E+03  0.11767899438E+03  0.00000000000E+00 0.  1.
          3   -1    0    0  501    0  0.00000000000E+00 -0.00000000000E+00 -0.14117777320E+03  0.14117777320E+03  0.00000000000E+00 0. -1.
         25    2    1    2    0    0  0.22851631480E+01  0.67260984896E+02 -0.30407999926E+02  0.14526410328E+03  0.12509097162E+03 0.  0.
          5    1    3    3  502    0 -0.32432849272E+02 -0.11027268786E+02  0.25495401929E+02  0.42906622895E+02  0.41800000000E+01 0.  1.
         -5    1    3    3    0  502  0.34718012420E+02  0.78288253682E+02 -0.55903401854E+02  0.10235748038E+03  0.41800000000E+01 0.  1.
        -11    1    1    2    0    0 -0.35999109854E+02 -0.47515320705E+02  0.31504213548E+02  0.67425196205E+02  0.00000000000E+00 0.  1.
         11    1    1    2    0    0  0.33713946706E+02 -0.19745664190E+02 -0.24594992441E+02  0.46167468092E+02  0.00000000000E+00 0. -1.
</event>
<event>
 7    1  0.2714042E-009  0.1703904E+03  0.7561462E-02  0.1177441E+00
          1   -1    0    0  501    0  0.00000000000E+00  0.00000000000E+00  0.53283640415E+03  0.53283640415E+03  0.00000000000E+00 0. -1.
         -1   -1    0    0    0  501 -0.00000000000E+00 -0.00000000000E+00 -0.91236826338E+02  0.91236826338E+02  0.00000000000E+00 0.  1.
         25    2    1    2    0    0 -0.10327985116E+03 -0.94611337963E+02  0.41457053312E+03  0.45511985857E+03  0.12508927137E+03 0.  0.
          5    1    3    3  502    0 -0.43506028960E+02  0.23857271437E+02  0.16613616470E+03  0.17343771671E+03  0.41800000000E+01 0. -1.
         -5    1    3    3    0  502 -0.59773822203E+02 -0.11846860940E+03  0.24843436842E+03  0.28168214187E+03  0.41800000000E+01 0. -1.
        -11    1    1    2    0    0  0.97476169477E+02  0.43422635457E+02 -0.74388962198E+01  0.10696946323E+03  0.00000000000E+00 0. -1.
         11    1    1    2    0    0  0.58036816864E+01  0.51188702506E+02  0.34467940917E+02  0.61983908690E+02  0.00000000000E+00 0.  1.
</event>
