<event>
 7    1  0.2661133E-009  0.1171331E+03  0.7561462E-02  0.1247903E+00
         -1   -1    0    0    0  501 -0.00000000000E+00  0.00000000000E+00  0.27715929123E+03  0.27715929123E+03  0.00000000000E+00 0.  1.
          1   -1    0    0  501    0  0.00000000000E+00 -0.00000000000E+00 -0.50858369124E+02  0.50858369124E+02  0.00000000000E+00 0. -1.
         25    2    1    2    0    0 -0.13046895080E+02  0.34208156883E+02  0.11730499053E+03  0.17534991536E+03  0.12508682003E+03 0.  0.
          5    1    3    3  502    0 -0.17132026743E+02  0.80353913455E+02  0.87530495442E+02  0.12012209530E+03  0.41800000000E+01 0. -1.
         -5    1    3    3    0  502  0.40851316628E+01 -0.46145756572E+02  0.29774495092E+02  0.55227820057E+02  0.41800000000E+01 0. -1.
        -11    1    1    2    0    0 -0.12066035200E+02  0.32254014499E+02  0.24456995231E+02  0.42238078465E+02  0.00000000000E+00 0.  1.
         11    1    1    2    0    0  0.25112930279E+02 -0.66462171382E+02  0.84538936346E+02  0.11042966653E+03  0.00000000000E+00 0. -1.
</event>
<event>
 7    1  0.2661133E-009  0.9163496E+02  0.7561462E-02  0.1298940E+00
          2   -1    0    0  501    0  0.00000000000E+00  0.00000000000E+00  0.44684710112E+03  0.44684710112E+03  0.00000000000E+00 0.  1.
         -2   -1    0    0    0  501 -0.00000000000E+00 -0.00000000000E+00 -0.31737918439E+02  0.31737918439E+02  0.00000000000E+00 0. -1.
         25    2    1    2    0    0  0.24506516231E+02 -0.16510284303E+02  0.30897377167E+03  0.33464123580E+03  0.12508719474E+03 0.  0.
          5    1    3    3  502    0  0.50540513690E+02  0.25997188064E+02  0.68911644353E+02  0.89423064355E+02  0.41800000000E+01 0.  1.
         -5    1    3    3    0  502 -0.26033997459E+02 -0.42507472367E+02  0.24006212732E+03  0.24521817144E+03  0.41800000000E+01 0.  1.
        -11    1    1    2    0    0 -0.69133798482E+01 -0.27767602317E+02  0.88711884116E+02  0.93212836791E+02  0.00000000000E+00 0. -1.
         11    1    1    2    0    0 -0.17593136383E+02  0.44277886620E+02  0.17423526891E+02  0.50730946972E+02  0.00000000000E+00 0.  1.
</event>
<event>
 7    1  0.2661133E-009  0.1085752E+03  0.7561462E-02  0.1263231E+00
          1   -1    0    0  501    0  0.00000000000E+00  0.00000000000E+00  0.28076891646E+03  0.28076891646E+03  0.00000000000E+00 0. -1.
         -1   -1    0    0    0  501 -0.00000000000E+00 -0.00000000000E+00 -0.75332456139E+02  0.75332456139E+02  0.00000000000E+00 0.  1.
         25    2    1    2    0    0 -0.55676081777E+02 -0.14955488898E+02  0.20669842636E+03  0.24838500170E+03  0.12508947550E+03 0.  0.
          5    1    3    3  502    0  0.41521287407E+01  0.44275198467E+02  0.11729061116E+03  0.12550734336E+03  0.41800000000E+01 0.  1.
         -5    1    3    3    0  502 -0.59828210518E+02 -0.59230687365E+02  0.89407815202E+02  0.12287765834E+03  0.41800000000E+01 0.  1.
        -11    1    1    2    0    0 -0.11996737974E+02 -0.10448490920E+02 -0.26705625217E+02  0.31085094543E+02  0.00000000000E+00 0.  1.
         11    1    1    2    0    0  0.67672819751E+02  0.25403979818E+02  0.25443659179E+02  0.76631276357E+02  0.00000000000E+00 0. -1.
</event>
<event>
 7    1  0.2661133E-009  0.1477842E+03  0.7561462E-02  0.1203222E+00
          2   -1    0    0  501    0  0.00000000000E+00  0.00000000000E+00  0.42723621373E+03  0.42723621373E+03  0.00000000000E+00 0. -1.
         -2   -1    0    0    0  501 -0.00000000000E+00 -0.00000000000E+00 -0.59092757926E+02  0.59092757926E+02  0.00000000000E+00 0.  1.
         25    2    1    2    0    0 -0.95563868263E+02 -0.64643583883E+02  0.18050855625E+03  0.24807678568E+03  0.12508999504E+03 0.  0.
          5    1    3    3  502    0 -0.49028876010E+02  0.31979221494E+02  0.91211777960E+02  0.10845995634E+03  0.41800000000E+01 0.  1.
         -5    1    3    3    0  502 -0.46534992253E+02 -0.96622805376E+02  0.89296778292E+02  0.13961682934E+03  0.41800000000E+01 0.  1.
        -11    1    1    2    0    0 -0.77926700019E+01  0.98956157771E+01 -0.44511524585E+01  0.13358954883E+02  0.00000000000E+00 0.  1.
         11    1    1    2    0    0  0.10335653827E+03  0.54747968105E+02  0.19208605201E+03  0.22489323109E+03  0.00000000000E+00 0. -1.
</event>
<event>
 6    1  0.2661133E-009  0.8995507E+02  0.7561462E-02  0.1302961E+00
          2   -1    0    0  501    0  0.00000000000E+00  0.00000000000E+00  0.48537499627E+03  0.48537499627E+03  0.00000000000E+00 0. -1.
         -2   -1    0    0    0  501 -0.00000000000E+00 -0.00000000000E+00 -0.25106939036E+02  0.25106939036E+02  0.00000000000E+00 0.  1.
          5    1    1    2  502    0 -0.48601751594E+02 -0.13626346155E+01  0.20646185452E+03  0.21215078789E+03  0.41800000000E+01 0.  1.
         -5    1    1    2    0  502  0.43730739160E+02  0.16262038468E+02  0.29357013538E+02  0.55282348779E+02  0.41800000000E+01 0.  1.
        -11    1    1    2    0    0 -0.38408879265E+02 -0.14293934291E+02  0.57698715802E+02  0.70772172279E+02  0.00000000000E+00 0.  1.
         11    1    1    2    0    0  0.43279891699E+02 -0.60546956221E+00  0.16675047337E+03  0.17227662636E+03  0.00000000000E+00 0. -1.
</event>
<event>
 7    1  0.2661133E-009  0.1050902E+03  0.7561462E-02  0.1269942E+00
          2   -1    0    0  501    0  0.00000000000E+00  0.00000000000E+00  0.46514616750E+03  0.46514616750E+03  0.00000000000E+00 0. -1.
         -2   -1    0    0    0  501 -0.00000000000E+00 -0.00000000000E+00 -0.44345185963E+02  0.44345185963E+02  0.00000000000E+00 0.  1.
         25    2    1    2    0    0 -0.62000201424E+02  0.47071254133E+02  0.32025951850E+03  0.35252191199E+03  0.12508321752E+03 0.  0.
          5    1    3    3  502    0  0.11289149578E+02  0.17073087353E+02  0.23559205426E+03  0.23651643419E+03  0.41800000000E+01 0. -1.
         -5    1    3    3    0  502 -0.73289351002E+02  0.29998166780E+02  0.84667464236E+02  0.11600547780E+03  0.41800000000E+01 0. -1.
        -11    1    1    2    0    0  0.43988100313E+01  0.20633060568E+02 -0.20827764012E+01  0.21199308376E+02  0.00000000000E+00 0.  1.
         11    1    1    2    0    0  0.57601391393E+02 -0.67704314701E+02  0.10262423943E+03  0.13577013309E+03  0.00000000000E+00 0. -1.
</event>
<event>
 7    1  0.2661133E-009  0.1410689E+03  0.7561462E-02  0.1211898E+00
         -1   -1    0    0    0  501 -0.00000000000E+00  0.00000000000E+00  0.17254126936E+03  0.17254126936E+03  0.00000000000E+00 0.  1.
          1   -1    0    0  501    0  0.00000000000E+00 -0.00000000000E+00 -0.11770997497E+03  0.11770997497E+03  0.00000000000E+00 0. -1.
         25    2    1    2    0    0 -0.40946690371E+02 -0.84113466990E+02  0.40036807128E+02  0.16124944581E+03  0.12508689407E+03 0.  0.
          5    1    3    3  502    0 -0.24119583681E+02  0.31155990683E+02  0.11012325546E+02  0.41124126572E+02  0.41800000000E+01 0.  1.
         -5    1    3    3    0  502 -0.16827106690E+02 -0.11526945767E+03  0.29024481582E+02  0.12012531924E+03  0.41800000000E+01 0.  1.
        -11    1    1    2    0    0  0.66135747278E+02  0.47162786740E+02  0.20879148421E+02  0.83870163705E+02  0.00000000000E+00 0.  1.
         11    1    1    2    0    0 -0.25189056907E+02  0.36950680250E+02 -0.60846611629E+01  0.45131634806E+02  0.00000000000E+00 0. -1.
</event>
<event>
 7    1  0.2661133E-009  0.1838672E+03  0.7561462E-02  0.1164112E+00
         -1   -1    0    0    0  501 -0.00000000000E+00  0.00000000000E+00  0.45097743118E+02  0.45097743118E+02  0.00000000000E+00 0.  1.
          1   -1    0    0  501    0  0.00000000000E+00 -0.00000000000E+00 -0.11864285200E+04  0.11864285200E+04  0.00000000000E+00 0. -1.
         25    2    1    2    0    0 -0.14963715955E+03  0.61125234512E+02 -0.92053352669E+03  0.94295131143E+03  0.12509047988E+03 0.  0.
          5    1    3    3  502    0 -0.11183247083E+03  0.21867391473E+01 -0.75377310999E+03  0.76203848794E+03  0.41800000000E+01 0.  1.
         -5    1    3    3    0  502 -0.37804688718E+02  0.58938495365E+02 -0.16676041670E+03  0.18091282349E+03  0.41800000000E+01 0.  1.
        -11    1    1    2    0    0  0.72481021625E+02  0.18476401804E+02 -0.94671408018E+02  0.12065467838E+03  0.00000000000E+00 0. -1.
         11    1    1    2    0    0  0.77156137927E+02 -0.79601636316E+02 -0.12612584219E+03  0.16792027332E+03  0.00000000000E+00 0.  1.
</event>
<event>
 7    1  0.2661133E-009  0.1088289E+03  0.7561462E-02  0.1262754E+00
          2   -1    0    0  501    0  0.00000000000E+00  0.00000000000E+00  0.60880349342E+02  0.60880349342E+02  0.00000000000E+00 0. -1.
         -2   -1    0    0    0  501 -0.00000000000E+00 -0.00000000000E+00 -0.21345465676E+03  0.21345465676E+03  0.00000000000E+00 0.  1.
         25    2    1    2    0    0 -0.17763228762E+01  0.26454154817E+02 -0.68540033390E+02  0.14511225680E+03  0.12512734819E+03 0.  0.
          5    1    3    3  502    0  0.80348543004E+01 -0.49646992308E+02 -0.34071995659E+02  0.60891345995E+02  0.41800000000E+01 0.  1.
         -5    1    3    3    0  502 -0.98111771766E+01  0.76101147125E+02 -0.34468037731E+02  0.84220910802E+02  0.41800000000E+01 0.  1.
        -11    1    1    2    0    0 -0.47288107033E+01  0.31588550690E+02 -0.55927456143E+02  0.64405578454E+02  0.00000000000E+00 0.  1.
         11    1    1    2    0    0  0.65051335795E+01 -0.58042705507E+02 -0.28106817883E+02  0.64817170850E+02  0.00000000000E+00 0. -1.
</event>
<event>
 7    1  0.2661133E-009  0.7181000E+02  0.7561462E-02  0.1354044E+00
         -1   -1    0    0    0  501 -0.00000000000E+00  0.00000000000E+00  0.38734869292E+02  0.38734869292E+02  0.00000000000E+00 0.  1.
          1   -1    0    0  501    0  0.00000000000E+00 -0.00000000000E+00 -0.32731460074E+03  0.32731460074E+03  0.00000000000E+00 0. -1.
         25    2    1    2    0    0  0.30204089858E+02  0.43417556592E+01 -0.15577223507E+03  0.20209847972E+03  0.12509064073E+03 0.  0.
          5    1    3    3  502    0  0.44297461089E+02  0.41103129275E+02 -0.25114438669E+02  0.65573925647E+02  0.41800000000E+01 0.  1.
         -5    1    3    3    0  502 -0.14093371231E+02 -0.36761373616E+02 -0.13065779640E+03  0.13652455407E+03  0.41800000000E+01 0.  1.
        -11    1    1    2    0    0 -0.14872653141E+02  0.13391068506E+02  0.77433633133E+01  0.21458709248E+02  0.00000000000E+00 0.  1.
         11    1    1    2    0    0 -0.15331436716E+02 -0.17732824166E+02 -0.14055085968E+03  0.14249228106E+03  0.00000000000E+00 0. -1.
</event>
<event>
 7    1  0.2661133E-009  0.1123212E+03  0.7561462E-02  0.1256331E+00
          2   -1    0    0  501    0  0.00000000000E+00  0.00000000000E+00  0.10675885185E+04  0.10675885185E+04  0.00000000000E+00 0.  1.
         -2   -1    0    0    0  501 -0.00000000000E+00 -0.00000000000E+00 -0.17520185601E+02  0.17520185601E+02  0.00000000000E+00 0. -1.
         25    2    1    2    0    0  0.31422907115E+02  0.55094612857E+02  0.78482420122E+03  0.79725806988E+03  0.12509431527E+03 0.  0.
          5    1    3    3  502    0 -0.26888410085E+02 -0.21200077581E+02  0.36233584796E+03  0.36397413232E+03  0.41800000000E+01 0. -1.
         -5    1    3    3    0  502  0.58311317201E+02  0.76294690438E+02  0.42248835326E+03  0.43328393756E+03  0.41800000000E+01 0. -1.
        -11    1    1    2    0    0 -0.46770928833E+02 -0.12002833911E+02  0.57289899785E+02  0.74924765085E+02  0.00000000000E+00 0. -1.
         11    1    1    2    0    0  0.15348021717E+02 -0.43091778946E+02  0.20795423186E+03  0.21292586910E+03  0.00000000000E+00 0.  1.
</event>
<event>
 7    1  0.2661133E-009  0.8634441E+02  0.7561462E-02  0.1311954E+00
          1   -1    0    0  501    0  0.00000000000E+00  0.00000000000E+00  0.52476627763E+02  0.52476627763E+02  0.00000000000E+00 0. -1.
         -1   -1    0    0    0  501 -0.00000000000E+00 -0.00000000000E+00 -0.24708069935E+03  0.24708069935E+03  0.00000000000E+00 0.  1.
         25    2    1    2    0    0  0.59161475361E+01 -0.31441535431E+02 -0.13180467485E+03  0.18450579246E+03  0.12508534761E+03 0.  0.
          5    1    3    3  502    0 -0.31093140124E+02 -0.78040300879E+01 -0.13637765020E+03  0.14015713368E+03  0.41800000000E+01 0. -1.
         -5    1    3    3    0  502  0.37009287660E+02 -0.23637505344E+02  0.45729753468E+01  0.44348658779E+02  0.41800000000E+01 0. -1.
        -11    1    1    2    0    0  0.14745670078E+02  0.59557697223E+02 -0.43121664323E+02  0.74993546513E+02  0.00000000000E+00 0.  1.
         11    1    1    2    0    0 -0.20661817615E+02 -0.28116161792E+02 -0.19677732416E+02  0.40057988143E+02  0.00000000000E+00 0. -1.
</event>
<event>
 7    1  0.2661133E-009  0.8867797E+02  0.7561462E-02  0.1306085E+00
         -2   -1    0    0    0  501 -0.00000000000E+00  0.00000000000E+00  0.33968634795E+02  0.33968634795E+02  0.00000000000E+00 0.  1.
          2   -1    0    0  501    0  0.00000000000E+00 -0.00000000000E+00 -0.41435623185E+03  0.41435623185E+03  0.00000000000E+00 0. -1.
         25    2    1    2    0    0 -0.32585705516E+02 -0.35338680752E+02 -0.20692801748E+03  0.24653131780E+03  0.12509130936E+03 0.  0.
          5    1    3    3  502    0 -0.46829010677E+02  0.26038616100E+02 -0.15726539394E+03  0.16619519338E+03  0.41800000000E+01 0.  1.
         -5    1    3    3    0  502  0.14243305161E+02 -0.61377296852E+02 -0.49662623534E+02  0.80336124421E+02  0.41800000000E+01 0.  1.
        -11    1    1    2    0    0  0.31967383216E+02  0.77815014835E+01 -0.77423334212E+01  0.33799542628E+02  0.00000000000E+00 0.  1.
         11    1    1    2    0    0  0.61832230008E+00  0.27557179268E+02 -0.16571724616E+03  0.16799400622E+03  0.00000000000E+00 0. -1.
</event>
<event>
 7    1  0.2661133E-009  0.1146855E+03  0.7561462E-02  0.1252131E+00
          2   -1    0    0  501    0  0.00000000000E+00  0.00000000000E+00  0.13381633457E+04  0.13381633457E+04  0.00000000000E+00 0. -1.
         -2   -1    0    0    0  501 -0.00000000000E+00 -0.00000000000E+00 -0.14186809415E+02  0.14186809415E+02  0.00000000000E+00 0.  1.
         25    2    1    2    0    0  0.12895976964E+02 -0.81031870525E+02  0.83321176666E+03  0.84653466382E+03  0.12508644488E+03 0.  0.
          5    1    3    3  502    0 -0.31171029874E+02 -0.61781050582E+02  0.72172577966E+03  0.72504765687E+03  0.41800000000E+01 0.  1.
         -5    1    3    3    0  502  0.44067006838E+02 -0.19250819944E+02  0.11148598700E+03  0.12148700695E+03  0.41800000000E+01 0.  1.
        -11    1    1    2    0    0 -0.19143123995E+00  0.93778809836E+02  0.46515735517E+03  0.47451645587E+03  0.00000000000E+00 0.  1.
         11    1    1    2    0    0 -0.12704545724E+02 -0.12746939311E+02  0.25607414497E+02  0.31299035466E+02  0.00000000000E+00 0. -1.
</event>
<event>
 7    1  0.2661133E-009  0.1182315E+03  0.7561462E-02  0.1246043E+00
         -3   -1    0    0    0  501 -0.00000000000E+00  0.00000000000E+00  0.20658331400E+03  0.20658331400E+03  0.00000000000E+00 0.  1.
          3   -1    0    0  501    0  0.00000000000E+00 -0.00000000000E+00 -0.69261156024E+02  0.69261156024E+02  0.00000000000E+00 0. -1.
         25    2    1    2    0    0 -0.51097104107E+02 -0.60619831279E+01  0.93771288417E+02  0.16458470483E+03  0.12508960327E+03 0.  0.
          5    1    3    3  502    0 -0.92799380478E+02 -0.41030708205E+01  0.69756590980E+02  0.11624119146E+03  0.41800000000E+01 0.  1.
         -5    1    3    3    0  502  0.41702276371E+02 -0.19589123074E+01  0.24014697437E+02  0.48343513370E+02  0.41800000000E+01 0.  1.
        -11    1    1    2    0    0 -0.10817740138E+02  0.32459531635E+02  0.79875340246E+01  0.35134675115E+02  0.00000000000E+00 0. -1.
         11    1    1    2    0    0  0.61914844244E+02 -0.26397548507E+02  0.35563335537E+02  0.76125090079E+02  0.00000000000E+00 0.  1.
</event>
<event>
 7    1  0.2661133E-009  0.7382575E+02  0.7561462E-02  0.1347546E+00
         -1   -1    0    0    0  501 -0.00000000000E+00  0.00000000000E+00  0.14180030740E+02  0.14180030740E+02  0.00000000000E+00 0.  1.
          1   -1    0    0  501    0  0.00000000000E+00 -0.00000000000E+00 -0.80266176766E+03  0.80266176766E+03  0.00000000000E+00 0. -1.
         25    2    1    2    0    0 -0.32502570497E+01  0.41875797515E+01 -0.57135042780E+03  0.58490860306E+03  0.12509461453E+03 0.  0.
          5    1    3    3  502    0 -0.42063186485E+02 -0.92187368478E+01 -0.73040612717E+02  0.84892286295E+02  0.41800000000E+01 0.  1.
         -5    1    3    3    0  502  0.38812929435E+02  0.13406316599E+02 -0.49830981509E+03  0.50001631676E+03  0.41800000000E+01 0.  1.
        -11    1    1    2    0    0 -0.89751831448E+01 -0.31731895660E+02 -0.38125857000E+02  0.50408809614E+02  0.00000000000E+00 0.  1.
         11    1    1    2    0    0  0.12225440195E+02  0.27544315909E+02 -0.17900545212E+03  0.18152438573E+03  0.00000000000E+00 0. -1.
</event>
<event>
 7    1  0.2661133E-009  0.9646958E+02  0.7561462E-02  0.1287900E+00
         -1   -1    0    0    0  501 -0.00000000000E+00  0.00000000000E+00  0.59623998868E+02  0.59623998868E+02  0.00000000000E+00 0.  1.
          1   -1    0    0  501    0  0.00000000000E+00 -0.00000000000E+00 -0.35662373168E+03  0.35662373168E+03  0.00000000000E+00 0. -1.
         25    2    1    2    0    0 -0.28954002666E+02 -0.51661973075E+02 -0.26017740597E+03  0.29470016965E+03  0.12509441907E+03 0.  0.
          5    1    3    3  502    0  0.46621614440E+02 -0.21952242562E+02 -0.63557542491E+02  0.81929905980E+02  0.41800000000E+01 0.  1.
         -5    1    3    3    0  502 -0.75575617106E+02 -0.29709730513E+02 -0.19661986348E+03  0.21277026367E+03  0.41800000000E+01 0.  1.
        -11    1    1    2    0    0  0.99102175843E+01  0.27036008800E+02 -0.70217848995E+02  0.75892717055E+02  0.00000000000E+00 0. -1.
         11    1    1    2    0    0  0.19043785082E+02  0.24625964274E+02  0.33395522152E+02  0.45654843844E+02  0.00000000000E+00 0.  1.
</event>
<event>
 7    1  0.2661133E-009  0.1494496E+03  0.7561462E-02  0.1201151E+00
          1   -1    0    0  501    0  0.00000000000E+00  0.00000000000E+00  0.35568656185E+03  0.35568656185E+03  0.00000000000E+00 0. -1.
         -1   -1    0    0    0  501 -0.00000000000E+00 -0.00000000000E+00 -0.67141953081E+02  0.67141953081E+02  0.00000000000E+00 0.  1.
         25    2    1    2    0    0 -0.93208695850E+01  0.10802469282E+03  0.16564454581E+03  0.23418789747E+03  0.12509853275E+03 0.  0.
          5    1    3    3  502    0 -0.51172901610E+02  0.10082351747E+03  0.15179764109E+03  0.18932523280E+03  0.41800000000E+01 0. -1.
         -5    1    3    3    0  502  0.41852032025E+02  0.72011753571E+01  0.13846904722E+02  0.44862664673E+02  0.41800000000E+01 0. -1.
        -11    1    1    2    0    0  0.32816016137E+02 -0.11417415229E+03  0.10342898266E+03  0.15751248338E+03  0.00000000000E+00 0. -1.
         11    1    1    2    0    0 -0.23495146553E+02  0.61494594686E+01  0.19471080294E+02  0.31128134077E+02  0.00000000000E+00 0.  1.
</event>
<event>
 7    1  0.2661133E-009  0.1189286E+03  0.7561462E-02  0.1244875E+00
          1   -1    0    0  501    0  0.00000000000E+00  0.00000000000E+00  0.15363008547E+03  0.15363008547E+03  0.00000000000E+00 0. -1.
         -1   -1    0    0    0  501 -0.00000000000E+00 -0.00000000000E+00 -0.11509226121E+03  0.11509226121E+03  0.00000000000E+00 0.  1.
         25    2    1    2    0    0 -0.41290554406E+02 -0.31568645547E+02  0.80034013253E+02  0.15733983489E+03  0.12509552790E+03 0.  0.
          5    1    3    3  502    0  0.43966326514E+02 -0.12498670106E+00  0.31392947436E+02  0.54185265872E+02  0.41800000000E+01 0. -1.
         -5    1    3    3    0  502 -0.85256880920E+02 -0.31443658846E+02  0.48641065817E+02  0.10315456902E+03  0.41800000000E+01 0. -1.
        -11    1    1    2    0    0 -0.27321805867E+02  0.29742510493E+00 -0.16626291752E+02  0.31984419879E+02  0.00000000000E+00 0.  1.
         11    1    1    2    0    0  0.68612360274E+02  0.31271220442E+02 -0.24869897238E+02  0.79398091910E+02  0.00000000000E+00 0. -1.
</event>
<event>
 7    1  0.2661133E-009  0.1427685E+03  0.7561462E-02  0.1209651E+00
          2   -1    0    0  501    0  0.00000000000E+00  0.00000000000E+00  0.32350742755E+03  0.32350742755E+03  0.00000000000E+00 0. -1.
         -2   -1    0    0    0  501 -0.00000000000E+00 -0.00000000000E+00 -0.82460313727E+02  0.82460313727E+02  0.00000000000E+00 0.  1.
         25    2    1    2    0    0 -0.80116382703E+02 -0.39190342994E+02  0.19890249872E+03  0.25132840914E+03  0.12509695234E+03 0.  0.
          5    1    3    3  502    0  0.22493357485E+01  0.36973011389E+02  0.77370941022E+02  0.85882466180E+02  0.41800000000E+01 0.  1.
         -5    1    3    3    0  502 -0.82365718451E+02 -0.76163354383E+02  0.12153155770E+03  0.16544594296E+03  0.41800000000E+01 0.  1.
        -11    1    1    2    0    0  0.52469616019E+02  0.74519972638E+02 -0.27392545814E+01  0.91179989268E+02  0.00000000000E+00 0.  1.
         11    1    1    2    0    0  0.27646766684E+02 -0.35329629645E+02  0.44883869682E+02  0.63459342863E+02  0.00000000000E+00 0. -1.
</event>
<event>
 7    1  0.2661133E-009  0.8926434E+02  0.7561462E-02  0.1304643E+00
          2   -1    0    0  501    0  0.00000000000E+00  0.00000000000E+00  0.78156044265E+03  0.78156044265E+03  0.00000000000E+00 0. -1.
         -2   -1    0    0    0  501 -0.00000000000E+00 -0.00000000000E+00 -0.34811225594E+02  0.34811225594E+02  0.00000000000E+00 0.  1.
         25    2    1    2    0    0  0.56988782290E+02 -0.60939046951E+02  0.62172465430E+03  0.63964832421E+03  0.12508854520E+03 0.  0.
          5    1    3    3  502    0  0.20650370282E+02 -0.21628570625E+02  0.21597004410E+02  0.37123252276E+02  0.41800000000E+01 0. -1.
         -5    1    3    3    0  502  0.36338412007E+02 -0.39310476326E+02  0.60012764989E+03  0.60252507193E+03  0.41800000000E+01 0. -1.
        -11    1    1    2    0    0 -0.39629714330E+02  0.10070485218E+02  0.11499288289E+03  0.12204627011E+03  0.00000000000E+00 0. -1.
         11    1    1    2    0    0 -0.17359067959E+02  0.50868561732E+02  0.10031679858E+02  0.54677073933E+02  0.00000000000E+00 0.  1.
</event>
<event>
 7    1  0.2661133E-009  0.1839829E+03  0.7561462E-02  0.1164003E+00
         -1   -1    0    0    0  501 -0.00000000000E+00  0.00000000000E+00  0.23679741524E+03  0.23679741524E+03  0.00000000000E+00 0.  1.
          1   -1    0    0  501    0  0.00000000000E+00 -0.00000000000E+00 -0.16880039798E+03  0.16880039798E+03  0.00000000000E+00 0. -1.
         25    2    1    2    0    0 -0.62664151588E+02  0.15436428879E+03  0.54917588146E+02  0.21545349450E+03  0.12509651177E+03 0.  0.
          5    1    3    3  502    0 -0.89927146244E+02  0.12769284354E+03  0.73685928003E+02  0.17274096882E+03  0.41800000000E+01 0.  1.
         -5    1    3    3    0  502  0.27262994656E+02  0.26671445249E+02 -0.18768339856E+02  0.42712525683E+02  0.41800000000E+01 0.  1.
        -11    1    1    2    0    0  0.70584506587E+02 -0.14345993007E+03 -0.13387451701E+02  0.16044359747E+03  0.00000000000E+00 0. -1.
         11    1    1    2    0    0 -0.79203549990E+01 -0.10904358713E+02  0.26466880823E+02  0.29700721250E+02  0.00000000000E+00 0.  1.
</event>
<event>
 7    1  0.2661133E-009  0.8975388E+02  0.7561462E-02  0.1303449E+00
          3   -1    0    0  501    0  0.00000000000E+00  0.00000000000E+00  0.24279018720E+03  0.24279018720E+03  0.00000000000E+00 0. -1.
         -3   -1    0    0    0  501 -0.00000000000E+00 -0.00000000000E+00 -0.89802692899E+02  0.89802692899E+02  0.00000000000E+00 0.  1.
         25    2    1    2    0    0 -0.42698729167E+02  0.40158440602E+02  0.15741384465E+03  0.20943436828E+03  0.12509098412E+03 0.  0.
          5    1    3    3  502    0 -0.69431619063E+01 -0.11041298455E+02  0.14497631075E+03  0.14562184194E+03  0.41800000000E+01 0. -1.
         -5    1    3    3    0  502 -0.35755567260E+02  0.51199739058E+02  0.12437533893E+02  0.63812526349E+02  0.41800000000E+01 0. -1.
        -11    1    1    2    0    0 -0.25677637135E+01  0.24312290844E+02  0.28700449114E+02  0.37701414774E+02  0.00000000000E+00 0. -1.
         11    1    1    2    0    0  0.45266492880E+02 -0.64470731447E+02 -0.33126799465E+02  0.85457097036E+02  0.00000000000E+00 0.  1.
</event>
<event>
 7    1  0.2661133E-009  0.1279162E+03  0.7561462E-02  0.1230581E+00
         -2   -1    0    0    0  501 -0.00000000000E+00  0.00000000000E+00  0.30530947855E+03  0.30530947855E+03  0.00000000000E+00 0.  1.
          2   -1    0    0  501    0  0.00000000000E+00 -0.00000000000E+00 -0.61031395362E+02  0.61031395362E+02  0.00000000000E+00 0. -1.
         25    2    1    2    0    0  0.36634128282E+02  0.71752821923E+02  0.15773427871E+03  0.21683627865E+03  0.12508933707E+03 0.  0.
          5    1    3    3  502    0 -0.10845401651E+02 -0.27119305017E+02  0.69143769340E+01  0.30304462542E+02  0.41800000000E+01 0. -1.
         -5    1    3    3    0  502  0.47479529932E+02  0.98872126940E+02  0.15081990178E+03  0.18653181611E+03  0.41800000000E+01 0. -1.
        -11    1    1    2    0    0  0.36052824821E+00 -0.78888910072E+02  0.36661124588E+02  0.86992115557E+02  0.00000000000E+00 0. -1.
         11    1    1    2    0    0 -0.36994656530E+02  0.71360881495E+01  0.49882679884E+02  0.62512479700E+02  0.00000000000E+00 0.  1.
</event>
<event>
 6    1  0.2661133E-009  0.2996014E+03  0.7561462E-02  0.1085440E+00
         -2   -1    0    0    0  501 -0.00000000000E+00  0.00000000000E+00  0.19654495808E+03  0.19654495808E+03  0.00000000000E+00 0.  1.
          2   -1    0    0  501    0  0.00000000000E+00 -0.00000000000E+00 -0.77845709753E+03  0.77845709753E+03  0.00000000000E+00 0. -1.
          5    1    1    2  502    0  0.12285842061E+02  0.30841632436E+01  0.53584233891E+01  0.14374946235E+02  0.41800000000E+01 0. -1.
         -5    1    1    2    0  502 -0.29367032617E+03 -0.10967510060E+02  0.99811346137E+01  0.29407421206E+03  0.41800000000E+01 0. -1.
        -11    1    1    2    0    0  0.49772209462E+02  0.31880380637E+02 -0.81539187039E+02  0.10070884036E+03  0.00000000000E+00 0.  1.
         11    1    1    2    0    0  0.23161227465E+03 -0.23997033820E+02 -0.51571251041E+03  0.56584405696E+03  0.00000000000E+00 0. -1.
</event>
<event>
 7    1  0.2661133E-009  0.2062652E+03  0.7561462E-02  0.1144558E+00
         -2   -1    0    0    0  501 -0.00000000000E+00  0.00000000000E+00  0.14218434495E+03  0.14218434495E+03  0.00000000000E+00 0.  1.
          2   -1    0    0  501    0  0.00000000000E+00 -0.00000000000E+00 -0.38480881171E+03  0.38480881171E+03  0.00000000000E+00 0. -1.
         25    2    1    2    0    0  0.11398964913E+03  0.14300804119E+03 -0.23340862303E+03  0.32182526080E+03  0.12508786204E+03 0.  0.
          5    1    3    3  502    0 -0.21557559323E+02 -0.18216287420E+01 -0.34069923670E+02  0.40574361291E+02  0.41800000000E+01 0.  1.
         -5    1    3    3    0  502  0.13554720846E+03  0.14482966993E+03 -0.19933869936E+03  0.28125089951E+03  0.41800000000E+01 0.  1.
        -11    1    1    2    0    0 -0.16226651192E+02 -0.65059593201E+02  0.30935767541E+02  0.73844949656E+02  0.00000000000E+00 0.  1.
         11    1    1    2    0    0 -0.97762997941E+02 -0.77948447987E+02 -0.40151611270E+02  0.13132294620E+03  0.00000000000E+00 0. -1.
</event>
<event>
 7    1  0.2661133E-009  0.9017180E+02  0.7561462E-02  0.1302436E+00
          4   -1    0    0  501    0  0.00000000000E+00  0.00000000000E+00  0.17976538008E+03  0.17976538008E+03  0.00000000000E+00 0. -1.
         -4   -1    0    0    0  501 -0.00000000000E+00 -0.00000000000E+00 -0.92599778208E+02  0.92599778208E+02  0.00000000000E+00 0.  1.
         25    2    1    2    0    0 -0.31481256101E+02 -0.61830508097E+02  0.54757843769E+02  0.15316517893E+03  0.12508824632E+03 0.  0.
          5    1    3    3  502    0 -0.24834571428E+02 -0.23613956001E+02  0.92591808946E+02  0.98818471653E+02  0.41800000000E+01 0.  1.
         -5    1    3    3    0  502 -0.66466846729E+01 -0.38216552096E+02 -0.37833965177E+02  0.54346707281E+02  0.41800000000E+01 0.  1.
        -11    1    1    2    0    0 -0.25923521685E+02  0.57491657197E+01  0.28352747762E+02  0.38845336769E+02  0.00000000000E+00 0. -1.
         11    1    1    2    0    0  0.57404777786E+02  0.56081342378E+02  0.40550103370E+01  0.80354642581E+02  0.00000000000E+00 0.  1.
</event>
<event>
 7    1  0.2661133E-009  0.1109742E+03  0.7561462E-02  0.1258776E+00
         -2   -1    0    0    0  501 -0.00000000000E+00  0.00000000000E+00  0.29339211680E+03  0.29339211680E+03  0.00000000000E+00 0.  1.
          2   -1    0    0  501    0  0.00000000000E+00 -0.00000000000E+00 -0.65508121971E+02  0.65508121971E+02  0.00000000000E+00 0. -1.
         25    2    1    2    0    0 -0.76042571000E+02  0.10140865309E+02  0.14158301778E+03  0.20390205423E+03  0.12507992263E+03 0.  0.
          5    1    3    3  502    0 -0.13236717522E+01 -0.33427516069E+02 -0.45696430542E+01  0.34022124788E+02  0.41800000000E+01 0. -1.
         -5    1    3    3    0  502 -0.74718899248E+02  0.43568381379E+02  0.14615266083E+03  0.16987992945E+03  0.41800000000E+01 0. -1.
        -11    1    1    2    0    0  0.28669814945E+02  0.28560832274E+02  0.84624985339E+02  0.93803345211E+02  0.00000000000E+00 0.  1.
         11    1    1    2    0    0  0.47372756055E+02 -0.38701697583E+02  0.16759917166E+01  0.61194839328E+02  0.00000000000E+00 0. -1.
</event>
<event>
 7    1  0.2661133E-009  0.1542841E+03  0.7561462E-02  0.1195305E+00
         -2   -1    0    0    0  501 -0.00000000000E+00  0.00000000000E+00  0.14667566850E+03  0.14667566850E+03  0.00000000000E+00 0.  1.
          2   -1    0    0  501    0  0.00000000000E+00 -0.00000000000E+00 -0.49746471952E+03  0.49746471952E+03  0.00000000000E+00 0. -1.
         25    2    1    2    0    0  0.15515998190E+02 -0.13902773753E+03 -0.42190023146E+03  0.46174953257E+03  0.12507344852E+03 0.  0.
          5    1    3    3  502    0  0.52136142634E+02 -0.93202533852E+02 -0.15388280562E+03  0.18735602460E+03  0.41800000000E+01 0.  1.
         -5    1    3    3    0  502 -0.36620144444E+02 -0.45825203683E+02 -0.26801742583E+03  0.27439350798E+03  0.41800000000E+01 0.  1.
        -11    1    1    2    0    0  0.59011448586E+01  0.77709035922E+02  0.85684498942E+02  0.11582465685E+03  0.00000000000E+00 0.  1.
         11    1    1    2    0    0 -0.21417143048E+02  0.61318701612E+02 -0.14573318502E+02  0.66566198599E+02  0.00000000000E+00 0. -1.
</event>
<event>
 7    1  0.2661133E-009  0.1244342E+03  0.7561462E-02  0.1235956E+00
          1   -1    0    0  501    0  0.00000000000E+00  0.00000000000E+00  0.74513553666E+03  0.74513553666E+03  0.00000000000E+00 0. -1.
         -1   -1    0    0    0  501 -0.00000000000E+00 -0.00000000000E+00 -0.30264006005E+02  0.30264006005E+02  0.00000000000E+00 0.  1.
         25    2    1    2    0    0  0.79902507687E+02 -0.17780067745E+02  0.54090774053E+03  0.56118362084E+03  0.12508129753E+03 0.  0.
          5    1    3    3  502    0  0.13168388578E+02 -0.58642950155E+02  0.34435341575E+03  0.34958425222E+03  0.41800000000E+01 0.  1.
         -5    1    3    3    0  502  0.66734119109E+02  0.40862882410E+02  0.19655432479E+03  0.21159936863E+03  0.41800000000E+01 0.  1.
        -11    1    1    2    0    0 -0.33120395040E+02 -0.29056110690E+02  0.23728154812E+02  0.50042416676E+02  0.00000000000E+00 0.  1.
         11    1    1    2    0    0 -0.46782112647E+02  0.46836178435E+02  0.15023563531E+03  0.16417350515E+03  0.00000000000E+00 0. -1.
</event>
<event>
 7    1  0.2661133E-009  0.9605557E+02  0.7561462E-02  0.1288816E+00
         -1   -1    0    0    0  501 -0.00000000000E+00  0.00000000000E+00  0.40976640130E+02  0.40976640130E+02  0.00000000000E+00 0.  1.
          1   -1    0    0  501    0  0.00000000000E+00 -0.00000000000E+00 -0.28570975433E+03  0.28570975433E+03  0.00000000000E+00 0. -1.
         25    2    1    2    0    0 -0.11349275447E+02  0.26674492121E+01 -0.17329780619E+03  0.21405230163E+03  0.12510130641E+03 0.  0.
          5    1    3    3  502    0 -0.62421143433E+02  0.10248006423E+01 -0.13881826409E+03  0.15226763349E+03  0.41800000000E+01 0.  1.
         -5    1    3    3    0  502  0.51071867986E+02  0.16426485698E+01 -0.34479542107E+02  0.61784668146E+02  0.41800000000E+01 0.  1.
        -11    1    1    2    0    0 -0.15005350789E+02 -0.34098928742E+02 -0.58990497148E+02  0.69769450674E+02  0.00000000000E+00 0. -1.
         11    1    1    2    0    0  0.26354626236E+02  0.31431479530E+02 -0.12444810857E+02  0.42864642151E+02  0.00000000000E+00 0.  1.
</event>
<event>
 7    1  0.2661133E-009  0.8867404E+02  0.7561462E-02  0.1306095E+00
         -2   -1    0    0    0  501 -0.00000000000E+00  0.00000000000E+00  0.64419216867E+02  0.64419216867E+02  0.00000000000E+00 0.  1.
          2   -1    0    0  501    0  0.00000000000E+00 -0.00000000000E+00 -0.15486704355E+03  0.15486704355E+03  0.00000000000E+00 0. -1.
         25    2    1    2    0    0 -0.16088465917E+02 -0.30424179641E+02 -0.10137680534E+03  0.16464943555E+03  0.12509080911E+03 0.  0.
          5    1    3    3  502    0 -0.51324747900E+02 -0.59383956821E+02 -0.85585450763E+02  0.11620252087E+03  0.41800000000E+01 0. -1.
         -5    1    3    3    0  502  0.35236281982E+02  0.28959777180E+02 -0.15791354574E+02  0.48446914675E+02  0.41800000000E+01 0. -1.
        -11    1    1    2    0    0  0.82429809542E+01  0.39843421270E+02  0.11752671237E+02  0.42350563571E+02  0.00000000000E+00 0.  1.
         11    1    1    2    0    0  0.78454849632E+01 -0.94192416295E+01 -0.82369258164E+00  0.12286261297E+02  0.00000000000E+00 0. -1.
</event>
<event>
 7    1  0.2661133E-009  0.2275376E+03  0.7561462E-02  0.1128385E+00
         -2   -1    0    0    0  501 -0.00000000000E+00  0.00000000000E+00  0.28146062947E+03  0.28146062947E+03  0.00000000000E+00 0.  1.
          2   -1    0    0  501    0  0.00000000000E+00 -0.00000000000E+00 -0.32510549481E+03  0.32510549481E+03  0.00000000000E+00 0. -1.
         25    2    1    2    0    0 -0.21823588420E+03  0.49389802061E+02  0.14967115997E+03  0.29684146626E+03  0.12508855369E+03 0.  0.
          5    1    3    3  502    0 -0.13717017702E+03  0.35841899810E+02  0.16009440565E+03  0.21388779855E+03  0.41800000000E+01 0.  1.
         -5    1    3    3    0  502 -0.81065707178E+02  0.13547902251E+02 -0.10423245688E+02  0.82953667709E+02  0.41800000000E+01 0.  1.
        -11    1    1    2    0    0  0.12793844924E+03 -0.57530475013E+02 -0.16084328090E+03  0.21342109399E+03  0.00000000000E+00 0.  1.
         11    1    1    2    0    0  0.90297434957E+02  0.81406729522E+01 -0.32472744404E+02  0.96303564030E+02  0.00000000000E+00 0. -1.
</event>
<event>
 6    1  0.2661133E-009  0.1803362E+03  0.7561462E-02  0.1167478E+00
          2   -1    0    0  501    0  0.00000000000E+00  0.00000000000E+00  0.18258449091E+03  0.18258449091E+03  0.00000000000E+00 0. -1.
         -2   -1    0    0    0  501 -0.00000000000E+00 -0.00000000000E+00 -0.21425429607E+03  0.21425429607E+03  0.00000000000E+00 0.  1.
          5    1    1    2  502    0 -0.76983020942E+01  0.47291842230E+01  0.27539159178E+02  0.29283215786E+02  0.41800000000E+01 0.  1.
         -5    1    1    2    0  502  0.14232097481E+03  0.96523741277E+02 -0.64493953001E+02  0.18370910395E+03  0.41800000000E+01 0.  1.
        -11    1    1    2    0    0 -0.64737256016E+02 -0.12831445739E+02  0.22726875827E+02  0.69800209177E+02  0.00000000000E+00 0. -1.
         11    1    1    2    0    0 -0.69885416700E+02 -0.88421479761E+02 -0.17441887157E+02  0.11404625806E+03  0.00000000000E+00 0.  1.
</event>
<event>
 7    1  0.2661133E-009  0.8836409E+02  0.7561462E-02  0.1306862E+00
         -2   -1    0    0    0  501 -0.00000000000E+00  0.00000000000E+00  0.96157308617E+02  0.96157308617E+02  0.00000000000E+00 0. -1.
          2   -1    0    0  501    0  0.00000000000E+00 -0.00000000000E+00 -0.17868036271E+03  0.17868036271E+03  0.00000000000E+00 0.  1.
         25    2    1    2    0    0 -0.54680367332E+02 -0.33696496759E+02 -0.43103057796E+02  0.14707327383E+03  0.12508907953E+03 0.  0.
          5    1    3    3  502    0 -0.97925930649E+01  0.19012964265E+02  0.35867606538E+02  0.41968384385E+02  0.41800000000E+01 0. -1.
         -5    1    3    3    0  502 -0.44887774267E+02 -0.52709461024E+02 -0.78970664334E+02  0.10510488945E+03  0.41800000000E+01 0. -1.
        -11    1    1    2    0    0  0.92146491485E+01  0.38751509028E+02 -0.64339602981E+02  0.75671485532E+02  0.00000000000E+00 0.  1.
         11    1    1    2    0    0  0.45465718183E+02 -0.50550122689E+01  0.24919606688E+02  0.52092911960E+02  0.00000000000E+00 0. -1.
</event>
<event>
 7    1  0.2661133E-009  0.1263305E+03  0.7561462E-02  0.1233004E+00
          2   -1    0    0  501    0  0.00000000000E+00  0.00000000000E+00  0.50728413524E+03  0.50728413524E+03  0.00000000000E+00 0.  1.
         -2   -1    0    0    0  501 -0.00000000000E+00 -0.00000000000E+00 -0.32067497050E+02  0.32067497050E+02  0.00000000000E+00 0. -1.
         25    2    1    2    0    0  0.49730805936E+02  0.40725274119E+02  0.29901136435E+03  0.33043373709E+03  0.12508779951E+03 0.  0.
          5    1    3    3  502    0 -0.27659199673E+02  0.55033436208E+02  0.12551771021E+03  0.13987808407E+03  0.41800000000E+01 0. -1.
         -5    1    3    3    0  502  0.77390005608E+02 -0.14308162089E+02  0.17349365414E+03  0.19055565302E+03  0.41800000000E+01 0. -1.
        -11    1    1    2    0    0 -0.38553817131E+02  0.24669364798E+02  0.67056856991E+02  0.81188647264E+02  0.00000000000E+00 0. -1.
         11    1    1    2    0    0 -0.11176988805E+02 -0.65394638917E+02  0.10914841685E+03  0.12772924794E+03  0.00000000000E+00 0.  1.
</event>
<event>
 7    1  0.2661133E-009  0.2905065E+03  0.7561462E-02  0.1090085E+00
         -2   -1    0    0    0  501 -0.00000000000E+00  0.00000000000E+00  0.16960949030E+03  0.16960949030E+03  0.00000000000E+00 0.  1.
          2   -1    0    0  501    0  0.00000000000E+00 -0.00000000000E+00 -0.53098859430E+03  0.53098859430E+03  0.00000000000E+00 0. -1.
         25    2    1    2    0    0  0.33434228662E+01 -0.27709351912E+03 -0.20312298562E+03  0.36564573852E+03  0.12508342015E+03 0.  0.
          5    1    3    3  502    0 -0.54626474809E+02 -0.19989317172E+03 -0.13336673815E+03  0.24646600394E+03  0.41800000000E+01 0. -1.
         -5    1    3    3    0  502  0.57969897675E+02 -0.77200347400E+02 -0.69756247469E+02  0.11917973459E+03  0.41800000000E+01 0. -1.
        -11    1    1    2    0    0 -0.89770166189E+00  0.11144964949E+03 -0.87397459907E+01  0.11179540867E+03  0.00000000000E+00 0.  1.
         11    1    1    2    0    0 -0.24457212043E+01  0.16564386963E+03 -0.14951637239E+03  0.22315693740E+03  0.00000000000E+00 0. -1.
</event>
<event>
 7    1  0.2661133E-009  0.1837940E+03  0.7561462E-02  0.1164181E+00
          2   -1    0    0  501    0  0.00000000000E+00  0.00000000000E+00  0.10448837691E+04  0.10448837691E+04  0.00000000000E+00 0. -1.
         -2   -1    0    0    0  501 -0.00000000000E+00 -0.00000000000E+00 -0.37589901114E+02  0.37589901114E+02  0.00000000000E+00 0.  1.
         25    2    1    2    0    0  0.88067841148E+02  0.14026071292E+03  0.52466470805E+03  0.56422571333E+03  0.12509431431E+03 0.  0.
          5    1    3    3  502    0 -0.10037116826E+02  0.32064964646E+02  0.21106170379E+02  0.39897976139E+02  0.41800000000E+01 0.  1.
         -5    1    3    3    0  502  0.98104957974E+02  0.10819574828E+03  0.50355853767E+03  0.52432773719E+03  0.41800000000E+01 0.  1.
        -11    1    1    2    0    0 -0.93733060839E+02 -0.69640569030E+02  0.32785068620E+03  0.34802552778E+03  0.00000000000E+00 0. -1.
         11    1    1    2    0    0  0.56652196910E+01 -0.70620143891E+02  0.15477847375E+03  0.17022242912E+03  0.00000000000E+00 0.  1.
</event>
<event>
 7    1  0.2661133E-009  0.1629539E+03  0.7561462E-02  0.1185402E+00
          1   -1    0    0  501    0  0.00000000000E+00  0.00000000000E+00  0.11914581941E+04  0.11914581941E+04  0.00000000000E+00 0. -1.
         -1   -1    0    0    0  501 -0.00000000000E+00 -0.00000000000E+00 -0.44108101703E+02  0.44108101703E+02  0.00000000000E+00 0.  1.
         25    2    1    2    0    0 -0.22991431863E+01 -0.15380344069E+03  0.94505994051E+03  0.96563235506E+03  0.12508704789E+03 0.  0.
          5    1    3    3  502    0  0.87412439176E+01  0.54987886257E+01  0.32935642307E+03  0.32954479489E+03  0.41800000000E+01 0.  1.
         -5    1    3    3    0  502 -0.11040387104E+02 -0.15930222932E+03  0.61570351745E+03  0.63608756018E+03  0.41800000000E+01 0.  1.
        -11    1    1    2    0    0  0.10864663781E+02  0.82794044906E+02  0.40016910939E+02  0.92597235121E+02  0.00000000000E+00 0.  1.
         11    1    1    2    0    0 -0.85655205948E+01  0.71009395788E+02  0.16227324095E+03  0.17733670562E+03  0.00000000000E+00 0. -1.
</event>
<event>
 7    1  0.2661133E-009  0.1057455E+03  0.7561462E-02  0.1268658E+00
         -1   -1    0    0    0  501 -0.00000000000E+00  0.00000000000E+00  0.50220264386E+02  0.50220264386E+02  0.00000000000E+00 0.  1.
          1   -1    0    0  501    0  0.00000000000E+00 -0.00000000000E+00 -0.25050477567E+03  0.25050477567E+03  0.00000000000E+00 0. -1.
         25    2    1    2    0    0  0.25506390168E+02  0.10510607374E+02 -0.14341961828E+03  0.19229718113E+03  0.12509184689E+03 0.  0.
          5    1    3    3  502    0 -0.18024449425E+02 -0.46546932788E+02 -0.89023935209E+02  0.10214808451E+03  0.41800000000E+01 0.  1.
         -5    1    3    3    0  502  0.43530839593E+02  0.57057540162E+02 -0.54395683066E+02  0.90149096619E+02  0.41800000000E+01 0.  1.
        -11    1    1    2    0    0 -0.55864797288E+02  0.37119531522E+01 -0.48008951258E+02  0.73753058059E+02  0.00000000000E+00 0.  1.
         11    1    1    2    0    0  0.30358407120E+02 -0.14222560526E+02 -0.88559417471E+01  0.34674800865E+02  0.00000000000E+00 0. -1.
</event>
<event>
 7    1  0.2661133E-009  0.1189232E+03  0.7561462E-02  0.1244884E+00
         -2   -1    0    0    0  501 -0.00000000000E+00  0.00000000000E+00  0.28879274195E+02  0.28879274195E+02  0.00000000000E+00 0.  1.
          2   -1    0    0  501    0  0.00000000000E+00 -0.00000000000E+00 -0.66974120947E+03  0.66974120947E+03  0.00000000000E+00 0. -1.
         25    2    1    2    0    0  0.84040716662E+02  0.12355833859E+02 -0.41062421212E+03  0.43757783830E+03  0.12508641935E+03 0.  0.
          5    1    3    3  502    0  0.96908688419E+02  0.20810834688E+02 -0.40976187820E+03  0.42160011143E+03  0.41800000000E+01 0.  1.
         -5    1    3    3    0  502 -0.12867971758E+02 -0.84550008294E+01 -0.86233392069E+00  0.15977726871E+02  0.41800000000E+01 0.  1.
        -11    1    1    2    0    0 -0.19579552888E+02  0.36757218904E+02 -0.69252706327E+02  0.80810824562E+02  0.00000000000E+00 0. -1.
         11    1    1    2    0    0 -0.64461163774E+02 -0.49113052763E+02 -0.16098501683E+03  0.18023182080E+03  0.00000000000E+00 0.  1.
</event>
<event>
 7    1  0.2661133E-009  0.1146481E+03  0.7561462E-02  0.1252197E+00
          2   -1    0    0  501    0  0.00000000000E+00  0.00000000000E+00  0.76664901931E+03  0.76664901931E+03  0.00000000000E+00 0. -1.
         -2   -1    0    0    0  501 -0.00000000000E+00 -0.00000000000E+00 -0.21364698505E+02  0.21364698505E+02  0.00000000000E+00 0.  1.
         25    2    1    2    0    0  0.32994855935E+02 -0.40533934170E+02  0.56446300950E+03  0.58051469954E+03  0.12508863640E+03 0.  0.
          5    1    3    3  502    0  0.78001732912E+02 -0.44722131317E+02  0.36151268059E+03  0.37254963427E+03  0.41800000000E+01 0.  1.
         -5    1    3    3    0  502 -0.45006876977E+02  0.41881971470E+01  0.20295032891E+03  0.20796506527E+03  0.41800000000E+01 0.  1.
        -11    1    1    2    0    0 -0.57702012794E+02  0.37920382556E+02  0.90553870040E+02  0.11387484829E+03  0.00000000000E+00 0.  1.
         11    1    1    2    0    0  0.24707156858E+02  0.26135516136E+01  0.90267441269E+02  0.93624169985E+02  0.00000000000E+00 0. -1.
</event>
<event>
 7    1  0.2661133E-009  0.1197034E+03  0.7561462E-02  0.1243587E+00
          1   -1    0    0  501    0  0.00000000000E+00  0.00000000000E+00  0.77091347361E+03  0.77091347361E+03  0.00000000000E+00 0. -1.
         -1   -1    0    0    0  501 -0.00000000000E+00 -0.00000000000E+00 -0.32896151620E+02  0.32896151620E+02  0.00000000000E+00 0.  1.
         25    2    1    2    0    0  0.22739059590E+02  0.63293230551E+02  0.63545097561E+03  0.65112834355E+03  0.12508828683E+03 0.  0.
          5    1    3    3  502    0 -0.44804993926E+02 -0.55688309556E+01  0.21627492422E+03  0.22097695492E+03  0.41800000000E+01 0.  1.
         -5    1    3    3    0  502  0.67544053516E+02  0.68862061507E+02  0.41917605139E+03  0.43015138863E+03  0.41800000000E+01 0.  1.
        -11    1    1    2    0    0  0.19618723356E+02 -0.49048105598E+02  0.15892885655E+02  0.55165159143E+02  0.00000000000E+00 0.  1.
         11    1    1    2    0    0 -0.42357782946E+02 -0.14245124953E+02  0.86673460723E+02  0.97516122538E+02  0.00000000000E+00 0. -1.
</event>
<event>
 7    1  0.2661133E-009  0.1079613E+03  0.7561462E-02  0.1264392E+00
          2   -1    0    0  501    0  0.00000000000E+00  0.00000000000E+00  0.53856786058E+03  0.53856786058E+03  0.00000000000E+00 0. -1.
         -2   -1    0    0    0  501 -0.00000000000E+00 -0.00000000000E+00 -0.35032773563E+02  0.35032773563E+02  0.00000000000E+00 0.  1.
         25    2    1    2    0    0  0.12665489665E+02  0.70996579793E+02  0.26638451271E+03  0.30299892679E+03  0.12508681807E+03 0.  0.
          5    1    3    3  502    0  0.29278813452E+02  0.62590266049E+02  0.49082835899E+02  0.84860989277E+02  0.41800000000E+01 0.  1.
         -5    1    3    3    0  502 -0.16613323786E+02  0.84063137442E+01  0.21730167681E+03  0.21813793751E+03  0.41800000000E+01 0.  1.
        -11    1    1    2    0    0  0.45469709645E+02 -0.44858403996E+02  0.14615169296E+03  0.15949949298E+03  0.00000000000E+00 0.  1.
         11    1    1    2    0    0 -0.58135199310E+02 -0.26138175797E+02  0.90998881344E+02  0.11110221437E+03  0.00000000000E+00 0. -1.
</event>
<event>
 7    1  0.2661133E-009  0.1006742E+03  0.7561462E-02  0.1278885E+00
          1   -1    0    0  501    0  0.00000000000E+00  0.00000000000E+00  0.89840074660E+02  0.89840074660E+02  0.00000000000E+00 0. -1.
         -1   -1    0    0    0  501 -0.00000000000E+00 -0.00000000000E+00 -0.16983471850E+03  0.16983471850E+03  0.00000000000E+00 0.  1.
         25    2    1    2    0    0 -0.32237770422E+02  0.18677268200E+02 -0.90158209131E+02  0.15862150874E+03  0.12507664120E+03 0.  0.
          5    1    3    3  502    0 -0.32030036796E+02  0.55265771904E+02 -0.30929683581E+01  0.64087968095E+02  0.41800000000E+01 0. -1.
         -5    1    3    3    0  502 -0.20773362628E+00 -0.36588503704E+02 -0.87065240773E+02  0.94533540648E+02  0.41800000000E+01 0. -1.
        -11    1    1    2    0    0 -0.32733729753E+02 -0.13237801567E+02  0.23370544186E+01  0.35386413738E+02  0.00000000000E+00 0.  1.
         11    1    1    2    0    0  0.64971500175E+02 -0.54394666325E+01  0.78265108731E+01  0.65666870679E+02  0.00000000000E+00 0. -1.
</event>
<event>
 7    1  0.2661133E-009  0.1297130E+03  0.7561462E-02  0.1227882E+00
          2   -1    0    0  501    0  0.00000000000E+00  0.00000000000E+00  0.11978314737E+04  0.11978314737E+04  0.00000000000E+00 0. -1.
         -2   -1    0    0    0  501 -0.00000000000E+00 -0.00000000000E+00 -0.27740781195E+02  0.27740781195E+02  0.00000000000E+00 0.  1.
         25    2    1    2    0    0 -0.11194294197E+03 -0.28121578065E+02  0.91979708807E+03  0.93541231575E+03  0.12508985503E+03 0.  0.
          5    1    3    3  502    0 -0.19709491026E+02 -0.34344121587E+02  0.62872262405E+03  0.62998221650E+03  0.41800000000E+01 0.  1.
         -5    1    3    3    0  502 -0.92233450941E+02  0.62225435225E+01  0.29107446402E+03  0.30543009925E+03  0.41800000000E+01 0.  1.
        -11    1    1    2    0    0  0.18337524503E+02  0.27993665715E+02  0.14510079359E+02  0.36475368786E+02  0.00000000000E+00 0.  1.
         11    1    1    2    0    0  0.93605417464E+02  0.12791234960E+00  0.23578352511E+03  0.25368457039E+03  0.00000000000E+00 0. -1.
</event>
<event>
 7    1  0.2661133E-009  0.8212213E+02  0.7561462E-02  0.1323135E+00
         -1   -1    0    0    0  501 -0.00000000000E+00  0.00000000000E+00  0.95764779581E+02  0.95764779581E+02  0.00000000000E+00 0.  1.
          1   -1    0    0  501    0  0.00000000000E+00 -0.00000000000E+00 -0.17506584779E+03  0.17506584779E+03  0.00000000000E+00 0. -1.
         25    2    1    2    0    0 -0.32132285291E+02 -0.84018409324E+01 -0.10976125128E+03  0.16970274973E+03  0.12509363010E+03 0.  0.
          5    1    3    3  502    0  0.21127190748E+01 -0.28002025741E+02 -0.12425726519E+03  0.12745947348E+03  0.41800000000E+01 0.  1.
         -5    1    3    3    0  502 -0.34245004366E+02  0.19600184809E+02  0.14496013909E+02  0.42243276243E+02  0.41800000000E+01 0.  1.
        -11    1    1    2    0    0  0.51219277994E+02 -0.25540587167E+02  0.14493624014E+02  0.59040673845E+02  0.00000000000E+00 0.  1.
         11    1    1    2    0    0 -0.19086992703E+02  0.33942428099E+02  0.15966559058E+02  0.42087203802E+02  0.00000000000E+00 0. -1.
</event>
<event>
 7    1  0.2661133E-009  0.9618249E+02  0.7561462E-02  0.1288535E+00
         -2   -1    0    0    0  501 -0.00000000000E+00  0.00000000000E+00  0.70630557835E+02  0.70630557835E+02  0.00000000000E+00 0.  1.
          2   -1    0    0  501    0  0.00000000000E+00 -0.00000000000E+00 -0.23424753635E+03  0.23424753635E+03  0.00000000000E+00 0. -1.
         25    2    1    2    0    0  0.51908362571E+02 -0.45015210418E+02 -0.77518849404E+02  0.16241004832E+03  0.12508798707E+03 0.  0.
          5    1    3    3  502    0  0.47879059681E+02 -0.84574790595E+01 -0.10534674923E+03  0.11610057399E+03  0.41800000000E+01 0. -1.
         -5    1    3    3    0  502  0.40293028900E+01 -0.36557731359E+02  0.27827899829E+02  0.46309474330E+02  0.41800000000E+01 0. -1.
        -11    1    1    2    0    0 -0.48999616404E+02  0.67759432282E+02 -0.43901363422E+02  0.94443807532E+02  0.00000000000E+00 0.  1.
         11    1    1    2    0    0 -0.29087461673E+01 -0.22744221864E+02 -0.42196765693E+02  0.48024238333E+02  0.00000000000E+00 0. -1.
</event>
<event>
 7    1  0.2661133E-009  0.7626657E+02  0.7561462E-02  0.1339993E+00
         -1   -1    0    0    0  501 -0.00000000000E+00  0.00000000000E+00  0.34199753130E+02  0.34199753130E+02  0.00000000000E+00 0.  1.
          1   -1    0    0  501    0  0.00000000000E+00 -0.00000000000E+00 -0.35920064816E+03  0.35920064816E+03  0.00000000000E+00 0. -1.
         25    2    1    2    0    0 -0.95271796761E+01  0.93582059263E+01 -0.14496143643E+03  0.19193644554E+03  0.12508971942E+03 0.  0.
          5    1    3    3  502    0  0.34657699997E+02 -0.64333579352E+01  0.39834418200E+01  0.35719525083E+02  0.41800000000E+01 0. -1.
         -5    1    3    3    0  502 -0.44184879673E+02  0.15791563862E+02 -0.14894487825E+03  0.15621692046E+03  0.41800000000E+01 0. -1.
        -11    1    1    2    0    0 -0.42770352370E+01  0.28921440002E+02 -0.17865188150E+02  0.34262336024E+02  0.00000000000E+00 0.  1.
         11    1    1    2    0    0  0.13804214913E+02 -0.38279645929E+02 -0.16217427046E+03  0.16720161973E+03  0.00000000000E+00 0. -1.
</event>
<event>
 7    1  0.2661133E-009  0.9883930E+02  0.7561462E-02  0.1282756E+00
          1   -1    0    0  501    0  0.00000000000E+00  0.00000000000E+00  0.44963265900E+03  0.44963265900E+03  0.00000000000E+00 0. -1.
         -1   -1    0    0    0  501 -0.00000000000E+00 -0.00000000000E+00 -0.40985113635E+02  0.40985113635E+02  0.00000000000E+00 0.  1.
         25    2    1    2    0    0 -0.28275284667E+02  0.40058587047E+02  0.34323880085E+03  0.36859405906E+03  0.12507807101E+03 0.  0.
          5    1    3    3  502    0 -0.50099360150E+02  0.58910607259E+02  0.11589219226E+03  0.13938751078E+03  0.41800000000E+01 0.  1.
         -5    1    3    3    0  502  0.21824075483E+02 -0.18852020212E+02  0.22734660860E+03  0.22920654828E+03  0.41800000000E+01 0.  1.
        -11    1    1    2    0    0  0.53254300655E+00 -0.58033139746E+02  0.12078259712E+02  0.59279113257E+02  0.00000000000E+00 0.  1.
         11    1    1    2    0    0  0.27742741660E+02  0.17974552699E+02  0.53330484804E+02  0.62744600318E+02  0.00000000000E+00 0. -1.
</event>
<event>
 6    1  0.2661133E-009  0.1116745E+03  0.7561462E-02  0.1257500E+00
          2   -1    0    0  501    0  0.00000000000E+00  0.00000000000E+00  0.58519228108E+03  0.58519228108E+03  0.00000000000E+00 0. -1.
         -2   -1    0    0    0  501 -0.00000000000E+00 -0.00000000000E+00 -0.49597023718E+02  0.49597023718E+02  0.00000000000E+00 0.  1.
          5    1    1    2  502    0 -0.35992144900E+01 -0.65351447427E+02  0.41258810919E+02  0.77482436102E+02  0.41800000000E+01 0. -1.
         -5    1    1    2    0  502 -0.42844448226E+02 -0.62595849951E+01  0.22225286385E+03  0.22646994732E+03  0.41800000000E+01 0. -1.
        -11    1    1    2    0    0  0.18247559285E+02 -0.14720680886E+02 -0.16258071874E+02  0.28530628571E+02  0.00000000000E+00 0.  1.
         11    1    1    2    0    0  0.28196103431E+02  0.86331713309E+02  0.28834165446E+03  0.30230629280E+03  0.00000000000E+00 0. -1.
</event>
<event>
 7    1  0.2661133E-009  0.3304459E+03  0.7561462E-02  0.1070940E+00
          2   -1    0    0  501    0  0.00000000000E+00  0.00000000000E+00  0.76033895110E+03  0.76033895110E+03  0.00000000000E+00 0. -1.
         -2   -1    0    0    0  501 -0.00000000000E+00 -0.00000000000E+00 -0.15439565975E+03  0.15439565975E+03  0.00000000000E+00 0.  1.
         25    2    1    2    0    0  0.31523141079E+03 -0.56039138378E+02  0.23547803178E+03  0.41665724294E+03  0.12506849030E+03 0.  0.
          5    1    3    3  502    0  0.30143143112E+03 -0.79924872683E+02  0.19612568935E+03  0.36841776744E+03  0.41800000000E+01 0.  1.
         -5    1    3    3    0  502  0.13799979664E+02  0.23885734304E+02  0.39352342427E+02  0.48239475500E+02  0.41800000000E+01 0.  1.
        -11    1    1    2    0    0 -0.26857162297E+03  0.38735395573E+02  0.25509091089E+03  0.37242787269E+03  0.00000000000E+00 0.  1.
         11    1    1    2    0    0 -0.46659787821E+02  0.17303742806E+02  0.11537434868E+03  0.12564949522E+03  0.00000000000E+00 0. -1.
</event>
<event>
 7    1  0.2661133E-009  0.7747409E+02  0.7561462E-02  0.1336376E+00
          1   -1    0    0  501    0  0.00000000000E+00  0.00000000000E+00  0.47148237554E+03  0.47148237554E+03  0.00000000000E+00 0. -1.
         -1   -1    0    0    0  501 -0.00000000000E+00 -0.00000000000E+00 -0.31334327279E+02  0.31334327279E+02  0.00000000000E+00 0.  1.
         25    2    1    2    0    0 -0.19786989775E+02 -0.35482413768E+02  0.17405137752E+03  0.21815724845E+03  0.12509267119E+03 0.  0.
          5    1    3    3  502    0 -0.20930527617E+02 -0.63424741430E+02  0.33587931498E+02  0.74875939755E+02  0.41800000000E+01 0. -1.
         -5    1    3    3    0  502  0.11435378425E+01  0.27942327662E+02  0.14046344602E+03  0.14328130870E+03  0.41800000000E+01 0. -1.
        -11    1    1    2    0    0  0.96267103034E+01  0.44886729350E+02  0.26687340040E+03  0.27079310158E+03  0.00000000000E+00 0. -1.
         11    1    1    2    0    0  0.10160279471E+02 -0.94043155827E+01 -0.77672966172E+00  0.13866352782E+02  0.00000000000E+00 0.  1.
</event>
<event>
 7    1  0.2661133E-009  0.1294580E+03  0.7561462E-02  0.1228262E+00
         -3   -1    0    0    0  501 -0.00000000000E+00  0.00000000000E+00  0.18346350248E+04  0.18346350248E+04  0.00000000000E+00 0.  1.
          3   -1    0    0  501    0  0.00000000000E+00 -0.00000000000E+00 -0.10866778939E+02  0.10866778939E+02  0.00000000000E+00 0. -1.
         25    2    1    2    0    0 -0.66392214855E+02 -0.43262234467E+02  0.12749750918E+04  0.12835447762E+04  0.12508461412E+03 0.  0.
          5    1    3    3  502    0 -0.67999357745E+02  0.23010593992E+02  0.43078257091E+03  0.43674305477E+03  0.41800000000E+01 0.  1.
         -5    1    3    3    0  502  0.16071428902E+01 -0.66272828459E+02  0.84419252091E+03  0.84680172146E+03  0.41800000000E+01 0.  1.
        -11    1    1    2    0    0  0.12286265912E+02 -0.28310042572E+02  0.12287950692E+03  0.12669563553E+03  0.00000000000E+00 0.  1.
         11    1    1    2    0    0  0.54105948943E+02  0.71572277039E+02  0.42591364712E+03  0.43526139198E+03  0.00000000000E+00 0. -1.
</event>
<event>
 7    1  0.2661133E-009  0.1043485E+03  0.7561462E-02  0.1271409E+00
          1   -1    0    0  501    0  0.00000000000E+00  0.00000000000E+00  0.33262449064E+03  0.33262449064E+03  0.00000000000E+00 0. -1.
         -1   -1    0    0    0  501 -0.00000000000E+00 -0.00000000000E+00 -0.36462958326E+02  0.36462958326E+02  0.00000000000E+00 0.  1.
         25    2    1    2    0    0 -0.15151561601E+02 -0.14362761113E+02  0.15999879526E+03  0.20415603404E+03  0.12507682848E+03 0.  0.
          5    1    3    3  502    0  0.40291975468E+01  0.48983550273E+02  0.11172301079E+03  0.12212749965E+03  0.41800000000E+01 0.  1.
         -5    1    3    3    0  502 -0.19180759148E+02 -0.63346311385E+02  0.48275784469E+02  0.82028534387E+02  0.41800000000E+01 0.  1.
        -11    1    1    2    0    0  0.27499256634E+02 -0.33661348479E+02  0.61979061268E+02  0.75701383954E+02  0.00000000000E+00 0.  1.
         11    1    1    2    0    0 -0.12347695033E+02  0.48024109592E+02  0.74183675783E+02  0.89230030973E+02  0.00000000000E+00 0. -1.
</event>
<event>
 7    1  0.2661133E-009  0.1661582E+03  0.7561462E-02  0.1181914E+00
          1   -1    0    0  501    0  0.00000000000E+00  0.00000000000E+00  0.54636073330E+03  0.54636073330E+03  0.00000000000E+00 0. -1.
         -1   -1    0    0    0  501 -0.00000000000E+00 -0.00000000000E+00 -0.58252765517E+02  0.58252765517E+02  0.00000000000E+00 0.  1.
         25    2    1    2    0    0 -0.86098958736E+01  0.14016104779E+03  0.23843153581E+03  0.30366347070E+03  0.12507060623E+03 0.  0.
          5    1    3    3  502    0 -0.31825870341E+02 -0.69477571857E+01  0.17567401985E+02  0.37245716067E+02  0.41800000000E+01 0.  1.
         -5    1    3    3    0  502  0.23215974467E+02  0.14710880498E+03  0.22086413383E+03  0.26641775463E+03  0.41800000000E+01 0.  1.
        -11    1    1    2    0    0  0.25879592161E+02 -0.12453647286E+03  0.14137770861E+03  0.19017555798E+03  0.00000000000E+00 0.  1.
         11    1    1    2    0    0 -0.17269696288E+02 -0.15624574937E+02  0.10829872337E+03  0.11077447014E+03  0.00000000000E+00 0. -1.
</event>
<event>
 7    1  0.2661133E-009  0.1199781E+03  0.7561462E-02  0.1243133E+00
          2   -1    0    0  501    0  0.00000000000E+00  0.00000000000E+00  0.46774617346E+02  0.46774617346E+02  0.00000000000E+00 0. -1.
         -2   -1    0    0    0  501 -0.00000000000E+00 -0.00000000000E+00 -0.49496171851E+03  0.49496171851E+03  0.00000000000E+00 0.  1.
         25    2    1    2    0    0  0.65211447634E+02  0.52299037250E+02 -0.12509280629E+03  0.19565931300E+03  0.12508650758E+03 0.  0.
          5    1    3    3  502    0  0.74818193477E+01  0.57529775705E+02 -0.12463696079E+03  0.13754089250E+03  0.41800000000E+01 0. -1.
         -5    1    3    3    0  502  0.57729628286E+02 -0.52307384557E+01 -0.45584549779E+00  0.58118420505E+02  0.41800000000E+01 0. -1.
        -11    1    1    2    0    0 -0.60289285163E+02  0.10059216957E+02 -0.14691060226E+03  0.15911854326E+03  0.00000000000E+00 0.  1.
         11    1    1    2    0    0 -0.49221624707E+01 -0.62358254207E+02 -0.17618369261E+03  0.18695847959E+03  0.00000000000E+00 0. -1.
</event>
<event>
 7    1  0.2661133E-009  0.1133518E+03  0.7561462E-02  0.1254486E+00
         -1   -1    0    0    0  501 -0.00000000000E+00  0.00000000000E+00  0.73710710650E+02  0.73710710650E+02  0.00000000000E+00 0.  1.
          1   -1    0    0  501    0  0.00000000000E+00 -0.00000000000E+00 -0.18476661996E+03  0.18476661996E+03  0.00000000000E+00 0. -1.
         25    2    1    2    0    0 -0.10063333054E+02 -0.37705999517E+02 -0.40854108485E+02  0.13726010452E+03  0.12509302555E+03 0.  0.
          5    1    3    3  502    0  0.40613101728E+02  0.25436682737E+02 -0.26526243826E+02  0.54932348140E+02  0.41800000000E+01 0. -1.
         -5    1    3    3    0  502 -0.50676434782E+02 -0.63142682254E+02 -0.14327864659E+02  0.82327756377E+02  0.41800000000E+01 0. -1.
        -11    1    1    2    0    0 -0.37651899455E+02  0.15879720220E+01 -0.36848169857E+02  0.52706496844E+02  0.00000000000E+00 0.  1.
         11    1    1    2    0    0  0.47715232509E+02  0.36118027495E+02 -0.33353630967E+02  0.68510729249E+02  0.00000000000E+00 0. -1.
</event>
<event>
 7    1  0.2661133E-009  0.7506419E+02  0.7561462E-02  0.1343672E+00
         -1   -1    0    0    0  501 -0.00000000000E+00  0.00000000000E+00  0.33192779605E+02  0.33192779605E+02  0.00000000000E+00 0.  1.
          1   -1    0    0  501    0  0.00000000000E+00 -0.00000000000E+00 -0.37671192616E+03  0.37671192616E+03  0.00000000000E+00 0. -1.
         25    2    1    2    0    0  0.17883507661E+02 -0.95447557814E+01 -0.23037842129E+03  0.26292964296E+03  0.12508740121E+03 0.  0.
          5    1    3    3  502    0  0.33550684141E+02 -0.21621346060E+02 -0.23797210708E+03  0.24133239973E+03  0.41800000000E+01 0. -1.
         -5    1    3    3    0  502 -0.15667176480E+02  0.12076590279E+02  0.75936857835E+01  0.21597243236E+02  0.41800000000E+01 0. -1.
        -11    1    1    2    0    0 -0.37079318088E+02  0.39514632314E+02 -0.46404887108E+02  0.71342102186E+02  0.00000000000E+00 0. -1.
         11    1    1    2    0    0  0.19195810427E+02 -0.29969876533E+02 -0.66735838156E+02  0.75632960617E+02  0.00000000000E+00 0.  1.
</event>
<event>
 7    1  0.2661133E-009  0.1041336E+03  0.7561462E-02  0.1271836E+00
          1   -1    0    0  501    0  0.00000000000E+00  0.00000000000E+00  0.11402292238E+03  0.11402292238E+03  0.00000000000E+00 0. -1.
         -1   -1    0    0    0  501 -0.00000000000E+00 -0.00000000000E+00 -0.11411780628E+03  0.11411780628E+03  0.00000000000E+00 0.  1.
         25    2    1    2    0    0  0.20490860371E+01  0.13363758109E+02  0.33353116664E+02  0.13016051771E+03  0.12508613510E+03 0.  0.
          5    1    3    3  502    0  0.59513889371E+02  0.12343582341E+02  0.38875849215E+02  0.72270817799E+02  0.41800000000E+01 0.  1.
         -5    1    3    3    0  502 -0.57464803334E+02  0.10201757681E+01 -0.55227325514E+01  0.57889699910E+02  0.41800000000E+01 0.  1.
        -11    1    1    2    0    0 -0.43141732257E+02  0.72461725101E+01 -0.52754482400E+01  0.44062982563E+02  0.00000000000E+00 0. -1.
         11    1    1    2    0    0  0.41092646220E+02 -0.20609930619E+02 -0.28172552324E+02  0.53917228397E+02  0.00000000000E+00 0.  1.
</event>
<event>
 7    1  0.2661133E-009  0.9088652E+02  0.7561462E-02  0.1300719E+00
         -1   -1    0    0    0  501 -0.00000000000E+00  0.00000000000E+00  0.27804086573E+02  0.27804086573E+02  0.00000000000E+00 0.  1.
          1   -1    0    0  501    0  0.00000000000E+00 -0.00000000000E+00 -0.81668511233E+03  0.81668511233E+03  0.00000000000E+00 0. -1.
         25    2    1    2    0    0  0.55986302252E+02 -0.46181317470E+02 -0.64526211126E+03  0.66127045148E+03  0.12509291602E+03 0.  0.
          5    1    3    3  502    0 -0.62681005815E+01 -0.44390105698E+02 -0.51350658353E+03  0.51547672527E+03  0.41800000000E+01 0.  1.
         -5    1    3    3    0  502  0.62254402833E+02 -0.17912117726E+01 -0.13175552773E+03  0.14579372620E+03  0.41800000000E+01 0.  1.
        -11    1    1    2    0    0 -0.15264554293E+02  0.41793680404E+01  0.10079275726E+02  0.18763409449E+02  0.00000000000E+00 0.  1.
         11    1    1    2    0    0 -0.40721747959E+02  0.42001949430E+02 -0.15369819022E+03  0.16445533798E+03  0.00000000000E+00 0. -1.
</event>
<event>
 7    1  0.2661133E-009  0.1181436E+03  0.7561462E-02  0.1246191E+00
          2   -1    0    0  501    0  0.00000000000E+00  0.00000000000E+00  0.18506261996E+04  0.18506261996E+04  0.00000000000E+00 0. -1.
         -2   -1    0    0    0  501 -0.00000000000E+00 -0.00000000000E+00 -0.23576037058E+02  0.23576037058E+02  0.00000000000E+00 0.  1.
         25    2    1    2    0    0  0.41846921493E+02 -0.83108793267E+02  0.16335156490E+04  0.16409379130E+04  0.12508246262E+03 0.  0.
          5    1    3    3  502    0  0.22278881536E+02  0.10223674836E+02  0.99651668890E+03  0.99682689357E+03  0.41800000000E+01 0. -1.
         -5    1    3    3    0  502  0.19568039957E+02 -0.93332468102E+02  0.63699896013E+03  0.64411101947E+03  0.41800000000E+01 0. -1.
        -11    1    1    2    0    0 -0.46507508439E+02  0.16729761852E+02  0.32848836363E+02  0.59345423777E+02  0.00000000000E+00 0.  1.
         11    1    1    2    0    0  0.46605869464E+01  0.66379031415E+02  0.16068567715E+03  0.17391889984E+03  0.00000000000E+00 0. -1.
</event>
<event>
 7    1  0.2661133E-009  0.1522071E+03  0.7561462E-02  0.1197787E+00
          2   -1    0    0  501    0  0.00000000000E+00  0.00000000000E+00  0.24579853383E+03  0.24579853383E+03  0.00000000000E+00 0. -1.
         -2   -1    0    0    0  501 -0.00000000000E+00 -0.00000000000E+00 -0.13830054947E+03  0.13830054947E+03  0.00000000000E+00 0.  1.
         25    2    1    2    0    0 -0.24029924579E+02 -0.12597812402E+03 -0.21526999980E+02  0.18044301337E+03  0.12509334252E+03 0.  0.
          5    1    3    3  502    0  0.49399500507E+02 -0.49539275786E+02  0.74494483139E+01  0.70479906185E+02  0.41800000000E+01 0.  1.
         -5    1    3    3    0  502 -0.73429425085E+02 -0.76438848230E+02 -0.28976448294E+02  0.10996310719E+03  0.41800000000E+01 0.  1.
        -11    1    1    2    0    0  0.13653768626E+02  0.73922552907E+02  0.13044752168E+03  0.15055738154E+03  0.00000000000E+00 0.  1.
         11    1    1    2    0    0  0.10376155953E+02  0.52055571109E+02 -0.14225373400E+01  0.53098688386E+02  0.00000000000E+00 0. -1.
</event>
<event>
 6    1  0.2661133E-009  0.1166370E+03  0.7561462E-02  0.1248750E+00
         -2   -1    0    0    0  501 -0.00000000000E+00  0.00000000000E+00  0.12410930907E+03  0.12410930907E+03  0.00000000000E+00 0.  1.
          2   -1    0    0  501    0  0.00000000000E+00 -0.00000000000E+00 -0.22100134120E+03  0.22100134120E+03  0.00000000000E+00 0. -1.
          5    1    1    2  502    0 -0.78185312113E+02  0.42156364134E+02 -0.14507457082E+03  0.17015935344E+03  0.41800000000E+01 0.  1.
         -5    1    1    2    0  502  0.21470123551E+02  0.30844091993E+02  0.61237112725E+01  0.38305305845E+02  0.41800000000E+01 0. -1.
        -11    1    1    2    0    0  0.33561316083E+02 -0.76104176788E+02  0.63727582693E+02  0.10478269159E+03  0.00000000000E+00 0.  1.
         11    1    1    2    0    0  0.23153872479E+02  0.31037206607E+01 -0.21668755278E+02  0.31863299390E+02  0.00000000000E+00 0. -1.
</event>
<event>
 7    1  0.2661133E-009  0.8184733E+02  0.7561462E-02  0.1323889E+00
         -2   -1    0    0    0  501 -0.00000000000E+00  0.00000000000E+00  0.49713302909E+02  0.49713302909E+02  0.00000000000E+00 0.  1.
          2   -1    0    0  501    0  0.00000000000E+00 -0.00000000000E+00 -0.25701554118E+03  0.25701554118E+03  0.00000000000E+00 0. -1.
         25    2    1    2    0    0 -0.26323585362E+02  0.50725868036E+01 -0.10586828835E+03  0.16605391198E+03  0.12508854832E+03 0.  0.
          5    1    3    3  502    0 -0.66749265105E+02  0.43743054231E+01 -0.10599396747E+03  0.12540650893E+03  0.41800000000E+01 0.  1.
         -5    1    3    3    0  502  0.40425679743E+02  0.69828138049E+00  0.12567912522E+00  0.40647403051E+02  0.41800000000E+01 0.  1.
        -11    1    1    2    0    0  0.28239456980E+01  0.20847347863E+02  0.10420017644E+02  0.23476868401E+02  0.00000000000E+00 0.  1.
         11    1    1    2    0    0  0.23499639664E+02 -0.25919934666E+02 -0.11185396756E+03  0.11719806371E+03  0.00000000000E+00 0. -1.
</event>
<event>
 7    1  0.2661133E-009  0.1136429E+03  0.7561462E-02  0.1253969E+00
         -1   -1    0    0    0  501 -0.00000000000E+00  0.00000000000E+00  0.31427172038E+02  0.31427172038E+02  0.00000000000E+00 0.  1.
          1   -1    0    0  501    0  0.00000000000E+00 -0.00000000000E+00 -0.51070499113E+03  0.51070499113E+03  0.00000000000E+00 0. -1.
         25    2    1    2    0    0  0.32264322634E+01  0.65001383674E+02 -0.26623234568E+03  0.30126829833E+03  0.12508931189E+03 0.  0.
          5    1    3    3  502    0  0.52173633818E+02  0.60552209454E+01 -0.17119897226E+03  0.17912374011E+03  0.41800000000E+01 0.  1.
         -5    1    3    3    0  502 -0.48947201555E+02  0.58946162729E+02 -0.95033373413E+02  0.12214455822E+03  0.41800000000E+01 0.  1.
        -11    1    1    2    0    0  0.25257111964E+02  0.17204315823E+01 -0.12123463561E+03  0.12384957998E+03  0.00000000000E+00 0. -1.
         11    1    1    2    0    0 -0.28483544227E+02 -0.66721815257E+02 -0.91810837806E+02  0.11701428486E+03  0.00000000000E+00 0.  1.
</event>
<event>
 7    1  0.2661133E-009  0.9139915E+02  0.7561462E-02  0.1299498E+00
          2   -1    0    0  501    0  0.00000000000E+00  0.00000000000E+00  0.42308310614E+03  0.42308310614E+03  0.00000000000E+00 0. -1.
         -2   -1    0    0    0  501 -0.00000000000E+00 -0.00000000000E+00 -0.32658528616E+02  0.32658528616E+02  0.00000000000E+00 0.  1.
         25    2    1    2    0    0 -0.34475780947E+02  0.28492905082E+02  0.20494142661E+03  0.24423163382E+03  0.12509067712E+03 0.  0.
          5    1    3    3  502    0 -0.39585913735E+02  0.53327380988E+02  0.40728183525E+02  0.78019942723E+02  0.41800000000E+01 0.  1.
         -5    1    3    3    0  502  0.51101327874E+01 -0.24834475906E+02  0.16421324309E+03  0.16621169109E+03  0.41800000000E+01 0.  1.
        -11    1    1    2    0    0  0.47346439988E+02 -0.47846870075E+02  0.85270911315E+02  0.10863763930E+03  0.00000000000E+00 0.  1.
         11    1    1    2    0    0 -0.12870659041E+02  0.19353964992E+02  0.10021223960E+03  0.10287236165E+03  0.00000000000E+00 0. -1.
</event>
<event>
 7    1  0.2661133E-009  0.1871461E+03  0.7561462E-02  0.1161061E+00
         -2   -1    0    0    0  501 -0.00000000000E+00  0.00000000000E+00  0.77868843539E+02  0.77868843539E+02  0.00000000000E+00 0.  1.
          2   -1    0    0  501    0  0.00000000000E+00 -0.00000000000E+00 -0.51004946989E+03  0.51004946989E+03  0.00000000000E+00 0. -1.
         25    2    1    2    0    0 -0.15267598854E+03  0.59221451779E+02 -0.17596133953E+03  0.27097433798E+03  0.12509021149E+03 0.  0.
          5    1    3    3  502    0  0.13740760889E+02  0.52776260717E+01  0.78401386371E+01  0.17193080602E+02  0.41800000000E+01 0. -1.
         -5    1    3    3    0  502 -0.16641674943E+03  0.53943825707E+02 -0.18380147817E+03  0.25378125738E+03  0.41800000000E+01 0. -1.
        -11    1    1    2    0    0  0.30079173771E+02  0.21712613123E+02 -0.32583988177E+02  0.49375201760E+02  0.00000000000E+00 0.  1.
         11    1    1    2    0    0  0.12259681477E+03 -0.80934064902E+02 -0.22363529865E+03  0.26756877369E+03  0.00000000000E+00 0. -1.
</event>
<event>
 7    1  0.2661133E-009  0.8917850E+02  0.7561462E-02  0.1304853E+00
         -4   -1    0    0    0  501 -0.00000000000E+00  0.00000000000E+00  0.23275975392E+03  0.23275975392E+03  0.00000000000E+00 0.  1.
          4   -1    0    0  501    0  0.00000000000E+00 -0.00000000000E+00 -0.53713176685E+02  0.53713176685E+02  0.00000000000E+00 0. -1.
         25    2    1    2    0    0  0.19253299986E+02 -0.11082664043E+02  0.84027239445E+02  0.15231717006E+03  0.12508568393E+03 0.  0.
          5    1    3    3  502    0 -0.36225620567E+02 -0.16670006841E+02 -0.11426152953E+02  0.41691894714E+02  0.41800000000E+01 0. -1.
         -5    1    3    3    0  502  0.55478920552E+02  0.55873427980E+01  0.95453392398E+02  0.11062527535E+03  0.41800000000E+01 0. -1.
        -11    1    1    2    0    0  0.21544786946E+02 -0.21270874156E+02  0.70247392820E+02  0.76493948322E+02  0.00000000000E+00 0.  1.
         11    1    1    2    0    0 -0.40798086932E+02  0.32353538199E+02  0.24771944972E+02  0.57661812225E+02  0.00000000000E+00 0. -1.
</event>
<event>
 7    1  0.2661133E-009  0.7040146E+02  0.7561462E-02  0.1358733E+00
         -1   -1    0    0    0  501 -0.00000000000E+00  0.00000000000E+00  0.15346715817E+03  0.15346715817E+03  0.00000000000E+00 0.  1.
          1   -1    0    0  501    0  0.00000000000E+00 -0.00000000000E+00 -0.12698524357E+03  0.12698524357E+03  0.00000000000E+00 0. -1.
         25    2    1    2    0    0  0.19028020947E+02  0.36342864800E+02  0.82150706229E+02  0.15517594229E+03  0.12509182678E+03 0.  0.
          5    1    3    3  502    0  0.24210417045E+02  0.24802951781E+02  0.11475855567E+03  0.11995136185E+03  0.41800000000E+01 0.  1.
         -5    1    3    3    0  502 -0.51823960978E+01  0.11539913019E+02 -0.32607849440E+02  0.35224580436E+02  0.41800000000E+01 0.  1.
        -11    1    1    2    0    0  0.32637076041E+02 -0.20448752812E+02  0.10418459060E+02  0.39898302135E+02  0.00000000000E+00 0.  1.
         11    1    1    2    0    0 -0.51665096988E+02 -0.15894111988E+02 -0.66087250687E+02  0.85378157313E+02  0.00000000000E+00 0. -1.
</event>
<event>
 7    1  0.3178232E-009  0.1150628E+03  0.7561462E-02  0.1251472E+00
          4   -1    0    0  501    0  0.00000000000E+00  0.00000000000E+00  0.13906435946E+03  0.13906435946E+03  0.00000000000E+00 0. -1.
         -4   -1    0    0    0  501 -0.00000000000E+00 -0.00000000000E+00 -0.14880348301E+03  0.14880348301E+03  0.00000000000E+00 0.  1.
         25    2    1    2    0    0 -0.35437367863E+02  0.86713723940E+02  0.30080298714E+01  0.15631185898E+03  0.12509705054E+03 0.  0.
          5    1    3    3  502    0  0.21601640310E+02  0.12527121796E+02  0.46568395148E+02  0.53006107867E+02  0.41800000000E+01 0. -1.
         -5    1    3    3    0  502 -0.57039008173E+02  0.74186602144E+02 -0.43560365277E+02  0.10330575112E+03  0.41800000000E+01 0. -1.
        -11    1    1    2    0    0  0.20371343794E+02  0.26199107532E+01 -0.32863878796E+02  0.38754226993E+02  0.00000000000E+00 0.  1.
         11    1    1    2    0    0  0.15066024070E+02 -0.89333634693E+02  0.20116725373E+02  0.92801756495E+02  0.00000000000E+00 0. -1.
</event>
<event>
 7    1  0.2661133E-009  0.1167210E+03  0.7561462E-02  0.1248607E+00
          1   -1    0    0  501    0  0.00000000000E+00  0.00000000000E+00  0.13827546620E+02  0.13827546620E+02  0.00000000000E+00 0. -1.
         -1   -1    0    0    0  501 -0.00000000000E+00 -0.00000000000E+00 -0.11899423058E+04  0.11899423058E+04  0.00000000000E+00 0.  1.
         25    2    1    2    0    0 -0.45414189618E+02 -0.48352534507E+02 -0.73613735732E+03  0.74963040345E+03  0.12508843558E+03 0.  0.
          5    1    3    3  502    0  0.42342332889E+02 -0.74575370701E+01 -0.28000402067E+03  0.28331645206E+03  0.41800000000E+01 0.  1.
         -5    1    3    3    0  502 -0.87756522507E+02 -0.40894997437E+02 -0.45613333665E+03  0.46631395139E+03  0.41800000000E+01 0.  1.
        -11    1    1    2    0    0 -0.74025733689E+01 -0.11397203096E+02 -0.10112341870E+02  0.16939710417E+02  0.00000000000E+00 0. -1.
         11    1    1    2    0    0  0.52816762987E+02  0.59749737603E+02 -0.42986506003E+03  0.43719973860E+03  0.00000000000E+00 0.  1.
</event>
<event>
 7    1  0.2661133E-009  0.9253490E+02  0.7561462E-02  0.1296827E+00
          2   -1    0    0  501    0  0.00000000000E+00  0.00000000000E+00  0.89782463529E+02  0.89782463529E+02  0.00000000000E+00 0.  1.
         -2   -1    0    0    0  501 -0.00000000000E+00 -0.00000000000E+00 -0.20467593511E+03  0.20467593511E+03  0.00000000000E+00 0. -1.
         25    2    1    2    0    0  0.22534949456E+02 -0.27702256750E+02 -0.15000064383E+03  0.19855234802E+03  0.12509037844E+03 0.  0.
          5    1    3    3  502    0  0.52490638895E+02 -0.60334633750E+02 -0.67144755528E+02  0.10450562567E+03  0.41800000000E+01 0. -1.
         -5    1    3    3    0  502 -0.29955689439E+02  0.32632377000E+02 -0.82855888306E+02  0.94046722354E+02  0.41800000000E+01 0. -1.
        -11    1    1    2    0    0 -0.44987826805E+01  0.38969676505E+02  0.54483262140E+02  0.67136432627E+02  0.00000000000E+00 0.  1.
         11    1    1    2    0    0 -0.18036166776E+02 -0.11267419755E+02 -0.19376089883E+02  0.28769617986E+02  0.00000000000E+00 0. -1.
</event>
<event>
 7    1  0.2661133E-009  0.1144127E+03  0.7561462E-02  0.1252610E+00
          2   -1    0    0  501    0  0.00000000000E+00  0.00000000000E+00  0.52309999329E+02  0.52309999329E+02  0.00000000000E+00 0.  1.
         -2   -1    0    0    0  501 -0.00000000000E+00 -0.00000000000E+00 -0.32568131979E+03  0.32568131979E+03  0.00000000000E+00 0. -1.
         25    2    1    2    0    0  0.17193725360E+02 -0.54300491619E+02 -0.10120507507E+03  0.17068537374E+03  0.12508741746E+03 0.  0.
          5    1    3    3  502    0 -0.51010808573E+02 -0.27459573761E+01 -0.30362959643E+02  0.59573690430E+02  0.41800000000E+01 0.  1.
         -5    1    3    3    0  502  0.68204533933E+02 -0.51554534242E+02 -0.70842115427E+02  0.11111168331E+03  0.41800000000E+01 0.  1.
        -11    1    1    2    0    0  0.27265253158E+02  0.32598884882E+02 -0.19377650119E+02  0.46707329719E+02  0.00000000000E+00 0.  1.
         11    1    1    2    0    0 -0.44458978519E+02  0.21701606737E+02 -0.15278859527E+03  0.16059861565E+03  0.00000000000E+00 0. -1.
</event>
<event>
 7    1  0.2661133E-009  0.1667525E+03  0.7561462E-02  0.1181277E+00
         -2   -1    0    0    0  501 -0.00000000000E+00  0.00000000000E+00  0.28747104185E+02  0.28747104185E+02  0.00000000000E+00 0.  1.
          2   -1    0    0  501    0  0.00000000000E+00 -0.00000000000E+00 -0.13404213876E+04  0.13404213876E+04  0.00000000000E+00 0. -1.
         25    2    1    2    0    0 -0.12203017463E+03  0.82275733913E+02 -0.92885525089E+03  0.94872567682E+03  0.12509065844E+03 0.  0.
          5    1    3    3  502    0 -0.96701220678E+02  0.90696582462E+02 -0.89787321129E+03  0.90761818630E+03  0.41800000000E+01 0. -1.
         -5    1    3    3    0  502 -0.25328953953E+02 -0.84208485494E+01 -0.30982039607E+02  0.41107490520E+02  0.41800000000E+01 0. -1.
        -11    1    1    2    0    0  0.81276087871E+02 -0.10045634361E+03 -0.28405059390E+03  0.31206092245E+03  0.00000000000E+00 0.  1.
         11    1    1    2    0    0  0.40754086759E+02  0.18180609694E+02 -0.98768438629E+02  0.10838189252E+03  0.00000000000E+00 0. -1.
</event>
<event>
 7    1  0.2661133E-009  0.1052271E+03  0.7561462E-02  0.1269673E+00
         -3   -1    0    0    0  501 -0.00000000000E+00  0.00000000000E+00  0.27357480383E+03  0.27357480383E+03  0.00000000000E+00 0.  1.
          3   -1    0    0  501    0  0.00000000000E+00 -0.00000000000E+00 -0.50796240018E+02  0.50796240018E+02  0.00000000000E+00 0. -1.
         25    2    1    2    0    0 -0.18101165108E+01 -0.25190388025E+02  0.17876128924E+03  0.21964241797E+03  0.12509740633E+03 0.  0.
          5    1    3    3  502    0 -0.47374035300E+02  0.20597854820E+02  0.12562324988E+03  0.13589423886E+03  0.41800000000E+01 0.  1.
         -5    1    3    3    0  502  0.45563918789E+02 -0.45788242845E+02  0.53138039359E+02  0.83748179116E+02  0.41800000000E+01 0.  1.
        -11    1    1    2    0    0 -0.42111099686E+02 -0.21406739905E+01  0.11798241996E+02  0.43784994188E+02  0.00000000000E+00 0. -1.
         11    1    1    2    0    0  0.43921216196E+02  0.27331062016E+02  0.32219032577E+02  0.60943631687E+02  0.00000000000E+00 0.  1.
</event>
<event>
 7    1  0.2661133E-009  0.1601173E+03  0.7561462E-02  0.1188564E+00
          1   -1    0    0  501    0  0.00000000000E+00  0.00000000000E+00  0.15521113679E+04  0.15521113679E+04  0.00000000000E+00 0. -1.
         -1   -1    0    0    0  501 -0.00000000000E+00 -0.00000000000E+00 -0.17839270937E+02  0.17839270937E+02  0.00000000000E+00 0.  1.
         25    2    1    2    0    0 -0.10748828005E+03 -0.64651146679E+02  0.83025065872E+03  0.84893862777E+03  0.12508851390E+03 0.  0.
          5    1    3    3  502    0 -0.66322976665E+02 -0.93301666091E+02  0.69985867744E+03  0.70917105053E+03  0.41800000000E+01 0. -1.
         -5    1    3    3    0  502 -0.41165303388E+02  0.28650519412E+02  0.13039198128E+03  0.13976757724E+03  0.41800000000E+01 0. -1.
        -11    1    1    2    0    0  0.92954573793E+02  0.40547754940E+01  0.44122386559E+03  0.45092737060E+03  0.00000000000E+00 0. -1.
         11    1    1    2    0    0  0.14533706260E+02  0.60596371185E+02  0.26279757261E+03  0.27008464041E+03  0.00000000000E+00 0.  1.
</event>
<event>
 7    1  0.2661133E-009  0.1762036E+03  0.7561462E-02  0.1171529E+00
          1   -1    0    0  501    0  0.00000000000E+00  0.00000000000E+00  0.13966838966E+03  0.13966838966E+03  0.00000000000E+00 0. -1.
         -1   -1    0    0    0  501 -0.00000000000E+00 -0.00000000000E+00 -0.27654339762E+03  0.27654339762E+03  0.00000000000E+00 0.  1.
         25    2    1    2    0    0  0.14001315557E+03  0.94678000971E+02 -0.47232681459E+02  0.21551033556E+03  0.12508465507E+03 0.  0.
          5    1    3    3  502    0  0.14621494749E+03  0.90979014599E+02 -0.48646575277E+01  0.17232855033E+03  0.41800000000E+01 0. -1.
         -5    1    3    3    0  502 -0.62017919217E+01  0.36989863720E+01 -0.42368023931E+02  0.43181785223E+02  0.41800000000E+01 0. -1.
        -11    1    1    2    0    0 -0.43214429720E+02 -0.12938362006E+02 -0.51343993440E+02  0.68345400794E+02  0.00000000000E+00 0.  1.
         11    1    1    2    0    0 -0.96798725849E+02 -0.81739638965E+02 -0.38298333060E+02  0.13235605094E+03  0.00000000000E+00 0. -1.
</event>
<event>
 7    1  0.2661133E-009  0.1242648E+03  0.7561462E-02  0.1236223E+00
         -1   -1    0    0    0  501 -0.00000000000E+00  0.00000000000E+00  0.55496792636E+02  0.55496792636E+02  0.00000000000E+00 0.  1.
          1   -1    0    0  501    0  0.00000000000E+00 -0.00000000000E+00 -0.55737956121E+03  0.55737956121E+03  0.00000000000E+00 0. -1.
         25    2    1    2    0    0 -0.91687407927E+02 -0.26389297068E+02 -0.43957093168E+03  0.46687672293E+03  0.12509314398E+03 0.  0.
          5    1    3    3  502    0 -0.67469834392E+02  0.20787899883E+02 -0.96143181698E+02  0.11935367243E+03  0.41800000000E+01 0.  1.
         -5    1    3    3    0  502 -0.24217573535E+02 -0.47177196951E+02 -0.34342774998E+03  0.34752305051E+03  0.41800000000E+01 0.  1.
        -11    1    1    2    0    0  0.83894371765E+02 -0.12614166556E+02 -0.63874135951E+02  0.10619457639E+03  0.00000000000E+00 0.  1.
         11    1    1    2    0    0  0.77930361613E+01  0.39003463625E+02  0.15622990483E+01  0.39805054524E+02  0.00000000000E+00 0. -1.
</event>
<event>
 7    1  0.2661133E-009  0.1120612E+03  0.7561462E-02  0.1256800E+00
          1   -1    0    0  501    0  0.00000000000E+00  0.00000000000E+00  0.20177297047E+02  0.20177297047E+02  0.00000000000E+00 0. -1.
         -1   -1    0    0    0  501 -0.00000000000E+00 -0.00000000000E+00 -0.75813292832E+03  0.75813292832E+03  0.00000000000E+00 0.  1.
         25    2    1    2    0    0  0.48774814177E+02  0.32661854231E+02 -0.42305014530E+03  0.44504493871E+03  0.12509113804E+03 0.  0.
          5    1    3    3  502    0  0.14381692144E+01  0.60120211296E+02 -0.95543181116E+02  0.11297114674E+03  0.41800000000E+01 0.  1.
         -5    1    3    3    0  502  0.47336644963E+02 -0.27458357065E+02 -0.32750696418E+03  0.33207379198E+03  0.41800000000E+01 0.  1.
        -11    1    1    2    0    0  0.18524580805E+02 -0.37145015788E+02 -0.11209988285E+03  0.11953784349E+03  0.00000000000E+00 0. -1.
         11    1    1    2    0    0 -0.67299394982E+02  0.44831615576E+01 -0.20280560312E+03  0.21372744316E+03  0.00000000000E+00 0.  1.
</event>
<event>
 7    1  0.2661133E-009  0.1181776E+03  0.7561462E-02  0.1246134E+00
         -1   -1    0    0    0  501 -0.00000000000E+00  0.00000000000E+00  0.55432397501E+03  0.55432397501E+03  0.00000000000E+00 0.  1.
          1   -1    0    0  501    0  0.00000000000E+00 -0.00000000000E+00 -0.31641097317E+02  0.31641097317E+02  0.00000000000E+00 0. -1.
         25    2    1    2    0    0  0.74448382518E+02 -0.53556485520E+01  0.32660807978E+03  0.35762259321E+03  0.12509930763E+03 0.  0.
          5    1    3    3  502    0  0.10643124812E+03 -0.38420966550E+01  0.19624850455E+03  0.22332335350E+03  0.41800000000E+01 0. -1.
         -5    1    3    3    0  502 -0.31982865606E+02 -0.15135518970E+01  0.13035957523E+03  0.13429923971E+03  0.41800000000E+01 0. -1.
        -11    1    1    2    0    0 -0.66476963654E+02 -0.21184436659E+02  0.18633535481E+03  0.19896942354E+03  0.00000000000E+00 0.  1.
         11    1    1    2    0    0 -0.79714188633E+01  0.26540085211E+02  0.97394431102E+01  0.29373055575E+02  0.00000000000E+00 0. -1.
</event>
<event>
 7    1  0.2661133E-009  0.1049401E+03  0.7561462E-02  0.1270238E+00
         -2   -1    0    0    0  501 -0.00000000000E+00  0.00000000000E+00  0.14063042663E+03  0.14063042663E+03  0.00000000000E+00 0. -1.
          2   -1    0    0  501    0  0.00000000000E+00 -0.00000000000E+00 -0.10727968345E+03  0.10727968345E+03  0.00000000000E+00 0.  1.
         25    2    1    2    0    0 -0.47619359629E+02  0.28442075079E+02  0.43024953516E+01  0.13690130920E+03  0.12508757712E+03 0.  0.
          5    1    3    3  502    0  0.44497514394E+01  0.54405530926E+02  0.40634204060E+02  0.68178977866E+02  0.41800000000E+01 0.  1.
         -5    1    3    3    0  502 -0.52069111068E+02 -0.25963455847E+02 -0.36331708708E+02  0.68722331338E+02  0.41800000000E+01 0.  1.
        -11    1    1    2    0    0  0.68287780997E+02 -0.32674911122E+02  0.41680803766E+02  0.86418517997E+02  0.00000000000E+00 0. -1.
         11    1    1    2    0    0 -0.20668421368E+02  0.42328360431E+01 -0.12632555939E+02  0.24590282885E+02  0.00000000000E+00 0.  1.
</event>
<event>
 7    1  0.2661133E-009  0.9715779E+02  0.7561462E-02  0.1286389E+00
          1   -1    0    0  501    0  0.00000000000E+00  0.00000000000E+00  0.98046578176E+03  0.98046578176E+03  0.00000000000E+00 0. -1.
         -1   -1    0    0    0  501 -0.00000000000E+00 -0.00000000000E+00 -0.14867739495E+02  0.14867739495E+02  0.00000000000E+00 0.  1.
         25    2    1    2    0    0 -0.26781464047E+02  0.22270501169E+02  0.69797885499E+03  0.70995418154E+03  0.12508891173E+03 0.  0.
          5    1    3    3  502    0 -0.28462798218E+02  0.66775571380E+02  0.56486309291E+03  0.56952339192E+03  0.41800000000E+01 0.  1.
         -5    1    3    3    0  502  0.16813341716E+01 -0.44505070211E+02  0.13311576208E+03  0.14043078962E+03  0.41800000000E+01 0.  1.
        -11    1    1    2    0    0  0.30796227090E+02  0.18487246244E+02  0.38600259869E+02  0.52727278885E+02  0.00000000000E+00 0.  1.
         11    1    1    2    0    0 -0.40147630438E+01 -0.40757747413E+02  0.22901892741E+03  0.23265206083E+03  0.00000000000E+00 0. -1.
</event>
<event>
 7    1  0.2661133E-009  0.1158780E+03  0.7561462E-02  0.1250056E+00
          2   -1    0    0  501    0  0.00000000000E+00  0.00000000000E+00  0.60287927042E+03  0.60287927042E+03  0.00000000000E+00 0. -1.
         -2   -1    0    0    0  501 -0.00000000000E+00 -0.00000000000E+00 -0.27710080421E+02  0.27710080421E+02  0.00000000000E+00 0.  1.
         25    2    1    2    0    0  0.47287166511E+02  0.37654711081E+02  0.23197449177E+03  0.27039423877E+03  0.12508767384E+03 0.  0.
          5    1    3    3  502    0  0.73765068824E+02  0.58650816100E+02  0.11594670553E+03  0.14947345761E+03  0.41800000000E+01 0. -1.
         -5    1    3    3    0  502 -0.26477902313E+02 -0.20996105019E+02  0.11602778624E+03  0.12092078116E+03  0.41800000000E+01 0. -1.
        -11    1    1    2    0    0 -0.77826977213E+01  0.26727508754E+02  0.47987739582E+02  0.55477502270E+02  0.00000000000E+00 0.  1.
         11    1    1    2    0    0 -0.39504468790E+02 -0.64382219835E+02  0.29520695864E+03  0.30471760979E+03  0.00000000000E+00 0. -1.
</event>
<event>
 7    1  0.2661133E-009  0.8906107E+02  0.7561462E-02  0.1305141E+00
         -1   -1    0    0    0  501 -0.00000000000E+00  0.00000000000E+00  0.28833079143E+02  0.28833079143E+02  0.00000000000E+00 0.  1.
          1   -1    0    0  501    0  0.00000000000E+00 -0.00000000000E+00 -0.37806600515E+03  0.37806600515E+03  0.00000000000E+00 0. -1.
         25    2    1    2    0    0  0.27825480581E+02  0.41778680392E+01 -0.21233645063E+03  0.24804658688E+03  0.12509448048E+03 0.  0.
          5    1    3    3  502    0 -0.10909918334E+02  0.59010796294E+02 -0.11412045693E+03  0.12900485064E+03  0.41800000000E+01 0.  1.
         -5    1    3    3    0  502  0.38735398916E+02 -0.54832928255E+02 -0.98215993694E+02  0.11904173624E+03  0.41800000000E+01 0.  1.
        -11    1    1    2    0    0  0.70856886514E+01 -0.12899068878E+02  0.24634314866E+01  0.14921844935E+02  0.00000000000E+00 0.  1.
         11    1    1    2    0    0 -0.34911169233E+02  0.87212008388E+01 -0.13935990687E+03  0.14393065248E+03  0.00000000000E+00 0. -1.
</event>
<event>
 7    1  0.2661133E-009  0.1241955E+03  0.7561462E-02  0.1236332E+00
          1   -1    0    0  501    0  0.00000000000E+00  0.00000000000E+00  0.48547508853E+03  0.48547508853E+03  0.00000000000E+00 0. -1.
         -1   -1    0    0    0  501 -0.00000000000E+00 -0.00000000000E+00 -0.47842918525E+02  0.47842918525E+02  0.00000000000E+00 0.  1.
         25    2    1    2    0    0  0.37082202714E+02  0.96502428518E+02  0.27181433434E+03  0.31657380348E+03  0.12509249470E+03 0.  0.
          5    1    3    3  502    0  0.54592888787E+02  0.50893447878E+02  0.51272660965E+02  0.90647033627E+02  0.41800000000E+01 0.  1.
         -5    1    3    3    0  502 -0.17510686073E+02  0.45608980640E+02  0.22054167337E+03  0.22592676985E+03  0.41800000000E+01 0.  1.
        -11    1    1    2    0    0 -0.14468253265E+02  0.87780367946E+01 -0.23190382551E+01  0.17081048590E+02  0.00000000000E+00 0.  1.
         11    1    1    2    0    0 -0.22613949449E+02 -0.10528046531E+03  0.16813687392E+03  0.19966315498E+03  0.00000000000E+00 0. -1.
</event>
<event>
 7    1  0.2661133E-009  0.1061657E+03  0.7561462E-02  0.1267840E+00
          2   -1    0    0  501    0  0.00000000000E+00  0.00000000000E+00  0.14448204071E+03  0.14448204071E+03  0.00000000000E+00 0. -1.
         -2   -1    0    0    0  501 -0.00000000000E+00 -0.00000000000E+00 -0.84943074832E+02  0.84943074832E+02  0.00000000000E+00 0.  1.
         25    2    1    2    0    0 -0.15818357456E+02  0.15476222487E+02  0.49170278574E+02  0.13621781476E+03  0.12509133810E+03 0.  0.
          5    1    3    3  502    0 -0.46598542617E+01 -0.54983299231E+02  0.17361053753E+02  0.57997896716E+02  0.41800000000E+01 0.  1.
         -5    1    3    3    0  502 -0.11158503194E+02  0.70459521719E+02  0.31809224821E+02  0.78219918039E+02  0.41800000000E+01 0.  1.
        -11    1    1    2    0    0  0.49935208594E+02 -0.74891283816E+01 -0.11655029779E+02  0.51821345220E+02  0.00000000000E+00 0.  1.
         11    1    1    2    0    0 -0.34116851139E+02 -0.79870941056E+01  0.22023717079E+02  0.41385955563E+02  0.00000000000E+00 0. -1.
</event>
<event>
 7    1  0.2661133E-009  0.1881469E+03  0.7561462E-02  0.1160143E+00
         -1   -1    0    0    0  501 -0.00000000000E+00  0.00000000000E+00  0.19430961957E+02  0.19430961957E+02  0.00000000000E+00 0.  1.
          1   -1    0    0  501    0  0.00000000000E+00 -0.00000000000E+00 -0.21283468041E+04  0.21283468041E+04  0.00000000000E+00 0. -1.
         25    2    1    2    0    0  0.16063456677E+03  0.61879289538E+02 -0.12069634406E+04  0.12255776078E+04  0.12508882896E+03 0.  0.
          5    1    3    3  502    0  0.27752010381E+02  0.54259680902E+02 -0.65222491171E+03  0.65507945694E+03  0.41800000000E+01 0.  1.
         -5    1    3    3    0  502  0.13288255639E+03  0.76196086353E+01 -0.55473852892E+03  0.57049815083E+03  0.41800000000E+01 0.  1.
        -11    1    1    2    0    0 -0.25092584876E+02 -0.36262697264E+02 -0.11337751157E+03  0.12165147414E+03  0.00000000000E+00 0.  1.
         11    1    1    2    0    0 -0.13554198190E+03 -0.25616592274E+02 -0.78857488993E+03  0.80054868414E+03  0.00000000000E+00 0. -1.
</event>
<event>
 7    1  0.2661133E-009  0.2161620E+03  0.7561462E-02  0.1136777E+00
          1   -1    0    0  501    0  0.00000000000E+00  0.00000000000E+00  0.60200725250E+03  0.60200725250E+03  0.00000000000E+00 0. -1.
         -1   -1    0    0    0  501 -0.00000000000E+00 -0.00000000000E+00 -0.91493067945E+02  0.91493067945E+02  0.00000000000E+00 0.  1.
         25    2    1    2    0    0 -0.33462365888E+02  0.20367617017E+03  0.29498946357E+03  0.38114127577E+03  0.12508467632E+03 0.  0.
          5    1    3    3  502    0 -0.11235859424E+02  0.12229958400E+03  0.71380744813E+02  0.14211303921E+03  0.41800000000E+01 0. -1.
         -5    1    3    3    0  502 -0.22226506465E+02  0.81376586163E+02  0.22360871876E+03  0.23902823655E+03  0.41800000000E+01 0. -1.
        -11    1    1    2    0    0 -0.23805902972E+02 -0.15812933533E+02  0.17792496739E+02  0.33665157410E+02  0.00000000000E+00 0.  1.
         11    1    1    2    0    0  0.57268268860E+02 -0.18786323663E+03  0.19773222424E+03  0.27869388727E+03  0.00000000000E+00 0. -1.
</event>
<event>
 7    1  0.2661133E-009  0.9027051E+02  0.7561462E-02  0.1302198E+00
         -2   -1    0    0    0  501 -0.00000000000E+00  0.00000000000E+00  0.59036713265E+02  0.59036713265E+02  0.00000000000E+00 0. -1.
          2   -1    0    0  501    0  0.00000000000E+00 -0.00000000000E+00 -0.34703290219E+03  0.34703290219E+03  0.00000000000E+00 0.  1.
         25    2    1    2    0    0  0.45207809463E+02 -0.31144256996E+01 -0.26742771682E+03  0.29869379014E+03  0.12508777262E+03 0.  0.
          5    1    3    3  502    0 -0.16783753582E+02  0.47985731811E+02 -0.12691867444E+03  0.13678503999E+03  0.41800000000E+01 0.  1.
         -5    1    3    3    0  502  0.61991563044E+02 -0.51100157510E+02 -0.14050904237E+03  0.16190875015E+03  0.41800000000E+01 0.  1.
        -11    1    1    2    0    0 -0.33446922592E+02  0.10670313851E+02  0.35299462394E+02  0.49785582992E+02  0.00000000000E+00 0. -1.
         11    1    1    2    0    0 -0.11760886871E+02 -0.75558881518E+01 -0.55867934497E+02  0.57590242322E+02  0.00000000000E+00 0.  1.
</event>
<event>
 7    1  0.2661133E-009  0.9641505E+02  0.7561462E-02  0.1288020E+00
         -1   -1    0    0    0  501 -0.00000000000E+00  0.00000000000E+00  0.28450699698E+03  0.28450699698E+03  0.00000000000E+00 0.  1.
          1   -1    0    0  501    0  0.00000000000E+00 -0.00000000000E+00 -0.52262341732E+02  0.52262341732E+02  0.00000000000E+00 0. -1.
         25    2    1    2    0    0 -0.36559074074E+02  0.41549323582E+02  0.14706938736E+03  0.20084613028E+03  0.12508737411E+03 0.  0.
          5    1    3    3  502    0  0.22922594059E+02 -0.66568672449E+01 -0.98786878628E+01  0.26169067118E+02  0.41800000000E+01 0.  1.
         -5    1    3    3    0  502 -0.59481668133E+02  0.48206190827E+02  0.15694807522E+03  0.17467706316E+03  0.41800000000E+01 0.  1.
        -11    1    1    2    0    0 -0.13313319865E+02  0.12581097457E+02  0.52107756106E+02  0.55233565388E+02  0.00000000000E+00 0.  1.
         11    1    1    2    0    0  0.49872393939E+02 -0.54130421040E+02  0.33067511778E+02  0.80689643042E+02  0.00000000000E+00 0. -1.
</event>
<event>
 7    1  0.2661133E-009  0.7960754E+02  0.7561462E-02  0.1330169E+00
         -2   -1    0    0    0  501 -0.00000000000E+00  0.00000000000E+00  0.33163369517E+03  0.33163369517E+03  0.00000000000E+00 0.  1.
          2   -1    0    0  501    0  0.00000000000E+00 -0.00000000000E+00 -0.41459755378E+02  0.41459755378E+02  0.00000000000E+00 0. -1.
         25    2    1    2    0    0  0.28295273025E+02  0.47868911813E+01  0.11396239576E+03  0.17163456466E+03  0.12508980508E+03 0.  0.
          5    1    3    3  502    0  0.44709155554E-01  0.37596235262E+02 -0.10937351134E+02  0.39377366019E+02  0.41800000000E+01 0.  1.
         -5    1    3    3    0  502  0.28250563870E+02 -0.32809344081E+02  0.12489974689E+03  0.13225719864E+03  0.41800000000E+01 0.  1.
        -11    1    1    2    0    0 -0.52801072316E+02  0.57531151667E+00  0.16630713067E+03  0.17448881320E+03  0.00000000000E+00 0.  1.
         11    1    1    2    0    0  0.24505799291E+02 -0.53622026980E+01  0.99044133621E+01  0.26970072686E+02  0.00000000000E+00 0. -1.
</event>
<event>
 7    1  0.2661133E-009  0.1258969E+03  0.7561462E-02  0.1233674E+00
         -1   -1    0    0    0  501 -0.00000000000E+00  0.00000000000E+00  0.15932910821E+03  0.15932910821E+03  0.00000000000E+00 0.  1.
          1   -1    0    0  501    0  0.00000000000E+00 -0.00000000000E+00 -0.12742219374E+03  0.12742219374E+03  0.00000000000E+00 0. -1.
         25    2    1    2    0    0  0.49583954317E+02  0.61910949757E+02 -0.27094223908E+02  0.15057741669E+03  0.12509167527E+03 0.  0.
          5    1    3    3  502    0  0.62910294147E+02  0.92900256025E+02 -0.30697564135E+02  0.11639577107E+03  0.41800000000E+01 0.  1.
         -5    1    3    3    0  502 -0.13326339830E+02 -0.30989306268E+02  0.36033402267E+01  0.34181645616E+02  0.41800000000E+01 0.  1.
        -11    1    1    2    0    0 -0.75888130864E+01 -0.63061964862E+02  0.68169179612E+02  0.93174237562E+02  0.00000000000E+00 0. -1.
         11    1    1    2    0    0 -0.41995141231E+02  0.11510151057E+01 -0.91680412334E+01  0.42999647706E+02  0.00000000000E+00 0.  1.
</event>
<event>
 7    1  0.2661133E-009  0.1609430E+03  0.7561462E-02  0.1187636E+00
          2   -1    0    0  501    0  0.00000000000E+00  0.00000000000E+00  0.17356113039E+04  0.17356113039E+04  0.00000000000E+00 0. -1.
         -2   -1    0    0    0  501 -0.00000000000E+00 -0.00000000000E+00 -0.18769802666E+02  0.18769802666E+02  0.00000000000E+00 0.  1.
         25    2    1    2    0    0  0.83619689329E+02  0.11443938612E+03  0.79681644628E+03  0.81893384801E+03  0.12509025867E+03 0.  0.
          5    1    3    3  502    0  0.80113050018E+02  0.64955754569E+02  0.72022848982E+03  0.72758772721E+03  0.41800000000E+01 0.  1.
         -5    1    3    3    0  502  0.35066393108E+01  0.49483631550E+02  0.76587956456E+02  0.91346120798E+02  0.41800000000E+01 0.  1.
        -11    1    1    2    0    0 -0.10199008420E+03 -0.10994876420E+03  0.83284735674E+03  0.84624194392E+03  0.00000000000E+00 0. -1.
         11    1    1    2    0    0  0.18370394872E+02 -0.44906219201E+01  0.87177698199E+02  0.89205314619E+02  0.00000000000E+00 0.  1.
</event>
<event>
 7    1  0.2661133E-009  0.1259396E+03  0.7561462E-02  0.1233608E+00
          1   -1    0    0  501    0  0.00000000000E+00  0.00000000000E+00  0.68658150828E+03  0.68658150828E+03  0.00000000000E+00 0. -1.
         -1   -1    0    0    0  501 -0.00000000000E+00 -0.00000000000E+00 -0.30448683380E+02  0.30448683380E+02  0.00000000000E+00 0.  1.
         25    2    1    2    0    0 -0.76718871876E+02 -0.62361813787E+01  0.22019252040E+03  0.26467451068E+03  0.12507268009E+03 0.  0.
          5    1    3    3  502    0 -0.10303792873E+03  0.18891290548E+02  0.12788336549E+03  0.16536421373E+03  0.41800000000E+01 0. -1.
         -5    1    3    3    0  502  0.26319056857E+02 -0.25127471927E+02  0.92309154910E+02  0.99310296946E+02  0.41800000000E+01 0. -1.
        -11    1    1    2    0    0  0.64054221912E+02  0.39202146878E+02  0.37009894968E+03  0.37764134336E+03  0.00000000000E+00 0. -1.
         11    1    1    2    0    0  0.12664649965E+02 -0.32965965499E+02  0.65841354831E+02  0.74714337620E+02  0.00000000000E+00 0.  1.
</event>
<event>
 7    1  0.2661133E-009  0.9014885E+02  0.7561462E-02  0.1302492E+00
          2   -1    0    0  501    0  0.00000000000E+00  0.00000000000E+00  0.52587590802E+03  0.52587590802E+03  0.00000000000E+00 0.  1.
         -2   -1    0    0    0  501 -0.00000000000E+00 -0.00000000000E+00 -0.25490261320E+02  0.25490261320E+02  0.00000000000E+00 0. -1.
         25    2    1    2    0    0  0.20256942506E+02 -0.35352218686E+02  0.28252071709E+03  0.31165028513E+03  0.12509125290E+03 0.  0.
          5    1    3    3  502    0  0.62759900794E+02 -0.11399918064E+02  0.23453923163E+03  0.24309439906E+03  0.41800000000E+01 0.  1.
         -5    1    3    3    0  502 -0.42502958287E+02 -0.23952300623E+02  0.47981485454E+02  0.68555886069E+02  0.41800000000E+01 0.  1.
        -11    1    1    2    0    0 -0.31380096557E+02  0.11049849121E+01  0.17112909275E+02  0.35760077118E+02  0.00000000000E+00 0. -1.
         11    1    1    2    0    0  0.11123154051E+02  0.34247233774E+02  0.20075202034E+03  0.20395580709E+03  0.00000000000E+00 0.  1.
</event>
<event>
 7    1  0.2661133E-009  0.2224977E+03  0.7561462E-02  0.1132035E+00
         -2   -1    0    0    0  501 -0.00000000000E+00  0.00000000000E+00  0.52419587481E+02  0.52419587481E+02  0.00000000000E+00 0. -1.
          2   -1    0    0  501    0  0.00000000000E+00 -0.00000000000E+00 -0.11886423588E+04  0.11886423588E+04  0.00000000000E+00 0.  1.
         25    2    1    2    0    0 -0.20486015343E+03  0.30419964311E+02 -0.37012149855E+03  0.44218813862E+03  0.12508944622E+03 0.  0.
          5    1    3    3  502    0 -0.20205705373E+03  0.47511571405E+02 -0.37011999987E+03  0.42437093336E+03  0.41800000000E+01 0.  1.
         -5    1    3    3    0  502 -0.28030996989E+01 -0.17091607094E+02 -0.14986818504E-02  0.17817205258E+02  0.41800000000E+01 0.  1.
        -11    1    1    2    0    0  0.18012434337E+03 -0.51202824956E+02 -0.70851479613E+03  0.73284358815E+03  0.00000000000E+00 0.  1.
         11    1    1    2    0    0  0.24735810065E+02  0.20782860645E+02 -0.57586476607E+02  0.66030219477E+02  0.00000000000E+00 0. -1.
</event>
<event>
 7    1  0.2661133E-009  0.1810472E+03  0.7561462E-02  0.1166793E+00
          2   -1    0    0  501    0  0.00000000000E+00  0.00000000000E+00  0.13938328632E+04  0.13938328632E+04  0.00000000000E+00 0. -1.
         -2   -1    0    0    0  501 -0.00000000000E+00 -0.00000000000E+00 -0.41899382975E+02  0.41899382975E+02  0.00000000000E+00 0.  1.
         25    2    1    2    0    0 -0.90399219086E+02  0.13156137670E+03  0.11262624127E+04  0.11443753534E+04  0.12509001783E+03 0.  0.
          5    1    3    3  502    0 -0.11966043477E+03  0.83249797183E+02  0.83982739777E+03  0.85239467316E+03  0.41800000000E+01 0. -1.
         -5    1    3    3    0  502  0.29261215683E+02  0.48311579516E+02  0.28643501494E+03  0.29198068025E+03  0.41800000000E+01 0. -1.
        -11    1    1    2    0    0  0.52651574959E+02 -0.76098255224E+02  0.54231568213E+02  0.10725761411E+03  0.00000000000E+00 0. -1.
         11    1    1    2    0    0  0.37747644127E+02 -0.55463121475E+02  0.17143949934E+03  0.18409927869E+03  0.00000000000E+00 0.  1.
</event>
<event>
 7    1  0.2661133E-009  0.4964455E+03  0.7561462E-02  0.1014711E+00
         -2   -1    0    0    0  501 -0.00000000000E+00  0.00000000000E+00  0.17602334646E+03  0.17602334646E+03  0.00000000000E+00 0.  1.
          2   -1    0    0  501    0  0.00000000000E+00 -0.00000000000E+00 -0.15185008785E+04  0.15185008785E+04  0.00000000000E+00 0. -1.
         25    2    1    2    0    0  0.49944667550E+02 -0.49311271309E+03 -0.51590043881E+03  0.72626126394E+03  0.12509013991E+03 0.  0.
          5    1    3    3  502    0  0.37643440662E+02 -0.19118607349E+03 -0.12256724102E+03  0.23023758228E+03  0.41800000000E+01 0.  1.
         -5    1    3    3    0  502  0.12301226888E+02 -0.30192663959E+03 -0.39333319779E+03  0.49602368166E+03  0.41800000000E+01 0.  1.
        -11    1    1    2    0    0 -0.87354777203E+01  0.14039704648E+03 -0.16038126676E+03  0.21333023686E+03  0.00000000000E+00 0.  1.
         11    1    1    2    0    0 -0.41209189829E+02  0.35271566661E+03 -0.66619582642E+03  0.75493272411E+03  0.00000000000E+00 0. -1.
</event>
<event>
 7    1  0.2661133E-009  0.1465384E+03  0.7561462E-02  0.1204792E+00
          1   -1    0    0  501    0  0.00000000000E+00  0.00000000000E+00  0.35710074318E+03  0.35710074318E+03  0.00000000000E+00 0. -1.
         -1   -1    0    0    0  501 -0.00000000000E+00 -0.00000000000E+00 -0.89182881236E+02  0.89182881236E+02  0.00000000000E+00 0.  1.
         25    2    1    2    0    0  0.11816446012E+03  0.19358374492E+02  0.48432515348E+02  0.17980806199E+03  0.12509054447E+03 0.  0.
          5    1    3    3  502    0  0.96498036052E+02  0.46322339743E+02 -0.14277210304E+02  0.10806915034E+03  0.41800000000E+01 0.  1.
         -5    1    3    3    0  502  0.21666424065E+02 -0.26963965251E+02  0.62709725651E+02  0.71738911652E+02  0.41800000000E+01 0.  1.
        -11    1    1    2    0    0 -0.11207897457E+03 -0.47932169439E+02  0.17667220101E+03  0.21464448750E+03  0.00000000000E+00 0.  1.
         11    1    1    2    0    0 -0.60854855492E+01  0.28573794947E+02  0.42813145589E+02  0.51831074918E+02  0.00000000000E+00 0. -1.
</event>
<event>
 7    1  0.2661133E-009  0.1035434E+03  0.7561462E-02  0.1273016E+00
         -3   -1    0    0    0  501 -0.00000000000E+00  0.00000000000E+00  0.34034202329E+03  0.34034202329E+03  0.00000000000E+00 0.  1.
          3   -1    0    0  501    0  0.00000000000E+00 -0.00000000000E+00 -0.64353332783E+02  0.64353332783E+02  0.00000000000E+00 0. -1.
         25    2    1    2    0    0  0.31341930166E+02  0.64531749215E+02  0.51920374973E+02  0.15326683213E+03  0.12509329818E+03 0.  0.
          5    1    3    3  502    0  0.55999523878E+02  0.42845980391E+02  0.82217936251E+02  0.10839274031E+03  0.41800000000E+01 0. -1.
         -5    1    3    3    0  502 -0.24657593711E+02  0.21685768824E+02 -0.30297561278E+02  0.44874091818E+02  0.41800000000E+01 0. -1.
        -11    1    1    2    0    0  0.21354307580E+02 -0.39739331168E+02  0.15318420225E+03  0.15968913774E+03  0.00000000000E+00 0.  1.
         11    1    1    2    0    0 -0.52696237746E+02 -0.24792418047E+02  0.70884113286E+02  0.91739386206E+02  0.00000000000E+00 0. -1.
</event>
<event>
 7    1  0.2661133E-009  0.1299826E+03  0.7561462E-02  0.1227482E+00
         -1   -1    0    0    0  501 -0.00000000000E+00  0.00000000000E+00  0.53109190696E+02  0.53109190696E+02  0.00000000000E+00 0.  1.
          1   -1    0    0  501    0  0.00000000000E+00 -0.00000000000E+00 -0.41635748928E+03  0.41635748928E+03  0.00000000000E+00 0. -1.
         25    2    1    2    0    0  0.73230448383E+02  0.48608443406E+02 -0.11780793258E+03  0.19300662847E+03  0.12508944926E+03 0.  0.
          5    1    3    3  502    0  0.57355221633E+02  0.87106916564E+02 -0.56252835723E+02  0.11857103478E+03  0.41800000000E+01 0. -1.
         -5    1    3    3    0  502  0.15875226750E+02 -0.38498473158E+02 -0.61555096854E+02  0.74435593694E+02  0.41800000000E+01 0. -1.
        -11    1    1    2    0    0 -0.47400491448E+01 -0.44894465662E+02 -0.16341193994E+03  0.16953301516E+03  0.00000000000E+00 0. -1.
         11    1    1    2    0    0 -0.68490399238E+02 -0.37139777439E+01 -0.82028426066E+02  0.10692703634E+03  0.00000000000E+00 0.  1.
</event>
<event>
 7    1  0.2661133E-009  0.1297393E+03  0.7561462E-02  0.1227843E+00
          1   -1    0    0  501    0  0.00000000000E+00  0.00000000000E+00  0.33954858059E+03  0.33954858059E+03  0.00000000000E+00 0. -1.
         -1   -1    0    0    0  501 -0.00000000000E+00 -0.00000000000E+00 -0.73959318014E+02  0.73959318014E+02  0.00000000000E+00 0.  1.
         25    2    1    2    0    0 -0.11605952383E+02  0.11386440832E+03  0.14323462499E+03  0.22195206840E+03  0.12508701474E+03 0.  0.
          5    1    3    3  502    0 -0.33694242036E+01 -0.14940509036E+02 -0.12091715218E+02  0.19956297417E+02  0.41800000000E+01 0.  1.
         -5    1    3    3    0  502 -0.82365281795E+01  0.12880491736E+03  0.15532634021E+03  0.20199577098E+03  0.41800000000E+01 0.  1.
        -11    1    1    2    0    0  0.79217435532E+01 -0.69507476179E+02  0.12880925405E+03  0.14658058260E+03  0.00000000000E+00 0. -1.
         11    1    1    2    0    0  0.36842088299E+01 -0.44356932142E+02 -0.64546164649E+01  0.44975247608E+02  0.00000000000E+00 0.  1.
</event>
<event>
 7    1  0.2661133E-009  0.1373921E+03  0.7561462E-02  0.1216882E+00
         -1   -1    0    0    0  501 -0.00000000000E+00  0.00000000000E+00  0.22509861900E+02  0.22509861900E+02  0.00000000000E+00 0.  1.
          1   -1    0    0  501    0  0.00000000000E+00 -0.00000000000E+00 -0.12259899639E+04  0.12259899639E+04  0.00000000000E+00 0. -1.
         25    2    1    2    0    0  0.10867661421E+03  0.38678259562E+02 -0.83227422365E+03  0.84949129508E+03  0.12509381607E+03 0.  0.
          5    1    3    3  502    0  0.27842429158E+02  0.63183160443E+02 -0.20082582222E+03  0.21240479254E+03  0.41800000000E+01 0. -1.
         -5    1    3    3    0  502  0.80834185054E+02 -0.24504900882E+02 -0.63144840143E+03  0.63708650253E+03  0.41800000000E+01 0. -1.
        -11    1    1    2    0    0 -0.36430447492E+02  0.47635554391E+01 -0.29676780208E+02  0.47229019134E+02  0.00000000000E+00 0.  1.
         11    1    1    2    0    0 -0.72246166720E+02 -0.43441815001E+02 -0.34152909811E+03  0.35177951156E+03  0.00000000000E+00 0. -1.
</event>
<event>
 7    1  0.2661133E-009  0.2369630E+03  0.7561462E-02  0.1121833E+00
          1   -1    0    0  501    0  0.00000000000E+00  0.00000000000E+00  0.45644225633E+03  0.45644225633E+03  0.00000000000E+00 0. -1.
         -1   -1    0    0    0  501 -0.00000000000E+00 -0.00000000000E+00 -0.18401144208E+03  0.18401144208E+03  0.00000000000E+00 0.  1.
         25    2    1    2    0    0 -0.16516109101E+03 -0.11936525564E+03 -0.47258258408E+02  0.24371615619E+03  0.12505187547E+03 0.  0.
          5    1    3    3  502    0 -0.70555730123E+02 -0.12566643392E+03 -0.27795443762E+02  0.14683399730E+03  0.41800000000E+01 0. -1.
         -5    1    3    3    0  502 -0.94605360892E+02  0.63011782832E+01 -0.19462814646E+02  0.96882158890E+02  0.41800000000E+01 0. -1.
        -11    1    1    2    0    0  0.19934997285E+02  0.82683431510E+02  0.12155400505E+03  0.14835541819E+03  0.00000000000E+00 0.  1.
         11    1    1    2    0    0  0.14522609373E+03  0.36681824129E+02  0.19813506761E+03  0.24838212403E+03  0.00000000000E+00 0. -1.
</event>
<event>
 7    1  0.2661133E-009  0.1012879E+03  0.7561462E-02  0.1277611E+00
          1   -1    0    0  501    0  0.00000000000E+00  0.00000000000E+00  0.14178142162E+03  0.14178142162E+03  0.00000000000E+00 0. -1.
         -1   -1    0    0    0  501 -0.00000000000E+00 -0.00000000000E+00 -0.86245295899E+02  0.86245295899E+02  0.00000000000E+00 0.  1.
         25    2    1    2    0    0  0.21285655291E+02 -0.45631212965E+01  0.37996891245E+02  0.13252827621E+03  0.12508428780E+03 0.  0.
          5    1    3    3  502    0  0.62538955892E+02  0.14361575644E+02  0.54257871507E+02  0.84135396115E+02  0.41800000000E+01 0. -1.
         -5    1    3    3    0  502 -0.41253300601E+02 -0.18924696941E+02 -0.16260980262E+02  0.48392880095E+02  0.41800000000E+01 0. -1.
        -11    1    1    2    0    0  0.74303574801E+01  0.43602321423E+02  0.15918761878E+02  0.47008293156E+02  0.00000000000E+00 0. -1.
         11    1    1    2    0    0 -0.28716012771E+02 -0.39039200126E+02  0.16204725935E+01  0.48490148148E+02  0.00000000000E+00 0.  1.
</event>
<event>
 7    1  0.2661133E-009  0.1081160E+03  0.7561462E-02  0.1264099E+00
         -2   -1    0    0    0  501 -0.00000000000E+00  0.00000000000E+00  0.76870633399E+02  0.76870633399E+02  0.00000000000E+00 0. -1.
          2   -1    0    0  501    0  0.00000000000E+00 -0.00000000000E+00 -0.19482721977E+03  0.19482721977E+03  0.00000000000E+00 0.  1.
         25    2    1    2    0    0 -0.46054585328E+02  0.15027047949E+02 -0.35638314797E+02  0.13879706322E+03  0.12509076016E+03 0.  0.
          5    1    3    3  502    0  0.29632867209E+02 -0.10946724969E+02  0.23173895252E+02  0.39401007953E+02  0.41800000000E+01 0.  1.
         -5    1    3    3    0  502 -0.75687452537E+02  0.25973772918E+02 -0.58812210049E+02  0.99396055264E+02  0.41800000000E+01 0.  1.
        -11    1    1    2    0    0  0.66836805235E+02  0.14245030811E+02 -0.51174353641E+02  0.85375019223E+02  0.00000000000E+00 0. -1.
         11    1    1    2    0    0 -0.20782219906E+02 -0.29272078760E+02 -0.31143917935E+02  0.47525770731E+02  0.00000000000E+00 0.  1.
</event>
<event>
 7    1  0.2661133E-009  0.1269767E+03  0.7561462E-02  0.1232012E+00
          1   -1    0    0  501    0  0.00000000000E+00  0.00000000000E+00  0.69779381033E+02  0.69779381033E+02  0.00000000000E+00 0. -1.
         -1   -1    0    0    0  501 -0.00000000000E+00 -0.00000000000E+00 -0.31375806258E+03  0.31375806258E+03  0.00000000000E+00 0.  1.
         25    2    1    2    0    0  0.44199392243E+02 -0.86555562937E+02 -0.16661871397E+03  0.22989371239E+03  0.12507546283E+03 0.  0.
          5    1    3    3  502    0  0.35480047686E+02 -0.13066304629E+01 -0.13304288606E+03  0.13776219728E+03  0.41800000000E+01 0.  1.
         -5    1    3    3    0  502  0.87193445571E+01 -0.85248932474E+02 -0.33575827911E+02  0.92131515115E+02  0.41800000000E+01 0.  1.
        -11    1    1    2    0    0 -0.49105891391E+02  0.10361244794E+03 -0.63098475293E+02  0.13087530524E+03  0.00000000000E+00 0. -1.
         11    1    1    2    0    0  0.49064991475E+01 -0.17056884999E+02 -0.14261492282E+02  0.22768425986E+02  0.00000000000E+00 0.  1.
</event>
<event>
 7    1  0.2661133E-009  0.9360671E+02  0.7561462E-02  0.1294345E+00
         -2   -1    0    0    0  501 -0.00000000000E+00  0.00000000000E+00  0.33113368068E+02  0.33113368068E+02  0.00000000000E+00 0.  1.
          2   -1    0    0  501    0  0.00000000000E+00 -0.00000000000E+00 -0.59536143403E+03  0.59536143403E+03  0.00000000000E+00 0. -1.
         25    2    1    2    0    0 -0.71992135632E+02  0.86774055890E+01 -0.19402749930E+03  0.24197748595E+03  0.12509303842E+03 0.  0.
          5    1    3    3  502    0 -0.61982259242E+01 -0.33545585264E+01 -0.17088089255E+03  0.17107724252E+03  0.41800000000E+01 0. -1.
         -5    1    3    3    0  502 -0.65793909708E+02  0.12031964115E+02 -0.23146606747E+02  0.70900243435E+02  0.41800000000E+01 0. -1.
        -11    1    1    2    0    0  0.69008130639E+02 -0.40517830043E+02 -0.30899515055E+03  0.31918931641E+03  0.00000000000E+00 0.  1.
         11    1    1    2    0    0  0.29840049937E+01  0.31840424454E+02 -0.59225416117E+02  0.67307999743E+02  0.00000000000E+00 0. -1.
</event>
<event>
 7    1  0.2661133E-009  0.8666785E+02  0.7561462E-02  0.1311128E+00
         -1   -1    0    0    0  501 -0.00000000000E+00  0.00000000000E+00  0.30956721336E+02  0.30956721336E+02  0.00000000000E+00 0.  1.
          1   -1    0    0  501    0  0.00000000000E+00 -0.00000000000E+00 -0.43026682673E+03  0.43026682673E+03  0.00000000000E+00 0. -1.
         25    2    1    2    0    0  0.32963264492E+02  0.18562469257E+02 -0.25021327218E+03  0.28228585398E+03  0.12508988654E+03 0.  0.
          5    1    3    3  502    0  0.76293499335E+02  0.18893618829E+02 -0.10853796468E+03  0.13407322272E+03  0.41800000000E+01 0.  1.
         -5    1    3    3    0  502 -0.43330234843E+02 -0.33114957229E+00 -0.14167530750E+03  0.14821263126E+03  0.41800000000E+01 0.  1.
        -11    1    1    2    0    0 -0.11561321759E+02  0.10080079767E+02  0.83623106978E+01  0.17469985951E+02  0.00000000000E+00 0.  1.
         11    1    1    2    0    0 -0.21401942733E+02 -0.28642549024E+02 -0.15745914391E+03  0.16146770813E+03  0.00000000000E+00 0. -1.
</event>
<event>
 7    1  0.2661133E-009  0.2115010E+03  0.7561462E-02  0.1140383E+00
          1   -1    0    0  501    0  0.00000000000E+00  0.00000000000E+00  0.26250628104E+03  0.26250628104E+03  0.00000000000E+00 0. -1.
         -1   -1    0    0    0  501 -0.00000000000E+00 -0.00000000000E+00 -0.22389871234E+03  0.22389871234E+03  0.00000000000E+00 0.  1.
         25    2    1    2    0    0 -0.20397158514E+03  0.28549477546E+02 -0.44887957990E+02  0.24511517378E+03  0.12508812666E+03 0.  0.
          5    1    3    3  502    0 -0.82977399004E+02 -0.18558894719E+01  0.41914301889E+02  0.93075099645E+02  0.41800000000E+01 0. -1.
         -5    1    3    3    0  502 -0.12099418614E+03  0.30405367018E+02 -0.86802259879E+02  0.15204007413E+03  0.41800000000E+01 0. -1.
        -11    1    1    2    0    0  0.13153432952E+03  0.11960966748E+02  0.13585165355E+02  0.13277387276E+03  0.00000000000E+00 0.  1.
         11    1    1    2    0    0  0.72437255615E+02 -0.40510444294E+02  0.69910361332E+02  0.10851594684E+03  0.00000000000E+00 0. -1.
</event>
<event>
 7    1  0.2661133E-009  0.1147089E+03  0.7561462E-02  0.1252090E+00
         -2   -1    0    0    0  501 -0.00000000000E+00  0.00000000000E+00  0.14060711468E+02  0.14060711468E+02  0.00000000000E+00 0.  1.
          2   -1    0    0  501    0  0.00000000000E+00 -0.00000000000E+00 -0.14043991256E+04  0.14043991256E+04  0.00000000000E+00 0. -1.
         25    2    1    2    0    0  0.54970403969E+02  0.46424595358E+02 -0.10489813145E+04  0.10588632987E+04  0.12511074641E+03 0.  0.
          5    1    3    3  502    0 -0.57388950511E+01  0.61783311838E+02 -0.78764695144E+03  0.79009828822E+03  0.41800000000E+01 0. -1.
         -5    1    3    3    0  502  0.60709299020E+02 -0.15358716480E+02 -0.26133436304E+03  0.26876501049E+03  0.41800000000E+01 0. -1.
        -11    1    1    2    0    0  0.15009689957E+02 -0.28525956427E+02 -0.50548694913E+02  0.59951576627E+02  0.00000000000E+00 0.  1.
         11    1    1    2    0    0 -0.69980093926E+02 -0.17898638930E+02 -0.29080840478E+03  0.29964496177E+03  0.00000000000E+00 0. -1.
</event>
<event>
 7    1  0.2661133E-009  0.1522399E+03  0.7561462E-02  0.1197747E+00
          2   -1    0    0  501    0  0.00000000000E+00  0.00000000000E+00  0.10585857029E+03  0.10585857029E+03  0.00000000000E+00 0. -1.
         -2   -1    0    0    0  501 -0.00000000000E+00 -0.00000000000E+00 -0.38201245219E+03  0.38201245219E+03  0.00000000000E+00 0.  1.
         25    2    1    2    0    0  0.10236844327E+03  0.10588856727E+03 -0.43274483667E+02  0.19802044223E+03  0.12509087796E+03 0.  0.
          5    1    3    3  502    0  0.24210461191E+02  0.29370859291E+02  0.43781223546E+02  0.58164093234E+02  0.41800000000E+01 0.  1.
         -5    1    3    3    0  502  0.78157982078E+02  0.76517707974E+02 -0.87055707212E+02  0.13985634900E+03  0.41800000000E+01 0.  1.
        -11    1    1    2    0    0 -0.32227384145E+02 -0.71890174521E+02 -0.17760584143E+03  0.19429522997E+03  0.00000000000E+00 0.  1.
         11    1    1    2    0    0 -0.70141059123E+02 -0.33998392744E+02 -0.55273556811E+02  0.95555350278E+02  0.00000000000E+00 0. -1.
</event>
<event>
 7    1  0.2661133E-009  0.1027730E+03  0.7561462E-02  0.1274570E+00
         -2   -1    0    0    0  501 -0.00000000000E+00  0.00000000000E+00  0.21290873205E+02  0.21290873205E+02  0.00000000000E+00 0. -1.
          2   -1    0    0  501    0  0.00000000000E+00 -0.00000000000E+00 -0.67991864863E+03  0.67991864863E+03  0.00000000000E+00 0.  1.
         25    2    1    2    0    0  0.19955311676E+02  0.36971881653E+02 -0.30086013461E+03  0.32852608752E+03  0.12508970815E+03 0.  0.
          5    1    3    3  502    0  0.56877207016E+02  0.33661091862E+02 -0.27566981685E+03  0.28351262072E+03  0.41800000000E+01 0.  1.
         -5    1    3    3    0  502 -0.36921895340E+02  0.33107897912E+01 -0.25190317756E+02  0.45013466799E+02  0.41800000000E+01 0.  1.
        -11    1    1    2    0    0  0.35688153825E+02 -0.88969141802E+00 -0.89908341772E+02  0.96736476029E+02  0.00000000000E+00 0.  1.
         11    1    1    2    0    0 -0.55643465501E+02 -0.36082190235E+02 -0.26785929905E+03  0.27594695829E+03  0.00000000000E+00 0. -1.
</event>
<event>
 7    1  0.2661133E-009  0.1201583E+03  0.7561462E-02  0.1242836E+00
         -2   -1    0    0    0  501 -0.00000000000E+00  0.00000000000E+00  0.20879245592E+02  0.20879245592E+02  0.00000000000E+00 0.  1.
          2   -1    0    0  501    0  0.00000000000E+00 -0.00000000000E+00 -0.73946471188E+03  0.73946471188E+03  0.00000000000E+00 0. -1.
         25    2    1    2    0    0 -0.83784301238E+01  0.59526229057E+02 -0.48773681660E+03  0.50709729194E+03  0.12508753411E+03 0.  0.
          5    1    3    3  502    0 -0.62677984813E+02  0.52926445308E+02 -0.33090490083E+03  0.34094759742E+03  0.41800000000E+01 0.  1.
         -5    1    3    3    0  502  0.54299554689E+02  0.65997837495E+01 -0.15683191577E+03  0.16614969452E+03  0.41800000000E+01 0.  1.
        -11    1    1    2    0    0  0.46360162817E+02 -0.35249019551E+02 -0.14555701993E+03  0.15677564902E+03  0.00000000000E+00 0. -1.
         11    1    1    2    0    0 -0.37981732693E+02 -0.24277209506E+02 -0.85291629769E+02  0.96471016520E+02  0.00000000000E+00 0.  1.
</event>
<event>
 7    1  0.2661133E-009  0.1099636E+03  0.7561462E-02  0.1260637E+00
          2   -1    0    0  501    0  0.00000000000E+00  0.00000000000E+00  0.65011320984E+02  0.65011320984E+02  0.00000000000E+00 0.  1.
         -2   -1    0    0    0  501 -0.00000000000E+00 -0.00000000000E+00 -0.34907987659E+03  0.34907987659E+03  0.00000000000E+00 0. -1.
         25    2    1    2    0    0 -0.95357264936E+02  0.14575714266E+02 -0.97375178124E+02  0.18556669352E+03  0.12509041932E+03 0.  0.
          5    1    3    3  502    0 -0.76409671227E+01 -0.51127095757E+01 -0.95004315201E+02  0.95539606889E+02  0.41800000000E+01 0. -1.
         -5    1    3    3    0  502 -0.87716297814E+02  0.19688423842E+02 -0.23708629232E+01  0.90027086627E+02  0.41800000000E+01 0. -1.
        -11    1    1    2    0    0  0.61300383357E+02  0.26234320902E+02 -0.14936631572E+03  0.16357344792E+03  0.00000000000E+00 0. -1.
         11    1    1    2    0    0  0.34056881579E+02 -0.40810035168E+02 -0.37327061757E+02  0.64951056133E+02  0.00000000000E+00 0.  1.
</event>
<event>
 7    1  0.2661133E-009  0.1049728E+03  0.7561462E-02  0.1270173E+00
         -4   -1    0    0    0  501 -0.00000000000E+00  0.00000000000E+00  0.43610556594E+02  0.43610556594E+02  0.00000000000E+00 0.  1.
          4   -1    0    0  501    0  0.00000000000E+00 -0.00000000000E+00 -0.33215919927E+03  0.33215919927E+03  0.00000000000E+00 0. -1.
         25    2    1    2    0    0  0.87800893084E+01 -0.23246615998E+02 -0.97049798347E+02  0.16026093832E+03  0.12508960736E+03 0.  0.
          5    1    3    3  502    0 -0.27975377282E+02 -0.59198447982E+02 -0.84843391818E+02  0.10725181356E+03  0.41800000000E+01 0. -1.
         -5    1    3    3    0  502  0.36755466590E+02  0.35951831984E+02 -0.12206406530E+02  0.53009124758E+02  0.41800000000E+01 0. -1.
        -11    1    1    2    0    0  0.26185658180E+02  0.44645255134E+02 -0.14258394739E+03  0.15168740737E+03  0.00000000000E+00 0. -1.
         11    1    1    2    0    0 -0.34965747489E+02 -0.21398639136E+02 -0.48914896940E+02  0.63821410177E+02  0.00000000000E+00 0.  1.
</event>
<event>
 7    1  0.3421276E-009  0.1459262E+03  0.7561462E-02  0.1205570E+00
         -1   -1    0    0    0  501 -0.00000000000E+00  0.00000000000E+00  0.41628319982E+02  0.41628319982E+02  0.00000000000E+00 0.  1.
          1   -1    0    0  501    0  0.00000000000E+00 -0.00000000000E+00 -0.66576311379E+03  0.66576311379E+03  0.00000000000E+00 0. -1.
         25    2    1    2    0    0  0.11081316119E+03 -0.47695354724E+02 -0.40788460685E+03  0.44336420022E+03  0.12509019938E+03 0.  0.
          5    1    3    3  502    0  0.20512699202E+02  0.40072530802E+02 -0.76850031810E+02  0.89162651052E+02  0.41800000000E+01 0.  1.
         -5    1    3    3    0  502  0.90300461984E+02 -0.87767885526E+02 -0.33103457504E+03  0.35420154917E+03  0.41800000000E+01 0.  1.
        -11    1    1    2    0    0 -0.47270705146E+02  0.20879913929E+02 -0.18986471690E+02  0.55054304808E+02  0.00000000000E+00 0.  1.
         11    1    1    2    0    0 -0.63542456039E+02  0.26815440795E+02 -0.19726371528E+03  0.20897292875E+03  0.00000000000E+00 0. -1.
</event>
<event>
 7    1  0.2661133E-009  0.9894429E+02  0.7561462E-02  0.1282532E+00
         -1   -1    0    0    0  501 -0.00000000000E+00  0.00000000000E+00  0.60716391818E+02  0.60716391818E+02  0.00000000000E+00 0.  1.
          1   -1    0    0  501    0  0.00000000000E+00 -0.00000000000E+00 -0.19020042960E+03  0.19020042960E+03  0.00000000000E+00 0. -1.
         25    2    1    2    0    0 -0.64513776825E+01  0.24785513620E+02 -0.98682622581E+02  0.16137059870E+03  0.12508504374E+03 0.  0.
          5    1    3    3  502    0 -0.56725162327E+02 -0.14462288245E+02 -0.69904160204E+02  0.91274124680E+02  0.41800000000E+01 0. -1.
         -5    1    3    3    0  502  0.50273784644E+02  0.39247801865E+02 -0.28778462376E+02  0.70096474023E+02  0.41800000000E+01 0. -1.
        -11    1    1    2    0    0  0.23331759782E+02  0.17883149288E+02  0.68561590237E+01  0.30185840381E+02  0.00000000000E+00 0.  1.
         11    1    1    2    0    0 -0.16880382100E+02 -0.42668662907E+02 -0.37657574223E+02  0.59360382331E+02  0.00000000000E+00 0. -1.
</event>
<event>
 7    1  0.2661133E-009  0.1000613E+03  0.7561462E-02  0.1280167E+00
         -4   -1    0    0    0  501 -0.00000000000E+00  0.00000000000E+00  0.11076572407E+03  0.11076572407E+03  0.00000000000E+00 0.  1.
          4   -1    0    0  501    0  0.00000000000E+00 -0.00000000000E+00 -0.11119042419E+03  0.11119042419E+03  0.00000000000E+00 0. -1.
         25    2    1    2    0    0  0.68106409248E+01 -0.14391896702E+02  0.18523773377E+02  0.12745487869E+03  0.12509238347E+03 0.  0.
          5    1    3    3  502    0 -0.17512442534E+02  0.47061289256E+02  0.32248638631E+02  0.59823888903E+02  0.41800000000E+01 0.  1.
         -5    1    3    3    0  502  0.24323083459E+02 -0.61453185958E+02 -0.13724865253E+02  0.67630989787E+02  0.41800000000E+01 0.  1.
        -11    1    1    2    0    0 -0.27523870510E+02  0.41252498167E+02 -0.31024120928E+02  0.58496394182E+02  0.00000000000E+00 0. -1.
         11    1    1    2    0    0  0.20713229585E+02 -0.26860601465E+02  0.12075647424E+02  0.36004875387E+02  0.00000000000E+00 0.  1.
</event>
<event>
 7    1  0.2661133E-009  0.1395100E+03  0.7561462E-02  0.1213990E+00
          1   -1    0    0  501    0  0.00000000000E+00  0.00000000000E+00  0.11118009980E+03  0.11118009980E+03  0.00000000000E+00 0. -1.
         -1   -1    0    0    0  501 -0.00000000000E+00 -0.00000000000E+00 -0.48150030261E+03  0.48150030261E+03  0.00000000000E+00 0.  1.
         25    2    1    2    0    0 -0.98684337858E+02 -0.22843043819E+02  0.35627139142E+02  0.16485996327E+03  0.12509640785E+03 0.  0.
          5    1    3    3  502    0 -0.20989832488E+02 -0.59102465958E+02  0.46700772879E+02  0.78307784656E+02  0.41800000000E+01 0.  1.
         -5    1    3    3    0  502 -0.77694505370E+02  0.36259422140E+02 -0.11073633738E+02  0.86552178614E+02  0.41800000000E+01 0.  1.
        -11    1    1    2    0    0  0.11250959706E+03  0.27337970299E+02 -0.38693659024E+03  0.40388822577E+03  0.00000000000E+00 0. -1.
         11    1    1    2    0    0 -0.13825259199E+02 -0.44949264799E+01 -0.19010751715E+02  0.23932213369E+02  0.00000000000E+00 0.  1.
</event>
<event>
 7    1  0.2661133E-009  0.9787737E+02  0.7561462E-02  0.1284824E+00
          1   -1    0    0  501    0  0.00000000000E+00  0.00000000000E+00  0.71052053531E+02  0.71052053531E+02  0.00000000000E+00 0. -1.
         -1   -1    0    0    0  501 -0.00000000000E+00 -0.00000000000E+00 -0.17760278140E+03  0.17760278140E+03  0.00000000000E+00 0.  1.
         25    2    1    2    0    0  0.20386865704E+01  0.18521269584E+01 -0.34674879090E+02  0.12983437650E+03  0.12508809482E+03 0.  0.
          5    1    3    3  502    0  0.48717803946E+02 -0.15448792462E+02  0.20659830578E+02  0.55284632669E+02  0.41800000000E+01 0.  1.
         -5    1    3    3    0  502 -0.46679117376E+02  0.17300919420E+02 -0.55334709668E+02  0.74549743835E+02  0.41800000000E+01 0.  1.
        -11    1    1    2    0    0  0.42540419914E+02 -0.19212914776E+02 -0.32797726559E+02  0.57048350441E+02  0.00000000000E+00 0.  1.
         11    1    1    2    0    0 -0.44579106484E+02  0.17360787817E+02 -0.39078122217E+02  0.61772107982E+02  0.00000000000E+00 0. -1.
</event>
<event>
 7    1  0.2661133E-009  0.8450210E+02  0.7561462E-02  0.1316740E+00
         -3   -1    0    0    0  501 -0.00000000000E+00  0.00000000000E+00  0.12528033238E+03  0.12528033238E+03  0.00000000000E+00 0.  1.
          3   -1    0    0  501    0  0.00000000000E+00 -0.00000000000E+00 -0.10072833365E+03  0.10072833365E+03  0.00000000000E+00 0. -1.
         25    2    1    2    0    0  0.11026528277E+02 -0.13467843603E+02  0.28262439989E+02  0.12942152397E+03  0.12509275845E+03 0.  0.
          5    1    3    3  502    0 -0.32896347799E+01 -0.42716559446E+02 -0.36743068636E+02  0.56595509015E+02  0.41800000000E+01 0. -1.
         -5    1    3    3    0  502  0.14316163057E+02  0.29248715843E+02  0.65005508625E+02  0.72826014958E+02  0.41800000000E+01 0. -1.
        -11    1    1    2    0    0  0.31499067325E+02 -0.21443996405E+02 -0.14031532431E+02  0.40606897524E+02  0.00000000000E+00 0.  1.
         11    1    1    2    0    0 -0.42525595602E+02  0.34911840008E+02  0.10321091173E+02  0.55980244525E+02  0.00000000000E+00 0. -1.
</event>
<event>
 7    1  0.2661133E-009  0.8067669E+02  0.7561462E-02  0.1327142E+00
         -1   -1    0    0    0  501 -0.00000000000E+00  0.00000000000E+00  0.11363289402E+03  0.11363289402E+03  0.00000000000E+00 0.  1.
          1   -1    0    0  501    0  0.00000000000E+00 -0.00000000000E+00 -0.11516234229E+03  0.11516234229E+03  0.00000000000E+00 0. -1.
         25    2    1    2    0    0 -0.20163719276E+01 -0.23720800182E+02  0.10255234330E+02  0.12775412767E+03  0.12509678328E+03 0.  0.
          5    1    3    3  502    0 -0.32893444284E+02 -0.97681900990E+01  0.58918238259E+02  0.68309790032E+02  0.41800000000E+01 0. -1.
         -5    1    3    3    0  502  0.30877072356E+02 -0.13952610083E+02 -0.48663003930E+02  0.59444337635E+02  0.41800000000E+01 0. -1.
        -11    1    1    2    0    0  0.25037623040E+02  0.51082422523E+02 -0.26016220906E+02  0.62555097382E+02  0.00000000000E+00 0. -1.
         11    1    1    2    0    0 -0.23021251112E+02 -0.27361622341E+02  0.14231538309E+02  0.38486011258E+02  0.00000000000E+00 0.  1.
</event>
<event>
 7    1  0.2661133E-009  0.1071599E+03  0.7561462E-02  0.1265921E+00
          1   -1    0    0  501    0  0.00000000000E+00  0.00000000000E+00  0.36974845105E+03  0.36974845105E+03  0.00000000000E+00 0. -1.
         -1   -1    0    0    0  501 -0.00000000000E+00 -0.00000000000E+00 -0.65926003273E+02  0.65926003273E+02  0.00000000000E+00 0.  1.
         25    2    1    2    0    0  0.85627903380E+02 -0.46630256788E+02  0.23818636119E+03  0.28615726093E+03  0.12508683639E+03 0.  0.
          5    1    3    3  502    0  0.72494561723E+00 -0.55319960770E+01  0.16889903640E+03  0.16904285085E+03  0.41800000000E+01 0. -1.
         -5    1    3    3    0  502  0.84902957763E+02 -0.41098260711E+02  0.69287324790E+02  0.11711441007E+03  0.41800000000E+01 0. -1.
        -11    1    1    2    0    0 -0.78566586020E+02  0.14326163030E+02  0.80383037987E+02  0.11331098880E+03  0.00000000000E+00 0.  1.
         11    1    1    2    0    0 -0.70613173605E+01  0.32304093758E+02 -0.14746951398E+02  0.36206204605E+02  0.00000000000E+00 0. -1.
</event>
<event>
 7    1  0.2661133E-009  0.9476028E+02  0.7561462E-02  0.1291717E+00
          1   -1    0    0  501    0  0.00000000000E+00  0.00000000000E+00  0.16008918688E+03  0.16008918688E+03  0.00000000000E+00 0. -1.
         -1   -1    0    0    0  501 -0.00000000000E+00 -0.00000000000E+00 -0.84357099838E+02  0.84357099838E+02  0.00000000000E+00 0.  1.
         25    2    1    2    0    0 -0.35967444867E+02  0.16855345183E+02  0.28775243315E+02  0.13436194948E+03  0.12508940439E+03 0.  0.
          5    1    3    3  502    0 -0.69439208374E+02  0.19051685469E+02 -0.20155960723E+02  0.74889956146E+02  0.41800000000E+01 0. -1.
         -5    1    3    3    0  502  0.33471763507E+02 -0.21963402863E+01  0.48931204039E+02  0.59471993338E+02  0.41800000000E+01 0. -1.
        -11    1    1    2    0    0  0.36967875664E+02 -0.43409607957E+02  0.10335998413E+01  0.57027065703E+02  0.00000000000E+00 0.  1.
         11    1    1    2    0    0 -0.10004307970E+01  0.26554262775E+02  0.45923243889E+02  0.53057271533E+02  0.00000000000E+00 0. -1.
</event>
<event>
 7    1  0.2661133E-009  0.1165869E+03  0.7561462E-02  0.1248836E+00
         -1   -1    0    0    0  501 -0.00000000000E+00  0.00000000000E+00  0.17346277119E+03  0.17346277119E+03  0.00000000000E+00 0.  1.
          1   -1    0    0  501    0  0.00000000000E+00 -0.00000000000E+00 -0.87892799717E+02  0.87892799717E+02  0.00000000000E+00 0. -1.
         25    2    1    2    0    0  0.24455732020E+02  0.44511743002E+02  0.16446587558E+02  0.13600333292E+03  0.12508812186E+03 0.  0.
          5    1    3    3  502    0 -0.48018643782E+02  0.16565192875E+02 -0.13377520372E+02  0.52693701872E+02  0.41800000000E+01 0.  1.
         -5    1    3    3    0  502  0.72474375802E+02  0.27946550127E+02  0.29824107929E+02  0.83309631050E+02  0.41800000000E+01 0.  1.
        -11    1    1    2    0    0 -0.45490222042E+02  0.94855596802E+01  0.27404535075E+02  0.53947610574E+02  0.00000000000E+00 0. -1.
         11    1    1    2    0    0  0.21034490022E+02 -0.53997302682E+02  0.41718848844E+02  0.71404627415E+02  0.00000000000E+00 0.  1.
</event>
<event>
 7    1  0.2661133E-009  0.7794217E+02  0.7561462E-02  0.1334995E+00
         -2   -1    0    0    0  501 -0.00000000000E+00  0.00000000000E+00  0.61220969702E+02  0.61220969702E+02  0.00000000000E+00 0.  1.
          2   -1    0    0  501    0  0.00000000000E+00 -0.00000000000E+00 -0.16801155464E+03  0.16801155464E+03  0.00000000000E+00 0. -1.
         25    2    1    2    0    0  0.55576500961E+01 -0.52328475025E+01 -0.85069227291E+02  0.15146754511E+03  0.12508946248E+03 0.  0.
          5    1    3    3  502    0 -0.40503802907E+02 -0.20655842099E+02  0.80448212690E+01  0.46361766705E+02  0.41800000000E+01 0. -1.
         -5    1    3    3    0  502  0.46061453003E+02  0.15422994597E+02 -0.93114048560E+02  0.10510577841E+03  0.41800000000E+01 0. -1.
        -11    1    1    2    0    0 -0.28571920737E+02  0.19317390502E+02 -0.33720893710E+02  0.48234996662E+02  0.00000000000E+00 0.  1.
         11    1    1    2    0    0  0.23014270641E+02 -0.14084543000E+02  0.11999536065E+02  0.29529982567E+02  0.00000000000E+00 0. -1.
</event>
<event>
 7    1  0.2661133E-009  0.1147158E+03  0.7561462E-02  0.1252078E+00
         -1   -1    0    0    0  501 -0.00000000000E+00  0.00000000000E+00  0.61318389919E+03  0.61318389919E+03  0.00000000000E+00 0.  1.
          1   -1    0    0  501    0  0.00000000000E+00 -0.00000000000E+00 -0.41040957360E+02  0.41040957360E+02  0.00000000000E+00 0. -1.
         25    2    1    2    0    0  0.29554964842E+02 -0.65432707463E+02  0.49508704229E+03  0.51566836605E+03  0.12509096348E+03 0.  0.
          5    1    3    3  502    0  0.56505804790E+01  0.27780412170E+02  0.33251546133E+02  0.43895535995E+02  0.41800000000E+01 0.  1.
         -5    1    3    3    0  502  0.23904384363E+02 -0.93213119632E+02  0.46183549616E+03  0.47177283005E+03  0.41800000000E+01 0.  1.
        -11    1    1    2    0    0  0.24893966620E+02  0.10216501186E+02  0.49348798204E+02  0.56208454478E+02  0.00000000000E+00 0.  1.
         11    1    1    2    0    0 -0.54448931461E+02  0.55216206277E+02  0.27707101334E+02  0.82348036025E+02  0.00000000000E+00 0. -1.
</event>
<event>
 7    1  0.2661133E-009  0.8120486E+02  0.7561462E-02  0.1325667E+00
          1   -1    0    0  501    0  0.00000000000E+00  0.00000000000E+00  0.80536998706E+02  0.80536998706E+02  0.00000000000E+00 0. -1.
         -1   -1    0    0    0  501 -0.00000000000E+00 -0.00000000000E+00 -0.16210742896E+03  0.16210742896E+03  0.00000000000E+00 0.  1.
         25    2    1    2    0    0  0.37274657922E+02  0.26483278414E+01 -0.37154680221E+02  0.13573721166E+03  0.12509079343E+03 0.  0.
          5    1    3    3  502    0  0.19136672884E+02 -0.25161079051E+02 -0.77214458900E+02  0.83539435067E+02  0.41800000000E+01 0. -1.
         -5    1    3    3    0  502  0.18137985038E+02  0.27809406893E+02  0.40059778679E+02  0.52197776588E+02  0.41800000000E+01 0. -1.
        -11    1    1    2    0    0 -0.52713684023E+02 -0.33571458462E+02 -0.31729568248E+02  0.70089519956E+02  0.00000000000E+00 0. -1.
         11    1    1    2    0    0  0.15439026101E+02  0.30923130621E+02 -0.12686181782E+02  0.36817696051E+02  0.00000000000E+00 0.  1.
</event>
<event>
 7    1  0.2661133E-009  0.1355668E+03  0.7561462E-02  0.1219422E+00
          2   -1    0    0  501    0  0.00000000000E+00  0.00000000000E+00  0.29138918026E+03  0.29138918026E+03  0.00000000000E+00 0. -1.
         -2   -1    0    0    0  501 -0.00000000000E+00 -0.00000000000E+00 -0.96661885051E+02  0.96661885051E+02  0.00000000000E+00 0.  1.
         25    2    1    2    0    0  0.27466914357E+01  0.12023929970E+03  0.14955680604E+03  0.22908503671E+03  0.12509069633E+03 0.  0.
          5    1    3    3  502    0 -0.27778426475E+02  0.24639015834E+02  0.11804176199E+03  0.12381458739E+03  0.41800000000E+01 0. -1.
         -5    1    3    3    0  502  0.30525117911E+02  0.95600283866E+02  0.31515044051E+02  0.10527044932E+03  0.41800000000E+01 0. -1.
        -11    1    1    2    0    0 -0.29692200523E+02 -0.75084133052E+02  0.64085792414E+02  0.10308366795E+03  0.00000000000E+00 0. -1.
         11    1    1    2    0    0  0.26945509088E+02 -0.45155166647E+02 -0.18915303242E+02  0.55882360649E+02  0.00000000000E+00 0.  1.
</event>
<event>
 7    1  0.3001230E-009  0.2234583E+03  0.7561462E-02  0.1131331E+00
         -1   -1    0    0    0  501 -0.00000000000E+00  0.00000000000E+00  0.25083424341E+02  0.25083424341E+02  0.00000000000E+00 0.  1.
          1   -1    0    0  501    0  0.00000000000E+00 -0.00000000000E+00 -0.26111347054E+04  0.26111347054E+04  0.00000000000E+00 0. -1.
         25    2    1    2    0    0 -0.36290087648E+02  0.19966768267E+03 -0.19035602253E+04  0.19184297970E+04  0.12508877095E+03 0.  0.
          5    1    3    3  502    0  0.14367390112E+02 -0.91709696231E+01 -0.64247563911E+02  0.66601429797E+02  0.41800000000E+01 0. -1.
         -5    1    3    3    0  502 -0.50657477760E+02  0.20883865229E+03 -0.18393126614E+04  0.18518283672E+04  0.41800000000E+01 0. -1.
        -11    1    1    2    0    0 -0.20418521865E+02 -0.69729766286E+02 -0.32898100622E+03  0.33690897702E+03  0.00000000000E+00 0. -1.
         11    1    1    2    0    0  0.56708609513E+02 -0.12993791638E+03 -0.35351004947E+03  0.38087935568E+03  0.00000000000E+00 0.  1.
</event>
<event>
 7    1  0.2661133E-009  0.1526678E+03  0.7561462E-02  0.1197233E+00
         -2   -1    0    0    0  501 -0.00000000000E+00  0.00000000000E+00  0.56962590005E+02  0.56962590005E+02  0.00000000000E+00 0. -1.
          2   -1    0    0  501    0  0.00000000000E+00 -0.00000000000E+00 -0.54739858641E+03  0.54739858641E+03  0.00000000000E+00 0.  1.
         25    2    1    2    0    0  0.61895692559E+02 -0.11135663940E+03 -0.34576903023E+03  0.38914630567E+03  0.12508895656E+03 0.  0.
          5    1    3    3  502    0  0.88320469354E+02 -0.31931078622E+02 -0.20023395766E+03  0.22120399926E+03  0.41800000000E+01 0.  1.
         -5    1    3    3    0  502 -0.26424776795E+02 -0.79425560776E+02 -0.14553507257E+03  0.16794230641E+03  0.41800000000E+01 0.  1.
        -11    1    1    2    0    0 -0.50237291195E+02  0.85770576121E+02 -0.40524269633E+02  0.10734334439E+03  0.00000000000E+00 0. -1.
         11    1    1    2    0    0 -0.11658401364E+02  0.25586063277E+02 -0.10414269654E+03  0.10787152636E+03  0.00000000000E+00 0.  1.
</event>
<event>
 7    1  0.2661133E-009  0.1539552E+03  0.7561462E-02  0.1195695E+00
          1   -1    0    0  501    0  0.00000000000E+00  0.00000000000E+00  0.14915678562E+04  0.14915678562E+04  0.00000000000E+00 0. -1.
         -1   -1    0    0    0  501 -0.00000000000E+00 -0.00000000000E+00 -0.20988264353E+02  0.20988264353E+02  0.00000000000E+00 0.  1.
         25    2    1    2    0    0  0.91467100584E+02  0.10338362152E+03  0.82718077593E+03  0.84789794578E+03  0.12509391151E+03 0.  0.
          5    1    3    3  502    0  0.21785108683E+02  0.49453750933E+02  0.87160748861E+02  0.10263884734E+03  0.41800000000E+01 0.  1.
         -5    1    3    3    0  502  0.69681991901E+02  0.53929870589E+02  0.74002002707E+03  0.74525909844E+03  0.41800000000E+01 0.  1.
        -11    1    1    2    0    0 -0.16176441273E+02 -0.86939086322E+02  0.30274868026E+03  0.31539950124E+03  0.00000000000E+00 0.  1.
         11    1    1    2    0    0 -0.75290659310E+02 -0.16444535200E+02  0.34065013567E+03  0.34925867354E+03  0.00000000000E+00 0. -1.
</event>
<event>
 7    1  0.2661133E-009  0.1268665E+03  0.7561462E-02  0.1232181E+00
          1   -1    0    0  501    0  0.00000000000E+00  0.00000000000E+00  0.13289226044E+03  0.13289226044E+03  0.00000000000E+00 0. -1.
         -1   -1    0    0    0  501 -0.00000000000E+00 -0.00000000000E+00 -0.16462453774E+03  0.16462453774E+03  0.00000000000E+00 0.  1.
         25    2    1    2    0    0 -0.46388892371E+02  0.91035474273E+02 -0.20092894510E+02  0.16275875772E+03  0.12508917577E+03 0.  0.
          5    1    3    3  502    0  0.27519738259E+02  0.38002906613E+01  0.27065004241E+02  0.39009807196E+02  0.41800000000E+01 0.  1.
         -5    1    3    3    0  502 -0.73908630630E+02  0.87235183612E+02 -0.47157898751E+02  0.12374895052E+03  0.41800000000E+01 0.  1.
        -11    1    1    2    0    0 -0.84297978249E+01 -0.18299622629E+02 -0.35308632232E+02  0.40652640625E+02  0.00000000000E+00 0.  1.
         11    1    1    2    0    0  0.54818690196E+02 -0.72735851644E+02  0.23669249445E+02  0.94105399837E+02  0.00000000000E+00 0. -1.
</event>
<event>
 6    1  0.2661133E-009  0.1155303E+03  0.7561462E-02  0.1250658E+00
         -1   -1    0    0    0  501 -0.00000000000E+00  0.00000000000E+00  0.50775409508E+02  0.50775409508E+02  0.00000000000E+00 0. -1.
          1   -1    0    0  501    0  0.00000000000E+00 -0.00000000000E+00 -0.55687020663E+03  0.55687020663E+03  0.00000000000E+00 0.  1.
          5    1    1    2  502    0  0.33805590558E+02  0.26728185209E+02 -0.24591438160E+02  0.49793825604E+02  0.41800000000E+01 0. -1.
         -5    1    1    2    0  502  0.38402553391E+02  0.38907313699E+02 -0.39545675734E+03  0.39923934487E+03  0.41800000000E+01 0. -1.
        -11    1    1    2    0    0  0.10569421659E+02  0.14353855363E+02 -0.80019191703E+01  0.19539103060E+02  0.00000000000E+00 0. -1.
         11    1    1    2    0    0 -0.82777565608E+02 -0.79989354270E+02 -0.78044682454E+02  0.13907334261E+03  0.00000000000E+00 0.  1.
</event>
<event>
 6    1  0.2661133E-009  0.1427735E+03  0.7561462E-02  0.1209645E+00
         -2   -1    0    0    0  501 -0.00000000000E+00  0.00000000000E+00  0.11483302293E+03  0.11483302293E+03  0.00000000000E+00 0.  1.
          2   -1    0    0  501    0  0.00000000000E+00 -0.00000000000E+00 -0.42897449332E+03  0.42897449332E+03  0.00000000000E+00 0. -1.
          5    1    1    2  502    0  0.12179771650E+02 -0.18254284580E+02 -0.45512930347E+02  0.50699753172E+02  0.41800000000E+01 0.  1.
         -5    1    1    2    0  502 -0.35601272595E+02 -0.10391955488E+03  0.62979289261E+02  0.12669091433E+03  0.41800000000E+01 0.  1.
        -11    1    1    2    0    0 -0.32969498651E+02  0.26825637724E+02 -0.12433381851E+03  0.13139825382E+03  0.00000000000E+00 0.  1.
         11    1    1    2    0    0  0.56390999596E+02  0.95348201740E+02 -0.20727401079E+03  0.23501859493E+03  0.00000000000E+00 0. -1.
</event>
<event>
 7    1  0.2661133E-009  0.1050630E+03  0.7561462E-02  0.1269996E+00
          2   -1    0    0  501    0  0.00000000000E+00  0.00000000000E+00  0.15839686314E+03  0.15839686314E+03  0.00000000000E+00 0. -1.
         -2   -1    0    0    0  501 -0.00000000000E+00 -0.00000000000E+00 -0.16382166271E+03  0.16382166271E+03  0.00000000000E+00 0.  1.
         25    2    1    2    0    0 -0.30249853059E+02 -0.79703578950E+02  0.79723950487E+02  0.17109332830E+03  0.12509718062E+03 0.  0.
          5    1    3    3  502    0  0.14866939925E+02 -0.99816378637E+01  0.85773289763E+02  0.87722224287E+02  0.41800000000E+01 0. -1.
         -5    1    3    3    0  502 -0.45116792984E+02 -0.69721941086E+02 -0.60493392755E+01  0.83371104008E+02  0.41800000000E+01 0. -1.
        -11    1    1    2    0    0 -0.12461951711E+02 -0.52322710478E+01  0.98513333906E+01  0.16725001355E+02  0.00000000000E+00 0. -1.
         11    1    1    2    0    0  0.42711804770E+02  0.84935849997E+02 -0.95000083446E+02  0.13440019619E+03  0.00000000000E+00 0.  1.
</event>
<event>
 7    1  0.2661133E-009  0.2258567E+03  0.7561462E-02  0.1129590E+00
          2   -1    0    0  501    0  0.00000000000E+00  0.00000000000E+00  0.30957936392E+04  0.30957936392E+04  0.00000000000E+00 0. -1.
         -2   -1    0    0    0  501 -0.00000000000E+00 -0.00000000000E+00 -0.18924826128E+02  0.18924826128E+02  0.00000000000E+00 0.  1.
         25    2    1    2    0    0 -0.16717583489E+02  0.20315117851E+03  0.20527879890E+04  0.20666726802E+04  0.12509020884E+03 0.  0.
          5    1    3    3  502    0  0.15950317828E+02  0.20545619061E+03  0.17582396012E+04  0.17702798159E+04  0.41800000000E+01 0.  1.
         -5    1    3    3    0  502 -0.32667901317E+02 -0.23050121087E+01  0.29454838776E+03  0.29639286427E+03  0.41800000000E+01 0.  1.
        -11    1    1    2    0    0  0.24524479420E+02 -0.27858633718E+02  0.85563300791E+02  0.93266457024E+02  0.00000000000E+00 0.  1.
         11    1    1    2    0    0 -0.78068959311E+01 -0.17529254479E+03  0.93851752325E+03  0.95477932808E+03  0.00000000000E+00 0. -1.
</event>
<event>
 7    1  0.2661133E-009  0.9996110E+02  0.7561462E-02  0.1280378E+00
          2   -1    0    0  501    0  0.00000000000E+00  0.00000000000E+00  0.63685926023E+03  0.63685926023E+03  0.00000000000E+00 0. -1.
         -2   -1    0    0    0  501 -0.00000000000E+00 -0.00000000000E+00 -0.29689624439E+02  0.29689624439E+02  0.00000000000E+00 0.  1.
         25    2    1    2    0    0  0.87018226090E+01 -0.66120812886E+02  0.45516319584E+03  0.47672781897E+03  0.12509274526E+03 0.  0.
          5    1    3    3  502    0  0.32989231127E+02 -0.41002802785E+02  0.59665802731E+02  0.79668058983E+02  0.41800000000E+01 0.  1.
         -5    1    3    3    0  502 -0.24287408518E+02 -0.25118010102E+02  0.39549739311E+03  0.39705975999E+03  0.41800000000E+01 0.  1.
        -11    1    1    2    0    0 -0.43986273297E+02  0.62562483166E+02  0.87519991330E+02  0.11622652632E+03  0.00000000000E+00 0.  1.
         11    1    1    2    0    0  0.35284450688E+02  0.35583297208E+01  0.64486448622E+02  0.73594539381E+02  0.00000000000E+00 0. -1.
</event>
<event>
 7    1  0.2661133E-009  0.1961253E+03  0.7561462E-02  0.1153050E+00
          2   -1    0    0  501    0  0.00000000000E+00  0.00000000000E+00  0.89065945998E+02  0.89065945998E+02  0.00000000000E+00 0. -1.
         -2   -1    0    0    0  501 -0.00000000000E+00 -0.00000000000E+00 -0.46539025700E+03  0.46539025700E+03  0.00000000000E+00 0.  1.
         25    2    1    2    0    0 -0.12295746475E+03  0.11367983118E+03 -0.14567916490E+03  0.25477793548E+03  0.12509090761E+03 0.  0.
          5    1    3    3  502    0 -0.92091549346E+02  0.93616218378E+01 -0.10108921204E+03  0.13713130429E+03  0.41800000000E+01 0. -1.
         -5    1    3    3    0  502 -0.30865915401E+02  0.10431820935E+03 -0.44589952857E+02  0.11764663119E+03  0.41800000000E+01 0. -1.
        -11    1    1    2    0    0  0.37268368332E+02 -0.96337203249E+02 -0.11288391659E+03  0.15301165522E+03  0.00000000000E+00 0. -1.
         11    1    1    2    0    0  0.85689096415E+02 -0.17342627934E+02 -0.11776122951E+03  0.14666661230E+03  0.00000000000E+00 0.  1.
</event>
<event>
 7    1  0.2661133E-009  0.1209794E+03  0.7561462E-02  0.1241490E+00
         -1   -1    0    0    0  501 -0.00000000000E+00  0.00000000000E+00  0.32163217279E+02  0.32163217279E+02  0.00000000000E+00 0.  1.
          1   -1    0    0  501    0  0.00000000000E+00 -0.00000000000E+00 -0.59218818500E+03  0.59218818500E+03  0.00000000000E+00 0. -1.
         25    2    1    2    0    0 -0.93089736974E+02  0.56352314845E+01 -0.30181450496E+03  0.33976753311E+03  0.12511005630E+03 0.  0.
          5    1    3    3  502    0 -0.30758519369E+02 -0.52752211722E+02 -0.71659311819E+02  0.94241242169E+02  0.41800000000E+01 0.  1.
         -5    1    3    3    0  502 -0.62331217606E+02  0.58387443206E+02 -0.23015519314E+03  0.24552629094E+03  0.41800000000E+01 0.  1.
        -11    1    1    2    0    0  0.45358421088E+02  0.69305373089E+01 -0.21220898014E+03  0.21711303499E+03  0.00000000000E+00 0. -1.
         11    1    1    2    0    0  0.47731315886E+02 -0.12565768793E+02 -0.46001482623E+02  0.67470834181E+02  0.00000000000E+00 0.  1.
</event>
<event>
 7    1  0.2661133E-009  0.3407993E+03  0.7561462E-02  0.1066456E+00
         -2   -1    0    0    0  501 -0.00000000000E+00  0.00000000000E+00  0.10191492057E+03  0.10191492057E+03  0.00000000000E+00 0. -1.
          2   -1    0    0  501    0  0.00000000000E+00 -0.00000000000E+00 -0.12508688991E+04  0.12508688991E+04  0.00000000000E+00 0.  1.
         25    2    1    2    0    0  0.14392186185E+03  0.30766620079E+03 -0.59416792489E+03  0.69573813108E+03  0.12507609942E+03 0.  0.
          5    1    3    3  502    0  0.10395929471E+02  0.37636223345E+02 -0.17612249391E+03  0.18044712777E+03  0.41800000000E+01 0. -1.
         -5    1    3    3    0  502  0.13352593238E+03  0.27002997745E+03 -0.41804543098E+03  0.51529100332E+03  0.41800000000E+01 0. -1.
        -11    1    1    2    0    0 -0.72735522099E+02 -0.19113918755E+03 -0.40909778569E+03  0.45736817057E+03  0.00000000000E+00 0.  1.
         11    1    1    2    0    0 -0.71186339755E+02 -0.11652701325E+03 -0.14568826797E+03  0.19967751803E+03  0.00000000000E+00 0. -1.
</event>
<event>
 7    1  0.2661133E-009  0.1683959E+03  0.7561462E-02  0.1179531E+00
         -1   -1    0    0    0  501 -0.00000000000E+00  0.00000000000E+00  0.84708137132E+02  0.84708137132E+02  0.00000000000E+00 0.  1.
          1   -1    0    0  501    0  0.00000000000E+00 -0.00000000000E+00 -0.46675990728E+03  0.46675990728E+03  0.00000000000E+00 0. -1.
         25    2    1    2    0    0 -0.14960105122E+03  0.34613998123E+02 -0.28832010463E+03  0.34979259024E+03  0.12509104708E+03 0.  0.
          5    1    3    3  502    0 -0.13705082847E+03  0.52247885284E+02 -0.29260638079E+03  0.32733581775E+03  0.41800000000E+01 0.  1.
         -5    1    3    3    0  502 -0.12550222747E+02 -0.17633887161E+02  0.42862761603E+01  0.22456772491E+02  0.41800000000E+01 0.  1.
        -11    1    1    2    0    0  0.55575384413E+02 -0.47503459499E+02 -0.75382306421E+02  0.10501282845E+03  0.00000000000E+00 0.  1.
         11    1    1    2    0    0  0.94025666808E+02  0.12889461376E+02 -0.18349359101E+02  0.96662625728E+02  0.00000000000E+00 0. -1.
</event>
<event>
 7    1  0.2661133E-009  0.1235143E+03  0.7561462E-02  0.1237410E+00
          2   -1    0    0  501    0  0.00000000000E+00  0.00000000000E+00  0.26035861031E+03  0.26035861031E+03  0.00000000000E+00 0. -1.
         -2   -1    0    0    0  501 -0.00000000000E+00 -0.00000000000E+00 -0.75685806844E+02  0.75685806844E+02  0.00000000000E+00 0.  1.
         25    2    1    2    0    0 -0.16078314211E+02 -0.67769767675E+02  0.16706313837E+03  0.22001699803E+03  0.12508450592E+03 0.  0.
          5    1    3    3  502    0 -0.68339994533E+02 -0.20169589430E+02  0.71015335984E+02  0.10068672969E+03  0.41800000000E+01 0.  1.
         -5    1    3    3    0  502  0.52261680322E+02 -0.47600178246E+02  0.96047802382E+02  0.11933026834E+03  0.41800000000E+01 0.  1.
        -11    1    1    2    0    0  0.31006728116E+02  0.79834456917E+02 -0.56979773993E+01  0.85833703440E+02  0.00000000000E+00 0.  1.
         11    1    1    2    0    0 -0.14928413905E+02 -0.12064689242E+02  0.23307642499E+02  0.30193715689E+02  0.00000000000E+00 0. -1.
</event>
<event>
 7    1  0.2661133E-009  0.9573406E+02  0.7561462E-02  0.1289531E+00
         -1   -1    0    0    0  501 -0.00000000000E+00  0.00000000000E+00  0.19198488823E+02  0.19198488823E+02  0.00000000000E+00 0.  1.
          1   -1    0    0  501    0  0.00000000000E+00 -0.00000000000E+00 -0.86120302682E+03  0.86120302682E+03  0.00000000000E+00 0. -1.
         25    2    1    2    0    0 -0.48203279374E+01 -0.53839088599E+02 -0.62638075203E+03  0.64103193909E+03  0.12508883803E+03 0.  0.
          5    1    3    3  502    0 -0.46790529550E+01  0.21183057738E+02 -0.43304807878E+03  0.43361126185E+03  0.41800000000E+01 0. -1.
         -5    1    3    3    0  502 -0.14127498239E+00 -0.75022146337E+02 -0.19333267325E+03  0.20742067724E+03  0.41800000000E+01 0. -1.
        -11    1    1    2    0    0  0.25276044332E+02  0.65836876963E+02 -0.10673704950E+03  0.12793033464E+03  0.00000000000E+00 0.  1.
         11    1    1    2    0    0 -0.20455716395E+02 -0.11997788364E+02 -0.10888673647E+03  0.11143924191E+03  0.00000000000E+00 0. -1.
</event>
<event>
 7    1  0.2932795E-009  0.1915299E+03  0.7561462E-02  0.1157089E+00
         -1   -1    0    0    0  501 -0.00000000000E+00  0.00000000000E+00  0.28978888632E+02  0.28978888632E+02  0.00000000000E+00 0.  1.
          1   -1    0    0  501    0  0.00000000000E+00 -0.00000000000E+00 -0.14714833900E+04  0.14714833900E+04  0.00000000000E+00 0. -1.
         25    2    1    2    0    0  0.13986584932E+03 -0.10252951859E+03 -0.65660104363E+03  0.69054103826E+03  0.12508891650E+03 0.  0.
          5    1    3    3  502    0  0.23646737765E+02 -0.88755840043E+02 -0.21849294773E+03  0.23705148799E+03  0.41800000000E+01 0.  1.
         -5    1    3    3    0  502  0.11621911155E+03 -0.13773678545E+02 -0.43810809590E+03  0.45348955027E+03  0.41800000000E+01 0.  1.
        -11    1    1    2    0    0 -0.31168660586E+02  0.30499809727E+02 -0.71766851213E+02  0.83977406064E+02  0.00000000000E+00 0.  1.
         11    1    1    2    0    0 -0.10869718873E+03  0.72029708861E+02 -0.71413660651E+03  0.72594383430E+03  0.00000000000E+00 0. -1.
</event>
<event>
 7    1  0.2661133E-009  0.9910010E+02  0.7561462E-02  0.1282200E+00
          1   -1    0    0  501    0  0.00000000000E+00  0.00000000000E+00  0.21956617947E+03  0.21956617947E+03  0.00000000000E+00 0. -1.
         -1   -1    0    0    0  501 -0.00000000000E+00 -0.00000000000E+00 -0.77654506828E+02  0.77654506828E+02  0.00000000000E+00 0.  1.
         25    2    1    2    0    0  0.67265901852E+02  0.12716359386E+02  0.49815521295E+02  0.15104996725E+03  0.12509236226E+03 0.  0.
          5    1    3    3  502    0 -0.26015035766E+02  0.23474592465E+02  0.44655814793E+02  0.56916190773E+02  0.41800000000E+01 0.  1.
         -5    1    3    3    0  502  0.93280937618E+02 -0.10758233079E+02  0.51597065022E+01  0.94133776473E+02  0.41800000000E+01 0.  1.
        -11    1    1    2    0    0 -0.53425460509E+02 -0.67606854140E+01  0.10247182086E+01  0.53861273149E+02  0.00000000000E+00 0.  1.
         11    1    1    2    0    0 -0.13840441343E+02 -0.59556739723E+01  0.91071433141E+02  0.92309445905E+02  0.00000000000E+00 0. -1.
</event>
<event>
 7    1  0.2661133E-009  0.1379985E+03  0.7561462E-02  0.1216048E+00
         -2   -1    0    0    0  501 -0.00000000000E+00  0.00000000000E+00  0.26792414843E+03  0.26792414843E+03  0.00000000000E+00 0.  1.
          2   -1    0    0  501    0  0.00000000000E+00 -0.00000000000E+00 -0.11821271568E+03  0.11821271568E+03  0.00000000000E+00 0. -1.
         25    2    1    2    0    0  0.12262841940E+03  0.34731426764E+02  0.14797668318E+02  0.17919338953E+03  0.12508916266E+03 0.  0.
          5    1    3    3  502    0  0.49040832686E+02  0.50278396525E+02  0.59027363858E+02  0.91840200957E+02  0.41800000000E+01 0. -1.
         -5    1    3    3    0  502  0.73587586714E+02 -0.15546969761E+02 -0.44229695540E+02  0.87353188578E+02  0.41800000000E+01 0. -1.
        -11    1    1    2    0    0 -0.48478216900E+02 -0.27682765984E+02  0.35572424704E+01  0.55938600450E+02  0.00000000000E+00 0. -1.
         11    1    1    2    0    0 -0.74150202500E+02 -0.70486607800E+01  0.13135652196E+03  0.15100487413E+03  0.00000000000E+00 0.  1.
</event>
<event>
 7    1  0.2661133E-009  0.1372828E+03  0.7561462E-02  0.1217033E+00
          1   -1    0    0  501    0  0.00000000000E+00  0.00000000000E+00  0.26784949891E+03  0.26784949891E+03  0.00000000000E+00 0. -1.
         -1   -1    0    0    0  501 -0.00000000000E+00 -0.00000000000E+00 -0.96856970183E+02  0.96856970183E+02  0.00000000000E+00 0.  1.
         25    2    1    2    0    0 -0.11877678191E+03 -0.71304632094E+01  0.94291510151E+02  0.19671613246E+03  0.12509028921E+03 0.  0.
          5    1    3    3  502    0 -0.74475216567E+02  0.13935720995E+02  0.11938249048E+03  0.14145816921E+03  0.41800000000E+01 0.  1.
         -5    1    3    3    0  502 -0.44301565347E+02 -0.21066184204E+02 -0.25090980327E+02  0.55257963253E+02  0.41800000000E+01 0.  1.
        -11    1    1    2    0    0  0.30511936163E+02 -0.39270917801E+02  0.24681634034E+02  0.55519062419E+02  0.00000000000E+00 0.  1.
         11    1    1    2    0    0  0.88264845752E+02  0.46401381010E+02  0.52019384540E+02  0.11247127421E+03  0.00000000000E+00 0. -1.
</event>
<event>
 7    1  0.2661133E-009  0.1023867E+03  0.7561462E-02  0.1275356E+00
         -1   -1    0    0    0  501 -0.00000000000E+00  0.00000000000E+00  0.55116003068E+02  0.55116003068E+02  0.00000000000E+00 0.  1.
          1   -1    0    0  501    0  0.00000000000E+00 -0.00000000000E+00 -0.49368835762E+03  0.49368835762E+03  0.00000000000E+00 0. -1.
         25    2    1    2    0    0 -0.39903946625E+00  0.68917301796E+02 -0.40576036818E+03  0.43016220103E+03  0.12509312168E+03 0.  0.
          5    1    3    3  502    0 -0.51281307853E+02  0.11170047841E+02 -0.82726236244E+02  0.98059395608E+02  0.41800000000E+01 0. -1.
         -5    1    3    3    0  502  0.50882268386E+02  0.57747253954E+02 -0.32303413194E+03  0.33210280543E+03  0.41800000000E+01 0. -1.
        -11    1    1    2    0    0  0.14335400780E+02 -0.23408594901E+02  0.29458930576E+02  0.40265302947E+02  0.00000000000E+00 0.  1.
         11    1    1    2    0    0 -0.13936361314E+02 -0.45508706895E+02 -0.62270916949E+02  0.78376856709E+02  0.00000000000E+00 0. -1.
</event>
<event>
 7    1  0.2661133E-009  0.1269170E+03  0.7561462E-02  0.1232103E+00
         -2   -1    0    0    0  501 -0.00000000000E+00  0.00000000000E+00  0.35082652708E+02  0.35082652708E+02  0.00000000000E+00 0.  1.
          2   -1    0    0  501    0  0.00000000000E+00 -0.00000000000E+00 -0.71255606412E+03  0.71255606412E+03  0.00000000000E+00 0. -1.
         25    2    1    2    0    0 -0.93903847577E+02  0.36457427012E+02 -0.39058484669E+03  0.42231688385E+03  0.12509177169E+03 0.  0.
          5    1    3    3  502    0 -0.86996142697E+02  0.65517638053E+02 -0.37020847453E+03  0.38591796635E+03  0.41800000000E+01 0.  1.
         -5    1    3    3    0  502 -0.69077048805E+01 -0.29060211041E+02 -0.20376372162E+02  0.36398917497E+02  0.41800000000E+01 0.  1.
        -11    1    1    2    0    0 -0.20548713984E+00 -0.18962199193E+02  0.37460668383E+01  0.19329775994E+02  0.00000000000E+00 0.  1.
         11    1    1    2    0    0  0.94109334717E+02 -0.17495227819E+02 -0.29063463156E+03  0.30599205698E+03  0.00000000000E+00 0. -1.
</event>
<event>
 7    1  0.2661133E-009  0.1238166E+03  0.7561462E-02  0.1236930E+00
         -2   -1    0    0    0  501 -0.00000000000E+00  0.00000000000E+00  0.92236682667E+03  0.92236682667E+03  0.00000000000E+00 0.  1.
          2   -1    0    0  501    0  0.00000000000E+00 -0.00000000000E+00 -0.19244112137E+02  0.19244112137E+02  0.00000000000E+00 0. -1.
         25    2    1    2    0    0  0.62987651048E+02 -0.26887700721E+02  0.37631273325E+03  0.40242888209E+03  0.12508932529E+03 0.  0.
          5    1    3    3  502    0  0.98791617116E+02 -0.19717576976E+02  0.22238837898E+03  0.24417745588E+03  0.41800000000E+01 0. -1.
         -5    1    3    3    0  502 -0.35803966069E+02 -0.71701237453E+01  0.15392435426E+03  0.15825142620E+03  0.41800000000E+01 0. -1.
        -11    1    1    2    0    0 -0.73305109877E+02  0.47258783279E+02  0.46870974771E+03  0.47675555512E+03  0.00000000000E+00 0.  1.
         11    1    1    2    0    0  0.10317458830E+02 -0.20371082557E+02  0.58100233570E+02  0.62426501601E+02  0.00000000000E+00 0. -1.
</event>
<event>
 7    1  0.2661133E-009  0.2069634E+03  0.7561462E-02  0.1143993E+00
          3   -1    0    0  501    0  0.00000000000E+00  0.00000000000E+00  0.12982651560E+04  0.12982651560E+04  0.00000000000E+00 0. -1.
         -3   -1    0    0    0  501 -0.00000000000E+00 -0.00000000000E+00 -0.43154168094E+02  0.43154168094E+02  0.00000000000E+00 0.  1.
         25    2    1    2    0    0 -0.82957881848E+02  0.18309726051E+03  0.47849904435E+03  0.53386863416E+03  0.12509103137E+03 0.  0.
          5    1    3    3  502    0 -0.75782972142E+00  0.38084400959E+02  0.23893571030E+03  0.24198913604E+03  0.41800000000E+01 0. -1.
         -5    1    3    3    0  502 -0.82200052126E+02  0.14501285955E+03  0.23956333404E+03  0.29187949812E+03  0.41800000000E+01 0. -1.
        -11    1    1    2    0    0  0.28250078277E+02 -0.14788002336E+02  0.47099374887E+02  0.56877966301E+02  0.00000000000E+00 0.  1.
         11    1    1    2    0    0  0.54707803571E+02 -0.16830925817E+03  0.72951256863E+03  0.75067272359E+03  0.00000000000E+00 0. -1.
</event>
<event>
 7    1  0.2661133E-009  0.1389231E+03  0.7561462E-02  0.1214785E+00
          1   -1    0    0  501    0  0.00000000000E+00  0.00000000000E+00  0.12815957806E+03  0.12815957806E+03  0.00000000000E+00 0. -1.
         -1   -1    0    0    0  501 -0.00000000000E+00 -0.00000000000E+00 -0.29958568953E+03  0.29958568953E+03  0.00000000000E+00 0.  1.
         25    2    1    2    0    0 -0.40577944515E+02 -0.85693444504E+02  0.55599412785E+02  0.16652141644E+03  0.12509257140E+03 0.  0.
          5    1    3    3  502    0  0.42096064237E+02 -0.39071385795E+02  0.24018310932E+01  0.57635865611E+02  0.41800000000E+01 0.  1.
         -5    1    3    3    0  502 -0.82674008752E+02 -0.46622058709E+02  0.53197581692E+02  0.10888555083E+03  0.41800000000E+01 0.  1.
        -11    1    1    2    0    0 -0.23333155729E+02  0.80323514613E+01 -0.74861423424E+02  0.78823775242E+02  0.00000000000E+00 0.  1.
         11    1    1    2    0    0  0.63911100244E+02  0.77661093043E+02 -0.15216410084E+03  0.18240007590E+03  0.00000000000E+00 0. -1.
</event>
<event>
 7    1  0.3262022E-009  0.1277619E+03  0.7561462E-02  0.1230815E+00
          1   -1    0    0  501    0  0.00000000000E+00  0.00000000000E+00  0.20363216547E+03  0.20363216547E+03  0.00000000000E+00 0. -1.
         -1   -1    0    0    0  501 -0.00000000000E+00 -0.00000000000E+00 -0.91776074350E+02  0.91776074350E+02  0.00000000000E+00 0.  1.
         25    2    1    2    0    0  0.43498699887E+02  0.70716027665E+02  0.67507370061E+02  0.16461646542E+03  0.12509373371E+03 0.  0.
          5    1    3    3  502    0 -0.27628594851E+02 -0.16897608153E+02  0.33257364406E+02  0.46608938005E+02  0.41800000000E+01 0. -1.
         -5    1    3    3    0  502  0.71127294738E+02  0.87613635818E+02  0.34250005655E+02  0.11800752741E+03  0.41800000000E+01 0. -1.
        -11    1    1    2    0    0 -0.24927348505E+02  0.10190923863E+02 -0.12993626934E+02  0.29900869110E+02  0.00000000000E+00 0.  1.
         11    1    1    2    0    0 -0.18571351383E+02 -0.80906951528E+02  0.57342347992E+02  0.10089090529E+03  0.00000000000E+00 0. -1.
</event>
<event>
 7    1  0.2661133E-009  0.1009397E+03  0.7561462E-02  0.1278332E+00
          1   -1    0    0  501    0  0.00000000000E+00  0.00000000000E+00  0.15850503471E+03  0.15850503471E+03  0.00000000000E+00 0. -1.
         -1   -1    0    0    0  501 -0.00000000000E+00 -0.00000000000E+00 -0.74649581777E+02  0.74649581777E+02  0.00000000000E+00 0.  1.
         25    2    1    2    0    0  0.63551955503E+01  0.13819910292E+02  0.57190832516E+02  0.13837241264E+03  0.12507899434E+03 0.  0.
          5    1    3    3  502    0 -0.56270242838E+02  0.24384517236E+02  0.19924512764E+02  0.64617362363E+02  0.41800000000E+01 0.  1.
         -5    1    3    3    0  502  0.62625438388E+02 -0.10564606944E+02  0.37266319751E+02  0.73755050275E+02  0.41800000000E+01 0.  1.
        -11    1    1    2    0    0 -0.58831275154E+01  0.31195319221E+02 -0.13457418970E+02  0.34479867401E+02  0.00000000000E+00 0.  1.
         11    1    1    2    0    0 -0.47206803491E+00 -0.45015229513E+02  0.40122039385E+02  0.60302336446E+02  0.00000000000E+00 0. -1.
</event>
<event>
 7    1  0.2661133E-009  0.1382981E+03  0.7561462E-02  0.1215637E+00
         -1   -1    0    0    0  501 -0.00000000000E+00  0.00000000000E+00  0.59224095595E+03  0.59224095595E+03  0.00000000000E+00 0.  1.
          1   -1    0    0  501    0  0.00000000000E+00 -0.00000000000E+00 -0.58869003999E+02  0.58869003999E+02  0.00000000000E+00 0. -1.
         25    2    1    2    0    0  0.75625148709E+01 -0.12048048920E+03  0.43956853267E+03  0.47268397700E+03  0.12504762010E+03 0.  0.
          5    1    3    3  502    0  0.22943643565E+02 -0.13312480455E+03  0.42894280763E+03  0.44973106295E+03  0.41800000000E+01 0. -1.
         -5    1    3    3    0  502 -0.15381128694E+02  0.12644315353E+02  0.10625725035E+02  0.22952914046E+02  0.41800000000E+01 0. -1.
        -11    1    1    2    0    0  0.22549149510E+01  0.30853569276E+02  0.81816315945E+02  0.87469634350E+02  0.00000000000E+00 0.  1.
         11    1    1    2    0    0 -0.98174298219E+01  0.89626919925E+02  0.11987103336E+02  0.90956348596E+02  0.00000000000E+00 0. -1.
</event>
<event>
 7    1  0.2661133E-009  0.1876557E+03  0.7561462E-02  0.1160593E+00
         -2   -1    0    0    0  501 -0.00000000000E+00  0.00000000000E+00  0.10236915278E+03  0.10236915278E+03  0.00000000000E+00 0.  1.
          2   -1    0    0  501    0  0.00000000000E+00 -0.00000000000E+00 -0.48922943686E+03  0.48922943686E+03  0.00000000000E+00 0. -1.
         25    2    1    2    0    0  0.37683243725E+02 -0.17244903651E+03 -0.89700377226E+02  0.23420561509E+03  0.12508962951E+03 0.  0.
          5    1    3    3  502    0  0.18088897937E+02 -0.65648815949E+02 -0.10423274426E+03  0.12457492782E+03  0.41800000000E+01 0. -1.
         -5    1    3    3    0  502  0.19594345788E+02 -0.10680022056E+03  0.14532367037E+02  0.10963068727E+03  0.41800000000E+01 0. -1.
        -11    1    1    2    0    0 -0.65242966033E+01  0.16659224985E+03 -0.25436532260E+03  0.30413362442E+03  0.00000000000E+00 0. -1.
         11    1    1    2    0    0 -0.31158947121E+02  0.58567866589E+01 -0.42794584258E+02  0.53259350141E+02  0.00000000000E+00 0.  1.
</event>
<event>
 7    1  0.2661133E-009  0.1143345E+03  0.7561462E-02  0.1252747E+00
          1   -1    0    0  501    0  0.00000000000E+00  0.00000000000E+00  0.13568625107E+03  0.13568625107E+03  0.00000000000E+00 0. -1.
         -1   -1    0    0    0  501 -0.00000000000E+00 -0.00000000000E+00 -0.10636487785E+03  0.10636487785E+03  0.00000000000E+00 0.  1.
         25    2    1    2    0    0  0.50255939459E+02 -0.12596616838E+02  0.25941517187E+02  0.13785951976E+03  0.12509176898E+03 0.  0.
          5    1    3    3  502    0  0.75598517229E+02 -0.41459807113E+02  0.42025441277E+02  0.96008653399E+02  0.41800000000E+01 0.  1.
         -5    1    3    3    0  502 -0.25342577770E+02  0.28863190275E+02 -0.16083924090E+02  0.41850866360E+02  0.41800000000E+01 0.  1.
        -11    1    1    2    0    0  0.70815128863E+01 -0.30925239582E+02 -0.33062827592E+01  0.31897488517E+02  0.00000000000E+00 0.  1.
         11    1    1    2    0    0 -0.57337452345E+02  0.43521856420E+02  0.66861388003E+01  0.72294120644E+02  0.00000000000E+00 0. -1.
</event>
<event>
 7    1  0.2661133E-009  0.9990430E+02  0.7561462E-02  0.1280497E+00
         -1   -1    0    0    0  501 -0.00000000000E+00  0.00000000000E+00  0.13966560090E+03  0.13966560090E+03  0.00000000000E+00 0.  1.
          1   -1    0    0  501    0  0.00000000000E+00 -0.00000000000E+00 -0.14808051149E+03  0.14808051149E+03  0.00000000000E+00 0. -1.
         25    2    1    2    0    0 -0.81375307407E+02  0.21323100837E+02  0.38021360552E+02  0.15546517748E+03  0.12508869760E+03 0.  0.
          5    1    3    3  502    0 -0.46005204098E+02  0.51353294832E+02 -0.28108414625E+02  0.74573420647E+02  0.41800000000E+01 0. -1.
         -5    1    3    3    0  502 -0.35370103308E+02 -0.30030193995E+02  0.66129775177E+02  0.80891756838E+02  0.41800000000E+01 0. -1.
        -11    1    1    2    0    0  0.26067405877E+02 -0.58251531918E+01  0.27711384153E+02  0.38488477114E+02  0.00000000000E+00 0.  1.
         11    1    1    2    0    0  0.55307901530E+02 -0.15497947645E+02 -0.74147655296E+02  0.93792457792E+02  0.00000000000E+00 0. -1.
</event>
<event>
 6    1  0.2661133E-009  0.1380715E+03  0.7561462E-02  0.1215948E+00
          1   -1    0    0  501    0  0.00000000000E+00  0.00000000000E+00  0.52532026077E+03  0.52532026077E+03  0.00000000000E+00 0. -1.
         -1   -1    0    0    0  501 -0.00000000000E+00 -0.00000000000E+00 -0.58604039903E+02  0.58604039903E+02  0.00000000000E+00 0.  1.
          5    1    1    2  502    0 -0.32713780770E+02 -0.71127477412E+02  0.14266477501E+03  0.16278826716E+03  0.41800000000E+01 0.  1.
         -5    1    1    2    0  502  0.39987743511E+02 -0.51357924588E+02  0.33080601497E+01  0.65307516497E+02  0.41800000000E+01 0.  1.
        -11    1    1    2    0    0 -0.26395611374E+02  0.97762568162E+02  0.14220590912E+03  0.17457596805E+03  0.00000000000E+00 0.  1.
         11    1    1    2    0    0  0.19121648633E+02  0.24722833839E+02  0.17853747659E+03  0.18125254896E+03  0.00000000000E+00 0. -1.
</event>
<event>
 7    1  0.2661133E-009  0.6585412E+02  0.7561462E-02  0.1374787E+00
          2   -1    0    0  501    0  0.00000000000E+00  0.00000000000E+00  0.27421629675E+03  0.27421629675E+03  0.00000000000E+00 0. -1.
         -2   -1    0    0    0  501 -0.00000000000E+00 -0.00000000000E+00 -0.54302615412E+02  0.54302615412E+02  0.00000000000E+00 0.  1.
         25    2    1    2    0    0 -0.50353476019E+01 -0.54225667021E+02  0.11338144224E+03  0.17739169239E+03  0.12508670352E+03 0.  0.
          5    1    3    3  502    0  0.22012227500E+01 -0.50704586657E+02  0.14015726379E+03  0.14912186789E+03  0.41800000000E+01 0. -1.
         -5    1    3    3    0  502 -0.72365703519E+01 -0.35210803642E+01 -0.26775821554E+02  0.28269824501E+02  0.41800000000E+01 0. -1.
        -11    1    1    2    0    0  0.24491834160E+02  0.17326443847E+02  0.10519691733E+03  0.10939125657E+03  0.00000000000E+00 0. -1.
         11    1    1    2    0    0 -0.19456486558E+02  0.36899223175E+02  0.13353217647E+01  0.41735963201E+02  0.00000000000E+00 0.  1.
</event>
<event>
 7    1  0.2661133E-009  0.1506278E+03  0.7561462E-02  0.1199704E+00
         -2   -1    0    0    0  501 -0.00000000000E+00  0.00000000000E+00  0.77651721177E+02  0.77651721177E+02  0.00000000000E+00 0.  1.
          2   -1    0    0  501    0  0.00000000000E+00 -0.00000000000E+00 -0.32526414128E+03  0.32526414128E+03  0.00000000000E+00 0. -1.
         25    2    1    2    0    0 -0.66371108246E+02  0.93481846330E+02 -0.10712295331E+03  0.20066471856E+03  0.12508805917E+03 0.  0.
          5    1    3    3  502    0 -0.50664997549E+02  0.12448048317E+03 -0.89026607742E+02  0.16126233891E+03  0.41800000000E+01 0. -1.
         -5    1    3    3    0  502 -0.15706110697E+02 -0.30998636836E+02 -0.18096345566E+02  0.39402379645E+02  0.41800000000E+01 0. -1.
        -11    1    1    2    0    0  0.65359830099E+02 -0.36613931067E+02 -0.35625996454E+02  0.82956006185E+02  0.00000000000E+00 0.  1.
         11    1    1    2    0    0  0.10112781465E+01 -0.56867915263E+02 -0.10486347034E+03  0.11929513771E+03  0.00000000000E+00 0. -1.
</event>
<event>
 7    1  0.2661133E-009  0.1211056E+03  0.7561462E-02  0.1241284E+00
         -2   -1    0    0    0  501 -0.00000000000E+00  0.00000000000E+00  0.10861431804E+03  0.10861431804E+03  0.00000000000E+00 0.  1.
          2   -1    0    0  501    0  0.00000000000E+00 -0.00000000000E+00 -0.16916524279E+03  0.16916524279E+03  0.00000000000E+00 0. -1.
         25    2    1    2    0    0 -0.54363824077E+02 -0.31661526976E+02  0.19719367605E+02  0.14139992696E+03  0.12508880136E+03 0.  0.
          5    1    3    3  502    0 -0.20362361322E+01 -0.69136035671E+02 -0.10656756651E+02  0.70106893728E+02  0.41800000000E+01 0.  1.
         -5    1    3    3    0  502 -0.52327587944E+02  0.37474508695E+02  0.30376124256E+02  0.71293033228E+02  0.41800000000E+01 0.  1.
        -11    1    1    2    0    0  0.33533613376E+02  0.62663034313E+02 -0.40415776897E+02  0.81759367155E+02  0.00000000000E+00 0. -1.
         11    1    1    2    0    0  0.20830210701E+02 -0.31001507337E+02 -0.39854515454E+02  0.54620266725E+02  0.00000000000E+00 0.  1.
</event>
<event>
 7    1  0.2661133E-009  0.8737740E+02  0.7561462E-02  0.1309330E+00
         -1   -1    0    0    0  501 -0.00000000000E+00  0.00000000000E+00  0.60384265391E+02  0.60384265391E+02  0.00000000000E+00 0.  1.
          1   -1    0    0  501    0  0.00000000000E+00 -0.00000000000E+00 -0.25282853691E+03  0.25282853691E+03  0.00000000000E+00 0. -1.
         25    2    1    2    0    0  0.14161102009E+02  0.19874996337E+02 -0.18180893650E+03  0.22203170387E+03  0.12509210943E+03 0.  0.
          5    1    3    3  502    0  0.49013920208E+02  0.14695988709E+02 -0.17924948958E+03  0.18645693437E+03  0.41800000000E+01 0. -1.
         -5    1    3    3    0  502 -0.34852818199E+02  0.51790076284E+01 -0.25594469181E+01  0.35574769500E+02  0.41800000000E+01 0. -1.
        -11    1    1    2    0    0  0.23574811351E+02  0.21518844574E+02 -0.14451652530E+02  0.35038302796E+02  0.00000000000E+00 0.  1.
         11    1    1    2    0    0 -0.37735913360E+02 -0.41393840911E+02  0.38163175114E+01  0.56142795636E+02  0.00000000000E+00 0. -1.
</event>
<event>
 7    1  0.2661133E-009  0.1049503E+03  0.7561462E-02  0.1270218E+00
          3   -1    0    0  501    0  0.00000000000E+00  0.00000000000E+00  0.29399588013E+03  0.29399588013E+03  0.00000000000E+00 0. -1.
         -3   -1    0    0    0  501 -0.00000000000E+00 -0.00000000000E+00 -0.66880554845E+02  0.66880554845E+02  0.00000000000E+00 0.  1.
         25    2    1    2    0    0  0.62429763223E+02 -0.24982987036E+02  0.49207620163E+02  0.15029658659E+03  0.12508416798E+03 0.  0.
          5    1    3    3  502    0  0.58298004132E+02 -0.72936502992E+02  0.36508648856E+02  0.10034313427E+03  0.41800000000E+01 0.  1.
         -5    1    3    3    0  502  0.41317590910E+01  0.47953515956E+02  0.12698971307E+02  0.49953452313E+02  0.41800000000E+01 0.  1.
        -11    1    1    2    0    0 -0.42662909058E+02  0.11469547680E+02  0.18111169356E+03  0.18642188679E+03  0.00000000000E+00 0. -1.
         11    1    1    2    0    0 -0.19766854165E+02  0.13513439356E+02 -0.32039884285E+01  0.24157961600E+02  0.00000000000E+00 0.  1.
</event>
<event>
 7    1  0.2661133E-009  0.1252757E+03  0.7561462E-02  0.1234639E+00
         -2   -1    0    0    0  501 -0.00000000000E+00  0.00000000000E+00  0.95409289093E+02  0.95409289093E+02  0.00000000000E+00 0.  1.
          2   -1    0    0  501    0  0.00000000000E+00 -0.00000000000E+00 -0.37958365508E+03  0.37958365508E+03  0.00000000000E+00 0. -1.
         25    2    1    2    0    0  0.93045130674E+02  0.20760927315E+02  0.43621225050E+01  0.15734054541E+03  0.12509439105E+03 0.  0.
          5    1    3    3  502    0  0.12127061482E+01 -0.42825303731E+02 -0.11218772728E+02  0.44483823547E+02  0.41800000000E+01 0.  1.
         -5    1    3    3    0  502  0.91832424526E+02  0.63586231046E+02  0.15580895233E+02  0.11285672186E+03  0.41800000000E+01 0.  1.
        -11    1    1    2    0    0 -0.55980489012E+02 -0.81079978098E+01 -0.26706196499E+03  0.27298653433E+03  0.00000000000E+00 0. -1.
         11    1    1    2    0    0 -0.37064641663E+02 -0.12652929505E+02 -0.21474523504E+02  0.44665864442E+02  0.00000000000E+00 0.  1.
</event>
<event>
 7    1  0.2661133E-009  0.1315517E+03  0.7561462E-02  0.1225171E+00
         -1   -1    0    0    0  501 -0.00000000000E+00  0.00000000000E+00  0.39141975102E+02  0.39141975102E+02  0.00000000000E+00 0.  1.
          1   -1    0    0  501    0  0.00000000000E+00 -0.00000000000E+00 -0.60956052054E+03  0.60956052054E+03  0.00000000000E+00 0. -1.
         25    2    1    2    0    0 -0.78357111492E+02  0.72159740327E+02 -0.25930693140E+03  0.30697581662E+03  0.12508877757E+03 0.  0.
          5    1    3    3  502    0 -0.79774934829E+02 -0.28917066690E+01 -0.18376492474E+03  0.20039815907E+03  0.41800000000E+01 0. -1.
         -5    1    3    3    0  502  0.14178233372E+01  0.75051446995E+02 -0.75542006662E+02  0.10657765755E+03  0.41800000000E+01 0. -1.
        -11    1    1    2    0    0  0.68206398295E+02 -0.53279272406E+02 -0.30816589035E+03  0.32008906512E+03  0.00000000000E+00 0. -1.
         11    1    1    2    0    0  0.10150713197E+02 -0.18880467920E+02 -0.29457236964E+01  0.21637613903E+02  0.00000000000E+00 0.  1.
</event>
<event>
 7    1  0.2661133E-009  0.1211011E+03  0.7561462E-02  0.1241292E+00
         -1   -1    0    0    0  501 -0.00000000000E+00  0.00000000000E+00  0.66573535416E+03  0.66573535416E+03  0.00000000000E+00 0.  1.
          1   -1    0    0  501    0  0.00000000000E+00 -0.00000000000E+00 -0.28568950166E+02  0.28568950166E+02  0.00000000000E+00 0. -1.
         25    2    1    2    0    0  0.56851319445E+02  0.50439653159E+02  0.45387286369E+03  0.47689140323E+03  0.12509437616E+03 0.  0.
          5    1    3    3  502    0  0.66702649264E+02  0.76241122575E+02  0.42416535793E+03  0.43611429174E+03  0.41800000000E+01 0.  1.
         -5    1    3    3    0  502 -0.98513298195E+01 -0.25801469416E+02  0.29707505762E+02  0.40777111495E+02  0.41800000000E+01 0.  1.
        -11    1    1    2    0    0 -0.78732415091E+02 -0.35361804807E+02  0.16121422918E+03  0.18286409739E+03  0.00000000000E+00 0.  1.
         11    1    1    2    0    0  0.21881095647E+02 -0.15077848352E+02  0.22079311130E+02  0.34548803707E+02  0.00000000000E+00 0. -1.
</event>
<event>
 7    1  0.2661133E-009  0.1218439E+03  0.7561462E-02  0.1240086E+00
         -1   -1    0    0    0  501 -0.00000000000E+00  0.00000000000E+00  0.75649037732E+02  0.75649037732E+02  0.00000000000E+00 0.  1.
          1   -1    0    0  501    0  0.00000000000E+00 -0.00000000000E+00 -0.28056884465E+03  0.28056884465E+03  0.00000000000E+00 0. -1.
         25    2    1    2    0    0 -0.82978774358E+02  0.49637875906E+02 -0.12624384636E+03  0.20231789772E+03  0.12508248189E+03 0.  0.
          5    1    3    3  502    0 -0.27852967027E+02  0.75887618938E+02 -0.26274037738E+02  0.85102972565E+02  0.41800000000E+01 0. -1.
         -5    1    3    3    0  502 -0.55125807331E+02 -0.26249743032E+02 -0.99969808622E+02  0.11721492515E+03  0.41800000000E+01 0. -1.
        -11    1    1    2    0    0  0.92753371730E+01 -0.20107117426E+02  0.18186069823E+02  0.28654165255E+02  0.00000000000E+00 0.  1.
         11    1    1    2    0    0  0.73703437185E+02 -0.29530758480E+02 -0.96862030380E+02  0.12524581941E+03  0.00000000000E+00 0. -1.
</event>
<event>
 7    1  0.2661133E-009  0.1206352E+03  0.7561462E-02  0.1242053E+00
          1   -1    0    0  501    0  0.00000000000E+00  0.00000000000E+00  0.21242730152E+02  0.21242730152E+02  0.00000000000E+00 0. -1.
         -1   -1    0    0    0  501 -0.00000000000E+00 -0.00000000000E+00 -0.76453749116E+03  0.76453749116E+03  0.00000000000E+00 0.  1.
         25    2    1    2    0    0  0.38274532408E+01  0.58166661223E+02 -0.53336191206E+03  0.55092697690E+03  0.12509034641E+03 0.  0.
          5    1    3    3  502    0  0.50244125675E+02  0.73136264355E+02 -0.32854581621E+03  0.34034278467E+03  0.41800000000E+01 0. -1.
         -5    1    3    3    0  502 -0.46416672434E+02 -0.14969603132E+02 -0.20481609585E+03  0.21058419223E+03  0.41800000000E+01 0. -1.
        -11    1    1    2    0    0  0.39915559157E+02 -0.38751360218E+02 -0.13409696329E+03  0.14517890805E+03  0.00000000000E+00 0.  1.
         11    1    1    2    0    0 -0.43743012398E+02 -0.19415301005E+02 -0.75835885667E+02  0.89674336360E+02  0.00000000000E+00 0. -1.
</event>
<event>
 7    1  0.2661133E-009  0.8715004E+02  0.7561462E-02  0.1309904E+00
          1   -1    0    0  501    0  0.00000000000E+00  0.00000000000E+00  0.11804797195E+03  0.11804797195E+03  0.00000000000E+00 0. -1.
         -1   -1    0    0    0  501 -0.00000000000E+00 -0.00000000000E+00 -0.11851301540E+03  0.11851301540E+03  0.00000000000E+00 0.  1.
         25    2    1    2    0    0 -0.28075016782E+02  0.36256823620E+02 -0.37605987478E+02  0.13843333091E+03  0.12508722151E+03 0.  0.
          5    1    3    3  502    0 -0.69465350002E+01  0.79424975883E+02 -0.41599604274E+02  0.90025444282E+02  0.41800000000E+01 0.  1.
         -5    1    3    3    0  502 -0.21128481782E+02 -0.43168152263E+02  0.39936167959E+01  0.48407886623E+02  0.41800000000E+01 0.  1.
        -11    1    1    2    0    0  0.15914754364E+02 -0.25078676376E+02  0.61731074480E+02  0.68505072598E+02  0.00000000000E+00 0. -1.
         11    1    1    2    0    0  0.12160262418E+02 -0.11178147244E+02 -0.24590130458E+02  0.29622583848E+02  0.00000000000E+00 0.  1.
</event>
<event>
 7    1  0.2661133E-009  0.1135114E+03  0.7561462E-02  0.1254202E+00
         -2   -1    0    0    0  501 -0.00000000000E+00  0.00000000000E+00  0.38079912684E+02  0.38079912684E+02  0.00000000000E+00 0.  1.
          2   -1    0    0  501    0  0.00000000000E+00 -0.00000000000E+00 -0.50796489675E+03  0.50796489675E+03  0.00000000000E+00 0. -1.
         25    2    1    2    0    0 -0.68617024756E+02 -0.57107661733E+02 -0.22915119278E+03  0.27592405899E+03  0.12511688959E+03 0.  0.
          5    1    3    3  502    0 -0.89582366655E+02 -0.15846011982E+02 -0.85395243023E+02  0.12484356789E+03  0.41800000000E+01 0.  1.
         -5    1    3    3    0  502  0.20965341899E+02 -0.41261649751E+02 -0.14375594976E+03  0.15108049110E+03  0.41800000000E+01 0.  1.
        -11    1    1    2    0    0  0.38131648135E+02  0.27752020672E+02 -0.31651098787E+02  0.56797793049E+02  0.00000000000E+00 0.  1.
         11    1    1    2    0    0  0.30485376622E+02  0.29355641061E+02 -0.20908269250E+03  0.21332295739E+03  0.00000000000E+00 0. -1.
</event>
<event>
 7    1  0.2661133E-009  0.9139905E+02  0.7561462E-02  0.1299499E+00
          2   -1    0    0  501    0  0.00000000000E+00  0.00000000000E+00  0.42994016982E+03  0.42994016982E+03  0.00000000000E+00 0. -1.
         -2   -1    0    0    0  501 -0.00000000000E+00 -0.00000000000E+00 -0.24248156796E+02  0.24248156796E+02  0.00000000000E+00 0.  1.
         25    2    1    2    0    0  0.12741868108E+02  0.18031348021E+02  0.23790979350E+03  0.26969593397E+03  0.12508933705E+03 0.  0.
          5    1    3    3  502    0 -0.40991557114E+02  0.33689910299E+02  0.18521622084E+03  0.19271180211E+03  0.41800000000E+01 0. -1.
         -5    1    3    3    0  502  0.53733425222E+02 -0.15658562278E+02  0.52693572656E+02  0.76984131859E+02  0.41800000000E+01 0. -1.
        -11    1    1    2    0    0  0.11776074873E+02 -0.39278875651E+02  0.11934794429E+03  0.12619602932E+03  0.00000000000E+00 0. -1.
         11    1    1    2    0    0 -0.24517942981E+02  0.21247527631E+02  0.48434275244E+02  0.58296363325E+02  0.00000000000E+00 0.  1.
</event>
<event>
 7    1  0.2661133E-009  0.1084842E+03  0.7561462E-02  0.1263403E+00
         -1   -1    0    0    0  501 -0.00000000000E+00  0.00000000000E+00  0.11012996572E+03  0.11012996572E+03  0.00000000000E+00 0.  1.
          1   -1    0    0  501    0  0.00000000000E+00 -0.00000000000E+00 -0.16750996250E+03  0.16750996250E+03  0.00000000000E+00 0. -1.
         25    2    1    2    0    0 -0.49275069521E+02  0.21037859383E+02  0.30564830120E+02  0.13947217651E+03  0.12509058788E+03 0.  0.
          5    1    3    3  502    0  0.37378257099E+02  0.27253543256E+02 -0.22735251786E+01  0.46503021843E+02  0.41800000000E+01 0.  1.
         -5    1    3    3    0  502 -0.86653326620E+02 -0.62156838736E+01  0.32838355299E+02  0.92969154665E+02  0.41800000000E+01 0.  1.
        -11    1    1    2    0    0 -0.33025845900E+01 -0.30023520831E+02 -0.78351608622E+02  0.83971980099E+02  0.00000000000E+00 0. -1.
         11    1    1    2    0    0  0.52577654111E+02  0.89856614486E+01 -0.95932182768E+01  0.54195771610E+02  0.00000000000E+00 0.  1.
</event>
<event>
 7    1  0.2661133E-009  0.1276375E+03  0.7561462E-02  0.1231004E+00
         -2   -1    0    0    0  501 -0.00000000000E+00  0.00000000000E+00  0.16810307822E+02  0.16810307822E+02  0.00000000000E+00 0.  1.
          2   -1    0    0  501    0  0.00000000000E+00 -0.00000000000E+00 -0.11698167012E+04  0.11698167012E+04  0.00000000000E+00 0. -1.
         25    2    1    2    0    0  0.85912782860E+02 -0.11927643658E+01 -0.72561442555E+03  0.74131424594E+03  0.12509231677E+03 0.  0.
          5    1    3    3  502    0 -0.17292605986E+02  0.37101163764E+02 -0.17285179754E+03  0.17768158849E+03  0.41800000000E+01 0. -1.
         -5    1    3    3    0  502  0.10320538885E+03 -0.38293928130E+02 -0.55276262801E+03  0.56363265745E+03  0.41800000000E+01 0. -1.
        -11    1    1    2    0    0 -0.93767273403E+02 -0.50978325076E+01 -0.42461315150E+03  0.43487310549E+03  0.00000000000E+00 0. -1.
         11    1    1    2    0    0  0.78544905429E+01  0.62905968735E+01 -0.27788163491E+01  0.10439657610E+02  0.00000000000E+00 0.  1.
</event>
<event>
 7    1  0.2661133E-009  0.7366876E+02  0.7561462E-02  0.1348044E+00
          1   -1    0    0  501    0  0.00000000000E+00  0.00000000000E+00  0.98433599391E+02  0.98433599391E+02  0.00000000000E+00 0. -1.
         -1   -1    0    0    0  501 -0.00000000000E+00 -0.00000000000E+00 -0.12891080143E+03  0.12891080143E+03  0.00000000000E+00 0.  1.
         25    2    1    2    0    0  0.60018872733E+00 -0.31037452520E+02 -0.77365621705E+01  0.12911698264E+03  0.12509059568E+03 0.  0.
          5    1    3    3  502    0 -0.33212571797E+02 -0.25272194389E+02 -0.55871680738E+02  0.69863265334E+02  0.41800000000E+01 0. -1.
         -5    1    3    3    0  502  0.33812760524E+02 -0.57652581311E+01  0.48135118567E+02  0.59253717310E+02  0.41800000000E+01 0. -1.
        -11    1    1    2    0    0  0.31531419868E+02  0.16154777424E+02  0.21590748532E+02  0.41489368454E+02  0.00000000000E+00 0. -1.
         11    1    1    2    0    0 -0.32131608596E+02  0.14882675097E+02 -0.44331388402E+02  0.56738049725E+02  0.00000000000E+00 0.  1.
</event>
<event>
 7    1  0.2661133E-009  0.1030729E+03  0.7561462E-02  0.1273964E+00
         -2   -1    0    0    0  501 -0.00000000000E+00  0.00000000000E+00  0.12339366562E+04  0.12339366562E+04  0.00000000000E+00 0.  1.
          2   -1    0    0  501    0  0.00000000000E+00 -0.00000000000E+00 -0.14865162729E+02  0.14865162729E+02  0.00000000000E+00 0. -1.
         25    2    1    2    0    0 -0.58006298934E+01  0.18734553288E+02  0.10307242305E+04  0.10384730420E+04  0.12509671809E+03 0.  0.
          5    1    3    3  502    0 -0.54929307518E+02  0.42648304353E+02  0.66963192771E+03  0.67324623853E+03  0.41800000000E+01 0. -1.
         -5    1    3    3    0  502  0.49128677625E+02 -0.23913751066E+02  0.36109230275E+03  0.36522680346E+03  0.41800000000E+01 0. -1.
        -11    1    1    2    0    0  0.17863013021E+02  0.28110399095E+02  0.30235958358E+02  0.44983274106E+02  0.00000000000E+00 0. -1.
         11    1    1    2    0    0 -0.12062383128E+02 -0.46844952383E+02  0.15811130468E+03  0.16534550287E+03  0.00000000000E+00 0.  1.
</event>
<event>
 7    1  0.2661133E-009  0.1010834E+03  0.7561462E-02  0.1278034E+00
         -2   -1    0    0    0  501 -0.00000000000E+00  0.00000000000E+00  0.14181213147E+02  0.14181213147E+02  0.00000000000E+00 0. -1.
          2   -1    0    0  501    0  0.00000000000E+00 -0.00000000000E+00 -0.93493974573E+03  0.93493974573E+03  0.00000000000E+00 0.  1.
         25    2    1    2    0    0  0.36986669345E+02  0.19226864449E+01 -0.44990832269E+03  0.46844100941E+03  0.12509104698E+03 0.  0.
          5    1    3    3  502    0 -0.69580875262E+01 -0.43709931368E+02 -0.32791853907E+03  0.33091843972E+03  0.41800000000E+01 0. -1.
         -5    1    3    3    0  502  0.43944756871E+02  0.45632617813E+02 -0.12198978362E+03  0.13752256968E+03  0.41800000000E+01 0. -1.
        -11    1    1    2    0    0  0.12453525253E+02 -0.33375138660E+02 -0.12827853285E+03  0.13313291164E+03  0.00000000000E+00 0.  1.
         11    1    1    2    0    0 -0.49440194598E+02  0.31452452215E+02 -0.34257167704E+03  0.34754703783E+03  0.00000000000E+00 0. -1.
</event>
<event>
 7    1  0.2661133E-009  0.1261092E+03  0.7561462E-02  0.1233346E+00
          2   -1    0    0  501    0  0.00000000000E+00  0.00000000000E+00  0.43186001156E+03  0.43186001156E+03  0.00000000000E+00 0. -1.
         -2   -1    0    0    0  501 -0.00000000000E+00 -0.00000000000E+00 -0.45998845560E+02  0.45998845560E+02  0.00000000000E+00 0.  1.
         25    2    1    2    0    0 -0.98632450377E+01  0.79674863244E+02  0.23584496760E+03  0.27877688006E+03  0.12509329589E+03 0.  0.
          5    1    3    3  502    0 -0.16852371208E+02 -0.31952159457E+02  0.66361542257E+02  0.75672119040E+02  0.41800000000E+01 0.  1.
         -5    1    3    3    0  502  0.69891261705E+01  0.11162702270E+03  0.16948342534E+03  0.20310476102E+03  0.41800000000E+01 0.  1.
        -11    1    1    2    0    0  0.34457510677E+02 -0.21108882942E+02  0.49411505529E+01  0.40710194668E+02  0.00000000000E+00 0.  1.
         11    1    1    2    0    0 -0.24594265640E+02 -0.58565980302E+02  0.14507504785E+03  0.15837178240E+03  0.00000000000E+00 0. -1.
</event>
<event>
 6    1  0.2661133E-009  0.8474723E+02  0.7561462E-02  0.1316095E+00
         -4   -1    0    0    0  501 -0.00000000000E+00  0.00000000000E+00  0.19603554641E+03  0.19603554641E+03  0.00000000000E+00 0.  1.
          4   -1    0    0  501    0  0.00000000000E+00 -0.00000000000E+00 -0.74543700840E+02  0.74543700840E+02  0.00000000000E+00 0. -1.
          5    1    1    2  502    0 -0.16581695606E+02  0.54771563647E+02  0.83205032022E+02  0.10107139342E+03  0.41800000000E+01 0.  1.
         -5    1    1    2    0  502 -0.17906040429E+01 -0.68907032954E+01 -0.38051922741E+02  0.38937247964E+02  0.41800000000E+01 0.  1.
        -11    1    1    2    0    0  0.31520173986E+02  0.18258116155E+02  0.39496047111E+02  0.53729116045E+02  0.00000000000E+00 0.  1.
         11    1    1    2    0    0 -0.13147874337E+02 -0.66138976506E+02  0.36842689183E+02  0.76841489829E+02  0.00000000000E+00 0. -1.
</event>
<event>
 7    1  0.2661133E-009  0.1034743E+03  0.7561462E-02  0.1273155E+00
          1   -1    0    0  501    0  0.00000000000E+00  0.00000000000E+00  0.81574794581E+02  0.81574794581E+02  0.00000000000E+00 0. -1.
         -1   -1    0    0    0  501 -0.00000000000E+00 -0.00000000000E+00 -0.19097575618E+03  0.19097575618E+03  0.00000000000E+00 0.  1.
         25    2    1    2    0    0  0.38569714019E+02  0.37371807491E+02 -0.25697993899E+02  0.13853476980E+03  0.12508885130E+03 0.  0.
          5    1    3    3  502    0 -0.32809438179E+02  0.20905114670E+02 -0.47925047120E+02  0.61868938851E+02  0.41800000000E+01 0. -1.
         -5    1    3    3    0  502  0.71379152198E+02  0.16466692821E+02  0.22227053221E+02  0.76665830954E+02  0.41800000000E+01 0. -1.
        -11    1    1    2    0    0 -0.32963221620E+02  0.18833354571E+02 -0.63584444671E+02  0.74055727855E+02  0.00000000000E+00 0.  1.
         11    1    1    2    0    0 -0.56064923993E+01 -0.56205162062E+02 -0.20118523031E+02  0.59960053105E+02  0.00000000000E+00 0. -1.
</event>
<event>
 7    1  0.2661133E-009  0.1512169E+03  0.7561462E-02  0.1198986E+00
         -1   -1    0    0    0  501 -0.00000000000E+00  0.00000000000E+00  0.11051450261E+03  0.11051450261E+03  0.00000000000E+00 0.  1.
          1   -1    0    0  501    0  0.00000000000E+00 -0.00000000000E+00 -0.33192921514E+03  0.33192921514E+03  0.00000000000E+00 0. -1.
         25    2    1    2    0    0 -0.10835384344E+03  0.16505997866E+02  0.13438952695E+02  0.16685578256E+03  0.12508894185E+03 0.  0.
          5    1    3    3  502    0 -0.12451130753E+03  0.40432786151E+02  0.28472721383E+02  0.13403747297E+03  0.41800000000E+01 0.  1.
         -5    1    3    3    0  502  0.16157464089E+02 -0.23926788286E+02 -0.15033768689E+02  0.32818309591E+02  0.41800000000E+01 0.  1.
        -11    1    1    2    0    0  0.41212832659E+02  0.37804740605E+02 -0.11483985325E+03  0.12773365995E+03  0.00000000000E+00 0. -1.
         11    1    1    2    0    0  0.67141010779E+02 -0.54310738471E+02 -0.12001381198E+03  0.14785427524E+03  0.00000000000E+00 0.  1.
</event>
<event>
 7    1  0.2661133E-009  0.1138191E+03  0.7561462E-02  0.1253657E+00
          1   -1    0    0  501    0  0.00000000000E+00  0.00000000000E+00  0.39829012272E+02  0.39829012272E+02  0.00000000000E+00 0. -1.
         -1   -1    0    0    0  501 -0.00000000000E+00 -0.00000000000E+00 -0.56905629382E+03  0.56905629382E+03  0.00000000000E+00 0.  1.
         25    2    1    2    0    0  0.68247096713E+02  0.77335842349E+02 -0.29085831630E+03  0.33299409626E+03  0.12509200319E+03 0.  0.
          5    1    3    3  502    0  0.54344309463E+02  0.45600891609E+02 -0.28947316334E+03  0.29806866655E+03  0.41800000000E+01 0.  1.
         -5    1    3    3    0  502  0.13902787250E+02  0.31734950740E+02 -0.13851529625E+01  0.34925429711E+02  0.41800000000E+01 0.  1.
        -11    1    1    2    0    0 -0.31350027188E+00 -0.47462617047E+02 -0.33776242679E+02  0.58254895664E+02  0.00000000000E+00 0. -1.
         11    1    1    2    0    0 -0.67933596441E+02 -0.29873225302E+02 -0.20459272256E+03  0.21763631416E+03  0.00000000000E+00 0.  1.
</event>
<event>
 7    1  0.2933755E-009  0.9981352E+02  0.7561462E-02  0.1280689E+00
          3   -1    0    0  501    0  0.00000000000E+00  0.00000000000E+00  0.41762684327E+03  0.41762684327E+03  0.00000000000E+00 0. -1.
         -3   -1    0    0    0  501 -0.00000000000E+00 -0.00000000000E+00 -0.32426566113E+02  0.32426566113E+02  0.00000000000E+00 0.  1.
         25    2    1    2    0    0 -0.37770757440E+02  0.32975600441E+01  0.25678079651E+03  0.28813249815E+03  0.12508579061E+03 0.  0.
          5    1    3    3  502    0 -0.55730396634E+02 -0.38225398866E+02  0.76254478449E+02  0.10197684105E+03  0.41800000000E+01 0. -1.
         -5    1    3    3    0  502  0.17959639195E+02  0.41522958910E+02  0.18052631806E+03  0.18615565709E+03  0.41800000000E+01 0. -1.
        -11    1    1    2    0    0  0.11211932683E+02 -0.39796370183E+02  0.23158380214E+02  0.47389546193E+02  0.00000000000E+00 0.  1.
         11    1    1    2    0    0  0.26558824757E+02  0.36498810139E+02  0.10526110044E+03  0.11453136505E+03  0.00000000000E+00 0. -1.
</event>
<event>
 7    1  0.2661133E-009  0.1166950E+03  0.7561462E-02  0.1248651E+00
          1   -1    0    0  501    0  0.00000000000E+00  0.00000000000E+00  0.78299348012E+03  0.78299348012E+03  0.00000000000E+00 0. -1.
         -1   -1    0    0    0  501 -0.00000000000E+00 -0.00000000000E+00 -0.19879508160E+02  0.19879508160E+02  0.00000000000E+00 0.  1.
         25    2    1    2    0    0 -0.44105526129E+02 -0.17629453872E+02  0.31127399622E+03  0.33881553148E+03  0.12509343936E+03 0.  0.
          5    1    3    3  502    0 -0.60917221551E+02  0.40096335680E+02  0.15603124252E+03  0.17228419852E+03  0.41800000000E+01 0. -1.
         -5    1    3    3    0  502  0.16811695422E+02 -0.57725789552E+02  0.15524275370E+03  0.16653133297E+03  0.41800000000E+01 0. -1.
        -11    1    1    2    0    0  0.38484766657E+01  0.48928450659E+02  0.14686339941E+03  0.15484722194E+03  0.00000000000E+00 0.  1.
         11    1    1    2    0    0  0.40257049463E+02 -0.31298996787E+02  0.30497657633E+03  0.30921023486E+03  0.00000000000E+00 0. -1.
</event>
<event>
 7    1  0.2661133E-009  0.1166133E+03  0.7561462E-02  0.1248791E+00
          2   -1    0    0  501    0  0.00000000000E+00  0.00000000000E+00  0.14157791203E+04  0.14157791203E+04  0.00000000000E+00 0. -1.
         -2   -1    0    0    0  501 -0.00000000000E+00 -0.00000000000E+00 -0.18713010137E+02  0.18713010137E+02  0.00000000000E+00 0.  1.
         25    2    1    2    0    0  0.55362442553E+02  0.10092864324E+03  0.90514249494E+03  0.92096899997E+03  0.12509744877E+03 0.  0.
          5    1    3    3  502    0  0.48197199748E+02  0.66287145669E+02  0.85783025848E+03  0.86174658717E+03  0.41800000000E+01 0.  1.
         -5    1    3    3    0  502  0.71652428060E+01  0.34641497573E+02  0.47312236463E+02  0.59222412798E+02  0.41800000000E+01 0.  1.
        -11    1    1    2    0    0 -0.16393094143E+02 -0.21194160391E+02  0.20283232909E+02  0.33605587445E+02  0.00000000000E+00 0.  1.
         11    1    1    2    0    0 -0.38969348410E+02 -0.79734482851E+02  0.47164038233E+03  0.47991754304E+03  0.00000000000E+00 0. -1.
</event>
<event>
 7    1  0.2661133E-009  0.1193521E+03  0.7561462E-02  0.1244170E+00
         -1   -1    0    0    0  501 -0.00000000000E+00  0.00000000000E+00  0.12199704894E+02  0.12199704894E+02  0.00000000000E+00 0.  1.
          1   -1    0    0  501    0  0.00000000000E+00 -0.00000000000E+00 -0.15252273287E+04  0.15252273287E+04  0.00000000000E+00 0. -1.
         25    2    1    2    0    0 -0.14947300788E+02 -0.60403048181E+02 -0.11042670181E+04  0.11130688688E+04  0.12507881256E+03 0.  0.
          5    1    3    3  502    0  0.42355791421E+02  0.14510338162E+02 -0.32166468111E+03  0.32479255296E+03  0.41800000000E+01 0. -1.
         -5    1    3    3    0  502 -0.57303092209E+02 -0.74913386343E+02 -0.78260233703E+03  0.78827631587E+03  0.41800000000E+01 0. -1.
        -11    1    1    2    0    0 -0.25516504365E+02 -0.12895542515E+01 -0.34700573223E+02  0.43091585341E+02  0.00000000000E+00 0.  1.
         11    1    1    2    0    0  0.40463805153E+02  0.61692602432E+02 -0.37406003245E+03  0.38126657944E+03  0.00000000000E+00 0. -1.
</event>
<event>
 7    1  0.2661133E-009  0.7204413E+02  0.7561462E-02  0.1353277E+00
         -2   -1    0    0    0  501 -0.00000000000E+00  0.00000000000E+00  0.17055354766E+03  0.17055354766E+03  0.00000000000E+00 0. -1.
          2   -1    0    0  501    0  0.00000000000E+00 -0.00000000000E+00 -0.15419676948E+03  0.15419676948E+03  0.00000000000E+00 0.  1.
         25    2    1    2    0    0 -0.11076148756E+02 -0.68350909007E+02  0.10980562796E+03  0.18027537701E+03  0.12508959905E+03 0.  0.
          5    1    3    3  502    0  0.41427283285E+01 -0.34262605540E+02 -0.23379138925E+02  0.41894449194E+02  0.41800000000E+01 0.  1.
         -5    1    3    3    0  502 -0.15218877084E+02 -0.34088303466E+02  0.13318476689E+03  0.13838092782E+03  0.41800000000E+01 0.  1.
        -11    1    1    2    0    0  0.13935636220E+02  0.27699877105E+02  0.10568748504E+02  0.32759480971E+02  0.00000000000E+00 0. -1.
         11    1    1    2    0    0 -0.28594874643E+01  0.40651031901E+02 -0.10401759828E+03  0.11171545916E+03  0.00000000000E+00 0.  1.
</event>
<event>
 7    1  0.2661133E-009  0.1354894E+03  0.7561462E-02  0.1219531E+00
         -3   -1    0    0    0  501 -0.00000000000E+00  0.00000000000E+00  0.15400346374E+03  0.15400346374E+03  0.00000000000E+00 0.  1.
          3   -1    0    0  501    0  0.00000000000E+00 -0.00000000000E+00 -0.19904006947E+03  0.19904006947E+03  0.00000000000E+00 0. -1.
         25    2    1    2    0    0  0.80190273693E+02  0.38733331107E+02  0.80679201283E+02  0.17345518862E+03  0.12508724158E+03 0.  0.
          5    1    3    3  502    0 -0.32941536278E+02  0.10058882164E+02  0.70701342309E+01  0.35408828289E+02  0.41800000000E+01 0.  1.
         -5    1    3    3    0  502  0.11313180997E+03  0.28674448943E+02  0.73609067052E+02  0.13804636033E+03  0.41800000000E+01 0.  1.
        -11    1    1    2    0    0 -0.95397919394E+02 -0.41513717652E+02 -0.79738785906E+02  0.13108175218E+03  0.00000000000E+00 0.  1.
         11    1    1    2    0    0  0.15207645701E+02  0.27803865444E+01 -0.45977021102E+02  0.48506592402E+02  0.00000000000E+00 0. -1.
</event>
<event>
 7    1  0.2661133E-009  0.3107837E+03  0.7561462E-02  0.1079971E+00
         -1   -1    0    0    0  501 -0.00000000000E+00  0.00000000000E+00  0.98203199179E+02  0.98203199179E+02  0.00000000000E+00 0.  1.
          1   -1    0    0  501    0  0.00000000000E+00 -0.00000000000E+00 -0.10876647896E+04  0.10876647896E+04  0.00000000000E+00 0. -1.
         25    2    1    2    0    0  0.24839136773E+03  0.16388126509E+03 -0.64675173874E+03  0.72283352923E+03  0.12508060921E+03 0.  0.
          5    1    3    3  502    0  0.48936469565E+02  0.98413588376E+02 -0.17856840647E+03  0.20972401059E+03  0.41800000000E+01 0.  1.
         -5    1    3    3    0  502  0.19945489816E+03  0.65467676717E+02 -0.46818333228E+03  0.51310951864E+03  0.41800000000E+01 0.  1.
        -11    1    1    2    0    0 -0.21831350912E+03 -0.12212202109E+03 -0.32154409537E+03  0.40738824427E+03  0.00000000000E+00 0. -1.
         11    1    1    2    0    0 -0.30077858606E+02 -0.41759243998E+02 -0.21165756344E+02  0.55646215318E+02  0.00000000000E+00 0.  1.
</event>
<event>
 7    1  0.2661133E-009  0.2144784E+03  0.7561462E-02  0.1138068E+00
         -1   -1    0    0    0  501 -0.00000000000E+00  0.00000000000E+00  0.43439119890E+02  0.43439119890E+02  0.00000000000E+00 0.  1.
          1   -1    0    0  501    0  0.00000000000E+00 -0.00000000000E+00 -0.11296260990E+04  0.11296260990E+04  0.00000000000E+00 0. -1.
         25    2    1    2    0    0 -0.62954093388E+01  0.18945005322E+03 -0.47278379640E+03  0.52449949327E+03  0.12507695815E+03 0.  0.
          5    1    3    3  502    0 -0.57341318902E+02  0.68927382528E+02 -0.25546552258E+03  0.27077502939E+03  0.41800000000E+01 0. -1.
         -5    1    3    3    0  502  0.51045909563E+02  0.12052267069E+03 -0.21731827382E+03  0.25372446388E+03  0.41800000000E+01 0. -1.
        -11    1    1    2    0    0  0.26912506833E+02 -0.18526250690E+03 -0.57591366224E+03  0.60557660609E+03  0.00000000000E+00 0. -1.
         11    1    1    2    0    0 -0.20617097494E+02 -0.41875463246E+01 -0.37489520499E+02  0.42989119560E+02  0.00000000000E+00 0.  1.
</event>
<event>
 7    1  0.2661133E-009  0.1022356E+03  0.7561462E-02  0.1275664E+00
         -1   -1    0    0    0  501 -0.00000000000E+00  0.00000000000E+00  0.50719964152E+02  0.50719964152E+02  0.00000000000E+00 0.  1.
          1   -1    0    0  501    0  0.00000000000E+00 -0.00000000000E+00 -0.39567626380E+03  0.39567626380E+03  0.00000000000E+00 0. -1.
         25    2    1    2    0    0  0.59924861270E+01 -0.89947979940E+02 -0.17458833861E+03  0.23292703127E+03  0.12508942774E+03 0.  0.
          5    1    3    3  502    0  0.89387683341E+01 -0.24858971723E+00  0.17934735504E+02  0.20471700315E+02  0.41800000000E+01 0.  1.
         -5    1    3    3    0  502 -0.29462822071E+01 -0.89699390222E+02 -0.19252307411E+03  0.21245533096E+03  0.41800000000E+01 0.  1.
        -11    1    1    2    0    0 -0.18850221803E+02  0.89943383776E+02 -0.17667628430E+03  0.19914731376E+03  0.00000000000E+00 0. -1.
         11    1    1    2    0    0  0.12857735676E+02  0.45961640646E-02  0.63083232610E+01  0.14321882914E+02  0.00000000000E+00 0.  1.
</event>
<event>
 7    1  0.2661133E-009  0.2314504E+03  0.7561462E-02  0.1125623E+00
         -3   -1    0    0    0  501 -0.00000000000E+00  0.00000000000E+00  0.13958076389E+04  0.13958076389E+04  0.00000000000E+00 0.  1.
          3   -1    0    0  501    0  0.00000000000E+00 -0.00000000000E+00 -0.41671692378E+02  0.41671692378E+02  0.00000000000E+00 0. -1.
         25    2    1    2    0    0 -0.32300738589E+02 -0.21026103981E+03  0.60921341903E+03  0.65729871072E+03  0.12509021786E+03 0.  0.
          5    1    3    3  502    0  0.36094137715E+02 -0.10220024258E+03  0.18763929598E+03  0.21673406321E+03  0.41800000000E+01 0. -1.
         -5    1    3    3    0  502 -0.68394876304E+02 -0.10806079723E+03  0.42157412306E+03  0.44056464751E+03  0.41800000000E+01 0. -1.
        -11    1    1    2    0    0  0.55542926847E+02  0.10613344608E+03  0.47664440501E+03  0.49146639145E+03  0.00000000000E+00 0.  1.
         11    1    1    2    0    0 -0.23242188258E+02  0.10412759373E+03  0.26827812250E+03  0.28871422913E+03  0.00000000000E+00 0. -1.
</event>
<event>
 7    1  0.2949401E-009  0.9389507E+02  0.7561462E-02  0.1293684E+00
          2   -1    0    0  501    0  0.00000000000E+00  0.00000000000E+00  0.41205957266E+03  0.41205957266E+03  0.00000000000E+00 0. -1.
         -2   -1    0    0    0  501 -0.00000000000E+00 -0.00000000000E+00 -0.36006808759E+02  0.36006808759E+02  0.00000000000E+00 0.  1.
         25    2    1    2    0    0 -0.45880351021E+02  0.73839638332E+01  0.26469725994E+03  0.29643276924E+03  0.12509283645E+03 0.  0.
          5    1    3    3  502    0 -0.47343120158E+02 -0.38384848436E+02  0.56484610451E+02  0.83203072260E+02  0.41800000000E+01 0.  1.
         -5    1    3    3    0  502  0.14627691370E+01  0.45768812269E+02  0.20821264948E+03  0.21322969698E+03  0.41800000000E+01 0.  1.
        -11    1    1    2    0    0 -0.72462995030E+01 -0.23984833929E+02 -0.22189526472E+01  0.25153625304E+02  0.00000000000E+00 0.  1.
         11    1    1    2    0    0  0.53126650524E+02  0.16600870096E+02  0.11357445661E+03  0.12647998687E+03  0.00000000000E+00 0. -1.
</event>
<event>
 7    1  0.2661133E-009  0.1179126E+03  0.7561462E-02  0.1246581E+00
         -2   -1    0    0    0  501 -0.00000000000E+00  0.00000000000E+00  0.13956878711E+02  0.13956878711E+02  0.00000000000E+00 0.  1.
          2   -1    0    0  501    0  0.00000000000E+00 -0.00000000000E+00 -0.11977884863E+04  0.11977884863E+04  0.00000000000E+00 0. -1.
         25    2    1    2    0    0 -0.74991911510E+01  0.52090153665E+02 -0.79134835766E+03  0.80290072348E+03  0.12509087343E+03 0.  0.
          5    1    3    3  502    0  0.43893051177E+02 -0.16016706987E+02 -0.37151309938E+03  0.37446306928E+03  0.41800000000E+01 0. -1.
         -5    1    3    3    0  502 -0.51392242328E+02  0.68106860653E+02 -0.41983525828E+03  0.42843765420E+03  0.41800000000E+01 0. -1.
        -11    1    1    2    0    0  0.12102822221E+02 -0.77108544428E+02 -0.35543206683E+03  0.36390130538E+03  0.00000000000E+00 0.  1.
         11    1    1    2    0    0 -0.46036310703E+01  0.25018390763E+02 -0.37051183121E+02  0.44943336170E+02  0.00000000000E+00 0. -1.
</event>
<event>
 7    1  0.2661133E-009  0.1013795E+03  0.7561462E-02  0.1277422E+00
         -2   -1    0    0    0  501 -0.00000000000E+00  0.00000000000E+00  0.94540448594E+02  0.94540448594E+02  0.00000000000E+00 0.  1.
          2   -1    0    0  501    0  0.00000000000E+00 -0.00000000000E+00 -0.22847673916E+03  0.22847673916E+03  0.00000000000E+00 0. -1.
         25    2    1    2    0    0 -0.55948443123E+02  0.49417453842E+02 -0.14542046090E+01  0.14568126105E+03  0.12509437268E+03 0.  0.
          5    1    3    3  502    0 -0.51723463389E+02  0.80553704325E+02 -0.32626504389E+02  0.10122340211E+03  0.41800000000E+01 0.  1.
         -5    1    3    3    0  502 -0.42249797335E+01 -0.31136250484E+02  0.31172299780E+02  0.44457858940E+02  0.41800000000E+01 0.  1.
        -11    1    1    2    0    0  0.17436340406E+02 -0.21453766902E+02  0.81878356722E+01  0.28832806558E+02  0.00000000000E+00 0.  1.
         11    1    1    2    0    0  0.38512102717E+02 -0.27963686940E+02 -0.14066992162E+03  0.14850312014E+03  0.00000000000E+00 0. -1.
</event>
<event>
 7    1  0.2661133E-009  0.1270674E+03  0.7561462E-02  0.1231873E+00
         -3   -1    0    0    0  501 -0.00000000000E+00  0.00000000000E+00  0.24991157466E+03  0.24991157466E+03  0.00000000000E+00 0.  1.
          3   -1    0    0  501    0  0.00000000000E+00 -0.00000000000E+00 -0.73060588645E+02  0.73060588645E+02  0.00000000000E+00 0. -1.
         25    2    1    2    0    0 -0.57573802942E+02  0.43306989187E+02  0.13702982395E+03  0.19903329576E+03  0.12508733778E+03 0.  0.
          5    1    3    3  502    0 -0.50162298973E+02  0.82627473994E+02  0.12285405383E+03  0.15637821664E+03  0.41800000000E+01 0. -1.
         -5    1    3    3    0  502 -0.74115039690E+01 -0.39320484807E+02  0.14175770124E+02  0.42655079125E+02  0.41800000000E+01 0. -1.
        -11    1    1    2    0    0  0.20020933591E+02  0.29254110927E+02  0.86276643876E+01  0.36483933186E+02  0.00000000000E+00 0. -1.
         11    1    1    2    0    0  0.37552869351E+02 -0.72561100114E+02  0.31193497677E+02  0.87454934358E+02  0.00000000000E+00 0.  1.
</event>
<event>
 7    1  0.2661133E-009  0.8949887E+02  0.7561462E-02  0.1304070E+00
         -1   -1    0    0    0  501 -0.00000000000E+00  0.00000000000E+00  0.89286314302E+02  0.89286314302E+02  0.00000000000E+00 0.  1.
          1   -1    0    0  501    0  0.00000000000E+00 -0.00000000000E+00 -0.20526546176E+03  0.20526546176E+03  0.00000000000E+00 0. -1.
         25    2    1    2    0    0 -0.20806132627E+02 -0.75084749017E+02 -0.42332933008E+02  0.15332999841E+03  0.12508955394E+03 0.  0.
          5    1    3    3  502    0  0.22522724084E+02 -0.18297394047E+02  0.36533403137E+02  0.46842605327E+02  0.41800000000E+01 0. -1.
         -5    1    3    3    0  502 -0.43328856711E+02 -0.56787354970E+02 -0.78866336145E+02  0.10648739308E+03  0.41800000000E+01 0. -1.
        -11    1    1    2    0    0  0.37255718057E+01  0.23381129641E+02  0.21249399507E+02  0.31813426221E+02  0.00000000000E+00 0.  1.
         11    1    1    2    0    0  0.17080560821E+02  0.51703619377E+02 -0.94895613953E+02  0.10940835143E+03  0.00000000000E+00 0. -1.
</event>
<event>
 7    1  0.2661133E-009  0.1616587E+03  0.7561462E-02  0.1186837E+00
         -1   -1    0    0    0  501 -0.00000000000E+00  0.00000000000E+00  0.54682923266E+02  0.54682923266E+02  0.00000000000E+00 0.  1.
          1   -1    0    0  501    0  0.00000000000E+00 -0.00000000000E+00 -0.65225359865E+03  0.65225359865E+03  0.00000000000E+00 0. -1.
         25    2    1    2    0    0  0.75198499371E+02  0.10081032769E+03 -0.47950689511E+03  0.51126525829E+03  0.12509102846E+03 0.  0.
          5    1    3    3  502    0 -0.55549817616E+01  0.86632393140E+02 -0.16834653680E+03  0.18945727280E+03  0.41800000000E+01 0. -1.
         -5    1    3    3    0  502  0.80753481133E+02  0.14177934547E+02 -0.31116035831E+03  0.32180798549E+03  0.41800000000E+01 0. -1.
        -11    1    1    2    0    0 -0.95982130733E+02 -0.84788985593E+02 -0.10812940001E+03  0.16761177955E+03  0.00000000000E+00 0.  1.
         11    1    1    2    0    0  0.20783631362E+02 -0.16021342094E+02 -0.99343802573E+01  0.28059484068E+02  0.00000000000E+00 0. -1.
</event>
<event>
 7    1  0.2661133E-009  0.1225444E+03  0.7561462E-02  0.1238958E+00
         -2   -1    0    0    0  501 -0.00000000000E+00  0.00000000000E+00  0.11028881638E+03  0.11028881638E+03  0.00000000000E+00 0.  1.
          2   -1    0    0  501    0  0.00000000000E+00 -0.00000000000E+00 -0.19789422231E+03  0.19789422231E+03  0.00000000000E+00 0. -1.
         25    2    1    2    0    0 -0.27763911240E+02 -0.86624217376E+02 -0.54764557549E+01  0.15476417576E+03  0.12508944291E+03 0.  0.
          5    1    3    3  502    0  0.45553241876E+02 -0.59635252277E+02  0.72070599160E+01  0.75504140761E+02  0.41800000000E+01 0. -1.
         -5    1    3    3    0  502 -0.73317153115E+02 -0.26988965100E+02 -0.12683515671E+02  0.79260034998E+02  0.41800000000E+01 0. -1.
        -11    1    1    2    0    0  0.12883181301E+01  0.19372682808E+02  0.20279004785E+02  0.28074875563E+02  0.00000000000E+00 0.  1.
         11    1    1    2    0    0  0.26475593110E+02  0.67251534568E+02 -0.10240795495E+03  0.12534398737E+03  0.00000000000E+00 0. -1.
</event>
<event>
 7    1  0.2661133E-009  0.9488938E+02  0.7561462E-02  0.1291425E+00
         -2   -1    0    0    0  501 -0.00000000000E+00  0.00000000000E+00  0.26387951794E+02  0.26387951794E+02  0.00000000000E+00 0.  1.
          2   -1    0    0  501    0  0.00000000000E+00 -0.00000000000E+00 -0.50198095613E+03  0.50198095613E+03  0.00000000000E+00 0. -1.
         25    2    1    2    0    0  0.22952654611E+02 -0.20693074591E+02 -0.21986857507E+03  0.25483809132E+03  0.12508091299E+03 0.  0.
          5    1    3    3  502    0  0.49750571285E+02 -0.54962096919E+02 -0.83998457738E+02  0.11211228632E+03  0.41800000000E+01 0.  1.
         -5    1    3    3    0  502 -0.26797916674E+02  0.34269022328E+02 -0.13587011733E+03  0.14272580500E+03  0.41800000000E+01 0.  1.
        -11    1    1    2    0    0  0.36738021022E+01 -0.21565196052E+02 -0.12426600906E+02  0.25158992681E+02  0.00000000000E+00 0.  1.
         11    1    1    2    0    0 -0.26626456713E+02  0.42258270643E+02 -0.24329782836E+03  0.24837182392E+03  0.00000000000E+00 0. -1.
</event>
<event>
 7    1  0.2661133E-009  0.8075535E+02  0.7561462E-02  0.1326921E+00
         -2   -1    0    0    0  501 -0.00000000000E+00  0.00000000000E+00  0.17008112164E+03  0.17008112164E+03  0.00000000000E+00 0. -1.
          2   -1    0    0  501    0  0.00000000000E+00 -0.00000000000E+00 -0.84181607753E+02  0.84181607753E+02  0.00000000000E+00 0.  1.
         25    2    1    2    0    0 -0.12942257192E+02 -0.32766188657E+02  0.87013480356E+02  0.15639799560E+03  0.12509141507E+03 0.  0.
          5    1    3    3  502    0 -0.29582844565E+02 -0.38569963117E+01  0.11105522432E+03  0.11506848553E+03  0.41800000000E+01 0. -1.
         -5    1    3    3    0  502  0.16640587373E+02 -0.28909192346E+02 -0.24041743964E+02  0.41329510075E+02  0.41800000000E+01 0. -1.
        -11    1    1    2    0    0  0.60347705583E+01  0.64758584690E+02 -0.27171112587E+01  0.65095894190E+02  0.00000000000E+00 0.  1.
         11    1    1    2    0    0  0.69074866339E+01 -0.31992396033E+02  0.16031447917E+01  0.32768839600E+02  0.00000000000E+00 0. -1.
</event>
<event>
 7    1  0.2661133E-009  0.1421447E+03  0.7561462E-02  0.1210472E+00
          2   -1    0    0  501    0  0.00000000000E+00  0.00000000000E+00  0.57863730617E+03  0.57863730617E+03  0.00000000000E+00 0. -1.
         -2   -1    0    0    0  501 -0.00000000000E+00 -0.00000000000E+00 -0.39791750642E+02  0.39791750642E+02  0.00000000000E+00 0.  1.
         25    2    1    2    0    0  0.80476466772E+02  0.61298976902E+02  0.23958576833E+03  0.28858807656E+03  0.12509081210E+03 0.  0.
          5    1    3    3  502    0 -0.12108510716E+02  0.50980038306E+02  0.15130973542E+03  0.16018017596E+03  0.41800000000E+01 0. -1.
         -5    1    3    3    0  502  0.92584977488E+02  0.10318938596E+02  0.88276032915E+02  0.12840790060E+03  0.41800000000E+01 0. -1.
        -11    1    1    2    0    0 -0.45006965269E+02 -0.84744741918E+02  0.21595400550E+03  0.23631214674E+03  0.00000000000E+00 0.  1.
         11    1    1    2    0    0 -0.35469501503E+02  0.23445765016E+02  0.83305781699E+02  0.93528833514E+02  0.00000000000E+00 0. -1.
</event>
<event>
 7    1  0.2661133E-009  0.1169719E+03  0.7561462E-02  0.1248178E+00
         -1   -1    0    0    0  501 -0.00000000000E+00  0.00000000000E+00  0.83359626857E+02  0.83359626857E+02  0.00000000000E+00 0.  1.
          1   -1    0    0  501    0  0.00000000000E+00 -0.00000000000E+00 -0.20268353498E+03  0.20268353498E+03  0.00000000000E+00 0. -1.
         25    2    1    2    0    0 -0.33942275565E+02 -0.43938463288E+02 -0.11279956868E+03  0.17735351365E+03  0.12509140451E+03 0.  0.
          5    1    3    3  502    0  0.37209010205E+02 -0.48469397326E+02 -0.74061638878E+02  0.96106147935E+02  0.41800000000E+01 0.  1.
         -5    1    3    3    0  502 -0.71151285770E+02  0.45309340378E+01 -0.38737929799E+02  0.81247365712E+02  0.41800000000E+01 0.  1.
        -11    1    1    2    0    0  0.14553491905E+02 -0.25403377119E+02  0.15849797615E+02  0.33291917640E+02  0.00000000000E+00 0.  1.
         11    1    1    2    0    0  0.19388783660E+02  0.69341840407E+02 -0.22374137061E+02  0.75397730550E+02  0.00000000000E+00 0. -1.
</event>
<event>
 7    1  0.2661133E-009  0.1293907E+03  0.7561462E-02  0.1228363E+00
         -2   -1    0    0    0  501 -0.00000000000E+00  0.00000000000E+00  0.74545985062E+02  0.74545985062E+02  0.00000000000E+00 0. -1.
          2   -1    0    0  501    0  0.00000000000E+00 -0.00000000000E+00 -0.27326967107E+03  0.27326967107E+03  0.00000000000E+00 0.  1.
         25    2    1    2    0    0 -0.69533885560E+02 -0.54506768592E+02 -0.74429740054E+02  0.17027555331E+03  0.12509208123E+03 0.  0.
          5    1    3    3  502    0  0.16437018144E+02 -0.63846792448E+02 -0.25378607202E+02  0.70768174873E+02  0.41800000000E+01 0. -1.
         -5    1    3    3    0  502 -0.85970903704E+02  0.93400238560E+01 -0.49051132852E+02  0.99507378437E+02  0.41800000000E+01 0. -1.
        -11    1    1    2    0    0  0.67360917723E+02  0.18207318955E+02 -0.12268464620E+03  0.14114007976E+03  0.00000000000E+00 0.  1.
         11    1    1    2    0    0  0.21729678378E+01  0.36299449637E+02 -0.16092997468E+01  0.36400023061E+02  0.00000000000E+00 0. -1.
</event>
<event>
 7    1  0.2661133E-009  0.1346484E+03  0.7561462E-02  0.1220717E+00
          2   -1    0    0  501    0  0.00000000000E+00  0.00000000000E+00  0.63126644378E+03  0.63126644378E+03  0.00000000000E+00 0. -1.
         -2   -1    0    0    0  501 -0.00000000000E+00 -0.00000000000E+00 -0.34610539323E+02  0.34610539323E+02  0.00000000000E+00 0.  1.
         25    2    1    2    0    0  0.66310679522E+02  0.71714957714E+02  0.34457806050E+03  0.37936904888E+03  0.12508674626E+03 0.  0.
          5    1    3    3  502    0  0.92999352120E+02  0.87188481680E+02  0.27426440070E+03  0.30247172549E+03  0.41800000000E+01 0.  1.
         -5    1    3    3    0  502 -0.26688672599E+02 -0.15473523967E+02  0.70313659805E+02  0.76897323387E+02  0.41800000000E+01 0.  1.
        -11    1    1    2    0    0 -0.28602527699E+02 -0.66705090751E+02  0.71193454028E+02  0.10166701343E+03  0.00000000000E+00 0.  1.
         11    1    1    2    0    0 -0.37708151822E+02 -0.50098669625E+01  0.18088438992E+03  0.18484092079E+03  0.00000000000E+00 0. -1.
</event>
<event>
 7    1  0.2661133E-009  0.1465550E+03  0.7561462E-02  0.1204771E+00
          2   -1    0    0  501    0  0.00000000000E+00  0.00000000000E+00  0.31071614367E+03  0.31071614367E+03  0.00000000000E+00 0. -1.
         -2   -1    0    0    0  501 -0.00000000000E+00 -0.00000000000E+00 -0.81446355402E+02  0.81446355402E+02  0.00000000000E+00 0.  1.
         25    2    1    2    0    0 -0.47775468680E+02 -0.10567259978E+03  0.13457542981E+03  0.21727244927E+03  0.12509027602E+03 0.  0.
          5    1    3    3  502    0  0.35890466555E+02 -0.51360318001E+02  0.21371877296E+02  0.66334285207E+02  0.41800000000E+01 0. -1.
         -5    1    3    3    0  502 -0.83665935235E+02 -0.54312281776E+02  0.11320355251E+03  0.15093816407E+03  0.41800000000E+01 0. -1.
        -11    1    1    2    0    0 -0.14360322807E+02  0.18265763480E+02 -0.97450455740E+01  0.25195692089E+02  0.00000000000E+00 0.  1.
         11    1    1    2    0    0  0.62135791487E+02  0.87406836297E+02  0.10443940403E+03  0.14969435771E+03  0.00000000000E+00 0. -1.
</event>
<event>
 7    1  0.2661133E-009  0.2668968E+03  0.7561462E-02  0.1103069E+00
         -1   -1    0    0    0  501 -0.00000000000E+00  0.00000000000E+00  0.36430708568E+03  0.36430708568E+03  0.00000000000E+00 0.  1.
          1   -1    0    0  501    0  0.00000000000E+00 -0.00000000000E+00 -0.30286137038E+03  0.30286137038E+03  0.00000000000E+00 0. -1.
         25    2    1    2    0    0 -0.67811503582E+02 -0.25763788107E+03 -0.13684054384E+03  0.32457438923E+03  0.12509005524E+03 0.  0.
          5    1    3    3  502    0 -0.60387081755E+02 -0.24158789295E+03 -0.74976213608E+02  0.26009654874E+03  0.41800000000E+01 0.  1.
         -5    1    3    3    0  502 -0.74244218275E+01 -0.16049988128E+02 -0.61864330232E+02  0.64477840484E+02  0.41800000000E+01 0.  1.
        -11    1    1    2    0    0  0.61904627083E+01  0.35710732793E+02  0.70317097097E+02  0.79107979429E+02  0.00000000000E+00 0.  1.
         11    1    1    2    0    0  0.61621040874E+02  0.22192714828E+03  0.12796916204E+03  0.26348608741E+03  0.00000000000E+00 0. -1.
</event>
<event>
 7    1  0.2661133E-009  0.1274194E+03  0.7561462E-02  0.1231336E+00
          1   -1    0    0  501    0  0.00000000000E+00  0.00000000000E+00  0.13806429708E+04  0.13806429708E+04  0.00000000000E+00 0.  1.
         -1   -1    0    0    0  501 -0.00000000000E+00 -0.00000000000E+00 -0.32451823952E+02  0.32451823952E+02  0.00000000000E+00 0. -1.
         25    2    1    2    0    0 -0.45476128372E+02 -0.64481644381E+02  0.12448966683E+04  0.12536511483E+04  0.12509007206E+03 0.  0.
          5    1    3    3  502    0  0.26151172254E+02 -0.65789359869E+02  0.78403303621E+03  0.78723401727E+03  0.41800000000E+01 0. -1.
         -5    1    3    3    0  502 -0.71627300626E+02  0.13077154876E+01  0.46086363209E+03  0.46641713101E+03  0.41800000000E+01 0. -1.
        -11    1    1    2    0    0  0.17752751478E+02  0.78925647239E+02  0.99063201956E+02  0.12789814682E+03  0.00000000000E+00 0.  1.
         11    1    1    2    0    0  0.27723376894E+02 -0.14444002858E+02  0.42312765573E+01  0.31545499620E+02  0.00000000000E+00 0. -1.
</event>
<event>
 7    1  0.2661133E-009  0.1990675E+03  0.7561462E-02  0.1150528E+00
          1   -1    0    0  501    0  0.00000000000E+00  0.00000000000E+00  0.55803056925E+03  0.55803056925E+03  0.00000000000E+00 0. -1.
         -1   -1    0    0    0  501 -0.00000000000E+00 -0.00000000000E+00 -0.87827875179E+02  0.87827875179E+02  0.00000000000E+00 0.  1.
         25    2    1    2    0    0 -0.11545952127E+03  0.15072977974E+03  0.29309569830E+03  0.37094599551E+03  0.12508187588E+03 0.  0.
          5    1    3    3  502    0 -0.43886015684E+02  0.58171693564E+02  0.22264999572E+03  0.23430838930E+03  0.41800000000E+01 0.  1.
         -5    1    3    3    0  502 -0.71573505585E+02  0.92558086176E+02  0.70445702583E+02  0.13663760621E+03  0.41800000000E+01 0.  1.
        -11    1    1    2    0    0 -0.70365750942E+01 -0.47084462850E+02  0.24810935808E+02  0.53684658578E+02  0.00000000000E+00 0.  1.
         11    1    1    2    0    0  0.12249609636E+03 -0.10364531689E+03  0.15229605996E+03  0.22122779034E+03  0.00000000000E+00 0. -1.
</event>
<event>
 7    1  0.2661133E-009  0.2152577E+03  0.7561462E-02  0.1137469E+00
         -2   -1    0    0    0  501 -0.00000000000E+00  0.00000000000E+00  0.10383338782E+04  0.10383338782E+04  0.00000000000E+00 0.  1.
          2   -1    0    0  501    0  0.00000000000E+00 -0.00000000000E+00 -0.54709704331E+02  0.54709704331E+02  0.00000000000E+00 0. -1.
         25    2    1    2    0    0 -0.20392326328E+03  0.50765236638E+02  0.44858536354E+03  0.51091869918E+03  0.12508909716E+03 0.  0.
          5    1    3    3  502    0 -0.13639487745E+03  0.16809484905E+01  0.37674902064E+03  0.40070398693E+03  0.41800000000E+01 0. -1.
         -5    1    3    3    0  502 -0.67528385831E+02  0.49084288147E+02  0.71836342896E+02  0.11021471225E+03  0.41800000000E+01 0. -1.
        -11    1    1    2    0    0  0.11079209523E+03 -0.33452021995E+02  0.40520127622E+03  0.42140479398E+03  0.00000000000E+00 0.  1.
         11    1    1    2    0    0  0.93131168042E+02 -0.17313214642E+02  0.12983753408E+03  0.16072008934E+03  0.00000000000E+00 0. -1.
</event>
<event>
 7    1  0.2661133E-009  0.1228263E+03  0.7561462E-02  0.1238506E+00
         -1   -1    0    0    0  501 -0.00000000000E+00  0.00000000000E+00  0.39946811632E+02  0.39946811632E+02  0.00000000000E+00 0.  1.
          1   -1    0    0  501    0  0.00000000000E+00 -0.00000000000E+00 -0.42280395792E+03  0.42280395792E+03  0.00000000000E+00 0. -1.
         25    2    1    2    0    0  0.29721557563E+02 -0.62235701001E+02 -0.18815031897E+03  0.23622942442E+03  0.12508854852E+03 0.  0.
          5    1    3    3  502    0 -0.47172501140E+02 -0.10620008488E+02 -0.82088732413E+02  0.95362790612E+02  0.41800000000E+01 0. -1.
         -5    1    3    3    0  502  0.76894058703E+02 -0.51615692513E+02 -0.10606158656E+03  0.14086663381E+03  0.41800000000E+01 0. -1.
        -11    1    1    2    0    0 -0.49392552632E+02  0.67880377193E+02 -0.10460795508E+03  0.13412752935E+03  0.00000000000E+00 0.  1.
         11    1    1    2    0    0  0.19670995069E+02 -0.56446761925E+01 -0.90098872241E+02  0.92393815785E+02  0.00000000000E+00 0. -1.
</event>
<event>
 6    1  0.2661133E-009  0.1025027E+03  0.7561462E-02  0.1275120E+00
          1   -1    0    0  501    0  0.00000000000E+00  0.00000000000E+00  0.35839042870E+03  0.35839042870E+03  0.00000000000E+00 0. -1.
         -1   -1    0    0    0  501 -0.00000000000E+00 -0.00000000000E+00 -0.63263326923E+02  0.63263326923E+02  0.00000000000E+00 0.  1.
          5    1    1    2  502    0  0.62431100768E+02  0.54642337343E+02  0.88763296035E+02  0.12157229329E+03  0.41800000000E+01 0. -1.
         -5    1    1    2    0  502 -0.95186301493E+00 -0.12159279006E+02 -0.32185115025E+02  0.34671431155E+02  0.41800000000E+01 0. -1.
        -11    1    1    2    0    0 -0.15613964573E+02 -0.58431560618E+02  0.17677448290E+03  0.18683484946E+03  0.00000000000E+00 0. -1.
         11    1    1    2    0    0 -0.45865273180E+02  0.15948502281E+02  0.61774437868E+02  0.78575181723E+02  0.00000000000E+00 0.  1.
</event>
<event>
 7    1  0.2661133E-009  0.1071509E+03  0.7561462E-02  0.1265939E+00
         -4   -1    0    0    0  501 -0.00000000000E+00  0.00000000000E+00  0.90854694252E+02  0.90854694252E+02  0.00000000000E+00 0.  1.
          4   -1    0    0  501    0  0.00000000000E+00 -0.00000000000E+00 -0.13778675953E+03  0.13778675953E+03  0.00000000000E+00 0. -1.
         25    2    1    2    0    0 -0.69014362741E+01 -0.12661408941E+02 -0.26124696684E+02  0.12860107273E+03  0.12509114690E+03 0.  0.
          5    1    3    3  502    0 -0.46670678362E+02  0.34847691414E+02  0.59698171821E+01  0.58699445763E+02  0.41800000000E+01 0.  1.
         -5    1    3    3    0  502  0.39769242088E+02 -0.47509100355E+02 -0.32094513866E+02  0.69901626971E+02  0.41800000000E+01 0.  1.
        -11    1    1    2    0    0  0.23924835942E+02 -0.35453569771E+02 -0.23741464915E+02  0.48918406972E+02  0.00000000000E+00 0. -1.
         11    1    1    2    0    0 -0.17023399668E+02  0.48114978712E+02  0.29340963169E+01  0.51121974081E+02  0.00000000000E+00 0.  1.
</event>
<event>
 7    1  0.2661133E-009  0.2136473E+03  0.7561462E-02  0.1138710E+00
         -2   -1    0    0    0  501 -0.00000000000E+00  0.00000000000E+00  0.23153433308E+03  0.23153433308E+03  0.00000000000E+00 0.  1.
          2   -1    0    0  501    0  0.00000000000E+00 -0.00000000000E+00 -0.20874702270E+03  0.20874702270E+03  0.00000000000E+00 0. -1.
         25    2    1    2    0    0 -0.11700798493E+03 -0.15111470282E+03  0.11647204720E+02  0.22871107097E+03  0.12508626887E+03 0.  0.
          5    1    3    3  502    0 -0.13984811545E+03 -0.11722803616E+03  0.27674619047E+02  0.18461653446E+03  0.41800000000E+01 0. -1.
         -5    1    3    3    0  502  0.22840130526E+02 -0.33886666655E+02 -0.16027414327E+02  0.44094536503E+02  0.41800000000E+01 0. -1.
        -11    1    1    2    0    0  0.48167670479E+02  0.11767807298E+03  0.34140032951E+02  0.13165787173E+03  0.00000000000E+00 0.  1.
         11    1    1    2    0    0  0.68840314446E+02  0.33436629839E+02 -0.22999927294E+02  0.79912413075E+02  0.00000000000E+00 0. -1.
</event>
<event>
 7    1  0.2661133E-009  0.1217863E+03  0.7561462E-02  0.1240179E+00
          2   -1    0    0  501    0  0.00000000000E+00  0.00000000000E+00  0.13907924615E+03  0.13907924615E+03  0.00000000000E+00 0. -1.
         -2   -1    0    0    0  501 -0.00000000000E+00 -0.00000000000E+00 -0.18582819175E+03  0.18582819175E+03  0.00000000000E+00 0.  1.
         25    2    1    2    0    0  0.57170547134E+02 -0.67880533508E+02 -0.10351040887E+03  0.18503534099E+03  0.12508970534E+03 0.  0.
          5    1    3    3  502    0 -0.18293135043E+02 -0.65809104642E+02 -0.81229592442E+02  0.10621297535E+03  0.41800000000E+01 0. -1.
         -5    1    3    3    0  502  0.75463682177E+02 -0.20714288652E+01 -0.22280816426E+02  0.78822365645E+02  0.41800000000E+01 0. -1.
        -11    1    1    2    0    0  0.52742370147E+01  0.20444325555E+02  0.57706080481E+02  0.61447373809E+02  0.00000000000E+00 0. -1.
         11    1    1    2    0    0 -0.62444784149E+02  0.47436207953E+02 -0.94461721522E+00  0.78424723105E+02  0.00000000000E+00 0.  1.
</event>
<event>
 7    1  0.2661133E-009  0.1278395E+03  0.7561462E-02  0.1230697E+00
         -1   -1    0    0    0  501 -0.00000000000E+00  0.00000000000E+00  0.23066493782E+03  0.23066493782E+03  0.00000000000E+00 0.  1.
          1   -1    0    0  501    0  0.00000000000E+00 -0.00000000000E+00 -0.98193624505E+02  0.98193624505E+02  0.00000000000E+00 0. -1.
         25    2    1    2    0    0 -0.79773930726E+02 -0.69881998030E+02  0.73366420244E+02  0.17966052622E+03  0.12509156402E+03 0.  0.
          5    1    3    3  502    0 -0.56467225276E+02 -0.14268400517E+02 -0.25550861074E+02  0.63737380596E+02  0.41800000000E+01 0. -1.
         -5    1    3    3    0  502 -0.23306705450E+02 -0.55613597514E+02  0.98917281318E+02  0.11592314562E+03  0.41800000000E+01 0. -1.
        -11    1    1    2    0    0 -0.10184787146E+02  0.41172864985E+02  0.21560540084E+02  0.47579318921E+02  0.00000000000E+00 0. -1.
         11    1    1    2    0    0  0.89958717873E+02  0.28709133045E+02  0.37544352989E+02  0.10161871719E+03  0.00000000000E+00 0.  1.
</event>
<event>
 6    1  0.2661133E-009  0.1161178E+03  0.7561462E-02  0.1249642E+00
         -3   -1    0    0    0  501 -0.00000000000E+00  0.00000000000E+00  0.22815521669E+02  0.22815521669E+02  0.00000000000E+00 0.  1.
          3   -1    0    0  501    0  0.00000000000E+00 -0.00000000000E+00 -0.62864389006E+03  0.62864389006E+03  0.00000000000E+00 0. -1.
          5    1    1    2  502    0  0.22083469673E+02 -0.50295484748E+02 -0.10425795741E+03  0.11791738423E+03  0.41800000000E+01 0. -1.
         -5    1    1    2    0  502  0.11514948005E+02  0.74755512204E+02 -0.18407824060E+03  0.19905590093E+03  0.41800000000E+01 0. -1.
        -11    1    1    2    0    0  0.32347220502E+02 -0.58393196292E+01 -0.64695714053E+02  0.72567043104E+02  0.00000000000E+00 0.  1.
         11    1    1    2    0    0 -0.65945638180E+02 -0.18620707827E+02 -0.25279645633E+03  0.26191908347E+03  0.00000000000E+00 0. -1.
</event>
<event>
 7    1  0.2661133E-009  0.1209633E+03  0.7561462E-02  0.1241516E+00
         -2   -1    0    0    0  501 -0.00000000000E+00  0.00000000000E+00  0.28012850120E+03  0.28012850120E+03  0.00000000000E+00 0.  1.
          2   -1    0    0  501    0  0.00000000000E+00 -0.00000000000E+00 -0.67371187140E+02  0.67371187140E+02  0.00000000000E+00 0. -1.
         25    2    1    2    0    0  0.26177129348E+02 -0.58314981074E+02  0.18521854657E+03  0.23246289802E+03  0.12508880783E+03 0.  0.
          5    1    3    3  502    0 -0.35727385322E+02 -0.59151971694E+02  0.13833474462E+03  0.15469122724E+03  0.41800000000E+01 0. -1.
         -5    1    3    3    0  502  0.61904514671E+02  0.83699061993E+00  0.46883801949E+02  0.77771670775E+02  0.41800000000E+01 0. -1.
        -11    1    1    2    0    0  0.21146386887E+02  0.59665690723E+02  0.79421267264E+01  0.63798445943E+02  0.00000000000E+00 0.  1.
         11    1    1    2    0    0 -0.47323516235E+02 -0.13507096489E+01  0.19596640767E+02  0.51238344379E+02  0.00000000000E+00 0. -1.
</event>
<event>
 7    1  0.2661133E-009  0.1568967E+03  0.7561462E-02  0.1192246E+00
         -2   -1    0    0    0  501 -0.00000000000E+00  0.00000000000E+00  0.97661239402E+02  0.97661239402E+02  0.00000000000E+00 0.  1.
          2   -1    0    0  501    0  0.00000000000E+00 -0.00000000000E+00 -0.27714794398E+03  0.27714794398E+03  0.00000000000E+00 0. -1.
         25    2    1    2    0    0  0.11526108867E+03  0.11989674268E+02 -0.47351024827E+02  0.17697049192E+03  0.12509022587E+03 0.  0.
          5    1    3    3  502    0 -0.23199113762E+02  0.21150873422E+02 -0.98947186462E+01  0.33180358391E+02  0.41800000000E+01 0. -1.
         -5    1    3    3    0  502  0.13846020243E+03 -0.91611991548E+01 -0.37456306181E+02  0.14379013352E+03  0.41800000000E+01 0. -1.
        -11    1    1    2    0    0 -0.68063615860E+02  0.35138318189E+02 -0.47696859246E+02  0.90234957700E+02  0.00000000000E+00 0.  1.
         11    1    1    2    0    0 -0.47197472805E+02 -0.47127992457E+02 -0.84438820500E+02  0.10760373376E+03  0.00000000000E+00 0. -1.
</event>
<event>
 7    1  0.3264777E-009  0.1409628E+03  0.7561462E-02  0.1212039E+00
         -1   -1    0    0    0  501 -0.00000000000E+00  0.00000000000E+00  0.33067405297E+02  0.33067405297E+02  0.00000000000E+00 0.  1.
          1   -1    0    0  501    0  0.00000000000E+00 -0.00000000000E+00 -0.77668695731E+03  0.77668695731E+03  0.00000000000E+00 0. -1.
         25    2    1    2    0    0 -0.11218308863E+03 -0.30260806766E+02 -0.44044980536E+03  0.47238012594E+03  0.12508473344E+03 0.  0.
          5    1    3    3  502    0  0.19670771434E+02  0.71585936265E+01 -0.17021303469E+02  0.27301682793E+02  0.41800000000E+01 0. -1.
         -5    1    3    3    0  502 -0.13185386006E+03 -0.37419400392E+02 -0.42342850190E+03  0.44507844315E+03  0.41800000000E+01 0. -1.
        -11    1    1    2    0    0  0.16216653723E+02  0.21724390472E+02 -0.10193000313E+02  0.28962497384E+02  0.00000000000E+00 0.  1.
         11    1    1    2    0    0  0.95966434906E+02  0.85364162944E+01 -0.29297674633E+03  0.30841173928E+03  0.00000000000E+00 0. -1.
</event>
<event>
 7    1  0.2661133E-009  0.1187781E+03  0.7561462E-02  0.1245127E+00
          2   -1    0    0  501    0  0.00000000000E+00  0.00000000000E+00  0.25698731525E+03  0.25698731525E+03  0.00000000000E+00 0. -1.
         -2   -1    0    0    0  501 -0.00000000000E+00 -0.00000000000E+00 -0.83753686575E+02  0.83753686575E+02  0.00000000000E+00 0.  1.
         25    2    1    2    0    0 -0.32433022313E+01  0.86684019371E+02  0.14777971178E+03  0.21215792562E+03  0.12508998348E+03 0.  0.
          5    1    3    3  502    0  0.17200073243E+02  0.11430268418E+03  0.12703352431E+03  0.17180202219E+03  0.41800000000E+01 0.  1.
         -5    1    3    3    0  502 -0.20443375474E+02 -0.27618664814E+02  0.20746187468E+02  0.40355903427E+02  0.41800000000E+01 0.  1.
        -11    1    1    2    0    0  0.61229998183E+01 -0.74718880274E+02 -0.23136583354E+02  0.78458292649E+02  0.00000000000E+00 0.  1.
         11    1    1    2    0    0 -0.28796975870E+01 -0.11965139097E+02  0.48590500250E+02  0.50124783554E+02  0.00000000000E+00 0. -1.
</event>
<event>
 7    1  0.2661133E-009  0.9741507E+02  0.7561462E-02  0.1285828E+00
         -1   -1    0    0    0  501 -0.00000000000E+00  0.00000000000E+00  0.34597542578E+02  0.34597542578E+02  0.00000000000E+00 0.  1.
          1   -1    0    0  501    0  0.00000000000E+00 -0.00000000000E+00 -0.40564120456E+03  0.40564120456E+03  0.00000000000E+00 0. -1.
         25    2    1    2    0    0 -0.17883791063E+01 -0.24254468290E+02 -0.29494402823E+03  0.32129379489E+03  0.12508495239E+03 0.  0.
          5    1    3    3  502    0  0.43052753570E+02 -0.37216452801E+02 -0.24975942659E+03  0.25619494046E+03  0.41800000000E+01 0.  1.
         -5    1    3    3    0  502 -0.44841132676E+02  0.12961984511E+02 -0.45184601640E+02  0.65098854426E+02  0.41800000000E+01 0.  1.
        -11    1    1    2    0    0 -0.73836176441E+01  0.56704381666E+02 -0.41692084505E+02  0.70768175192E+02  0.00000000000E+00 0.  1.
         11    1    1    2    0    0  0.91719967505E+01 -0.32449913376E+02 -0.34407549253E+02  0.48176777062E+02  0.00000000000E+00 0. -1.
</event>
<event>
 7    1  0.2661133E-009  0.1482816E+03  0.7561462E-02  0.1202601E+00
          3   -1    0    0  501    0  0.00000000000E+00  0.00000000000E+00  0.16170353937E+03  0.16170353937E+03  0.00000000000E+00 0. -1.
         -3   -1    0    0    0  501 -0.00000000000E+00 -0.00000000000E+00 -0.19519644596E+03  0.19519644596E+03  0.00000000000E+00 0.  1.
         25    2    1    2    0    0 -0.11043316943E+03  0.35452285339E+02 -0.99300524875E+02  0.19738009733E+03  0.12508380844E+03 0.  0.
          5    1    3    3  502    0 -0.80588330872E+02 -0.38838714662E+02 -0.62221672928E+02  0.10905014356E+03  0.41800000000E+01 0.  1.
         -5    1    3    3    0  502 -0.29844838560E+02  0.74291000001E+02 -0.37078851948E+02  0.88329953762E+02  0.41800000000E+01 0.  1.
        -11    1    1    2    0    0  0.79274548819E+02 -0.48633859862E+02  0.80148185056E+02  0.12277393039E+03  0.00000000000E+00 0. -1.
         11    1    1    2    0    0  0.31158620613E+02  0.13181574523E+02 -0.14340566769E+02  0.36745957610E+02  0.00000000000E+00 0.  1.
</event>
<event>
 7    1  0.2661133E-009  0.1066901E+03  0.7561462E-02  0.1266825E+00
         -1   -1    0    0    0  501 -0.00000000000E+00  0.00000000000E+00  0.26460380222E+02  0.26460380222E+02  0.00000000000E+00 0.  1.
          1   -1    0    0  501    0  0.00000000000E+00 -0.00000000000E+00 -0.53139554711E+03  0.53139554711E+03  0.00000000000E+00 0. -1.
         25    2    1    2    0    0  0.51965630495E+02  0.94796808548E+01 -0.28586965209E+03  0.31648001770E+03  0.12509137664E+03 0.  0.
          5    1    3    3  502    0  0.80819196947E+02 -0.13730574193E+02 -0.25564050211E+03  0.26849545617E+03  0.41800000000E+01 0.  1.
         -5    1    3    3    0  502 -0.28853566452E+02  0.23210255047E+02 -0.30229149984E+02  0.47984561529E+02  0.41800000000E+01 0.  1.
        -11    1    1    2    0    0 -0.67884952473E+02 -0.24473968014E+02 -0.19906237363E+03  0.21173844827E+03  0.00000000000E+00 0. -1.
         11    1    1    2    0    0  0.15919321978E+02  0.14994287160E+02 -0.20003141170E+02  0.29637461368E+02  0.00000000000E+00 0.  1.
</event>
<event>
 7    1  0.2661133E-009  0.1626338E+03  0.7561462E-02  0.1185755E+00
          2   -1    0    0  501    0  0.00000000000E+00  0.00000000000E+00  0.21480125912E+04  0.21480125912E+04  0.00000000000E+00 0.  1.
         -2   -1    0    0    0  501 -0.00000000000E+00 -0.00000000000E+00 -0.19834415675E+02  0.19834415675E+02  0.00000000000E+00 0. -1.
         25    2    1    2    0    0 -0.13904693321E+03  0.16838219258E+02  0.16778494074E+04  0.16883252826E+04  0.12508417510E+03 0.  0.
          5    1    3    3  502    0 -0.15022410501E+03  0.20891471730E+02  0.16572173372E+04  0.16641485842E+04  0.41800000000E+01 0. -1.
         -5    1    3    3    0  502  0.11177171804E+02 -0.40532524714E+01  0.20632070192E+02  0.24176698400E+02  0.41800000000E+01 0. -1.
        -11    1    1    2    0    0  0.13770238112E+03 -0.35518001034E+02  0.42398920028E+03  0.44720276846E+03  0.00000000000E+00 0.  1.
         11    1    1    2    0    0  0.13445520867E+01  0.18679781776E+02  0.26339567849E+02  0.32318955769E+02  0.00000000000E+00 0. -1.
</event>
<event>
 7    1  0.2661133E-009  0.1274267E+03  0.7561462E-02  0.1231325E+00
         -1   -1    0    0    0  501 -0.00000000000E+00  0.00000000000E+00  0.27644232611E+03  0.27644232611E+03  0.00000000000E+00 0.  1.
          1   -1    0    0  501    0  0.00000000000E+00 -0.00000000000E+00 -0.84564427768E+02  0.84564427768E+02  0.00000000000E+00 0. -1.
         25    2    1    2    0    0  0.93406264148E+02  0.13716731570E+02  0.15798326946E+03  0.22253059690E+03  0.12509306225E+03 0.  0.
          5    1    3    3  502    0  0.25129800446E+02  0.42815727790E+02  0.13626388378E+03  0.14508622208E+03  0.41800000000E+01 0.  1.
         -5    1    3    3    0  502  0.68276463702E+02 -0.29098996219E+02  0.21719385678E+02  0.77444374817E+02  0.41800000000E+01 0.  1.
        -11    1    1    2    0    0  0.24934709476E+01  0.26563342646E+02  0.20406896151E+02  0.33589730282E+02  0.00000000000E+00 0.  1.
         11    1    1    2    0    0 -0.95899735095E+02 -0.40280074216E+02  0.13487732735E+02  0.10488642669E+03  0.00000000000E+00 0. -1.
</event>
<event>
 7    1  0.3806621E-009  0.1300176E+03  0.7561462E-02  0.1227430E+00
         -2   -1    0    0    0  501 -0.00000000000E+00  0.00000000000E+00  0.45010301946E+02  0.45010301946E+02  0.00000000000E+00 0.  1.
          2   -1    0    0  501    0  0.00000000000E+00 -0.00000000000E+00 -0.42562180852E+03  0.42562180852E+03  0.00000000000E+00 0. -1.
         25    2    1    2    0    0  0.60496998063E+02  0.50064642251E+02 -0.26720339244E+03  0.30530594884E+03  0.12509082416E+03 0.  0.
          5    1    3    3  502    0  0.47230780769E+02  0.91602482079E+02 -0.20102783199E+03  0.22594561959E+03  0.41800000000E+01 0. -1.
         -5    1    3    3    0  502  0.13266217295E+02 -0.41537839828E+02 -0.66175560449E+02  0.79360329256E+02  0.41800000000E+01 0. -1.
        -11    1    1    2    0    0 -0.60956818230E+02  0.20266134439E+01 -0.32530065030E+02  0.69123411242E+02  0.00000000000E+00 0.  1.
         11    1    1    2    0    0  0.45982016687E+00 -0.52091255694E+02 -0.80878049104E+02  0.96202750383E+02  0.00000000000E+00 0. -1.
</event>
<event>
 7    1  0.2661133E-009  0.1866742E+03  0.7561462E-02  0.1161496E+00
          1   -1    0    0  501    0  0.00000000000E+00  0.00000000000E+00  0.26786088810E+03  0.26786088810E+03  0.00000000000E+00 0. -1.
         -1   -1    0    0    0  501 -0.00000000000E+00 -0.00000000000E+00 -0.13377872162E+03  0.13377872162E+03  0.00000000000E+00 0.  1.
         25    2    1    2    0    0 -0.28505086101E+02  0.15151060633E+03  0.84260563389E+02  0.21567561179E+03  0.12509245866E+03 0.  0.
          5    1    3    3  502    0  0.11304345601E+02  0.15469078333E+03  0.50369511909E+02  0.16313058207E+03  0.41800000000E+01 0. -1.
         -5    1    3    3    0  502 -0.39809431702E+02 -0.31801769969E+01  0.33891051481E+02  0.52545029723E+02  0.41800000000E+01 0. -1.
        -11    1    1    2    0    0  0.59891754043E+02 -0.11664470498E+03  0.27335709030E+02  0.13394121991E+03  0.00000000000E+00 0.  1.
         11    1    1    2    0    0 -0.31386667942E+02 -0.34865901355E+02  0.22485894062E+02  0.52022778026E+02  0.00000000000E+00 0. -1.
</event>
<event>
 7    1  0.2661133E-009  0.8993714E+02  0.7561462E-02  0.1303004E+00
         -2   -1    0    0    0  501 -0.00000000000E+00  0.00000000000E+00  0.30565409735E+02  0.30565409735E+02  0.00000000000E+00 0.  1.
          2   -1    0    0  501    0  0.00000000000E+00 -0.00000000000E+00 -0.41492966066E+03  0.41492966066E+03  0.00000000000E+00 0. -1.
         25    2    1    2    0    0 -0.42012942643E+01 -0.13836068628E+02 -0.17225806336E+03  0.21337750537E+03  0.12509209301E+03 0.  0.
          5    1    3    3  502    0  0.40198376284E+01  0.35663226513E+02 -0.23972552097E+01  0.36211103993E+02  0.41800000000E+01 0.  1.
         -5    1    3    3    0  502 -0.82211318927E+01 -0.49499295142E+02 -0.16986080815E+03  0.17716640137E+03  0.41800000000E+01 0.  1.
        -11    1    1    2    0    0  0.44947029373E+02  0.24612649150E+02 -0.10032982861E+03  0.11265918718E+03  0.00000000000E+00 0.  1.
         11    1    1    2    0    0 -0.40745735108E+02 -0.10776580522E+02 -0.11177635896E+03  0.11945837785E+03  0.00000000000E+00 0. -1.
</event>
<event>
 7    1  0.2661133E-009  0.1044946E+03  0.7561462E-02  0.1271119E+00
         -1   -1    0    0    0  501 -0.00000000000E+00  0.00000000000E+00  0.81951971975E+02  0.81951971975E+02  0.00000000000E+00 0.  1.
          1   -1    0    0  501    0  0.00000000000E+00 -0.00000000000E+00 -0.21238437113E+03  0.21238437113E+03  0.00000000000E+00 0. -1.
         25    2    1    2    0    0 -0.37308516027E+02  0.63414797092E+02 -0.50193303088E+02  0.15355793214E+03  0.12508920413E+03 0.  0.
          5    1    3    3  502    0  0.26157905721E+02  0.52396659725E+02 -0.64729695444E+02  0.87390227453E+02  0.41800000000E+01 0.  1.
         -5    1    3    3    0  502 -0.63466421748E+02  0.11018137367E+02  0.14536392356E+02  0.66167704685E+02  0.41800000000E+01 0.  1.
        -11    1    1    2    0    0  0.33031578477E+02 -0.13590396514E+02  0.10450085403E+02  0.37215431464E+02  0.00000000000E+00 0.  1.
         11    1    1    2    0    0  0.42769375498E+01 -0.49824400578E+02 -0.90689181467E+02  0.10356297950E+03  0.00000000000E+00 0. -1.
</event>
<event>
 7    1  0.2661133E-009  0.1790309E+03  0.7561462E-02  0.1168744E+00
         -2   -1    0    0    0  501 -0.00000000000E+00  0.00000000000E+00  0.31083757025E+02  0.31083757025E+02  0.00000000000E+00 0.  1.
          2   -1    0    0  501    0  0.00000000000E+00 -0.00000000000E+00 -0.10351703091E+04  0.10351703091E+04  0.00000000000E+00 0. -1.
         25    2    1    2    0    0 -0.96624652283E+02 -0.10428171538E+03 -0.49820025487E+03  0.53297695718E+03  0.12509973354E+03 0.  0.
          5    1    3    3  502    0 -0.10903755716E+02  0.28761468641E+02 -0.83196458230E+02  0.88798857139E+02  0.41800000000E+01 0.  1.
         -5    1    3    3    0  502 -0.85720896568E+02 -0.13304318403E+03 -0.41500379664E+03  0.44417810004E+03  0.41800000000E+01 0.  1.
        -11    1    1    2    0    0  0.37918825639E+02  0.10323916646E+03 -0.33304224544E+03  0.35073251927E+03  0.00000000000E+00 0.  1.
         11    1    1    2    0    0  0.58705826645E+02  0.10425489239E+01 -0.17284405176E+03  0.18254458967E+03  0.00000000000E+00 0. -1.
</event>
<event>
 7    1  0.2661133E-009  0.1065031E+03  0.7561462E-02  0.1267186E+00
         -4   -1    0    0    0  501 -0.00000000000E+00  0.00000000000E+00  0.93618658677E+02  0.93618658677E+02  0.00000000000E+00 0.  1.
          4   -1    0    0  501    0  0.00000000000E+00 -0.00000000000E+00 -0.19186177890E+03  0.19186177890E+03  0.00000000000E+00 0. -1.
         25    2    1    2    0    0  0.55939266521E+02 -0.22379216347E+02 -0.10795294804E+03  0.17587168958E+03  0.12508789447E+03 0.  0.
          5    1    3    3  502    0  0.40317131293E+02 -0.54773247201E+02 -0.68525220102E+01  0.68483641423E+02  0.41800000000E+01 0. -1.
         -5    1    3    3    0  502  0.15622135228E+02  0.32394030854E+02 -0.10110042603E+03  0.10738804816E+03  0.41800000000E+01 0. -1.
        -11    1    1    2    0    0 -0.37669136595E+02  0.57691953531E+02  0.10064629895E+01  0.68908187625E+02  0.00000000000E+00 0. -1.
         11    1    1    2    0    0 -0.18270129926E+02 -0.35312737183E+02  0.87033648295E+01  0.40700560367E+02  0.00000000000E+00 0.  1.
</event>
<event>
 7    1  0.2661133E-009  0.1011906E+03  0.7561462E-02  0.1277812E+00
         -1   -1    0    0    0  501 -0.00000000000E+00  0.00000000000E+00  0.41694776543E+02  0.41694776543E+02  0.00000000000E+00 0.  1.
          1   -1    0    0  501    0  0.00000000000E+00 -0.00000000000E+00 -0.74062678828E+03  0.74062678828E+03  0.00000000000E+00 0. -1.
         25    2    1    2    0    0 -0.13970521623E+02 -0.72376875691E+02 -0.63127961341E+03  0.64776151076E+03  0.12508971543E+03 0.  0.
          5    1    3    3  502    0  0.32215943036E+02 -0.40029757865E+02 -0.91460149601E+02  0.10498895116E+03  0.41800000000E+01 0. -1.
         -5    1    3    3    0  502 -0.46186464659E+02 -0.32347117827E+02 -0.53981946381E+03  0.54277255960E+03  0.41800000000E+01 0. -1.
        -11    1    1    2    0    0  0.16938771749E+02  0.82250158208E+02 -0.20701113523E+02  0.86490153281E+02  0.00000000000E+00 0.  1.
         11    1    1    2    0    0 -0.29682501265E+01 -0.98732825162E+01 -0.46951284801E+02  0.48069900779E+02  0.00000000000E+00 0. -1.
</event>
<event>
 7    1  0.2661133E-009  0.1187546E+03  0.7561462E-02  0.1245166E+00
          2   -1    0    0  501    0  0.00000000000E+00  0.00000000000E+00  0.19965973307E+03  0.19965973307E+03  0.00000000000E+00 0. -1.
         -2   -1    0    0    0  501 -0.00000000000E+00 -0.00000000000E+00 -0.75100091899E+02  0.75100091899E+02  0.00000000000E+00 0.  1.
         25    2    1    2    0    0  0.45138609930E+02 -0.31201639747E+02  0.83916849234E+02  0.16030610785E+03  0.12507987127E+03 0.  0.
          5    1    3    3  502    0  0.15637772354E+02  0.48580517545E+02  0.27174504193E+02  0.57970101667E+02  0.41800000000E+01 0.  1.
         -5    1    3    3    0  502  0.29500837576E+02 -0.79782157292E+02  0.56742345041E+02  0.10233600618E+03  0.41800000000E+01 0.  1.
        -11    1    1    2    0    0  0.56725255874E+01  0.47453727573E+02  0.37971481745E+02  0.61039882315E+02  0.00000000000E+00 0. -1.
         11    1    1    2    0    0 -0.50811135517E+02 -0.16252087826E+02  0.26713101959E+01  0.53413834813E+02  0.00000000000E+00 0.  1.
</event>
<event>
 7    1  0.2661133E-009  0.3990260E+03  0.7561462E-02  0.1044117E+00
         -2   -1    0    0    0  501 -0.00000000000E+00  0.00000000000E+00  0.10874817438E+03  0.10874817438E+03  0.00000000000E+00 0.  1.
          2   -1    0    0  501    0  0.00000000000E+00 -0.00000000000E+00 -0.15669061591E+04  0.15669061591E+04  0.00000000000E+00 0. -1.
         25    2    1    2    0    0  0.37857399636E+03  0.80969466464E+02 -0.55197638093E+03  0.68571084247E+03  0.12508840537E+03 0.  0.
          5    1    3    3  502    0  0.67058102638E+02  0.63630035453E+02 -0.15845141159E+03  0.18349357693E+03  0.41800000000E+01 0. -1.
         -5    1    3    3    0  502  0.31151589373E+03  0.17339431011E+02 -0.39352496934E+03  0.50221726554E+03  0.41800000000E+01 0. -1.
        -11    1    1    2    0    0 -0.23002645075E+03 -0.13739597496E+02 -0.60604801759E+03  0.64837885854E+03  0.00000000000E+00 0. -1.
         11    1    1    2    0    0 -0.14854754561E+03 -0.67229868968E+02 -0.30013358622E+03  0.34156463249E+03  0.00000000000E+00 0.  1.
</event>
<event>
 7    1  0.2661133E-009  0.5840901E+02  0.7561462E-02  0.1404632E+00
         -3   -1    0    0    0  501 -0.00000000000E+00  0.00000000000E+00  0.34561489990E+02  0.34561489990E+02  0.00000000000E+00 0.  1.
          3   -1    0    0  501    0  0.00000000000E+00 -0.00000000000E+00 -0.34938953964E+03  0.34938953964E+03  0.00000000000E+00 0. -1.
         25    2    1    2    0    0  0.94691215252E+01  0.10360216431E+02 -0.18374770406E+03  0.22272829083E+03  0.12509066488E+03 0.  0.
          5    1    3    3  502    0 -0.13238189955E+02  0.19710826488E+02  0.10924673411E+02  0.26468608639E+02  0.41800000000E+01 0.  1.
         -5    1    3    3    0  502  0.22707311480E+02 -0.93506100571E+01 -0.19467237747E+03  0.19625968219E+03  0.41800000000E+01 0.  1.
        -11    1    1    2    0    0 -0.35049506121E+02  0.84417084738E+01 -0.12340202173E+03  0.12856044994E+03  0.00000000000E+00 0. -1.
         11    1    1    2    0    0  0.25580384596E+02 -0.18801924905E+02 -0.76783238539E+01  0.32662288857E+02  0.00000000000E+00 0.  1.
</event>
<event>
 7    1  0.2661133E-009  0.1051825E+03  0.7561462E-02  0.1269760E+00
          3   -1    0    0  501    0  0.00000000000E+00  0.00000000000E+00  0.44277463771E+03  0.44277463771E+03  0.00000000000E+00 0. -1.
         -3   -1    0    0    0  501 -0.00000000000E+00 -0.00000000000E+00 -0.29792166165E+02  0.29792166165E+02  0.00000000000E+00 0.  1.
         25    2    1    2    0    0 -0.11271958311E+02 -0.36442691041E+02  0.22345887458E+03  0.25891414113E+03  0.12509011581E+03 0.  0.
          5    1    3    3  502    0 -0.60747258519E+02 -0.28941201791E+02  0.18102164121E+03  0.19316865575E+03  0.41800000000E+01 0. -1.
         -5    1    3    3    0  502  0.49475300207E+02 -0.75014892493E+01  0.42437233374E+02  0.65745485381E+02  0.41800000000E+01 0. -1.
        -11    1    1    2    0    0  0.43157216616E+02  0.42165560984E+02  0.15490533799E+03  0.16624122117E+03  0.00000000000E+00 0. -1.
         11    1    1    2    0    0 -0.31885258305E+02 -0.57228699439E+01  0.34618258975E+02  0.47411441573E+02  0.00000000000E+00 0.  1.
</event>
<event>
 7    1  0.2661133E-009  0.1186096E+03  0.7561462E-02  0.1245408E+00
          1   -1    0    0  501    0  0.00000000000E+00  0.00000000000E+00  0.40742269125E+03  0.40742269125E+03  0.00000000000E+00 0. -1.
         -1   -1    0    0    0  501 -0.00000000000E+00 -0.00000000000E+00 -0.53903757413E+02  0.53903757413E+02  0.00000000000E+00 0.  1.
         25    2    1    2    0    0 -0.83956102658E+02  0.44988906041E+02  0.14765891878E+03  0.21569323880E+03  0.12509111931E+03 0.  0.
          5    1    3    3  502    0 -0.86238099028E+01  0.63310796574E+02  0.11466571564E+03  0.13133288166E+03  0.41800000000E+01 0.  1.
         -5    1    3    3    0  502 -0.75332292756E+02 -0.18321890533E+02  0.32993203139E+02  0.84360357147E+02  0.41800000000E+01 0.  1.
        -11    1    1    2    0    0  0.56261223785E+02 -0.26080486453E+02  0.20267328225E+03  0.21194805121E+03  0.00000000000E+00 0.  1.
         11    1    1    2    0    0  0.27694878873E+02 -0.18908419588E+02  0.31867328063E+01  0.33685158647E+02  0.00000000000E+00 0. -1.
</event>
<event>
 7    1  0.2661133E-009  0.1655892E+03  0.7561462E-02  0.1182527E+00
         -2   -1    0    0    0  501 -0.00000000000E+00  0.00000000000E+00  0.31237568507E+02  0.31237568507E+02  0.00000000000E+00 0. -1.
          2   -1    0    0  501    0  0.00000000000E+00 -0.00000000000E+00 -0.11358215938E+04  0.11358215938E+04  0.00000000000E+00 0.  1.
         25    2    1    2    0    0  0.13874253311E+03  0.65277658516E+02 -0.64535257831E+03  0.67501007699E+03  0.12509192821E+03 0.  0.
          5    1    3    3  502    0  0.13628972343E+03  0.74204294463E+02 -0.39439079853E+03  0.42384282511E+03  0.41800000000E+01 0. -1.
         -5    1    3    3    0  502  0.24528096759E+01 -0.89266359472E+01 -0.25096177978E+03  0.25116725188E+03  0.41800000000E+01 0. -1.
        -11    1    1    2    0    0 -0.11945893640E+02 -0.32779647915E+02 -0.41115620730E+02  0.53923130104E+02  0.00000000000E+00 0. -1.
         11    1    1    2    0    0 -0.12679663947E+03 -0.32498010601E+02 -0.41811582624E+03  0.43812595521E+03  0.00000000000E+00 0.  1.
</event>
<event>
 7    1  0.2661133E-009  0.1151932E+03  0.7561462E-02  0.1251244E+00
         -2   -1    0    0    0  501 -0.00000000000E+00  0.00000000000E+00  0.62399595107E+03  0.62399595107E+03  0.00000000000E+00 0.  1.
          2   -1    0    0  501    0  0.00000000000E+00 -0.00000000000E+00 -0.39702644101E+02  0.39702644101E+02  0.00000000000E+00 0. -1.
         25    2    1    2    0    0 -0.81939312506E+02  0.36361171251E+02  0.16797666554E+03  0.22781559842E+03  0.12509037138E+03 0.  0.
          5    1    3    3  502    0  0.79650997410E+01  0.44418371379E+01  0.12095871131E+03  0.12137402923E+03  0.41800000000E+01 0.  1.
         -5    1    3    3    0  502 -0.89904412247E+02  0.31919334113E+02  0.47017954230E+02  0.10644156919E+03  0.41800000000E+01 0.  1.
        -11    1    1    2    0    0  0.72475459221E+02  0.13831074942E+02  0.18883877236E+03  0.20274139383E+03  0.00000000000E+00 0.  1.
         11    1    1    2    0    0  0.94638532845E+01 -0.50192246192E+02  0.22747786907E+03  0.23314160292E+03  0.00000000000E+00 0. -1.
</event>
<event>
 7    1  0.2661133E-009  0.7836976E+02  0.7561462E-02  0.1333743E+00
         -2   -1    0    0    0  501 -0.00000000000E+00  0.00000000000E+00  0.23435738602E+02  0.23435738602E+02  0.00000000000E+00 0.  1.
          2   -1    0    0  501    0  0.00000000000E+00 -0.00000000000E+00 -0.51959996451E+03  0.51959996451E+03  0.00000000000E+00 0. -1.
         25    2    1    2    0    0 -0.96124838759E+00  0.14441180455E+02 -0.35536699710E+03  0.37701909760E+03  0.12509286804E+03 0.  0.
          5    1    3    3  502    0 -0.44631373575E+02 -0.79915498290E+01 -0.49693450113E+02  0.67399820178E+02  0.41800000000E+01 0.  1.
         -5    1    3    3    0  502  0.43670125187E+02  0.22432730284E+02 -0.30567354699E+03  0.30961927742E+03  0.41800000000E+01 0.  1.
        -11    1    1    2    0    0  0.86239428027E+00 -0.38182387402E+02 -0.13668650062E+03  0.14192194292E+03  0.00000000000E+00 0. -1.
         11    1    1    2    0    0  0.98854107324E-01  0.23741206947E+02 -0.41107281954E+01  0.24094662598E+02  0.00000000000E+00 0.  1.
</event>
<event>
 7    1  0.2667516E-009  0.8371790E+02  0.7561462E-02  0.1318820E+00
          2   -1    0    0  501    0  0.00000000000E+00  0.00000000000E+00  0.98444838873E+02  0.98444838873E+02  0.00000000000E+00 0. -1.
         -2   -1    0    0    0  501 -0.00000000000E+00 -0.00000000000E+00 -0.13321485206E+03  0.13321485206E+03  0.00000000000E+00 0.  1.
         25    2    1    2    0    0 -0.29278102927E+02  0.35687289341E+01  0.31495559234E+01  0.12857271049E+03  0.12510427268E+03 0.  0.
          5    1    3    3  502    0  0.42850051459E+02  0.19989631169E+02 -0.19169444719E+02  0.51192306796E+02  0.41800000000E+01 0. -1.
         -5    1    3    3    0  502 -0.72128154386E+02 -0.16420902235E+02  0.22319000642E+02  0.77380403689E+02  0.41800000000E+01 0. -1.
        -11    1    1    2    0    0  0.32350492524E+02  0.84788420282E+01  0.23208537828E+02  0.40707264178E+02  0.00000000000E+00 0. -1.
         11    1    1    2    0    0 -0.30723895970E+01 -0.12047570962E+02 -0.61128106941E+02  0.62379716271E+02  0.00000000000E+00 0.  1.
</event>
<event>
 7    1  0.2661133E-009  0.1226862E+03  0.7561462E-02  0.1238730E+00
         -1   -1    0    0    0  501 -0.00000000000E+00  0.00000000000E+00  0.20744161084E+02  0.20744161084E+02  0.00000000000E+00 0.  1.
          1   -1    0    0  501    0  0.00000000000E+00 -0.00000000000E+00 -0.10946081929E+04  0.10946081929E+04  0.00000000000E+00 0. -1.
         25    2    1    2    0    0 -0.34517251894E+02  0.57384794426E+02 -0.88035932475E+03  0.89171914816E+03  0.12508414451E+03 0.  0.
          5    1    3    3  502    0  0.27417609161E+02 -0.24471269928E+02 -0.30805101940E+03  0.31026355135E+03  0.41800000000E+01 0. -1.
         -5    1    3    3    0  502 -0.61934861055E+02  0.81856064354E+02 -0.57230830535E+03  0.58145559681E+03  0.41800000000E+01 0. -1.
        -11    1    1    2    0    0  0.56326902770E+02 -0.15483706362E+02 -0.14304601455E+03  0.15451416575E+03  0.00000000000E+00 0. -1.
         11    1    1    2    0    0 -0.21809650875E+02 -0.41901088065E+02 -0.50458692556E+02  0.69119040117E+02  0.00000000000E+00 0.  1.
</event>
<event>
 7    1  0.2661133E-009  0.1878601E+03  0.7561462E-02  0.1160406E+00
         -1   -1    0    0    0  501 -0.00000000000E+00  0.00000000000E+00  0.17898894631E+03  0.17898894631E+03  0.00000000000E+00 0.  1.
          1   -1    0    0  501    0  0.00000000000E+00 -0.00000000000E+00 -0.35650507112E+03  0.35650507112E+03  0.00000000000E+00 0. -1.
         25    2    1    2    0    0  0.41314170558E+02 -0.17298784530E+03  0.59671887963E+02  0.22547847082E+03  0.12509257083E+03 0.  0.
          5    1    3    3  502    0  0.37686870937E+02 -0.53815329944E+02  0.80902859929E+02  0.10430309258E+03  0.41800000000E+01 0.  1.
         -5    1    3    3    0  502  0.36272996209E+01 -0.11917251535E+03 -0.21230971966E+02  0.12117537823E+03  0.41800000000E+01 0.  1.
        -11    1    1    2    0    0 -0.60223593177E+02  0.11876190504E+03 -0.11887272575E+03  0.17849928905E+03  0.00000000000E+00 0.  1.
         11    1    1    2    0    0  0.18909422619E+02  0.54225940259E+02 -0.11831528702E+03  0.13151625756E+03  0.00000000000E+00 0. -1.
</event>
<event>
 7    1  0.2661133E-009  0.1029633E+03  0.7561462E-02  0.1274185E+00
         -2   -1    0    0    0  501 -0.00000000000E+00  0.00000000000E+00  0.10133586515E+03  0.10133586515E+03  0.00000000000E+00 0. -1.
          2   -1    0    0  501    0  0.00000000000E+00 -0.00000000000E+00 -0.13818681239E+03  0.13818681239E+03  0.00000000000E+00 0.  1.
         25    2    1    2    0    0 -0.22320333301E+02 -0.38544323412E+02 -0.21405075086E+01  0.13279877833E+03  0.12508825528E+03 0.  0.
          5    1    3    3  502    0 -0.63889103081E+02 -0.58276650580E+02 -0.11135504192E+01  0.86583473537E+02  0.41800000000E+01 0.  1.
         -5    1    3    3    0  502  0.41568769780E+02  0.19732327168E+02 -0.10269570895E+01  0.46215304795E+02  0.41800000000E+01 0.  1.
        -11    1    1    2    0    0  0.20771738997E+02 -0.11049952952E+02 -0.49618589834E+02  0.54914215449E+02  0.00000000000E+00 0.  1.
         11    1    1    2    0    0  0.15485943039E+01  0.49594276364E+02  0.14908150099E+02  0.51809683764E+02  0.00000000000E+00 0. -1.
</event>
<event>
 7    1  0.2661133E-009  0.1077338E+03  0.7561462E-02  0.1264825E+00
          1   -1    0    0  501    0  0.00000000000E+00  0.00000000000E+00  0.92679780264E+03  0.92679780264E+03  0.00000000000E+00 0. -1.
         -1   -1    0    0    0  501 -0.00000000000E+00 -0.00000000000E+00 -0.15385329113E+02  0.15385329113E+02  0.00000000000E+00 0.  1.
         25    2    1    2    0    0  0.16647079533E+02  0.16792648138E+01  0.71359539908E+03  0.72467001346E+03  0.12509312386E+03 0.  0.
          5    1    3    3  502    0  0.53446019430E+02  0.43603332756E+02  0.34482779676E+03  0.35168367809E+03  0.41800000000E+01 0. -1.
         -5    1    3    3    0  502 -0.36798939897E+02 -0.41924067943E+02  0.36876760232E+03  0.37298633537E+03  0.41800000000E+01 0. -1.
        -11    1    1    2    0    0 -0.50688763232E+02  0.14517230233E+02  0.11306285834E+03  0.12475299847E+03  0.00000000000E+00 0. -1.
         11    1    1    2    0    0  0.34041683699E+02 -0.16196495047E+02  0.84754216117E+02  0.92760119828E+02  0.00000000000E+00 0.  1.
</event>
<event>
 7    1  0.2661133E-009  0.1091719E+03  0.7561462E-02  0.1262111E+00
          2   -1    0    0  501    0  0.00000000000E+00  0.00000000000E+00  0.30975626625E+03  0.30975626625E+03  0.00000000000E+00 0. -1.
         -2   -1    0    0    0  501 -0.00000000000E+00 -0.00000000000E+00 -0.41306285555E+02  0.41306285555E+02  0.00000000000E+00 0.  1.
         25    2    1    2    0    0 -0.17377408040E+02  0.85616233736E+01  0.11170855204E+03  0.16882247361E+03  0.12508777436E+03 0.  0.
          5    1    3    3  502    0 -0.48336194827E+02  0.52877881550E+02  0.71658391918E+02  0.10141427720E+03  0.41800000000E+01 0. -1.
         -5    1    3    3    0  502  0.30958786787E+02 -0.44316258177E+02  0.40050160119E+02  0.67408196413E+02  0.41800000000E+01 0. -1.
        -11    1    1    2    0    0 -0.37056037197E+02 -0.80707796029E+01  0.74802595836E+02  0.83867250581E+02  0.00000000000E+00 0. -1.
         11    1    1    2    0    0  0.54433445237E+02 -0.49084377068E+00  0.81938832825E+02  0.98372827614E+02  0.00000000000E+00 0.  1.
</event>
<event>
 7    1  0.2889474E-009  0.9929454E+02  0.7561462E-02  0.1281786E+00
          3   -1    0    0  501    0  0.00000000000E+00  0.00000000000E+00  0.26573117150E+03  0.26573117150E+03  0.00000000000E+00 0. -1.
         -3   -1    0    0    0  501 -0.00000000000E+00 -0.00000000000E+00 -0.56651384019E+02  0.56651384019E+02  0.00000000000E+00 0.  1.
         25    2    1    2    0    0 -0.25189715464E+02  0.35964663685E+02  0.70396130848E+02  0.15010809178E+03  0.12509534435E+03 0.  0.
          5    1    3    3  502    0  0.14819008618E+02  0.61564215389E+02  0.79337562449E+02  0.10159565369E+03  0.41800000000E+01 0. -1.
         -5    1    3    3    0  502 -0.40008724082E+02 -0.25599551704E+02 -0.89414316014E+01  0.48512438088E+02  0.41800000000E+01 0. -1.
        -11    1    1    2    0    0  0.52177484623E+02 -0.18787703082E+02  0.39572020397E+02  0.68127912686E+02  0.00000000000E+00 0.  1.
         11    1    1    2    0    0 -0.26987769158E+02 -0.17176960603E+02  0.99111636235E+02  0.10414655106E+03  0.00000000000E+00 0. -1.
</event>
<event>
 7    1  0.2661133E-009  0.1733458E+03  0.7561462E-02  0.1174403E+00
          2   -1    0    0  501    0  0.00000000000E+00  0.00000000000E+00  0.23016801069E+03  0.23016801069E+03  0.00000000000E+00 0. -1.
         -2   -1    0    0    0  501 -0.00000000000E+00 -0.00000000000E+00 -0.13550385641E+03  0.13550385641E+03  0.00000000000E+00 0.  1.
         25    2    1    2    0    0  0.13426440879E+03 -0.32475047977E+02  0.66333502557E+02  0.19780845756E+03  0.12508593890E+03 0.  0.
          5    1    3    3  502    0  0.12597357048E+03  0.20444201522E+02  0.66738807423E+02  0.14407930681E+03  0.41800000000E+01 0.  1.
         -5    1    3    3    0  502  0.82908383096E+01 -0.52919249498E+02 -0.40530486631E+00  0.53729150741E+02  0.41800000000E+01 0.  1.
        -11    1    1    2    0    0 -0.59709084665E+02  0.61082866132E+02  0.10712181871E+02  0.86087410037E+02  0.00000000000E+00 0.  1.
         11    1    1    2    0    0 -0.74555324127E+02 -0.28607818155E+02  0.17618469846E+02  0.81775999505E+02  0.00000000000E+00 0. -1.
</event>
<event>
 7    1  0.2661133E-009  0.1674265E+03  0.7561462E-02  0.1180558E+00
         -1   -1    0    0    0  501 -0.00000000000E+00  0.00000000000E+00  0.22068411440E+02  0.22068411440E+02  0.00000000000E+00 0.  1.
          1   -1    0    0  501    0  0.00000000000E+00 -0.00000000000E+00 -0.15212206481E+04  0.15212206481E+04  0.00000000000E+00 0. -1.
         25    2    1    2    0    0  0.14130780186E+03 -0.38961083508E+02 -0.82332332086E+03  0.84557385297E+03  0.12509192320E+03 0.  0.
          5    1    3    3  502    0 -0.71055302088E+01  0.83714405911E+01 -0.28256918791E+03  0.28281334468E+03  0.41800000000E+01 0. -1.
         -5    1    3    3    0  502  0.14841333207E+03 -0.47332524099E+02 -0.54075413296E+03  0.56276050828E+03  0.41800000000E+01 0. -1.
        -11    1    1    2    0    0 -0.15185622649E+02  0.38240462106E+02 -0.98097176272E+02  0.10637665190E+03  0.00000000000E+00 0.  1.
         11    1    1    2    0    0 -0.12612217921E+03  0.72062140255E+00 -0.57773173955E+03  0.59133855470E+03  0.00000000000E+00 0. -1.
</event>
<event>
 7    1  0.2661133E-009  0.1067605E+03  0.7561462E-02  0.1266689E+00
          1   -1    0    0  501    0  0.00000000000E+00  0.00000000000E+00  0.52151295259E+03  0.52151295259E+03  0.00000000000E+00 0. -1.
         -1   -1    0    0    0  501 -0.00000000000E+00 -0.00000000000E+00 -0.23529242595E+02  0.23529242595E+02  0.00000000000E+00 0.  1.
         25    2    1    2    0    0 -0.21906042727E+02 -0.27581225721E+01  0.30005726700E+03  0.32583519430E+03  0.12508688345E+03 0.  0.
          5    1    3    3  502    0 -0.67816973116E+02 -0.29073909239E+02  0.17096437705E+03  0.18625446212E+03  0.41800000000E+01 0.  1.
         -5    1    3    3    0  502  0.45910930388E+02  0.26315786667E+02  0.12909288995E+03  0.13958073217E+03  0.41800000000E+01 0.  1.
        -11    1    1    2    0    0 -0.32140013185E+02 -0.24711045847E+01  0.11982556433E+03  0.12408566667E+03  0.00000000000E+00 0. -1.
         11    1    1    2    0    0  0.54046055913E+02  0.52292271568E+01  0.78100878664E+02  0.95121334223E+02  0.00000000000E+00 0.  1.
</event>
<event>
 7    1  0.2661133E-009  0.1022163E+03  0.7561462E-02  0.1275703E+00
         -3   -1    0    0    0  501 -0.00000000000E+00  0.00000000000E+00  0.31416384400E+03  0.31416384400E+03  0.00000000000E+00 0.  1.
          3   -1    0    0  501    0  0.00000000000E+00 -0.00000000000E+00 -0.72753703181E+02  0.72753703181E+02  0.00000000000E+00 0. -1.
         25    2    1    2    0    0  0.53935663001E+02  0.52170407246E+02  0.22030871855E+03  0.26422339612E+03  0.12508902611E+03 0.  0.
          5    1    3    3  502    0  0.37588502013E+02 -0.21857095414E+02  0.16436372808E+02  0.46671777924E+02  0.41800000000E+01 0.  1.
         -5    1    3    3    0  502  0.16347160988E+02  0.74027502660E+02  0.20387234574E+03  0.21755161819E+03  0.41800000000E+01 0.  1.
        -11    1    1    2    0    0  0.37128895979E+01 -0.16766635095E+02  0.47165911068E+02  0.50194907794E+02  0.00000000000E+00 0.  1.
         11    1    1    2    0    0 -0.57648552599E+02 -0.35403772151E+02 -0.26064488789E+02  0.72499243273E+02  0.00000000000E+00 0. -1.
</event>
<event>
 7    1  0.2661133E-009  0.2055049E+03  0.7561462E-02  0.1145176E+00
          1   -1    0    0  501    0  0.00000000000E+00  0.00000000000E+00  0.10635100561E+04  0.10635100561E+04  0.00000000000E+00 0. -1.
         -1   -1    0    0    0  501 -0.00000000000E+00 -0.00000000000E+00 -0.41607534107E+02  0.41607534107E+02  0.00000000000E+00 0.  1.
         25    2    1    2    0    0 -0.78856024303E+02  0.15573381824E+03  0.42187772200E+03  0.47339503378E+03  0.12510296148E+03 0.  0.
          5    1    3    3  502    0 -0.11121988210E+03  0.13905788975E+03  0.34962477037E+03  0.39237980495E+03  0.41800000000E+01 0. -1.
         -5    1    3    3    0  502  0.32363857795E+02  0.16675928489E+02  0.72252951631E+02  0.81015228826E+02  0.41800000000E+01 0. -1.
        -11    1    1    2    0    0  0.95388411699E+02 -0.15175627472E+03  0.56567150676E+03  0.59339124493E+03  0.00000000000E+00 0. -1.
         11    1    1    2    0    0 -0.16532387395E+02 -0.39775435183E+01  0.34353293274E+02  0.38331311538E+02  0.00000000000E+00 0.  1.
</event>
<event>
 7    1  0.2661133E-009  0.1292742E+03  0.7561462E-02  0.1228537E+00
         -3   -1    0    0    0  501 -0.00000000000E+00  0.00000000000E+00  0.39382943313E+02  0.39382943313E+02  0.00000000000E+00 0.  1.
          3   -1    0    0  501    0  0.00000000000E+00 -0.00000000000E+00 -0.43920168246E+03  0.43920168246E+03  0.00000000000E+00 0. -1.
         25    2    1    2    0    0 -0.72716019071E+02  0.14317741627E+02 -0.21229623145E+03  0.25731197047E+03  0.12508854105E+03 0.  0.
          5    1    3    3  502    0 -0.40509195250E+02  0.69863468959E+02 -0.12464780327E+03  0.14858144721E+03  0.41800000000E+01 0. -1.
         -5    1    3    3    0  502 -0.32206823820E+02 -0.55545727332E+02 -0.87648428185E+02  0.10873052326E+03  0.41800000000E+01 0. -1.
        -11    1    1    2    0    0  0.72592087713E+02  0.22901712045E+02 -0.96311405347E+02  0.12275987298E+03  0.00000000000E+00 0. -1.
         11    1    1    2    0    0  0.12393135734E+00 -0.37219453672E+02 -0.91211102345E+02  0.98512782326E+02  0.00000000000E+00 0.  1.
</event>
<event>
 7    1  0.2661133E-009  0.1834568E+03  0.7561462E-02  0.1164499E+00
          2   -1    0    0  501    0  0.00000000000E+00  0.00000000000E+00  0.20962609879E+04  0.20962609879E+04  0.00000000000E+00 0. -1.
         -2   -1    0    0    0  501 -0.00000000000E+00 -0.00000000000E+00 -0.21837033675E+02  0.21837033675E+02  0.00000000000E+00 0.  1.
         25    2    1    2    0    0  0.16535176199E+03  0.47657569283E+02  0.13728920772E+04  0.13892778685E+04  0.12509153011E+03 0.  0.
          5    1    3    3  502    0  0.82907696761E+02  0.85342341746E+01  0.10611622837E+04  0.10644385300E+04  0.41800000000E+01 0. -1.
         -5    1    3    3    0  502  0.82444065229E+02  0.39123335108E+02  0.31172979351E+03  0.32483933845E+03  0.41800000000E+01 0. -1.
        -11    1    1    2    0    0 -0.84919989396E+02  0.19729103880E+02  0.23543958949E+03  0.25106262653E+03  0.00000000000E+00 0.  1.
         11    1    1    2    0    0 -0.80431772593E+02 -0.67386673162E+02  0.46609228751E+03  0.47775752662E+03  0.00000000000E+00 0. -1.
</event>
<event>
 7    1  0.2661133E-009  0.1604977E+03  0.7561462E-02  0.1188136E+00
         -2   -1    0    0    0  501 -0.00000000000E+00  0.00000000000E+00  0.17005241659E+03  0.17005241659E+03  0.00000000000E+00 0.  1.
          2   -1    0    0  501    0  0.00000000000E+00 -0.00000000000E+00 -0.20797643814E+03  0.20797643814E+03  0.00000000000E+00 0. -1.
         25    2    1    2    0    0  0.12469188226E+03  0.71866318925E+02  0.33798788747E+02  0.19365767449E+03  0.12509237975E+03 0.  0.
          5    1    3    3  502    0  0.53436343259E+02  0.62068283567E+02 -0.39371863444E+02  0.90969943590E+02  0.41800000000E+01 0.  1.
         -5    1    3    3    0  502  0.71255539000E+02  0.97980353576E+01  0.73170652190E+02  0.10268773090E+03  0.41800000000E+01 0.  1.
        -11    1    1    2    0    0 -0.78217625927E+02 -0.88007078564E+02 -0.65629526244E+02  0.13479791392E+03  0.00000000000E+00 0. -1.
         11    1    1    2    0    0 -0.46474256332E+02  0.16140759639E+02 -0.60932840490E+01  0.49573266322E+02  0.00000000000E+00 0.  1.
</event>
<event>
 7    1  0.2661133E-009  0.1575148E+03  0.7561462E-02  0.1191531E+00
          1   -1    0    0  501    0  0.00000000000E+00  0.00000000000E+00  0.34335617769E+03  0.34335617769E+03  0.00000000000E+00 0. -1.
         -1   -1    0    0    0  501 -0.00000000000E+00 -0.00000000000E+00 -0.18548185743E+03  0.18548185743E+03  0.00000000000E+00 0.  1.
         25    2    1    2    0    0 -0.18027795726E+02  0.14121049648E+03  0.26769943765E+03  0.32799093659E+03  0.12509860043E+03 0.  0.
          5    1    3    3  502    0  0.17933511866E+02  0.18760248224E+02 -0.51078528509E+01  0.26779102338E+02  0.41800000000E+01 0. -1.
         -5    1    3    3    0  502 -0.35961307593E+02  0.12245024826E+03  0.27280729050E+03  0.30121183425E+03  0.41800000000E+01 0. -1.
        -11    1    1    2    0    0 -0.29293954429E+02 -0.65760062486E+02 -0.20833084206E+02  0.74943571985E+02  0.00000000000E+00 0. -1.
         11    1    1    2    0    0  0.47321750155E+02 -0.75450433993E+02 -0.88992033188E+02  0.12590352655E+03  0.00000000000E+00 0.  1.
</event>
<event>
 7    1  0.2661133E-009  0.2150435E+03  0.7561462E-02  0.1137633E+00
          1   -1    0    0  501    0  0.00000000000E+00  0.00000000000E+00  0.10075365932E+04  0.10075365932E+04  0.00000000000E+00 0. -1.
         -1   -1    0    0    0  501 -0.00000000000E+00 -0.00000000000E+00 -0.55458218898E+02  0.55458218898E+02  0.00000000000E+00 0.  1.
         25    2    1    2    0    0  0.12604844095E+03  0.14299184179E+03  0.68830234455E+03  0.72508113863E+03  0.12509062233E+03 0.  0.
          5    1    3    3  502    0 -0.22271945486E+02  0.78763483923E+01  0.42343137726E+02  0.48667136059E+02  0.41800000000E+01 0.  1.
         -5    1    3    3    0  502  0.14832038643E+03  0.13511549340E+03  0.64595920683E+03  0.67641400257E+03  0.41800000000E+01 0.  1.
        -11    1    1    2    0    0 -0.12535857631E+03 -0.94671353917E+02  0.16426601190E+03  0.22729003624E+03  0.00000000000E+00 0.  1.
         11    1    1    2    0    0 -0.68986463261E+00 -0.48320487870E+02  0.99510017823E+02  0.11062363720E+03  0.00000000000E+00 0. -1.
</event>
<event>
 7    1  0.2661133E-009  0.2097979E+03  0.7561462E-02  0.1141726E+00
          2   -1    0    0  501    0  0.00000000000E+00  0.00000000000E+00  0.22087338564E+04  0.22087338564E+04  0.00000000000E+00 0. -1.
         -2   -1    0    0    0  501 -0.00000000000E+00 -0.00000000000E+00 -0.36558690941E+02  0.36558690941E+02  0.00000000000E+00 0.  1.
         25    2    1    2    0    0 -0.15155515198E+02 -0.19698833172E+03  0.17941830822E+04  0.18093578056E+04  0.12509454022E+03 0.  0.
          5    1    3    3  502    0  0.40889227158E+02 -0.10838452041E+03  0.12340547336E+04  0.12394868661E+04  0.41800000000E+01 0. -1.
         -5    1    3    3    0  502 -0.56044742356E+02 -0.88603811309E+02  0.56012834853E+03  0.56987093955E+03  0.41800000000E+01 0. -1.
        -11    1    1    2    0    0  0.10321072344E+02  0.30547742953E+02  0.15108420135E+03  0.15448665001E+03  0.00000000000E+00 0. -1.
         11    1    1    2    0    0  0.48344428537E+01  0.16644058877E+03  0.22690788189E+03  0.28144809164E+03  0.00000000000E+00 0.  1.
</event>
<event>
 7    1  0.2661133E-009  0.1225286E+03  0.7561462E-02  0.1238983E+00
          1   -1    0    0  501    0  0.00000000000E+00  0.00000000000E+00  0.11563138112E+03  0.11563138112E+03  0.00000000000E+00 0. -1.
         -1   -1    0    0    0  501 -0.00000000000E+00 -0.00000000000E+00 -0.19806127459E+03  0.19806127459E+03  0.00000000000E+00 0.  1.
         25    2    1    2    0    0  0.81553618554E+02 -0.99538074834E+01 -0.38787053841E+02  0.15460483954E+03  0.12509256524E+03 0.  0.
          5    1    3    3  502    0  0.79064739096E+02 -0.57223757935E+02 -0.43331251206E+02  0.10686842926E+03  0.41800000000E+01 0.  1.
         -5    1    3    3    0  502  0.24888794574E+01  0.47269950452E+02  0.45441973648E+01  0.47736410279E+02  0.41800000000E+01 0.  1.
        -11    1    1    2    0    0  0.65501144758E+01  0.97476892657E+01 -0.66934592046E+02  0.67957053041E+02  0.00000000000E+00 0.  1.
         11    1    1    2    0    0 -0.88103733030E+02  0.20611821770E+00  0.23291752423E+02  0.91130763134E+02  0.00000000000E+00 0. -1.
</event>
<event>
 7    1  0.2661133E-009  0.1099936E+03  0.7561462E-02  0.1260582E+00
          2   -1    0    0  501    0  0.00000000000E+00  0.00000000000E+00  0.56262283315E+03  0.56262283315E+03  0.00000000000E+00 0. -1.
         -2   -1    0    0    0  501 -0.00000000000E+00 -0.00000000000E+00 -0.28247170882E+02  0.28247170882E+02  0.00000000000E+00 0.  1.
         25    2    1    2    0    0  0.16164819726E+02 -0.49419486050E+02  0.20946877574E+03  0.24945921893E+03  0.12509655032E+03 0.  0.
          5    1    3    3  502    0  0.54792574613E+02  0.12616855199E+02  0.56195951109E+02  0.79604450811E+02  0.41800000000E+01 0. -1.
         -5    1    3    3    0  502 -0.38627754887E+02 -0.62036341249E+02  0.15327282463E+03  0.16985476812E+03  0.41800000000E+01 0. -1.
        -11    1    1    2    0    0  0.22212967136E+02 -0.59881014745E+01  0.24797615822E+02  0.33825951853E+02  0.00000000000E+00 0.  1.
         11    1    1    2    0    0 -0.38377786863E+02  0.55407587524E+02  0.30010927071E+03  0.30758483325E+03  0.00000000000E+00 0. -1.
</event>
<event>
 7    1  0.2661133E-009  0.9411633E+02  0.7561462E-02  0.1293179E+00
          1   -1    0    0  501    0  0.00000000000E+00  0.00000000000E+00  0.10769671501E+04  0.10769671501E+04  0.00000000000E+00 0. -1.
         -1   -1    0    0    0  501 -0.00000000000E+00 -0.00000000000E+00 -0.13526389143E+02  0.13526389143E+02  0.00000000000E+00 0.  1.
         25    2    1    2    0    0 -0.41824656389E+02 -0.19985981225E+02  0.73910061810E+03  0.75104358263E+03  0.12509195821E+03 0.  0.
          5    1    3    3  502    0 -0.60284643189E+02 -0.44726394832E+02  0.25269814738E+03  0.26364467506E+03  0.41800000000E+01 0.  1.
         -5    1    3    3    0  502  0.18459986800E+02  0.24740413607E+02  0.48640247072E+03  0.48739890757E+03  0.41800000000E+01 0.  1.
        -11    1    1    2    0    0  0.59276146055E+02  0.24073137803E+02  0.30989416435E+03  0.31642940848E+03  0.00000000000E+00 0. -1.
         11    1    1    2    0    0 -0.17451489666E+02 -0.40871565771E+01  0.14445978472E+02  0.23020548092E+02  0.00000000000E+00 0.  1.
</event>
<event>
 7    1  0.2661133E-009  0.1218924E+03  0.7561462E-02  0.1240008E+00
         -1   -1    0    0    0  501 -0.00000000000E+00  0.00000000000E+00  0.16875127687E+03  0.16875127687E+03  0.00000000000E+00 0.  1.
          1   -1    0    0  501    0  0.00000000000E+00 -0.00000000000E+00 -0.14062171517E+03  0.14062171517E+03  0.00000000000E+00 0. -1.
         25    2    1    2    0    0 -0.43072262599E+02 -0.63373022757E+02  0.92597598720E+02  0.17347288547E+03  0.12508863611E+03 0.  0.
          5    1    3    3  502    0  0.35764857559E+02 -0.56975087481E+02  0.39626922571E+02  0.78186002725E+02  0.41800000000E+01 0.  1.
         -5    1    3    3    0  502 -0.78837120158E+02 -0.63979352755E+01  0.52970676150E+02  0.95286882740E+02  0.41800000000E+01 0.  1.
        -11    1    1    2    0    0  0.39986779504E+02  0.68480683431E+01  0.10551467910E+02  0.41918636073E+02  0.00000000000E+00 0.  1.
         11    1    1    2    0    0  0.30854830945E+01  0.56524954413E+02 -0.75019504933E+02  0.93981470502E+02  0.00000000000E+00 0. -1.
</event>
<event>
 7    1  0.2661133E-009  0.1377624E+03  0.7561462E-02  0.1216372E+00
          1   -1    0    0  501    0  0.00000000000E+00  0.00000000000E+00  0.12309958927E+03  0.12309958927E+03  0.00000000000E+00 0.  1.
         -1   -1    0    0    0  501 -0.00000000000E+00 -0.00000000000E+00 -0.26713210666E+03  0.26713210666E+03  0.00000000000E+00 0. -1.
         25    2    1    2    0    0 -0.11707154912E+03  0.22805556598E+02  0.12377955535E+02  0.17329998718E+03  0.12511526985E+03 0.  0.
          5    1    3    3  502    0  0.74240934422E+01  0.23017457177E+02  0.38848884046E+02  0.45952461196E+02  0.41800000000E+01 0. -1.
         -5    1    3    3    0  502 -0.12449564256E+03 -0.21190057918E+00 -0.26470928511E+02  0.12734752598E+03  0.41800000000E+01 0. -1.
        -11    1    1    2    0    0  0.26475364809E+02 -0.24111788636E+02 -0.10887668661E+03  0.11461438034E+03  0.00000000000E+00 0. -1.
         11    1    1    2    0    0  0.90596184307E+02  0.13062320378E+01 -0.47533786316E+02  0.10231732842E+03  0.00000000000E+00 0.  1.
</event>
<event>
 7    1  0.2661133E-009  0.1556188E+03  0.7561462E-02  0.1193734E+00
          2   -1    0    0  501    0  0.00000000000E+00  0.00000000000E+00  0.10565483284E+03  0.10565483284E+03  0.00000000000E+00 0.  1.
         -2   -1    0    0    0  501 -0.00000000000E+00 -0.00000000000E+00 -0.24781300670E+03  0.24781300670E+03  0.00000000000E+00 0. -1.
         25    2    1    2    0    0  0.10295592268E+03  0.61666206435E+02 -0.61686942595E+02  0.18400063679E+03  0.12509321492E+03 0.  0.
          5    1    3    3  502    0  0.89357321975E+02  0.92202540639E+02 -0.19379683557E+02  0.12991952904E+03  0.41800000000E+01 0.  1.
         -5    1    3    3    0  502  0.13598600710E+02 -0.30536334204E+02 -0.42307259038E+02  0.54081107747E+02  0.41800000000E+01 0.  1.
        -11    1    1    2    0    0 -0.58005093423E+02 -0.81432305172E+02 -0.56191462423E+02  0.11468780074E+03  0.00000000000E+00 0. -1.
         11    1    1    2    0    0 -0.44950829262E+02  0.19766098737E+02 -0.24279768842E+02  0.54779402020E+02  0.00000000000E+00 0.  1.
</event>
<event>
 7    1  0.2661133E-009  0.1016297E+03  0.7561462E-02  0.1276906E+00
          2   -1    0    0  501    0  0.00000000000E+00  0.00000000000E+00  0.53271166523E+03  0.53271166523E+03  0.00000000000E+00 0. -1.
         -2   -1    0    0    0  501 -0.00000000000E+00 -0.00000000000E+00 -0.34674558672E+02  0.34674558672E+02  0.00000000000E+00 0.  1.
         25    2    1    2    0    0 -0.88804315201E+01 -0.53299683710E+02  0.15815792571E+03  0.20876232122E+03  0.12509220179E+03 0.  0.
          5    1    3    3  502    0 -0.38465478278E+02 -0.62501081000E+02  0.34478118845E+02  0.81192310131E+02  0.41800000000E+01 0. -1.
         -5    1    3    3    0  502  0.29585046758E+02  0.92013972902E+01  0.12367980686E+03  0.12757001109E+03  0.41800000000E+01 0. -1.
        -11    1    1    2    0    0  0.44559419277E+02  0.17291878316E+02  0.74983745465E+02  0.88921948843E+02  0.00000000000E+00 0.  1.
         11    1    1    2    0    0 -0.35678987757E+02  0.36007805394E+02  0.26489543539E+03  0.26970195384E+03  0.00000000000E+00 0. -1.
</event>
<event>
 7    1  0.2661133E-009  0.1222063E+03  0.7561462E-02  0.1239501E+00
         -1   -1    0    0    0  501 -0.00000000000E+00  0.00000000000E+00  0.25339864061E+02  0.25339864061E+02  0.00000000000E+00 0.  1.
          1   -1    0    0  501    0  0.00000000000E+00 -0.00000000000E+00 -0.61814930686E+03  0.61814930686E+03  0.00000000000E+00 0. -1.
         25    2    1    2    0    0 -0.57767307809E+02 -0.11755258425E+02 -0.37849672477E+03  0.40296772924E+03  0.12509185504E+03 0.  0.
          5    1    3    3  502    0 -0.77222946999E+02 -0.50019557198E+02 -0.29417609898E+03  0.30825701818E+03  0.41800000000E+01 0. -1.
         -5    1    3    3    0  502  0.19455639190E+02  0.38264298773E+02 -0.84320625789E+02  0.94710711065E+02  0.41800000000E+01 0. -1.
        -11    1    1    2    0    0  0.21966919417E+02  0.51319704225E+02 -0.11002069572E+03  0.12337265126E+03  0.00000000000E+00 0. -1.
         11    1    1    2    0    0  0.35800388392E+02 -0.39564445799E+02 -0.10429202231E+03  0.11714879042E+03  0.00000000000E+00 0.  1.
</event>
<event>
 7    1  0.2661133E-009  0.9833703E+02  0.7561462E-02  0.1283832E+00
         -1   -1    0    0    0  501 -0.00000000000E+00  0.00000000000E+00  0.84889253496E+02  0.84889253496E+02  0.00000000000E+00 0.  1.
          1   -1    0    0  501    0  0.00000000000E+00 -0.00000000000E+00 -0.18129416446E+03  0.18129416446E+03  0.00000000000E+00 0. -1.
         25    2    1    2    0    0 -0.66326981565E+01  0.47295037600E+01  0.15939331788E+02  0.12636286651E+03  0.12508857200E+03 0.  0.
          5    1    3    3  502    0  0.53203819661E+02  0.28640802055E+02  0.40320120411E+01  0.60701494957E+02  0.41800000000E+01 0.  1.
         -5    1    3    3    0  502 -0.59836517818E+02 -0.23911298295E+02  0.11907319747E+02  0.65661371554E+02  0.41800000000E+01 0.  1.
        -11    1    1    2    0    0 -0.30141919357E+02 -0.14550994762E+02 -0.17816312734E+02  0.37916853120E+02  0.00000000000E+00 0.  1.
         11    1    1    2    0    0  0.36774617514E+02  0.98214910017E+01 -0.94527930015E+02  0.10190369832E+03  0.00000000000E+00 0. -1.
</event>
<event>
 7    1  0.2661133E-009  0.1871743E+03  0.7561462E-02  0.1161035E+00
          2   -1    0    0  501    0  0.00000000000E+00  0.00000000000E+00  0.78776215264E+03  0.78776215264E+03  0.00000000000E+00 0. -1.
         -2   -1    0    0    0  501 -0.00000000000E+00 -0.00000000000E+00 -0.78148102956E+02  0.78148102956E+02  0.00000000000E+00 0.  1.
         25    2    1    2    0    0 -0.10690821503E+03  0.12796844553E+03  0.62694763574E+03  0.66069523593E+03  0.12509823073E+03 0.  0.
          5    1    3    3  502    0  0.11208235798E+02 -0.55090728609E+00  0.24170081030E+01  0.12216479719E+02  0.41800000000E+01 0. -1.
         -5    1    3    3    0  502 -0.11811645083E+03  0.12851935282E+03  0.62453062764E+03  0.64847875621E+03  0.41800000000E+01 0. -1.
        -11    1    1    2    0    0  0.89475416615E+02 -0.14030997519E+03  0.71627263506E+02  0.18117175330E+03  0.00000000000E+00 0. -1.
         11    1    1    2    0    0  0.17432798418E+02  0.12341529657E+02  0.11039150436E+02  0.24043266361E+02  0.00000000000E+00 0.  1.
</event>
<event>
 7    1  0.2661133E-009  0.1501867E+03  0.7561462E-02  0.1200244E+00
          2   -1    0    0  501    0  0.00000000000E+00  0.00000000000E+00  0.37202463071E+03  0.37202463071E+03  0.00000000000E+00 0. -1.
         -2   -1    0    0    0  501 -0.00000000000E+00 -0.00000000000E+00 -0.84300892505E+02  0.84300892505E+02  0.00000000000E+00 0.  1.
         25    2    1    2    0    0  0.11633884889E+03 -0.65672653416E+02  0.10267479284E+03  0.20984873041E+03  0.12508697534E+03 0.  0.
          5    1    3    3  502    0  0.72361684806E+02 -0.22556484673E+02 -0.14616581016E+02  0.77305402588E+02  0.41800000000E+01 0.  1.
         -5    1    3    3    0  502  0.43977164087E+02 -0.43116168743E+02  0.11729137386E+03  0.13254332782E+03  0.41800000000E+01 0.  1.
        -11    1    1    2    0    0 -0.10451608168E+03  0.88548290916E+02  0.15849916625E+03  0.20949080375E+03  0.00000000000E+00 0.  1.
         11    1    1    2    0    0 -0.11822767217E+02 -0.22875637500E+02  0.26549779119E+02  0.36985989063E+02  0.00000000000E+00 0. -1.
</event>
<event>
 7    1  0.2661133E-009  0.1839214E+03  0.7561462E-02  0.1164061E+00
         -2   -1    0    0    0  501 -0.00000000000E+00  0.00000000000E+00  0.62513049982E+02  0.62513049982E+02  0.00000000000E+00 0.  1.
          2   -1    0    0  501    0  0.00000000000E+00 -0.00000000000E+00 -0.66858077595E+03  0.66858077595E+03  0.00000000000E+00 0. -1.
         25    2    1    2    0    0 -0.10957420083E+03  0.12764898172E+03 -0.39033352283E+03  0.44306646416E+03  0.12508742782E+03 0.  0.
          5    1    3    3  502    0  0.20880856682E+01  0.54362719112E+02 -0.38690083367E+02  0.66888416650E+02  0.41800000000E+01 0. -1.
         -5    1    3    3    0  502 -0.11166228650E+03  0.73286262610E+02 -0.35164343946E+03  0.37617804751E+03  0.41800000000E+01 0. -1.
        -11    1    1    2    0    0  0.83818766863E+02 -0.49448714821E+02 -0.67409644273E+02  0.11838421017E+03  0.00000000000E+00 0.  1.
         11    1    1    2    0    0  0.25755433971E+02 -0.78200266901E+02 -0.14832455887E+03  0.16964315160E+03  0.00000000000E+00 0. -1.
</event>
<event>
 7    1  0.2661133E-009  0.1733039E+03  0.7561462E-02  0.1174446E+00
          1   -1    0    0  501    0  0.00000000000E+00  0.00000000000E+00  0.67559165494E+03  0.67559165494E+03  0.00000000000E+00 0. -1.
         -1   -1    0    0    0  501 -0.00000000000E+00 -0.00000000000E+00 -0.56136723589E+02  0.56136723589E+02  0.00000000000E+00 0.  1.
         25    2    1    2    0    0  0.17534262829E+02  0.14016438927E+03  0.47074100754E+03  0.50714684638E+03  0.12508925302E+03 0.  0.
          5    1    3    3  502    0 -0.22836536433E+02 -0.12318995396E+02  0.11526177278E+03  0.11822019163E+03  0.41800000000E+01 0. -1.
         -5    1    3    3    0  502  0.40370799262E+02  0.15248338466E+03  0.35547923476E+03  0.38892665475E+03  0.41800000000E+01 0. -1.
        -11    1    1    2    0    0  0.29871029520E+02 -0.28774985342E+02  0.14743578744E+02  0.44018760776E+02  0.00000000000E+00 0.  1.
         11    1    1    2    0    0 -0.47405292349E+02 -0.11138940393E+03  0.13397034507E+03  0.18056277138E+03  0.00000000000E+00 0. -1.
</event>
<event>
 7    1  0.2661133E-009  0.1902815E+03  0.7561462E-02  0.1158208E+00
          2   -1    0    0  501    0  0.00000000000E+00  0.00000000000E+00  0.32760766970E+04  0.32760766970E+04  0.00000000000E+00 0. -1.
         -2   -1    0    0    0  501 -0.00000000000E+00 -0.00000000000E+00 -0.17222983565E+02  0.17222983565E+02  0.00000000000E+00 0.  1.
         25    2    1    2    0    0  0.13097855996E+03  0.96067580385E+02  0.26139925895E+04  0.26220200934E+04  0.12509096246E+03 0.  0.
          5    1    3    3  502    0 -0.28854498815E+01  0.58265123713E+02  0.11314023664E+04  0.11329130318E+04  0.41800000000E+01 0.  1.
         -5    1    3    3    0  502  0.13386400984E+03  0.37802456672E+02  0.14825902231E+04  0.14891070616E+04  0.41800000000E+01 0.  1.
        -11    1    1    2    0    0 -0.10878824655E+03 -0.29457776610E+02  0.45801061040E+03  0.47167400017E+03  0.00000000000E+00 0. -1.
         11    1    1    2    0    0 -0.22190313409E+02 -0.66609803775E+02  0.18685051357E+03  0.19960558707E+03  0.00000000000E+00 0.  1.
</event>
<event>
 7    1  0.2661133E-009  0.1143013E+03  0.7561462E-02  0.1252806E+00
          1   -1    0    0  501    0  0.00000000000E+00  0.00000000000E+00  0.17302605745E+03  0.17302605745E+03  0.00000000000E+00 0. -1.
         -1   -1    0    0    0  501 -0.00000000000E+00 -0.00000000000E+00 -0.10423801150E+03  0.10423801150E+03  0.00000000000E+00 0.  1.
         25    2    1    2    0    0 -0.71624211018E+02  0.24503122229E+02  0.59912084874E+02  0.15801218950E+03  0.12509182033E+03 0.  0.
          5    1    3    3  502    0  0.26585229579E+00  0.38406848356E+02  0.73861863013E+02  0.83355886929E+02  0.41800000000E+01 0. -1.
         -5    1    3    3    0  502 -0.71890063313E+02 -0.13903726127E+02 -0.13949778138E+02  0.74656302571E+02  0.41800000000E+01 0. -1.
        -11    1    1    2    0    0  0.22032944494E+02  0.33636312211E+02 -0.79899356233E+01  0.40996234138E+02  0.00000000000E+00 0.  1.
         11    1    1    2    0    0  0.49591266523E+02 -0.58139434440E+02  0.16865896692E+02  0.78255645315E+02  0.00000000000E+00 0. -1.
</event>
<event>
 7    1  0.2661133E-009  0.1115940E+03  0.7561462E-02  0.1257646E+00
         -1   -1    0    0    0  501 -0.00000000000E+00  0.00000000000E+00  0.29125518790E+03  0.29125518790E+03  0.00000000000E+00 0.  1.
          1   -1    0    0  501    0  0.00000000000E+00 -0.00000000000E+00 -0.46877085917E+02  0.46877085917E+02  0.00000000000E+00 0. -1.
         25    2    1    2    0    0 -0.45445239234E+02  0.12319748410E+02  0.16450766045E+03  0.21196148318E+03  0.12509138273E+03 0.  0.
          5    1    3    3  502    0  0.29153564403E+02  0.40026370079E+02  0.90306588934E+02  0.10307663665E+03  0.41800000000E+01 0.  1.
         -5    1    3    3    0  502 -0.74598803637E+02 -0.27706621669E+02  0.74201071516E+02  0.10888484652E+03  0.41800000000E+01 0.  1.
        -11    1    1    2    0    0  0.58801182627E+02  0.17317744247E+02  0.68032444906E+02  0.91574542882E+02  0.00000000000E+00 0.  1.
         11    1    1    2    0    0 -0.13355943393E+02 -0.29637492657E+02  0.11837996632E+02  0.34596247761E+02  0.00000000000E+00 0. -1.
</event>
<event>
 7    1  0.2661133E-009  0.2156789E+03  0.7561462E-02  0.1137146E+00
          1   -1    0    0  501    0  0.00000000000E+00  0.00000000000E+00  0.20538150295E+03  0.20538150295E+03  0.00000000000E+00 0. -1.
         -1   -1    0    0    0  501 -0.00000000000E+00 -0.00000000000E+00 -0.28753458237E+03  0.28753458237E+03  0.00000000000E+00 0.  1.
         25    2    1    2    0    0  0.17837401736E+03 -0.95743190082E+02 -0.11611174439E+03  0.26477892057E+03  0.12506754605E+03 0.  0.
          5    1    3    3  502    0  0.33536771781E+02  0.23511145626E+02 -0.52310070741E+02  0.66568047373E+02  0.41800000000E+01 0.  1.
         -5    1    3    3    0  502  0.14483724558E+03 -0.11925433571E+03 -0.63801673653E+02  0.19821087320E+03  0.41800000000E+01 0.  1.
        -11    1    1    2    0    0 -0.16821480534E+03  0.91755814659E+02  0.59272717898E+02  0.20057069912E+03  0.00000000000E+00 0. -1.
         11    1    1    2    0    0 -0.10159212025E+02  0.39873754230E+01 -0.25314052924E+02  0.27566465627E+02  0.00000000000E+00 0.  1.
</event>
<event>
 7    1  0.2661133E-009  0.2024511E+03  0.7561462E-02  0.1147687E+00
          1   -1    0    0  501    0  0.00000000000E+00  0.00000000000E+00  0.71314758202E+03  0.71314758202E+03  0.00000000000E+00 0. -1.
         -1   -1    0    0    0  501 -0.00000000000E+00 -0.00000000000E+00 -0.66970524055E+02  0.66970524055E+02  0.00000000000E+00 0.  1.
         25    2    1    2    0    0 -0.17936113779E+03  0.60049577146E+02  0.32175040950E+03  0.39363412212E+03  0.12509247226E+03 0.  0.
          5    1    3    3  502    0 -0.82738533842E+02  0.53736613538E+02  0.26147873445E+03  0.27950293305E+03  0.41800000000E+01 0.  1.
         -5    1    3    3    0  502 -0.96622603951E+02  0.63129636079E+01  0.60271675053E+02  0.11413118907E+03  0.41800000000E+01 0.  1.
        -11    1    1    2    0    0  0.17036819460E+02 -0.42718487964E+02  0.57991961109E+02  0.74014795713E+02  0.00000000000E+00 0.  1.
         11    1    1    2    0    0  0.16232431833E+03 -0.17331089182E+02  0.26643468735E+03  0.31246918824E+03  0.00000000000E+00 0. -1.
</event>
<event>
 7    1  0.2661133E-009  0.1882392E+03  0.7561462E-02  0.1160059E+00
         -1   -1    0    0    0  501 -0.00000000000E+00  0.00000000000E+00  0.46540227098E+02  0.46540227098E+02  0.00000000000E+00 0.  1.
          1   -1    0    0  501    0  0.00000000000E+00 -0.00000000000E+00 -0.10432569407E+04  0.10432569407E+04  0.00000000000E+00 0. -1.
         25    2    1    2    0    0 -0.72090341395E+02  0.15815452763E+03 -0.71883029859E+03  0.75005217755E+03  0.12510555123E+03 0.  0.
          5    1    3    3  502    0 -0.64503255930E+02  0.17338176660E+03 -0.70117655751E+03  0.72518131817E+03  0.41800000000E+01 0.  1.
         -5    1    3    3    0  502 -0.75870854657E+01 -0.15227238969E+02 -0.17653741077E+02  0.24870859385E+02  0.41800000000E+01 0.  1.
        -11    1    1    2    0    0  0.30666547265E+02 -0.59983489108E+02 -0.19011036878E+03  0.20169384821E+03  0.00000000000E+00 0. -1.
         11    1    1    2    0    0  0.41423794130E+02 -0.98171038527E+02 -0.87776046229E+02  0.13805114204E+03  0.00000000000E+00 0.  1.
</event>
<event>
 7    1  0.2661133E-009  0.1203326E+03  0.7561462E-02  0.1242549E+00
          1   -1    0    0  501    0  0.00000000000E+00  0.00000000000E+00  0.68972222273E+03  0.68972222273E+03  0.00000000000E+00 0. -1.
         -1   -1    0    0    0  501 -0.00000000000E+00 -0.00000000000E+00 -0.24406208595E+02  0.24406208595E+02  0.00000000000E+00 0.  1.
         25    2    1    2    0    0 -0.40341986068E+02 -0.59712018579E+02  0.34949615880E+03  0.37813746590E+03  0.12508947637E+03 0.  0.
          5    1    3    3  502    0 -0.46077764606E+02  0.26686464624E+02  0.18002280425E+03  0.18777915282E+03  0.41800000000E+01 0. -1.
         -5    1    3    3    0  502  0.57357785382E+01 -0.86398483203E+02  0.16947335455E+03  0.19035831308E+03  0.41800000000E+01 0. -1.
        -11    1    1    2    0    0  0.40095346251E+02 -0.74924881699E+00  0.53892699688E+02  0.67176046657E+02  0.00000000000E+00 0.  1.
         11    1    1    2    0    0  0.24663981752E+00  0.60461267396E+02  0.26192715565E+03  0.26881491877E+03  0.00000000000E+00 0. -1.
</event>
<event>
 7    1  0.2661133E-009  0.1316707E+03  0.7561462E-02  0.1224998E+00
          1   -1    0    0  501    0  0.00000000000E+00  0.00000000000E+00  0.13540887939E+03  0.13540887939E+03  0.00000000000E+00 0. -1.
         -1   -1    0    0    0  501 -0.00000000000E+00 -0.00000000000E+00 -0.16267315334E+03  0.16267315334E+03  0.00000000000E+00 0.  1.
         25    2    1    2    0    0  0.25588730388E+02  0.75794087250E+02  0.46363074818E+02  0.15555107192E+03  0.12508826677E+03 0.  0.
          5    1    3    3  502    0  0.29104828982E+01 -0.32974361897E+02 -0.37842278985E+01  0.33579342370E+02  0.41800000000E+01 0.  1.
         -5    1    3    3    0  502  0.22678247490E+02  0.10876844915E+03  0.50147302716E+02  0.12197172955E+03  0.41800000000E+01 0.  1.
        -11    1    1    2    0    0 -0.31434471429E+02  0.98537300274E+01 -0.36005917069E+02  0.48802131649E+02  0.00000000000E+00 0.  1.
         11    1    1    2    0    0  0.58457410413E+01 -0.85647817278E+02 -0.37621431703E+02  0.93728829162E+02  0.00000000000E+00 0. -1.
</event>
<event>
 7    1  0.2661133E-009  0.1344159E+03  0.7561462E-02  0.1221047E+00
         -2   -1    0    0    0  501 -0.00000000000E+00  0.00000000000E+00  0.41337950106E+02  0.41337950106E+02  0.00000000000E+00 0.  1.
          2   -1    0    0  501    0  0.00000000000E+00 -0.00000000000E+00 -0.55401959235E+03  0.55401959235E+03  0.00000000000E+00 0. -1.
         25    2    1    2    0    0 -0.10299975193E+03 -0.23012632328E+02 -0.28685392312E+03  0.33025940729E+03  0.12509025841E+03 0.  0.
          5    1    3    3  502    0 -0.12548787739E+02  0.46679040198E+02 -0.70410158053E+02  0.85507120315E+02  0.41800000000E+01 0.  1.
         -5    1    3    3    0  502 -0.90450964192E+02 -0.69691672526E+02 -0.21644376507E+03  0.24475228698E+03  0.41800000000E+01 0.  1.
        -11    1    1    2    0    0  0.20078273276E+02  0.31291163779E+00  0.33201887969E+01  0.20353344321E+02  0.00000000000E+00 0.  1.
         11    1    1    2    0    0  0.82921478655E+02  0.22699720690E+02 -0.22914790792E+03  0.24474479084E+03  0.00000000000E+00 0. -1.
</event>
<event>
 7    1  0.2661133E-009  0.1322368E+03  0.7561462E-02  0.1224174E+00
         -2   -1    0    0    0  501 -0.00000000000E+00  0.00000000000E+00  0.43518950464E+02  0.43518950464E+02  0.00000000000E+00 0.  1.
          2   -1    0    0  501    0  0.00000000000E+00 -0.00000000000E+00 -0.52552041883E+03  0.52552041883E+03  0.00000000000E+00 0. -1.
         25    2    1    2    0    0  0.70968165747E+02  0.71894954084E+02 -0.20979409457E+03  0.26432494416E+03  0.12509496000E+03 0.  0.
          5    1    3    3  502    0 -0.35657021114E+02  0.99760747754E+01 -0.53753346315E+02  0.65405197521E+02  0.41800000000E+01 0.  1.
         -5    1    3    3    0  502  0.10662518686E+03  0.61918879309E+02 -0.15604074825E+03  0.19891974664E+03  0.41800000000E+01 0.  1.
        -11    1    1    2    0    0 -0.41821301479E+02 -0.25292055830E+02 -0.23074195928E+03  0.23586131755E+03  0.00000000000E+00 0. -1.
         11    1    1    2    0    0 -0.29146864268E+02 -0.46602898254E+02 -0.41465414519E+02  0.68853107581E+02  0.00000000000E+00 0.  1.
</event>
<event>
 7    1  0.2661133E-009  0.1224850E+03  0.7561462E-02  0.1239053E+00
          2   -1    0    0  501    0  0.00000000000E+00  0.00000000000E+00  0.52591585261E+03  0.52591585261E+03  0.00000000000E+00 0. -1.
         -2   -1    0    0    0  501 -0.00000000000E+00 -0.00000000000E+00 -0.37159154820E+02  0.37159154820E+02  0.00000000000E+00 0.  1.
         25    2    1    2    0    0  0.82616034182E+02  0.67783130506E+01  0.33152325118E+03  0.36390385950E+03  0.12508796205E+03 0.  0.
          5    1    3    3  502    0 -0.83036392285E+01  0.47588393227E+02  0.13643287924E+03  0.14479298509E+03  0.41800000000E+01 0. -1.
         -5    1    3    3    0  502  0.90919673411E+02 -0.40810080177E+02  0.19509037195E+03  0.21911087441E+03  0.41800000000E+01 0. -1.
        -11    1    1    2    0    0 -0.10922961068E+02 -0.20976744863E+02 -0.22319453203E+01  0.23755346418E+02  0.00000000000E+00 0.  1.
         11    1    1    2    0    0 -0.71693073115E+02  0.14198431813E+02  0.15946539192E+03  0.17541580151E+03  0.00000000000E+00 0. -1.
</event>
<event>
 6    1  0.2661133E-009  0.8705959E+02  0.7561462E-02  0.1310133E+00
         -1   -1    0    0    0  501 -0.00000000000E+00  0.00000000000E+00  0.12357440824E+03  0.12357440824E+03  0.00000000000E+00 0.  1.
          1   -1    0    0  501    0  0.00000000000E+00 -0.00000000000E+00 -0.94102756346E+02  0.94102756346E+02  0.00000000000E+00 0. -1.
          5    1    1    2  502    0 -0.63863295722E+02  0.21786537142E+02  0.94204746684E+01  0.68259735453E+02  0.41800000000E+01 0. -1.
         -5    1    1    2    0  502  0.59953043979E+02  0.76718439656E+01  0.12002354960E+02  0.61763691574E+02  0.41800000000E+01 0. -1.
        -11    1    1    2    0    0 -0.10143111931E+02  0.29823295721E+01 -0.32312435813E+02  0.33998095792E+02  0.00000000000E+00 0. -1.
         11    1    1    2    0    0  0.14053363674E+02 -0.32440710680E+02  0.40361258083E+02  0.53655641772E+02  0.00000000000E+00 0.  1.
</event>
<event>
 7    1  0.2661133E-009  0.9718843E+02  0.7561462E-02  0.1286322E+00
         -1   -1    0    0    0  501 -0.00000000000E+00  0.00000000000E+00  0.38315956362E+03  0.38315956362E+03  0.00000000000E+00 0.  1.
          1   -1    0    0  501    0  0.00000000000E+00 -0.00000000000E+00 -0.60574854255E+02  0.60574854255E+02  0.00000000000E+00 0. -1.
         25    2    1    2    0    0  0.45694645125E+02  0.53574040834E+02  0.58997166496E+02  0.15519216597E+03  0.12508302955E+03 0.  0.
          5    1    3    3  502    0  0.14792906801E+02  0.50592695063E+02 -0.30033993511E+02  0.60810887607E+02  0.41800000000E+01 0. -1.
         -5    1    3    3    0  502  0.30901738325E+02  0.29813457705E+01  0.89031160006E+02  0.94381278367E+02  0.41800000000E+01 0. -1.
        -11    1    1    2    0    0 -0.57178904072E+02 -0.18684843125E+01  0.18600343254E+03  0.19460265986E+03  0.00000000000E+00 0.  1.
         11    1    1    2    0    0  0.11484258947E+02 -0.51705556521E+02  0.77584110327E+02  0.93939592047E+02  0.00000000000E+00 0. -1.
</event>
<event>
 7    1  0.2661133E-009  0.1457465E+03  0.7561462E-02  0.1205799E+00
          1   -1    0    0  501    0  0.00000000000E+00  0.00000000000E+00  0.20113968921E+04  0.20113968921E+04  0.00000000000E+00 0. -1.
         -1   -1    0    0    0  501 -0.00000000000E+00 -0.00000000000E+00 -0.11312090209E+02  0.11312090209E+02  0.00000000000E+00 0.  1.
         25    2    1    2    0    0 -0.10213457283E+03  0.20679299907E+02  0.11986578303E+04  0.12096638198E+04  0.12508740284E+03 0.  0.
          5    1    3    3  502    0  0.25297863880E+02  0.39096573400E+01  0.92891148921E+02  0.96444311834E+02  0.41800000000E+01 0. -1.
         -5    1    3    3    0  502 -0.12743243671E+03  0.16769642567E+02  0.11057666814E+04  0.11132195080E+04  0.41800000000E+01 0. -1.
        -11    1    1    2    0    0  0.92099254859E+02  0.20684161877E+02  0.55317538773E+03  0.56117120105E+03  0.00000000000E+00 0. -1.
         11    1    1    2    0    0  0.10035317972E+02 -0.41363461784E+02  0.24825158381E+03  0.25187396142E+03  0.00000000000E+00 0.  1.
</event>
<event>
 7    1  0.2661133E-009  0.1292618E+03  0.7561462E-02  0.1228555E+00
          2   -1    0    0  501    0  0.00000000000E+00  0.00000000000E+00  0.32696147036E+03  0.32696147036E+03  0.00000000000E+00 0.  1.
         -2   -1    0    0    0  501 -0.00000000000E+00 -0.00000000000E+00 -0.68321853719E+02  0.68321853719E+02  0.00000000000E+00 0. -1.
         25    2    1    2    0    0 -0.23855880971E+02 -0.69831119619E+02  0.46070706126E+02  0.15236411214E+03  0.12508726707E+03 0.  0.
          5    1    3    3  502    0  0.35746371998E+02 -0.75789769322E+02  0.16807526779E+02  0.85567853785E+02  0.41800000000E+01 0.  1.
         -5    1    3    3    0  502 -0.59602252969E+02  0.59586497031E+01  0.29263179347E+02  0.66796258359E+02  0.41800000000E+01 0.  1.
        -11    1    1    2    0    0 -0.30246563089E+02  0.46919454446E+02  0.76455270674E+02  0.94666246350E+02  0.00000000000E+00 0. -1.
         11    1    1    2    0    0  0.54102444061E+02  0.22911665172E+02  0.13611363985E+03  0.14825296559E+03  0.00000000000E+00 0.  1.
</event>
<event>
 7    1  0.2661133E-009  0.1329169E+03  0.7561462E-02  0.1223191E+00
          2   -1    0    0  501    0  0.00000000000E+00  0.00000000000E+00  0.98409609588E+03  0.98409609588E+03  0.00000000000E+00 0. -1.
         -2   -1    0    0    0  501 -0.00000000000E+00 -0.00000000000E+00 -0.28653916560E+02  0.28653916560E+02  0.00000000000E+00 0.  1.
         25    2    1    2    0    0  0.74493232037E+02 -0.77779608820E+02  0.70438156172E+03  0.72346556978E+03  0.12510050761E+03 0.  0.
          5    1    3    3  502    0  0.74846922468E+02 -0.85450627281E+02  0.33087247687E+03  0.34985416941E+03  0.41800000000E+01 0. -1.
         -5    1    3    3    0  502 -0.35369043128E+00  0.76710184618E+01  0.37350908485E+03  0.37361140037E+03  0.41800000000E+01 0. -1.
        -11    1    1    2    0    0 -0.51388357936E+02  0.99322234138E+02  0.20317669693E+03  0.23191903695E+03  0.00000000000E+00 0.  1.
         11    1    1    2    0    0 -0.23104874102E+02 -0.21542625319E+02  0.47883920666E+02  0.57365405701E+02  0.00000000000E+00 0. -1.
</event>
<event>
 7    1  0.2661133E-009  0.1167812E+03  0.7561462E-02  0.1248504E+00
          1   -1    0    0  501    0  0.00000000000E+00  0.00000000000E+00  0.14869680237E+02  0.14869680237E+02  0.00000000000E+00 0. -1.
         -1   -1    0    0    0  501 -0.00000000000E+00 -0.00000000000E+00 -0.12050005390E+04  0.12050005390E+04  0.00000000000E+00 0.  1.
         25    2    1    2    0    0  0.23730578868E+01 -0.77093312282E+02 -0.59375185636E+03  0.61166834186E+03  0.12509149971E+03 0.  0.
          5    1    3    3  502    0 -0.35961165848E+02 -0.78048986372E+01 -0.40828247940E+03  0.40995875070E+03  0.41800000000E+01 0. -1.
         -5    1    3    3    0  502  0.38334223735E+02 -0.69288413645E+02 -0.18546937696E+03  0.20170959115E+03  0.41800000000E+01 0. -1.
        -11    1    1    2    0    0  0.21017901905E+02  0.88673719510E+02 -0.50551365803E+03  0.51366218392E+03  0.00000000000E+00 0.  1.
         11    1    1    2    0    0 -0.23390959791E+02 -0.11580407228E+02 -0.90865344374E+02  0.94539693462E+02  0.00000000000E+00 0. -1.
</event>
<event>
 7    1  0.2661133E-009  0.7260612E+02  0.7561462E-02  0.1351449E+00
         -2   -1    0    0    0  501 -0.00000000000E+00  0.00000000000E+00  0.23295686855E+02  0.23295686855E+02  0.00000000000E+00 0.  1.
          2   -1    0    0  501    0  0.00000000000E+00 -0.00000000000E+00 -0.55166417206E+03  0.55166417206E+03  0.00000000000E+00 0. -1.
         25    2    1    2    0    0  0.16632382497E+02 -0.21696481350E+02 -0.35872230284E+03  0.38088954007E+03  0.12509107774E+03 0.  0.
          5    1    3    3  502    0 -0.10430441260E+02  0.18522652010E+02 -0.30191473389E+01  0.21873966102E+02  0.41800000000E+01 0.  1.
         -5    1    3    3    0  502  0.27062823757E+02 -0.40219133360E+02 -0.35570315550E+03  0.35901557397E+03  0.41800000000E+01 0.  1.
        -11    1    1    2    0    0 -0.40596943276E+02 -0.27087217220E+01 -0.30683411122E+02  0.50959991119E+02  0.00000000000E+00 0.  1.
         11    1    1    2    0    0  0.23964560780E+02  0.24405203072E+02 -0.13896277125E+03  0.14311032773E+03  0.00000000000E+00 0. -1.
</event>
<event>
 7    1  0.2661133E-009  0.1671462E+03  0.7561462E-02  0.1180857E+00
          1   -1    0    0  501    0  0.00000000000E+00  0.00000000000E+00  0.42856352610E+03  0.42856352610E+03  0.00000000000E+00 0. -1.
         -1   -1    0    0    0  501 -0.00000000000E+00 -0.00000000000E+00 -0.68793061481E+02  0.68793061481E+02  0.00000000000E+00 0.  1.
         25    2    1    2    0    0 -0.87579081767E+02 -0.98760997138E+02  0.16907344753E+03  0.24831295661E+03  0.12509861567E+03 0.  0.
          5    1    3    3  502    0 -0.36918800844E+02 -0.11592236343E+03  0.14551196080E+03  0.18971609140E+03  0.41800000000E+01 0. -1.
         -5    1    3    3    0  502 -0.50660280923E+02  0.17161366292E+02  0.23561486727E+02  0.58596865214E+02  0.41800000000E+01 0. -1.
        -11    1    1    2    0    0  0.11143363663E+02  0.79241744726E+02  0.11166104300E+03  0.13737400476E+03  0.00000000000E+00 0.  1.
         11    1    1    2    0    0  0.76435718104E+02  0.19519252412E+02  0.79035974098E+02  0.11166962621E+03  0.00000000000E+00 0. -1.
</event>
<event>
 7    1  0.2661133E-009  0.1218939E+03  0.7561462E-02  0.1240005E+00
          4   -1    0    0  501    0  0.00000000000E+00  0.00000000000E+00  0.49830614843E+02  0.49830614843E+02  0.00000000000E+00 0. -1.
         -4   -1    0    0    0  501 -0.00000000000E+00 -0.00000000000E+00 -0.32268247471E+03  0.32268247471E+03  0.00000000000E+00 0.  1.
         25    2    1    2    0    0 -0.25253053517E+01 -0.70436584723E+02 -0.13878354309E+03  0.19968858982E+03  0.12508785488E+03 0.  0.
          5    1    3    3  502    0  0.54698531117E+02 -0.14080531294E+02 -0.29086938184E+02  0.63668776027E+02  0.41800000000E+01 0. -1.
         -5    1    3    3    0  502 -0.57223836468E+02 -0.56356053429E+02 -0.10969660490E+03  0.13601981380E+03  0.41800000000E+01 0. -1.
        -11    1    1    2    0    0 -0.35599817306E+02  0.55171147721E+02 -0.99143338185E+02  0.11891427181E+03  0.00000000000E+00 0.  1.
         11    1    1    2    0    0  0.38125122658E+02  0.15265437003E+02 -0.34924978597E+02  0.53910227922E+02  0.00000000000E+00 0. -1.
</event>
<event>
 6    1  0.2661133E-009  0.2565105E+03  0.7561462E-02  0.1109258E+00
         -1   -1    0    0    0  501 -0.00000000000E+00  0.00000000000E+00  0.15423345937E+04  0.15423345937E+04  0.00000000000E+00 0.  1.
          1   -1    0    0  501    0  0.00000000000E+00 -0.00000000000E+00 -0.58417594916E+02  0.58417594916E+02  0.00000000000E+00 0. -1.
          5    1    1    2  502    0 -0.80904220674E+02  0.98426447812E+02  0.10190682594E+03  0.16320457140E+03  0.41800000000E+01 0.  1.
         -5    1    1    2    0  502 -0.45168840928E+02  0.11443269059E+03  0.30732307077E+03  0.33105891786E+03  0.41800000000E+01 0.  1.
        -11    1    1    2    0    0  0.77358561510E+02 -0.19630339214E+03  0.82485032517E+03  0.85140908365E+03  0.00000000000E+00 0.  1.
         11    1    1    2    0    0  0.48714500092E+02 -0.16555746265E+02  0.24983677687E+03  0.25507961567E+03  0.00000000000E+00 0. -1.
</event>
<event>
 7    1  0.2661133E-009  0.8956466E+02  0.7561462E-02  0.1303909E+00
          1   -1    0    0  501    0  0.00000000000E+00  0.00000000000E+00  0.17006365542E+03  0.17006365542E+03  0.00000000000E+00 0.  1.
         -1   -1    0    0    0  501 -0.00000000000E+00 -0.00000000000E+00 -0.67574250273E+02  0.67574250273E+02  0.00000000000E+00 0. -1.
         25    2    1    2    0    0  0.24382999275E+02 -0.19522199711E+02  0.42486308537E+02  0.13575204786E+03  0.12509150711E+03 0.  0.
          5    1    3    3  502    0  0.28660554783E+02  0.33093240017E+02 -0.24516414401E+02  0.50349944492E+02  0.41800000000E+01 0.  1.
         -5    1    3    3    0  502 -0.42775555081E+01 -0.52615439728E+02  0.67002722937E+02  0.85402103369E+02  0.41800000000E+01 0.  1.
        -11    1    1    2    0    0 -0.38336514866E+02  0.41288614348E+02  0.38274631677E+02  0.68113034559E+02  0.00000000000E+00 0. -1.
         11    1    1    2    0    0  0.13953515591E+02 -0.21766414637E+02  0.21728464932E+02  0.33772823272E+02  0.00000000000E+00 0.  1.
</event>
<event>
 6    1  0.3257206E-009  0.9668928E+02  0.7561462E-02  0.1287416E+00
          1   -1    0    0  501    0  0.00000000000E+00  0.00000000000E+00  0.13623165437E+04  0.13623165437E+04  0.00000000000E+00 0. -1.
         -1   -1    0    0    0  501 -0.00000000000E+00 -0.00000000000E+00 -0.12672974440E+02  0.12672974440E+02  0.00000000000E+00 0.  1.
          5    1    1    2  502    0 -0.50653134522E+02 -0.23108580174E+02  0.11079165572E+03  0.12406453922E+03  0.41800000000E+01 0.  1.
         -5    1    1    2    0  502 -0.11220748345E+02 -0.17988368790E+02  0.65699645724E+03  0.65735173524E+03  0.41800000000E+01 0.  1.
        -11    1    1    2    0    0  0.26732519634E+02  0.67094989562E+02  0.40544464761E+03  0.41182730301E+03  0.00000000000E+00 0.  1.
         11    1    1    2    0    0  0.35141363233E+02 -0.25998040598E+02  0.17641080869E+03  0.18174594067E+03  0.00000000000E+00 0. -1.
</event>
<event>
 7    1  0.2661133E-009  0.1087251E+03  0.7561462E-02  0.1262949E+00
         -1   -1    0    0    0  501 -0.00000000000E+00  0.00000000000E+00  0.17731402117E+03  0.17731402117E+03  0.00000000000E+00 0.  1.
          1   -1    0    0  501    0  0.00000000000E+00 -0.00000000000E+00 -0.86076150134E+02  0.86076150134E+02  0.00000000000E+00 0. -1.
         25    2    1    2    0    0  0.35417598644E+02 -0.21593644190E+02  0.95971390743E+02  0.16302804967E+03  0.12508775069E+03 0.  0.
          5    1    3    3  502    0 -0.33788837853E+02  0.22845028653E+02  0.66492727735E+01  0.41536322972E+02  0.41800000000E+01 0. -1.
         -5    1    3    3    0  502  0.69206436496E+02 -0.44438672843E+02  0.89322117969E+02  0.12149172669E+03  0.41800000000E+01 0. -1.
        -11    1    1    2    0    0  0.67439808775E+01  0.45252217273E+02 -0.19612448111E+02  0.49778434759E+02  0.00000000000E+00 0.  1.
         11    1    1    2    0    0 -0.42161579521E+02 -0.23658573083E+02  0.14878928407E+02  0.50583686882E+02  0.00000000000E+00 0. -1.
</event>
<event>
 7    1  0.2661133E-009  0.1471135E+03  0.7561462E-02  0.1204065E+00
         -1   -1    0    0    0  501 -0.00000000000E+00  0.00000000000E+00  0.17861217003E+03  0.17861217003E+03  0.00000000000E+00 0.  1.
          1   -1    0    0  501    0  0.00000000000E+00 -0.00000000000E+00 -0.15048698482E+03  0.15048698482E+03  0.00000000000E+00 0. -1.
         25    2    1    2    0    0 -0.47455735455E+02  0.11054658863E+03 -0.80528916607E+01  0.17373752825E+03  0.12508910654E+03 0.  0.
          5    1    3    3  502    0 -0.13923946121E+02 -0.25779713276E+02  0.11854020494E+02  0.31881971301E+02  0.41800000000E+01 0. -1.
         -5    1    3    3    0  502 -0.33531789335E+02  0.13632630190E+03 -0.19906912154E+02  0.14185555695E+03  0.41800000000E+01 0. -1.
        -11    1    1    2    0    0  0.20968574992E+01 -0.41580725790E+02 -0.28534861123E+02  0.50473674999E+02  0.00000000000E+00 0.  1.
         11    1    1    2    0    0  0.45358877956E+02 -0.68965862836E+02  0.64712938002E+02  0.10488795160E+03  0.00000000000E+00 0. -1.
</event>
<event>
 7    1  0.2661133E-009  0.1071690E+03  0.7561462E-02  0.1265904E+00
         -1   -1    0    0    0  501 -0.00000000000E+00  0.00000000000E+00  0.36219823706E+02  0.36219823706E+02  0.00000000000E+00 0.  1.
          1   -1    0    0  501    0  0.00000000000E+00 -0.00000000000E+00 -0.50379513229E+03  0.50379513229E+03  0.00000000000E+00 0. -1.
         25    2    1    2    0    0 -0.83055672242E+01  0.41542169596E+02 -0.12182129875E+03  0.17967385125E+03  0.12509008631E+03 0.  0.
          5    1    3    3  502    0  0.43503940249E+02  0.43005554510E+02 -0.11062906863E+03  0.12648451985E+03  0.41800000000E+01 0.  1.
         -5    1    3    3    0  502 -0.51809507473E+02 -0.14633849146E+01 -0.11192230121E+02  0.53189331403E+02  0.41800000000E+01 0.  1.
        -11    1    1    2    0    0  0.33397422060E+02 -0.60817159438E+02 -0.22090272767E+03  0.23154293290E+03  0.00000000000E+00 0. -1.
         11    1    1    2    0    0 -0.25091854836E+02  0.19274989843E+02 -0.12485128216E+03  0.12879817184E+03  0.00000000000E+00 0.  1.
</event>
<event>
 7    1  0.2661133E-009  0.1441548E+03  0.7561462E-02  0.1207845E+00
         -1   -1    0    0    0  501 -0.00000000000E+00  0.00000000000E+00  0.15207996813E+02  0.15207996813E+02  0.00000000000E+00 0.  1.
          1   -1    0    0  501    0  0.00000000000E+00 -0.00000000000E+00 -0.20775569660E+04  0.20775569660E+04  0.00000000000E+00 0. -1.
         25    2    1    2    0    0 -0.79093871835E+02 -0.52760290082E+02 -0.16939209469E+04  0.17011923588E+04  0.12509108027E+03 0.  0.
          5    1    3    3  502    0 -0.45589501645E+02 -0.93323450078E+02 -0.10649440597E+04  0.10700051363E+04  0.41800000000E+01 0.  1.
         -5    1    3    3    0  502 -0.33504370191E+02  0.40563159995E+02 -0.62897688724E+03  0.63118722251E+03  0.41800000000E+01 0.  1.
        -11    1    1    2    0    0  0.68511162497E+01  0.58700084118E+02 -0.19013168723E+03  0.19910473665E+03  0.00000000000E+00 0.  1.
         11    1    1    2    0    0  0.72242755585E+02 -0.59397940355E+01 -0.17829633503E+03  0.19246786738E+03  0.00000000000E+00 0. -1.
</event>
<event>
 7    1  0.2661133E-009  0.1174624E+03  0.7561462E-02  0.1247343E+00
          2   -1    0    0  501    0  0.00000000000E+00  0.00000000000E+00  0.30940207537E+03  0.30940207537E+03  0.00000000000E+00 0.  1.
         -2   -1    0    0    0  501 -0.00000000000E+00 -0.00000000000E+00 -0.49348138089E+02  0.49348138089E+02  0.00000000000E+00 0. -1.
         25    2    1    2    0    0  0.13717071919E+02  0.55942650103E+02  0.16918300693E+03  0.21814643291E+03  0.12508892115E+03 0.  0.
          5    1    3    3  502    0  0.59929926797E+02  0.14196023946E+01  0.46034457415E+02  0.75698448243E+02  0.41800000000E+01 0.  1.
         -5    1    3    3    0  502 -0.46212854878E+02  0.54523047708E+02  0.12314854952E+03  0.14244798467E+03  0.41800000000E+01 0.  1.
        -11    1    1    2    0    0 -0.29092861967E+02  0.13528936551E+02  0.47349466388E+02  0.57196142430E+02  0.00000000000E+00 0.  1.
         11    1    1    2    0    0  0.15375790048E+02 -0.69471586654E+02  0.43521463965E+02  0.83407638124E+02  0.00000000000E+00 0. -1.
</event>
<event>
 7    1  0.2661133E-009  0.9660740E+02  0.7561462E-02  0.1287596E+00
         -1   -1    0    0    0  501 -0.00000000000E+00  0.00000000000E+00  0.20379703033E+03  0.20379703033E+03  0.00000000000E+00 0.  1.
          1   -1    0    0  501    0  0.00000000000E+00 -0.00000000000E+00 -0.81831307426E+02  0.81831307426E+02  0.00000000000E+00 0. -1.
         25    2    1    2    0    0 -0.27850933013E+02 -0.57984244763E+02  0.10403990094E+03  0.17495419598E+03  0.12508725991E+03 0.  0.
          5    1    3    3  502    0  0.37000141715E+02 -0.24565137114E+02 -0.37092910756E+01  0.44762570175E+02  0.41800000000E+01 0.  1.
         -5    1    3    3    0  502 -0.64851074728E+02 -0.33419107649E+02  0.10774919201E+03  0.13019162580E+03  0.41800000000E+01 0.  1.
        -11    1    1    2    0    0  0.36941120322E+02  0.35308835874E+02 -0.28282112967E+02  0.58405806007E+02  0.00000000000E+00 0. -1.
         11    1    1    2    0    0 -0.90901873093E+01  0.22675408888E+02  0.46207934930E+02  0.52268335769E+02  0.00000000000E+00 0.  1.
</event>
<event>
 7    1  0.2661133E-009  0.1718648E+03  0.7561462E-02  0.1175917E+00
          2   -1    0    0  501    0  0.00000000000E+00  0.00000000000E+00  0.77924905488E+02  0.77924905488E+02  0.00000000000E+00 0. -1.
         -2   -1    0    0    0  501 -0.00000000000E+00 -0.00000000000E+00 -0.46017563335E+03  0.46017563335E+03  0.00000000000E+00 0.  1.
         25    2    1    2    0    0 -0.14957697323E+03  0.40585984881E+02 -0.21183581022E+03  0.29076161623E+03  0.12508962344E+03 0.  0.
          5    1    3    3  502    0 -0.17341136214E+02 -0.14792965474E+02 -0.11593598504E+03  0.11822931895E+03  0.41800000000E+01 0. -1.
         -5    1    3    3    0  502 -0.13223583702E+03  0.55378950355E+02 -0.95899825173E+02  0.17253229727E+03  0.41800000000E+01 0. -1.
        -11    1    1    2    0    0  0.22763839585E+02 -0.44796257621E+02 -0.32024019910E+02  0.59585526269E+02  0.00000000000E+00 0. -1.
         11    1    1    2    0    0  0.12681313365E+03  0.42102727402E+01 -0.13839089774E+03  0.18775339634E+03  0.00000000000E+00 0.  1.
</event>
<event>
 7    1  0.2661133E-009  0.1997883E+03  0.7561462E-02  0.1149918E+00
         -1   -1    0    0    0  501 -0.00000000000E+00  0.00000000000E+00  0.72277394577E+02  0.72277394577E+02  0.00000000000E+00 0.  1.
          1   -1    0    0  501    0  0.00000000000E+00 -0.00000000000E+00 -0.61368183570E+03  0.61368183570E+03  0.00000000000E+00 0. -1.
         25    2    1    2    0    0 -0.49039904555E+02 -0.16269014566E+03 -0.37862682260E+03  0.43345000943E+03  0.12509054379E+03 0.  0.
          5    1    3    3  502    0 -0.88844234470E+02 -0.10178062011E+03 -0.27891995382E+03  0.30994581086E+03  0.41800000000E+01 0.  1.
         -5    1    3    3    0  502  0.39804329915E+02 -0.60909525543E+02 -0.99706868780E+02  0.12350419857E+03  0.41800000000E+01 0.  1.
        -11    1    1    2    0    0  0.73140684461E+02  0.96498471136E+02 -0.87353044100E+02  0.14930528781E+03  0.00000000000E+00 0.  1.
         11    1    1    2    0    0 -0.24100779906E+02  0.66191674521E+02 -0.75424574422E+02  0.10320393304E+03  0.00000000000E+00 0. -1.
</event>
<event>
 7    1  0.2661133E-009  0.1134591E+03  0.7561462E-02  0.1254295E+00
         -2   -1    0    0    0  501 -0.00000000000E+00  0.00000000000E+00  0.74783846341E+02  0.74783846341E+02  0.00000000000E+00 0.  1.
          2   -1    0    0  501    0  0.00000000000E+00 -0.00000000000E+00 -0.25984565592E+03  0.25984565592E+03  0.00000000000E+00 0. -1.
         25    2    1    2    0    0 -0.81111950367E+02  0.68407734384E+01 -0.13411004956E+03  0.20064602462E+03  0.12508947648E+03 0.  0.
          5    1    3    3  502    0 -0.20715333705E+02  0.58335448984E+02 -0.28000531813E+02  0.68070932420E+02  0.41800000000E+01 0. -1.
         -5    1    3    3    0  502 -0.60396616662E+02 -0.51494675546E+02 -0.10610951775E+03  0.13257509220E+03  0.41800000000E+01 0. -1.
        -11    1    1    2    0    0  0.40931716326E+02 -0.16395250732E+02  0.22661572128E+02  0.49575765241E+02  0.00000000000E+00 0.  1.
         11    1    1    2    0    0  0.40180234041E+02  0.95544772940E+01 -0.73613332142E+02  0.84407712402E+02  0.00000000000E+00 0. -1.
</event>
<event>
 7    1  0.2661133E-009  0.1825773E+03  0.7561462E-02  0.1165332E+00
         -3   -1    0    0    0  501 -0.00000000000E+00  0.00000000000E+00  0.21059616873E+03  0.21059616873E+03  0.00000000000E+00 0.  1.
          3   -1    0    0  501    0  0.00000000000E+00 -0.00000000000E+00 -0.19132158422E+03  0.19132158422E+03  0.00000000000E+00 0. -1.
         25    2    1    2    0    0 -0.15931475602E+03 -0.86324945237E+01  0.65045195593E+02  0.21291654432E+03  0.12508743314E+03 0.  0.
          5    1    3    3  502    0 -0.17838902605E+03 -0.41471390358E+01  0.43938638507E+02  0.18381490617E+03  0.41800000000E+01 0. -1.
         -5    1    3    3    0  502  0.19074270032E+02 -0.44853554879E+01  0.21106557086E+02  0.29101638152E+02  0.41800000000E+01 0. -1.
        -11    1    1    2    0    0  0.95490622184E+01  0.13795939750E+02 -0.34935094806E+02  0.38755301469E+02  0.00000000000E+00 0. -1.
         11    1    1    2    0    0  0.14976569380E+03 -0.51634452267E+01 -0.10835516277E+02  0.15024590716E+03  0.00000000000E+00 0.  1.
</event>
<event>
 7    1  0.2661133E-009  0.1169930E+03  0.7561462E-02  0.1248142E+00
         -1   -1    0    0    0  501 -0.00000000000E+00  0.00000000000E+00  0.12058010782E+03  0.12058010782E+03  0.00000000000E+00 0.  1.
          1   -1    0    0  501    0  0.00000000000E+00 -0.00000000000E+00 -0.13905900812E+03  0.13905900812E+03  0.00000000000E+00 0. -1.
         25    2    1    2    0    0  0.31127862904E+02 -0.50863028476E+02  0.25940499967E+02  0.14098013479E+03  0.12508595985E+03 0.  0.
          5    1    3    3  502    0  0.71801809618E+02 -0.42881534401E+02  0.45118160647E+02  0.95118067038E+02  0.41800000000E+01 0.  1.
         -5    1    3    3    0  502 -0.40673946714E+02 -0.79814940756E+01 -0.19177660680E+02  0.45862067748E+02  0.41800000000E+01 0.  1.
        -11    1    1    2    0    0  0.10251364498E+02 -0.22295578926E+02 -0.23031290142E+01  0.24647265913E+02  0.00000000000E+00 0.  1.
         11    1    1    2    0    0 -0.41379227402E+02  0.73158607402E+02 -0.42116271251E+02  0.94011715236E+02  0.00000000000E+00 0. -1.
</event>
<event>
 7    1  0.2661133E-009  0.1631304E+03  0.7561462E-02  0.1185207E+00
          2   -1    0    0  501    0  0.00000000000E+00  0.00000000000E+00  0.48401167994E+03  0.48401167994E+03  0.00000000000E+00 0. -1.
         -2   -1    0    0    0  501 -0.00000000000E+00 -0.00000000000E+00 -0.67115338916E+02  0.67115338916E+02  0.00000000000E+00 0.  1.
         25    2    1    2    0    0 -0.11398079429E+03 -0.76804112469E+02  0.28247504510E+03  0.33813026783E+03  0.12509769685E+03 0.  0.
          5    1    3    3  502    0 -0.13463358975E+03 -0.66534788503E+02  0.18728371567E+03  0.24009528135E+03  0.41800000000E+01 0.  1.
         -5    1    3    3    0  502  0.20652795463E+02 -0.10269323967E+02  0.95191329429E+02  0.98034986478E+02  0.41800000000E+01 0.  1.
        -11    1    1    2    0    0  0.64547015719E+02  0.41132097199E+01  0.98927894829E+02  0.11819460270E+03  0.00000000000E+00 0. -1.
         11    1    1    2    0    0  0.49433778572E+02  0.72690902750E+02  0.35493401097E+02  0.94802148329E+02  0.00000000000E+00 0.  1.
</event>
<event>
 7    1  0.2661133E-009  0.1594001E+03  0.7561462E-02  0.1189376E+00
          1   -1    0    0  501    0  0.00000000000E+00  0.00000000000E+00  0.84788301707E+03  0.84788301707E+03  0.00000000000E+00 0. -1.
         -1   -1    0    0    0  501 -0.00000000000E+00 -0.00000000000E+00 -0.32189194575E+02  0.32189194575E+02  0.00000000000E+00 0.  1.
         25    2    1    2    0    0  0.45635715687E+02  0.11121132687E+03  0.52500984876E+03  0.55293169193E+03  0.12509011501E+03 0.  0.
          5    1    3    3  502    0 -0.30328512203E+02 -0.46022262588E+01  0.14948193747E+03  0.15265425369E+03  0.41800000000E+01 0.  1.
         -5    1    3    3    0  502  0.75964227890E+02  0.11581355313E+03  0.37552791128E+03  0.40027743823E+03  0.41800000000E+01 0.  1.
        -11    1    1    2    0    0 -0.58709022802E+02 -0.11995149671E+03  0.24835250455E+03  0.28198240625E+03  0.00000000000E+00 0.  1.
         11    1    1    2    0    0  0.13073307115E+02  0.87401698430E+01  0.42331469190E+02  0.45158113464E+02  0.00000000000E+00 0. -1.
</event>
<event>
 7    1  0.2661133E-009  0.1141137E+03  0.7561462E-02  0.1253136E+00
          2   -1    0    0  501    0  0.00000000000E+00  0.00000000000E+00  0.11304967827E+04  0.11304967827E+04  0.00000000000E+00 0.  1.
         -2   -1    0    0    0  501 -0.00000000000E+00 -0.00000000000E+00 -0.18810132075E+02  0.18810132075E+02  0.00000000000E+00 0. -1.
         25    2    1    2    0    0  0.40214782028E+02 -0.48833371552E+02  0.89768364384E+03  0.90856216619E+03  0.12508940220E+03 0.  0.
          5    1    3    3  502    0 -0.13907511479E+02 -0.63312140168E+02  0.70125980532E+03  0.70426176449E+03  0.41800000000E+01 0.  1.
         -5    1    3    3    0  502  0.54122293507E+02  0.14478768616E+02  0.19642383853E+03  0.20430040170E+03  0.41800000000E+01 0.  1.
        -11    1    1    2    0    0 -0.24384276681E+02  0.73690416012E+02  0.17821383742E+03  0.19438374986E+03  0.00000000000E+00 0.  1.
         11    1    1    2    0    0 -0.15830505347E+02 -0.24857044461E+02  0.35789169361E+02  0.46360998721E+02  0.00000000000E+00 0. -1.
</event>
<event>
 7    1  0.2661133E-009  0.1016922E+03  0.7561462E-02  0.1276777E+00
         -2   -1    0    0    0  501 -0.00000000000E+00  0.00000000000E+00  0.22187608450E+02  0.22187608450E+02  0.00000000000E+00 0.  1.
          2   -1    0    0  501    0  0.00000000000E+00 -0.00000000000E+00 -0.87010415421E+03  0.87010415421E+03  0.00000000000E+00 0. -1.
         25    2    1    2    0    0 -0.84653406266E+02  0.19461587770E+02 -0.52279924416E+03  0.54452884791E+03  0.12509062284E+03 0.  0.
          5    1    3    3  502    0 -0.32568433838E+02  0.17859017030E+02 -0.27316427254E+02  0.46295863421E+02  0.41800000000E+01 0. -1.
         -5    1    3    3    0  502 -0.52084972428E+02  0.16025707405E+01 -0.49548281691E+03  0.49823298449E+03  0.41800000000E+01 0. -1.
        -11    1    1    2    0    0  0.79566120297E+02 -0.42452005221E+02 -0.18649855842E+03  0.20715852032E+03  0.00000000000E+00 0.  1.
         11    1    1    2    0    0  0.50872859697E+01  0.22990417450E+02 -0.13861874318E+03  0.14060439443E+03  0.00000000000E+00 0. -1.
</event>
<event>
 7    1  0.2661133E-009  0.8993074E+02  0.7561462E-02  0.1303020E+00
         -2   -1    0    0    0  501 -0.00000000000E+00  0.00000000000E+00  0.53872571718E+02  0.53872571718E+02  0.00000000000E+00 0.  1.
          2   -1    0    0  501    0  0.00000000000E+00 -0.00000000000E+00 -0.22243242125E+03  0.22243242125E+03  0.00000000000E+00 0. -1.
         25    2    1    2    0    0 -0.10096820001E+02  0.12016498043E+02 -0.79607206786E+02  0.14910183741E+03  0.12509080121E+03 0.  0.
          5    1    3    3  502    0 -0.28475171038E+02 -0.31379818020E+02  0.13495788783E+02  0.44666957133E+02  0.41800000000E+01 0. -1.
         -5    1    3    3    0  502  0.18378351037E+02  0.43396316063E+02 -0.93102995569E+02  0.10443488028E+03  0.41800000000E+01 0. -1.
        -11    1    1    2    0    0 -0.21809364661E+02  0.30075974629E+02 -0.27817206087E+02  0.46411308873E+02  0.00000000000E+00 0.  1.
         11    1    1    2    0    0  0.31906184663E+02 -0.42092472672E+02 -0.61135436661E+02  0.80791846687E+02  0.00000000000E+00 0. -1.
</event>
<event>
 7    1  0.2661133E-009  0.1039018E+03  0.7561462E-02  0.1272299E+00
         -1   -1    0    0    0  501 -0.00000000000E+00  0.00000000000E+00  0.31635099100E+02  0.31635099100E+02  0.00000000000E+00 0.  1.
          1   -1    0    0  501    0  0.00000000000E+00 -0.00000000000E+00 -0.55114117085E+03  0.55114117085E+03  0.00000000000E+00 0. -1.
         25    2    1    2    0    0 -0.97270014208E+01  0.27662472801E+02 -0.43825666497E+03  0.45670148686E+03  0.12509003460E+03 0.  0.
          5    1    3    3  502    0 -0.15373781540E+02 -0.40225369118E+02 -0.29338538455E+03  0.29655840866E+03  0.41800000000E+01 0. -1.
         -5    1    3    3    0  502  0.56467801188E+01  0.67887841919E+02 -0.14487128041E+03  0.16014307820E+03  0.41800000000E+01 0. -1.
        -11    1    1    2    0    0 -0.98945738733E+01  0.31993020424E+02 -0.31213360209E+02  0.45779141576E+02  0.00000000000E+00 0.  1.
         11    1    1    2    0    0  0.19621575294E+02 -0.59655493224E+02 -0.50036046574E+02  0.80295641511E+02  0.00000000000E+00 0. -1.
</event>
<event>
 7    1  0.2661133E-009  0.2307866E+03  0.7561462E-02  0.1126087E+00
          1   -1    0    0  501    0  0.00000000000E+00  0.00000000000E+00  0.26926353618E+03  0.26926353618E+03  0.00000000000E+00 0. -1.
         -1   -1    0    0    0  501 -0.00000000000E+00 -0.00000000000E+00 -0.21409962684E+03  0.21409962684E+03  0.00000000000E+00 0.  1.
         25    2    1    2    0    0 -0.19510342704E+03 -0.85228770882E+02  0.44269812023E+02  0.25087126122E+03  0.12508909954E+03 0.  0.
          5    1    3    3  502    0 -0.20977128978E+03 -0.93173780258E+02  0.43507176732E+02  0.23365721510E+03  0.41800000000E+01 0. -1.
         -5    1    3    3    0  502  0.14667862738E+02  0.79450093759E+01  0.76263529069E+00  0.17214046122E+02  0.41800000000E+01 0. -1.
        -11    1    1    2    0    0  0.62024821664E+02  0.41897806612E+02  0.46448991138E+02  0.88090938689E+02  0.00000000000E+00 0. -1.
         11    1    1    2    0    0  0.13307860537E+03  0.43330964269E+02 -0.35554893818E+02  0.14440096311E+03  0.00000000000E+00 0.  1.
</event>
<event>
 7    1  0.2661133E-009  0.1512276E+03  0.7561462E-02  0.1198973E+00
         -2   -1    0    0    0  501 -0.00000000000E+00  0.00000000000E+00  0.28093128643E+03  0.28093128643E+03  0.00000000000E+00 0.  1.
          2   -1    0    0  501    0  0.00000000000E+00 -0.00000000000E+00 -0.97795692045E+02  0.97795692045E+02  0.00000000000E+00 0. -1.
         25    2    1    2    0    0  0.20997668313E+02 -0.12081081395E+03  0.12581260504E+03  0.21566767754E+03  0.12509029022E+03 0.  0.
          5    1    3    3  502    0  0.61874342016E+02 -0.29959310032E+02  0.81075735288E+02  0.10638017536E+03  0.41800000000E+01 0. -1.
         -5    1    3    3    0  502 -0.40876673702E+02 -0.90851503914E+02  0.44736869750E+02  0.10928750217E+03  0.41800000000E+01 0. -1.
        -11    1    1    2    0    0 -0.30195315491E+02  0.29894079273E+02 -0.16503337244E+02  0.45582597484E+02  0.00000000000E+00 0. -1.
         11    1    1    2    0    0  0.91976471782E+01  0.90916734672E+02  0.73826326593E+02  0.11747670346E+03  0.00000000000E+00 0.  1.
</event>
<event>
 7    1  0.2661133E-009  0.1316032E+03  0.7561462E-02  0.1225096E+00
         -3   -1    0    0    0  501 -0.00000000000E+00  0.00000000000E+00  0.27222681655E+02  0.27222681655E+02  0.00000000000E+00 0.  1.
          3   -1    0    0  501    0  0.00000000000E+00 -0.00000000000E+00 -0.78968155097E+03  0.78968155097E+03  0.00000000000E+00 0. -1.
         25    2    1    2    0    0  0.82378339422E+02  0.40152370762E+02 -0.51792662221E+03  0.54064161641E+03  0.12508784002E+03 0.  0.
          5    1    3    3  502    0  0.69137113414E+02  0.80664589291E+02 -0.29346803446E+03  0.31213406745E+03  0.41800000000E+01 0.  1.
         -5    1    3    3    0  502  0.13241226008E+02 -0.40512218528E+02 -0.22445858775E+03  0.22850754896E+03  0.41800000000E+01 0.  1.
        -11    1    1    2    0    0 -0.64988257298E+01  0.17561454373E+02 -0.10877654621E+03  0.11037652115E+03  0.00000000000E+00 0. -1.
         11    1    1    2    0    0 -0.75879513692E+02 -0.57713825136E+02 -0.13575570090E+03  0.16588609507E+03  0.00000000000E+00 0.  1.
</event>
<event>
 7    1  0.2661133E-009  0.8794941E+02  0.7561462E-02  0.1307895E+00
          4   -1    0    0  501    0  0.00000000000E+00  0.00000000000E+00  0.36659330810E+03  0.36659330810E+03  0.00000000000E+00 0. -1.
         -4   -1    0    0    0  501 -0.00000000000E+00 -0.00000000000E+00 -0.57200937600E+02  0.57200937600E+02  0.00000000000E+00 0.  1.
         25    2    1    2    0    0 -0.27684210985E+02 -0.35274402336E+02  0.29177715158E+03  0.32061252572E+03  0.12509111266E+03 0.  0.
          5    1    3    3  502    0 -0.49981423661E+02 -0.94935183416E+01  0.27953070554E+03  0.28415340460E+03  0.41800000000E+01 0.  1.
         -5    1    3    3    0  502  0.22297212676E+02 -0.25780883994E+02  0.12246446037E+02  0.36459121124E+02  0.41800000000E+01 0.  1.
        -11    1    1    2    0    0 -0.27647158986E+02  0.77535740149E+01  0.28472851011E+02  0.40437440011E+02  0.00000000000E+00 0. -1.
         11    1    1    2    0    0  0.55331369971E+02  0.27520828321E+02 -0.10857632089E+02  0.62744279970E+02  0.00000000000E+00 0.  1.
</event>
<event>
 7    1  0.2661133E-009  0.1803777E+03  0.7561462E-02  0.1167438E+00
         -2   -1    0    0    0  501 -0.00000000000E+00  0.00000000000E+00  0.55863663983E+02  0.55863663983E+02  0.00000000000E+00 0.  1.
          2   -1    0    0  501    0  0.00000000000E+00 -0.00000000000E+00 -0.16980906847E+04  0.16980906847E+04  0.00000000000E+00 0. -1.
         25    2    1    2    0    0 -0.17005851063E+02 -0.17412304618E+03 -0.14976958802E+04  0.15130593849E+04  0.12509084156E+03 0.  0.
          5    1    3    3  502    0  0.22693089501E+02 -0.86321425471E+02 -0.34668166351E+03  0.35801119119E+03  0.41800000000E+01 0. -1.
         -5    1    3    3    0  502 -0.39698940564E+02 -0.87801620708E+02 -0.11510142167E+04  0.11550481937E+04  0.41800000000E+01 0. -1.
        -11    1    1    2    0    0  0.12839462982E+02  0.12806191708E+03 -0.54676647012E+02  0.13983648360E+03  0.00000000000E+00 0.  1.
         11    1    1    2    0    0  0.41663880810E+01  0.46061129095E+02 -0.89854493499E+02  0.10105848012E+03  0.00000000000E+00 0. -1.
</event>
<event>
 7    1  0.2661133E-009  0.1620772E+03  0.7561462E-02  0.1186371E+00
          1   -1    0    0  501    0  0.00000000000E+00  0.00000000000E+00  0.69166068097E+03  0.69166068097E+03  0.00000000000E+00 0. -1.
         -1   -1    0    0    0  501 -0.00000000000E+00 -0.00000000000E+00 -0.53514604853E+02  0.53514604853E+02  0.00000000000E+00 0.  1.
         25    2    1    2    0    0  0.55338716158E+02  0.11275962741E+03  0.52207609292E+03  0.55135093284E+03  0.12508915723E+03 0.  0.
          5    1    3    3  502    0 -0.19185650390E+02  0.99549766563E+02  0.29907809971E+03  0.31582182846E+03  0.41800000000E+01 0. -1.
         -5    1    3    3    0  502  0.74524366548E+02  0.13209860851E+02  0.22299799321E+03  0.23552910438E+03  0.41800000000E+01 0. -1.
        -11    1    1    2    0    0  0.17447837766E+02 -0.41521182437E+02  0.67106261003E+02  0.80818846190E+02  0.00000000000E+00 0. -1.
         11    1    1    2    0    0 -0.72786553924E+02 -0.71238444977E+02  0.48963722188E+02  0.11300550679E+03  0.00000000000E+00 0.  1.
</event>
<event>
 7    1  0.2661133E-009  0.8380194E+02  0.7561462E-02  0.1318596E+00
          2   -1    0    0  501    0  0.00000000000E+00  0.00000000000E+00  0.28553918161E+03  0.28553918161E+03  0.00000000000E+00 0. -1.
         -2   -1    0    0    0  501 -0.00000000000E+00 -0.00000000000E+00 -0.47286803377E+02  0.47286803377E+02  0.00000000000E+00 0.  1.
         25    2    1    2    0    0 -0.73787107561E+01 -0.12880693439E+02  0.75335424184E+02  0.14677656129E+03  0.12509026809E+03 0.  0.
          5    1    3    3  502    0 -0.22231203950E+02 -0.51826485513E+02 -0.43872281818E+01  0.56717997151E+02  0.41800000000E+01 0.  1.
         -5    1    3    3    0  502  0.14852493194E+02  0.38945792075E+02  0.79722652366E+02  0.90058564138E+02  0.41800000000E+01 0.  1.
        -11    1    1    2    0    0 -0.21476877588E+02 -0.17174998297E+02  0.12939268077E+02  0.30391799812E+02  0.00000000000E+00 0.  1.
         11    1    1    2    0    0  0.28855588345E+02  0.30055691735E+02  0.14997768597E+03  0.15565762389E+03  0.00000000000E+00 0. -1.
</event>
<event>
 7    1  0.2661133E-009  0.1038341E+03  0.7561462E-02  0.1272434E+00
         -1   -1    0    0    0  501 -0.00000000000E+00  0.00000000000E+00  0.53962968100E+03  0.53962968100E+03  0.00000000000E+00 0.  1.
          1   -1    0    0  501    0  0.00000000000E+00 -0.00000000000E+00 -0.28298314347E+02  0.28298314347E+02  0.00000000000E+00 0. -1.
         25    2    1    2    0    0  0.38705852724E+02 -0.43039386178E+02  0.25506148817E+03  0.28992221582E+03  0.12509195289E+03 0.  0.
          5    1    3    3  502    0  0.62460182417E+02 -0.17816500349E+02  0.50431953317E+02  0.82338061597E+02  0.41800000000E+01 0. -1.
         -5    1    3    3    0  502 -0.23754329693E+02 -0.25222885830E+02  0.20462953486E+03  0.20758415422E+03  0.41800000000E+01 0.  1.
        -11    1    1    2    0    0 -0.49266117080E+02  0.66029750211E+02  0.20050194974E+03  0.21676741004E+03  0.00000000000E+00 0. -1.
         11    1    1    2    0    0  0.10560264356E+02 -0.22990364033E+02  0.55767928739E+02  0.61238369488E+02  0.00000000000E+00 0.  1.
</event>
<event>
 7    1  0.2661133E-009  0.9221681E+02  0.7561462E-02  0.1297570E+00
          2   -1    0    0  501    0  0.00000000000E+00  0.00000000000E+00  0.63110060259E+03  0.63110060259E+03  0.00000000000E+00 0. -1.
         -2   -1    0    0    0  501 -0.00000000000E+00 -0.00000000000E+00 -0.25147029176E+02  0.25147029176E+02  0.00000000000E+00 0.  1.
         25    2    1    2    0    0 -0.14087481610E+02 -0.41457258302E+02  0.21438219584E+03  0.25203976652E+03  0.12508859504E+03 0.  0.
          5    1    3    3  502    0 -0.18657959107E+02 -0.61421237949E+02  0.38603469555E+02  0.75022584406E+02  0.41800000000E+01 0. -1.
         -5    1    3    3    0  502  0.45704774969E+01  0.19963979647E+02  0.17577872629E+03  0.17701718211E+03  0.41800000000E+01 0. -1.
        -11    1    1    2    0    0  0.36378525181E+02  0.60026911748E+02  0.30224716477E+03  0.31029014783E+03  0.00000000000E+00 0.  1.
         11    1    1    2    0    0 -0.22291043571E+02 -0.18569653446E+02  0.89324212796E+02  0.93917717414E+02  0.00000000000E+00 0. -1.
</event>
<event>
 7    1  0.2661133E-009  0.1187735E+03  0.7561462E-02  0.1245134E+00
         -1   -1    0    0    0  501 -0.00000000000E+00  0.00000000000E+00  0.14760165155E+03  0.14760165155E+03  0.00000000000E+00 0.  1.
          1   -1    0    0  501    0  0.00000000000E+00 -0.00000000000E+00 -0.10801235146E+03  0.10801235146E+03  0.00000000000E+00 0. -1.
         25    2    1    2    0    0  0.90551832715E+01 -0.64862142356E+02  0.17746010696E+02  0.14230699471E+03  0.12508903227E+03 0.  0.
          5    1    3    3  502    0 -0.25188782297E+02 -0.92526476803E+02  0.19932491809E+02  0.98032649117E+02  0.41800000000E+01 0.  1.
         -5    1    3    3    0  502  0.34243965569E+02  0.27664334446E+02 -0.21864811122E+01  0.44274345595E+02  0.41800000000E+01 0.  1.
        -11    1    1    2    0    0 -0.40660869813E+02  0.31953152902E+02  0.38777865631E+02  0.64637707085E+02  0.00000000000E+00 0.  1.
         11    1    1    2    0    0  0.31605686541E+02  0.32908989454E+02 -0.16934576240E+02  0.48669301218E+02  0.00000000000E+00 0. -1.
</event>
<event>
 7    1  0.2661133E-009  0.1731478E+03  0.7561462E-02  0.1174604E+00
          2   -1    0    0  501    0  0.00000000000E+00  0.00000000000E+00  0.51721894878E+03  0.51721894878E+03  0.00000000000E+00 0. -1.
         -2   -1    0    0    0  501 -0.00000000000E+00 -0.00000000000E+00 -0.83242531720E+02  0.83242531720E+02  0.00000000000E+00 0.  1.
         25    2    1    2    0    0  0.49360344585E+02  0.14567472040E+03  0.35060488716E+03  0.40277858498E+03  0.12509689781E+03 0.  0.
          5    1    3    3  502    0  0.61632354058E+01 -0.76915263700E+01  0.13095495591E+03  0.13139184878E+03  0.41800000000E+01 0.  1.
         -5    1    3    3    0  502  0.43197109179E+02  0.15336624677E+03  0.21964993125E+03  0.27138673621E+03  0.41800000000E+01 0.  1.
        -11    1    1    2    0    0 -0.65023455679E+02 -0.57981034411E+02  0.59365363969E+02  0.10542341571E+03  0.00000000000E+00 0.  1.
         11    1    1    2    0    0  0.15663111094E+02 -0.87693685989E+02  0.24006165927E+02  0.92259479806E+02  0.00000000000E+00 0. -1.
</event>
<event>
 7    1  0.2661133E-009  0.9016037E+02  0.7561462E-02  0.1302464E+00
          1   -1    0    0  501    0  0.00000000000E+00  0.00000000000E+00  0.66538227136E+03  0.66538227136E+03  0.00000000000E+00 0. -1.
         -1   -1    0    0    0  501 -0.00000000000E+00 -0.00000000000E+00 -0.23235274240E+02  0.23235274240E+02  0.00000000000E+00 0.  1.
         25    2    1    2    0    0  0.16790367780E+02  0.17250318454E+02  0.51551901644E+03  0.53102418442E+03  0.12508932082E+03 0.  0.
          5    1    3    3  502    0 -0.22791739426E+02 -0.21418819593E+02  0.41505303066E+03  0.41625078964E+03  0.41800000000E+01 0. -1.
         -5    1    3    3    0  502  0.39582107206E+02  0.38669138048E+02  0.10046598579E+03  0.11477339477E+03  0.41800000000E+01 0. -1.
        -11    1    1    2    0    0  0.37394082427E+02 -0.90206513282E+01  0.44028231287E+02  0.58465158011E+02  0.00000000000E+00 0. -1.
         11    1    1    2    0    0 -0.54184450207E+02 -0.82296671261E+01  0.82599749389E+02  0.99128203173E+02  0.00000000000E+00 0.  1.
</event>
<event>
 7    1  0.2661133E-009  0.6951220E+02  0.7561462E-02  0.1361760E+00
          1   -1    0    0  501    0  0.00000000000E+00  0.00000000000E+00  0.43675584471E+02  0.43675584471E+02  0.00000000000E+00 0. -1.
         -1   -1    0    0    0  501 -0.00000000000E+00 -0.00000000000E+00 -0.61477841727E+03  0.61477841727E+03  0.00000000000E+00 0.  1.
         25    2    1    2    0    0 -0.41752188778E+02  0.67862394700E+00 -0.53721667279E+03  0.55316655055E+03  0.12509106013E+03 0.  0.
          5    1    3    3  502    0 -0.64112238300E+02  0.19293786313E+02 -0.50547017540E+03  0.50990214738E+03  0.41800000000E+01 0.  1.
         -5    1    3    3    0  502  0.22360049522E+02 -0.18615162366E+02 -0.31746497396E+02  0.43264403167E+02  0.41800000000E+01 0.  1.
        -11    1    1    2    0    0  0.32026283270E+02  0.29627622147E+01  0.27934573121E+02  0.42600483043E+02  0.00000000000E+00 0. -1.
         11    1    1    2    0    0  0.97259055072E+01 -0.36413861617E+01 -0.61820733134E+02  0.62686968154E+02  0.00000000000E+00 0.  1.
</event>
<event>
 7    1  0.2661133E-009  0.9255299E+02  0.7561462E-02  0.1296784E+00
         -2   -1    0    0    0  501 -0.00000000000E+00  0.00000000000E+00  0.17603529381E+02  0.17603529381E+02  0.00000000000E+00 0. -1.
          2   -1    0    0  501    0  0.00000000000E+00 -0.00000000000E+00 -0.10120256869E+04  0.10120256869E+04  0.00000000000E+00 0.  1.
         25    2    1    2    0    0  0.71318753440E+02  0.67803259458E+01 -0.67238425300E+03  0.68766272499E+03  0.12508837777E+03 0.  0.
          5    1    3    3  502    0  0.19428066055E+02  0.32938063058E+02 -0.52705014579E+02  0.65250721915E+02  0.41800000000E+01 0.  1.
         -5    1    3    3    0  502  0.51890687385E+02 -0.26157737112E+02 -0.61967923842E+03  0.62241200308E+03  0.41800000000E+01 0.  1.
        -11    1    1    2    0    0 -0.26686456670E+02  0.22576130598E+02 -0.33128456862E+02  0.48159560800E+02  0.00000000000E+00 0.  1.
         11    1    1    2    0    0 -0.44632296770E+02 -0.29356456544E+02 -0.28890944762E+03  0.29380693045E+03  0.00000000000E+00 0. -1.
</event>
<event>
 7    1  0.2661133E-009  0.1198888E+03  0.7561462E-02  0.1243281E+00
          2   -1    0    0  501    0  0.00000000000E+00  0.00000000000E+00  0.53150613860E+03  0.53150613860E+03  0.00000000000E+00 0. -1.
         -2   -1    0    0    0  501 -0.00000000000E+00 -0.00000000000E+00 -0.36680859406E+02  0.36680859406E+02  0.00000000000E+00 0.  1.
         25    2    1    2    0    0  0.70145735173E+02  0.43116772146E+02  0.20497392564E+03  0.25385330987E+03  0.12509081715E+03 0.  0.
          5    1    3    3  502    0  0.31069222159E+02  0.83850997729E+02  0.15158733985E+03  0.17604681306E+03  0.41800000000E+01 0.  1.
         -5    1    3    3    0  502  0.39076513014E+02 -0.40734225583E+02  0.53386585795E+02  0.77806496811E+02  0.41800000000E+01 0.  1.
        -11    1    1    2    0    0 -0.26858063462E+02 -0.42607225600E+02  0.51320820851E+02  0.71906591486E+02  0.00000000000E+00 0.  1.
         11    1    1    2    0    0 -0.43287671711E+02 -0.50954654579E+00  0.23853053270E+03  0.24242709665E+03  0.00000000000E+00 0. -1.
</event>
<event>
 7    1  0.2661133E-009  0.1071700E+03  0.7561462E-02  0.1265902E+00
         -2   -1    0    0    0  501 -0.00000000000E+00  0.00000000000E+00  0.14969609222E+03  0.14969609222E+03  0.00000000000E+00 0.  1.
          2   -1    0    0  501    0  0.00000000000E+00 -0.00000000000E+00 -0.11640570089E+03  0.11640570089E+03  0.00000000000E+00 0. -1.
         25    2    1    2    0    0  0.31066321720E+02 -0.61813498692E+02  0.36486806696E+02  0.14752581657E+03  0.12508618839E+03 0.  0.
          5    1    3    3  502    0 -0.39109398695E+02 -0.43493980084E+02  0.45633397925E+02  0.74304446543E+02  0.41800000000E+01 0.  1.
         -5    1    3    3    0  502  0.70175720415E+02 -0.18319518608E+02 -0.91465912293E+01  0.73221370029E+02  0.41800000000E+01 0.  1.
        -11    1    1    2    0    0 -0.30168751971E+02  0.10820696537E+02  0.40338399062E+02  0.51521136516E+02  0.00000000000E+00 0.  1.
         11    1    1    2    0    0 -0.89756974909E+00  0.50992802155E+02 -0.43534814423E+02  0.67054840018E+02  0.00000000000E+00 0. -1.
</event>
<event>
 7    1  0.3787012E-009  0.1289124E+03  0.7561462E-02  0.1229079E+00
         -2   -1    0    0    0  501 -0.00000000000E+00  0.00000000000E+00  0.17342577286E+02  0.17342577286E+02  0.00000000000E+00 0.  1.
          2   -1    0    0  501    0  0.00000000000E+00 -0.00000000000E+00 -0.11348395240E+04  0.11348395240E+04  0.00000000000E+00 0. -1.
         25    2    1    2    0    0 -0.84042140582E+02  0.26129433908E+02 -0.64803302619E+03  0.66583769352E+03  0.12508877792E+03 0.  0.
          5    1    3    3  502    0 -0.59149778325E+02  0.75466308567E+02 -0.45469737561E+03  0.46471608084E+03  0.41800000000E+01 0. -1.
         -5    1    3    3    0  502 -0.24892362257E+02 -0.49336874659E+02 -0.19333565058E+03  0.20112161267E+03  0.41800000000E+01 0. -1.
        -11    1    1    2    0    0  0.14472496103E+02 -0.33479355961E+02 -0.54848783005E+02  0.65868880484E+02  0.00000000000E+00 0.  1.
         11    1    1    2    0    0  0.69569644479E+02  0.73499220527E+01 -0.41461513747E+03  0.42047552724E+03  0.00000000000E+00 0. -1.
</event>
<event>
 7    1  0.2661133E-009  0.1452496E+03  0.7561462E-02  0.1206435E+00
          2   -1    0    0  501    0  0.00000000000E+00  0.00000000000E+00  0.65470352226E+02  0.65470352226E+02  0.00000000000E+00 0.  1.
         -2   -1    0    0    0  501 -0.00000000000E+00 -0.00000000000E+00 -0.86416960580E+03  0.86416960580E+03  0.00000000000E+00 0. -1.
         25    2    1    2    0    0 -0.72723956840E+02  0.10475074002E+03 -0.74228369546E+03  0.76347433147E+03  0.12508588585E+03 0.  0.
          5    1    3    3  502    0  0.90344142529E+01  0.40504168402E+02 -0.47215500161E+03  0.47399369853E+03  0.41800000000E+01 0.  1.
         -5    1    3    3    0  502 -0.81758371093E+02  0.64246571623E+02 -0.27012869385E+03  0.28948063294E+03  0.41800000000E+01 0.  1.
        -11    1    1    2    0    0  0.71752512312E+02 -0.44426663929E+02 -0.12305638068E+01  0.84401811463E+02  0.00000000000E+00 0.  1.
         11    1    1    2    0    0  0.97144452770E+00 -0.60324076095E+02 -0.55184994306E+02  0.81763815088E+02  0.00000000000E+00 0. -1.
</event>
<event>
 7    1  0.2661133E-009  0.9856199E+02  0.7561462E-02  0.1283349E+00
         -1   -1    0    0    0  501 -0.00000000000E+00  0.00000000000E+00  0.63958852861E+03  0.63958852861E+03  0.00000000000E+00 0.  1.
          1   -1    0    0  501    0  0.00000000000E+00 -0.00000000000E+00 -0.21993955499E+02  0.21993955499E+02  0.00000000000E+00 0. -1.
         25    2    1    2    0    0 -0.49979208221E+01 -0.33834642101E+02  0.42842537084E+03  0.44761962385E+03  0.12508104194E+03 0.  0.
          5    1    3    3  502    0  0.20413456909E+02 -0.58281519541E+02  0.10229921073E+03  0.11956607236E+03  0.41800000000E+01 0. -1.
         -5    1    3    3    0  502 -0.25411377731E+02  0.24446877440E+02  0.32612616011E+03  0.32805355149E+03  0.41800000000E+01 0. -1.
        -11    1    1    2    0    0 -0.23068144817E+02  0.58167934807E+02  0.12596074775E+03  0.14064763744E+03  0.00000000000E+00 0.  1.
         11    1    1    2    0    0  0.28066065639E+02 -0.24333292706E+02  0.63208454518E+02  0.73315222818E+02  0.00000000000E+00 0. -1.
</event>
<event>
 7    1  0.2661133E-009  0.1092517E+03  0.7561462E-02  0.1261962E+00
         -2   -1    0    0    0  501 -0.00000000000E+00  0.00000000000E+00  0.36353604126E+03  0.36353604126E+03  0.00000000000E+00 0. -1.
          2   -1    0    0  501    0  0.00000000000E+00 -0.00000000000E+00 -0.36944593554E+02  0.36944593554E+02  0.00000000000E+00 0.  1.
         25    2    1    2    0    0 -0.21026085234E+02  0.19102566808E+02  0.13701526873E+03  0.18768938353E+03  0.12508843474E+03 0.  0.
          5    1    3    3  502    0  0.43435736034E+02 -0.24334013372E+02  0.61487902167E+02  0.79227784801E+02  0.41800000000E+01 0.  1.
         -5    1    3    3    0  502 -0.64461821269E+02  0.43436580180E+02  0.75527366564E+02  0.10846159873E+03  0.41800000000E+01 0.  1.
        -11    1    1    2    0    0  0.17568026416E+02 -0.53405451474E+02  0.78984553593E+02  0.96950180534E+02  0.00000000000E+00 0.  1.
         11    1    1    2    0    0  0.34580588184E+01  0.34302884666E+02  0.11059162538E+03  0.11584107074E+03  0.00000000000E+00 0. -1.
</event>
<event>
 7    1  0.2661133E-009  0.1383625E+03  0.7561462E-02  0.1215549E+00
         -1   -1    0    0    0  501 -0.00000000000E+00  0.00000000000E+00  0.15260457731E+02  0.15260457731E+02  0.00000000000E+00 0.  1.
          1   -1    0    0  501    0  0.00000000000E+00 -0.00000000000E+00 -0.17869954566E+04  0.17869954566E+04  0.00000000000E+00 0. -1.
         25    2    1    2    0    0 -0.90233450183E+02 -0.25287513017E+02 -0.13902087960E+04  0.13989670467E+04  0.12508703982E+03 0.  0.
          5    1    3    3  502    0  0.14997516585E+02 -0.42780857926E+02 -0.28488260318E+03  0.28849730900E+03  0.41800000000E+01 0. -1.
         -5    1    3    3    0  502 -0.10523096677E+03  0.17493344908E+02 -0.11053261928E+04  0.11104697377E+04  0.41800000000E+01 0. -1.
        -11    1    1    2    0    0  0.82125918013E+02 -0.14881420283E+02 -0.19156019127E+03  0.20895317647E+03  0.00000000000E+00 0. -1.
         11    1    1    2    0    0  0.81075321700E+01  0.40168933300E+02 -0.18996601160E+03  0.19433569113E+03  0.00000000000E+00 0.  1.
</event>
<event>
 7    1  0.2661133E-009  0.8955665E+02  0.7561462E-02  0.1303929E+00
         -1   -1    0    0    0  501 -0.00000000000E+00  0.00000000000E+00  0.11705372736E+03  0.11705372736E+03  0.00000000000E+00 0.  1.
          1   -1    0    0  501    0  0.00000000000E+00 -0.00000000000E+00 -0.11235508183E+03  0.11235508183E+03  0.00000000000E+00 0. -1.
         25    2    1    2    0    0  0.40228133426E+02 -0.23141523584E+02 -0.18186963303E+00  0.13342496661E+03  0.12509338834E+03 0.  0.
          5    1    3    3  502    0  0.63439442285E+02 -0.43178442389E+02  0.36794467511E+02  0.85207076960E+02  0.41800000000E+01 0. -1.
         -5    1    3    3    0  502 -0.23211308859E+02  0.20036918804E+02 -0.36976337144E+02  0.48217889654E+02  0.41800000000E+01 0. -1.
        -11    1    1    2    0    0 -0.48267196130E+02  0.15704248286E+01 -0.28017344341E+02  0.55831532671E+02  0.00000000000E+00 0. -1.
         11    1    1    2    0    0  0.80390627042E+01  0.21571098756E+02  0.32897859504E+02  0.40152309904E+02  0.00000000000E+00 0.  1.
</event>
<event>
 7    1  0.2661133E-009  0.9201408E+02  0.7561462E-02  0.1298046E+00
          2   -1    0    0  501    0  0.00000000000E+00  0.00000000000E+00  0.45026141867E+03  0.45026141867E+03  0.00000000000E+00 0. -1.
         -2   -1    0    0    0  501 -0.00000000000E+00 -0.00000000000E+00 -0.38638428067E+02  0.38638428067E+02  0.00000000000E+00 0.  1.
         25    2    1    2    0    0 -0.47847412613E+02 -0.52504811675E+02  0.20393030077E+03  0.24956263422E+03  0.12509120946E+03 0.  0.
          5    1    3    3  502    0 -0.50284529877E+02 -0.35618535806E+02  0.21829932603E+03  0.22686842483E+03  0.41800000000E+01 0. -1.
         -5    1    3    3    0  502  0.24371172644E+01 -0.16886275869E+02 -0.14369025259E+02  0.22694209397E+02  0.41800000000E+01 0. -1.
        -11    1    1    2    0    0  0.66230110513E+02  0.23336028013E+02  0.18546900283E+03  0.19831729313E+03  0.00000000000E+00 0.  1.
         11    1    1    2    0    0 -0.18382697900E+02  0.29168783661E+02  0.22223686994E+02  0.41019919380E+02  0.00000000000E+00 0. -1.
</event>
<event>
 7    1  0.2661133E-009  0.2376678E+03  0.7561462E-02  0.1121356E+00
         -1   -1    0    0    0  501 -0.00000000000E+00  0.00000000000E+00  0.40037246249E+03  0.40037246249E+03  0.00000000000E+00 0.  1.
          1   -1    0    0  501    0  0.00000000000E+00 -0.00000000000E+00 -0.14671398477E+03  0.14671398477E+03  0.00000000000E+00 0. -1.
         25    2    1    2    0    0  0.35586981964E+02  0.21184143472E+03  0.10288433284E+03  0.26902781290E+03  0.12509017316E+03 0.  0.
          5    1    3    3  502    0  0.70631584959E+02  0.73520492127E+02  0.66222117004E+02  0.12164261070E+03  0.41800000000E+01 0.  1.
         -5    1    3    3    0  502 -0.35044602995E+02  0.13832094259E+03  0.36662215833E+02  0.14738520220E+03  0.41800000000E+01 0.  1.
        -11    1    1    2    0    0 -0.58610192503E+02 -0.96302927335E+02  0.51255835741E+02  0.12384090268E+03  0.00000000000E+00 0.  1.
         11    1    1    2    0    0  0.23023210539E+02 -0.11553850738E+03  0.99518309142E+02  0.15421773169E+03  0.00000000000E+00 0. -1.
</event>
<event>
 7    1  0.2661133E-009  0.9574780E+02  0.7561462E-02  0.1289501E+00
         -1   -1    0    0    0  501 -0.00000000000E+00  0.00000000000E+00  0.31032175615E+03  0.31032175615E+03  0.00000000000E+00 0.  1.
          1   -1    0    0  501    0  0.00000000000E+00 -0.00000000000E+00 -0.69596469307E+02  0.69596469307E+02  0.00000000000E+00 0. -1.
         25    2    1    2    0    0  0.89435329406E+02  0.22599453346E+02  0.17008302552E+03  0.23040322302E+03  0.12509195086E+03 0.  0.
          5    1    3    3  502    0  0.80421409303E+02  0.28844094656E+02  0.31241152453E+02  0.91066277388E+02  0.41800000000E+01 0. -1.
         -5    1    3    3    0  502  0.90139201032E+01 -0.62446413096E+01  0.13884187307E+03  0.13933694563E+03  0.41800000000E+01 0. -1.
        -11    1    1    2    0    0 -0.82599246325E+02 -0.14914440654E+02  0.92775006201E+02  0.12510906366E+03  0.00000000000E+00 0.  1.
         11    1    1    2    0    0 -0.68360830812E+01 -0.76850126926E+01 -0.22132744878E+02  0.24405938782E+02  0.00000000000E+00 0. -1.
</event>
<event>
 7    1  0.2661133E-009  0.1993203E+03  0.7561462E-02  0.1150314E+00
         -1   -1    0    0    0  501 -0.00000000000E+00  0.00000000000E+00  0.24100639875E+02  0.24100639875E+02  0.00000000000E+00 0.  1.
          1   -1    0    0  501    0  0.00000000000E+00 -0.00000000000E+00 -0.18352594345E+04  0.18352594345E+04  0.00000000000E+00 0. -1.
         25    2    1    2    0    0 -0.16825870824E+03  0.58559874896E+02 -0.10272517986E+04  0.10500638662E+04  0.12509042154E+03 0.  0.
          5    1    3    3  502    0 -0.16660232942E+02 -0.23419298994E+02 -0.50849281223E+02  0.58558933801E+02  0.41800000000E+01 0. -1.
         -5    1    3    3    0  502 -0.15159847530E+03  0.81979173890E+02 -0.97640251740E+03  0.99150493244E+03  0.41800000000E+01 0. -1.
        -11    1    1    2    0    0  0.10798442313E+03  0.69181157991E+01 -0.34952008739E+03  0.36588630400E+03  0.00000000000E+00 0.  1.
         11    1    1    2    0    0  0.60274285115E+02 -0.65477990695E+02 -0.43438690856E+03  0.44340990409E+03  0.00000000000E+00 0. -1.
</event>
<event>
 7    1  0.2661133E-009  0.7836865E+02  0.7561462E-02  0.1333746E+00
         -1   -1    0    0    0  501 -0.00000000000E+00  0.00000000000E+00  0.79705409442E+02  0.79705409442E+02  0.00000000000E+00 0.  1.
          1   -1    0    0  501    0  0.00000000000E+00 -0.00000000000E+00 -0.15161943990E+03  0.15161943990E+03  0.00000000000E+00 0. -1.
         25    2    1    2    0    0  0.13152599377E+02  0.18248291259E+02 -0.45555421052E+02  0.13501566803E+03  0.12509173923E+03 0.  0.
          5    1    3    3  502    0  0.28449102111E+02 -0.45593586490E+02 -0.43391333104E+02  0.69198314492E+02  0.41800000000E+01 0.  1.
         -5    1    3    3    0  502 -0.15296502734E+02  0.63841877749E+02 -0.21640879486E+01  0.65817353540E+02  0.41800000000E+01 0.  1.
        -11    1    1    2    0    0 -0.18917769479E+02 -0.10879304866E+01 -0.57360221343E+02  0.60409110135E+02  0.00000000000E+00 0. -1.
         11    1    1    2    0    0  0.57651701019E+01 -0.17160360772E+02  0.31001611933E+02  0.35900071178E+02  0.00000000000E+00 0.  1.
</event>
<event>
 7    1  0.2661133E-009  0.1189343E+03  0.7561462E-02  0.1244866E+00
          1   -1    0    0  501    0  0.00000000000E+00  0.00000000000E+00  0.83375013001E+02  0.83375013001E+02  0.00000000000E+00 0. -1.
         -1   -1    0    0    0  501 -0.00000000000E+00 -0.00000000000E+00 -0.33870402639E+03  0.33870402639E+03  0.00000000000E+00 0.  1.
         25    2    1    2    0    0  0.10267363283E+03 -0.32916046708E+02 -0.21199284134E+03  0.26872622674E+03  0.12508988428E+03 0.  0.
          5    1    3    3  502    0 -0.31743752892E+01 -0.11620600889E+02  0.13569245954E+02  0.18620200301E+02  0.41800000000E+01 0.  1.
         -5    1    3    3    0  502  0.10584800812E+03 -0.21295445820E+02 -0.22556208730E+03  0.25010602644E+03  0.41800000000E+01 0.  1.
        -11    1    1    2    0    0 -0.66140468061E+01  0.18858906977E+02  0.26911405881E+02  0.33520557185E+02  0.00000000000E+00 0. -1.
         11    1    1    2    0    0 -0.96059586024E+02  0.14057139731E+02 -0.70247577922E+02  0.11983225546E+03  0.00000000000E+00 0.  1.
</event>
<event>
 7    1  0.2661133E-009  0.1507688E+03  0.7561462E-02  0.1199531E+00
          2   -1    0    0  501    0  0.00000000000E+00  0.00000000000E+00  0.63313753052E+02  0.63313753052E+02  0.00000000000E+00 0. -1.
         -2   -1    0    0    0  501 -0.00000000000E+00 -0.00000000000E+00 -0.39981992401E+03  0.39981992401E+03  0.00000000000E+00 0.  1.
         25    2    1    2    0    0 -0.66621358950E+02  0.81672146432E+02 -0.25312763173E+03  0.30137931893E+03  0.12508857248E+03 0.  0.
          5    1    3    3  502    0 -0.80410824112E+02  0.12666043997E+00 -0.13302297321E+03  0.15549437443E+03  0.41800000000E+01 0. -1.
         -5    1    3    3    0  502  0.13789465162E+02  0.81545485992E+02 -0.12010465852E+03  0.14588494450E+03  0.41800000000E+01 0. -1.
        -11    1    1    2    0    0  0.81181539120E+02 -0.90186293208E+02 -0.77055512035E+02  0.14374130134E+03  0.00000000000E+00 0.  1.
         11    1    1    2    0    0 -0.14560180169E+02  0.85141467766E+01 -0.63230271922E+01  0.18013056786E+02  0.00000000000E+00 0. -1.
</event>
<event>
 7    1  0.2661133E-009  0.1967739E+03  0.7561462E-02  0.1152490E+00
         -1   -1    0    0    0  501 -0.00000000000E+00  0.00000000000E+00  0.28206578797E+02  0.28206578797E+02  0.00000000000E+00 0.  1.
          1   -1    0    0  501    0  0.00000000000E+00 -0.00000000000E+00 -0.17677868316E+04  0.17677868316E+04  0.00000000000E+00 0. -1.
         25    2    1    2    0    0 -0.15545672226E+03  0.87906713638E+02 -0.12041093196E+04  0.12236932644E+04  0.12510623099E+03 0.  0.
          5    1    3    3  502    0 -0.16424936676E+03  0.51216818881E+02 -0.10882419782E+04  0.11017663512E+04  0.41800000000E+01 0. -1.
         -5    1    3    3    0  502  0.87926444985E+01  0.36689894757E+02 -0.11586734136E+03  0.12192691322E+03  0.41800000000E+01 0. -1.
        -11    1    1    2    0    0  0.60523217826E+02 -0.58324136189E+02 -0.36849173197E+03  0.37795624256E+03  0.00000000000E+00 0. -1.
         11    1    1    2    0    0  0.94933504438E+02 -0.29582577448E+02 -0.16697920124E+03  0.19434390343E+03  0.00000000000E+00 0.  1.
</event>
<event>
 7    1  0.2661133E-009  0.1162080E+03  0.7561462E-02  0.1249487E+00
          2   -1    0    0  501    0  0.00000000000E+00  0.00000000000E+00  0.84143094505E+02  0.84143094505E+02  0.00000000000E+00 0. -1.
         -2   -1    0    0    0  501 -0.00000000000E+00 -0.00000000000E+00 -0.23311656227E+03  0.23311656227E+03  0.00000000000E+00 0.  1.
         25    2    1    2    0    0  0.40193769650E+01 -0.85766614711E+02 -0.98988578324E+02  0.18115892671E+03  0.12509096889E+03 0.  0.
          5    1    3    3  502    0 -0.53569835163E+02 -0.43541881138E+02 -0.82678049145E+02  0.10779032824E+03  0.41800000000E+01 0. -1.
         -5    1    3    3    0  502  0.57589212128E+02 -0.42224733573E+02 -0.16310529180E+02  0.73368598467E+02  0.41800000000E+01 0. -1.
        -11    1    1    2    0    0  0.13995742912E+02  0.29674352365E+02 -0.67150137360E+02  0.74736797867E+02  0.00000000000E+00 0.  1.
         11    1    1    2    0    0 -0.18015119877E+02  0.56092262346E+02  0.17165247915E+02  0.61363932202E+02  0.00000000000E+00 0. -1.
</event>
<event>
 7    1  0.2661133E-009  0.1229781E+03  0.7561462E-02  0.1238263E+00
         -2   -1    0    0    0  501 -0.00000000000E+00  0.00000000000E+00  0.36146872158E+02  0.36146872158E+02  0.00000000000E+00 0.  1.
          2   -1    0    0  501    0  0.00000000000E+00 -0.00000000000E+00 -0.43949733507E+03  0.43949733507E+03  0.00000000000E+00 0. -1.
         25    2    1    2    0    0 -0.41734037252E+02 -0.43753762413E+02 -0.21200909363E+03  0.25348023044E+03  0.12509296484E+03 0.  0.
          5    1    3    3  502    0 -0.52256424725E+02 -0.80389769759E+02 -0.11901014301E+03  0.15288602142E+03  0.41800000000E+01 0. -1.
         -5    1    3    3    0  502  0.10522387474E+02  0.36636007346E+02 -0.92998950622E+02  0.10059420902E+03  0.41800000000E+01 0. -1.
        -11    1    1    2    0    0 -0.13369332010E+02 -0.22064225501E+02 -0.31357344822E+02  0.40606060627E+02  0.00000000000E+00 0. -1.
         11    1    1    2    0    0  0.55103369262E+02  0.65817987913E+02 -0.15998402446E+03  0.18155791616E+03  0.00000000000E+00 0.  1.
</event>
<event>
 7    1  0.2661133E-009  0.1639683E+03  0.7561462E-02  0.1184288E+00
          2   -1    0    0  501    0  0.00000000000E+00  0.00000000000E+00  0.26920777007E+03  0.26920777007E+03  0.00000000000E+00 0. -1.
         -2   -1    0    0    0  501 -0.00000000000E+00 -0.00000000000E+00 -0.12964708648E+03  0.12964708648E+03  0.00000000000E+00 0.  1.
         25    2    1    2    0    0  0.60223433540E+01  0.15082085243E+03  0.75154297749E+02  0.20994801638E+03  0.12508718145E+03 0.  0.
          5    1    3    3  502    0  0.21342858300E+02  0.14996560139E+03  0.99201488607E+02  0.18111766049E+03  0.41800000000E+01 0. -1.
         -5    1    3    3    0  502 -0.15320514946E+02  0.85525104606E+00 -0.24047190857E+02  0.28830355889E+02  0.41800000000E+01 0. -1.
        -11    1    1    2    0    0  0.19921811704E+02 -0.11231460668E+03  0.80669086042E+02  0.13971023906E+03  0.00000000000E+00 0. -1.
         11    1    1    2    0    0 -0.25944155058E+02 -0.38506245757E+02 -0.16262700200E+02  0.49196601120E+02  0.00000000000E+00 0.  1.
</event>
<event>
 7    1  0.2661133E-009  0.1141308E+03  0.7561462E-02  0.1253106E+00
          1   -1    0    0  501    0  0.00000000000E+00  0.00000000000E+00  0.49328427091E+02  0.49328427091E+02  0.00000000000E+00 0. -1.
         -1   -1    0    0    0  501 -0.00000000000E+00 -0.00000000000E+00 -0.41934053681E+03  0.41934053681E+03  0.00000000000E+00 0.  1.
         25    2    1    2    0    0  0.75447109769E+02  0.92304983550E+01 -0.25514113368E+03  0.29414674375E+03  0.12509132780E+03 0.  0.
          5    1    3    3  502    0  0.28979182741E+02  0.65784575487E+02 -0.10883168288E+03  0.13049601910E+03  0.41800000000E+01 0. -1.
         -5    1    3    3    0  502  0.46467927028E+02 -0.56554077132E+02 -0.14630945080E+03  0.16365072464E+03  0.41800000000E+01 0. -1.
        -11    1    1    2    0    0 -0.20276213787E+02 -0.17955728473E+02 -0.11552956321E+03  0.11866175882E+03  0.00000000000E+00 0.  1.
         11    1    1    2    0    0 -0.55170895983E+02  0.87252301180E+01  0.65858716216E+00  0.55860461341E+02  0.00000000000E+00 0. -1.
</event>
<event>
 7    1  0.2661133E-009  0.9950511E+02  0.7561462E-02  0.1281340E+00
         -2   -1    0    0    0  501 -0.00000000000E+00  0.00000000000E+00  0.50299607485E+02  0.50299607485E+02  0.00000000000E+00 0.  1.
          2   -1    0    0  501    0  0.00000000000E+00 -0.00000000000E+00 -0.35649460383E+03  0.35649460383E+03  0.00000000000E+00 0. -1.
         25    2    1    2    0    0  0.45793920398E+02 -0.37297591626E+02 -0.25028442975E+03  0.28595513695E+03  0.12505939024E+03 0.  0.
          5    1    3    3  502    0  0.10996992216E+02 -0.55077183644E+02 -0.23830666001E+03  0.24487132663E+03  0.41800000000E+01 0.  1.
         -5    1    3    3    0  502  0.34796928181E+02  0.17779592019E+02 -0.11977769737E+02  0.41083810328E+02  0.41800000000E+01 0.  1.
        -11    1    1    2    0    0  0.24807382365E+02  0.16489544093E+02 -0.24882953650E+01  0.29891518831E+02  0.00000000000E+00 0.  1.
         11    1    1    2    0    0 -0.70601302763E+02  0.20808047533E+02 -0.53422271234E+02  0.90947555535E+02  0.00000000000E+00 0. -1.
</event>
<event>
 7    1  0.2661133E-009  0.1015386E+03  0.7561462E-02  0.1277093E+00
         -2   -1    0    0    0  501 -0.00000000000E+00  0.00000000000E+00  0.26340771681E+02  0.26340771681E+02  0.00000000000E+00 0.  1.
          2   -1    0    0  501    0  0.00000000000E+00 -0.00000000000E+00 -0.74944492649E+03  0.74944492649E+03  0.00000000000E+00 0. -1.
         25    2    1    2    0    0 -0.25495072472E+02  0.62450587242E+02 -0.55014434085E+03  0.56820559782E+03  0.12509488824E+03 0.  0.
          5    1    3    3  502    0 -0.65110557463E+02  0.68302822713E+02 -0.29084310760E+03  0.30579706656E+03  0.41800000000E+01 0. -1.
         -5    1    3    3    0  502  0.39615484991E+02 -0.58522354718E+01 -0.25930123325E+03  0.26240853126E+03  0.41800000000E+01 0. -1.
        -11    1    1    2    0    0  0.22173134972E+02 -0.40642687528E+02 -0.17885209749E+03  0.18474725638E+03  0.00000000000E+00 0. -1.
         11    1    1    2    0    0  0.33219375001E+01 -0.21807899713E+02  0.58922835243E+01  0.22832843971E+02  0.00000000000E+00 0.  1.
</event>
<event>
 7    1  0.2661133E-009  0.7893250E+02  0.7561462E-02  0.1332108E+00
          1   -1    0    0  501    0  0.00000000000E+00  0.00000000000E+00  0.88723063944E+03  0.88723063944E+03  0.00000000000E+00 0. -1.
         -1   -1    0    0    0  501 -0.00000000000E+00 -0.00000000000E+00 -0.16962388513E+02  0.16962388513E+02  0.00000000000E+00 0.  1.
         25    2    1    2    0    0 -0.40166800416E+02 -0.29158779396E+02  0.60333193648E+03  0.61815983658E+03  0.12509417140E+03 0.  0.
          5    1    3    3  502    0  0.16080116773E+02 -0.27003655343E+02  0.49492176307E+03  0.49593627768E+03  0.41800000000E+01 0.  1.
         -5    1    3    3    0  502 -0.56246917189E+02 -0.21551240527E+01  0.10841017341E+03  0.12222355891E+03  0.41800000000E+01 0.  1.
        -11    1    1    2    0    0 -0.75535659417E+01  0.19658111532E+02  0.79407692628E+01  0.22506743965E+02  0.00000000000E+00 0.  1.
         11    1    1    2    0    0  0.47720366358E+02  0.95006678640E+01  0.25899554518E+03  0.26352644740E+03  0.00000000000E+00 0. -1.
</event>
<event>
 7    1  0.2661133E-009  0.1369175E+03  0.7561462E-02  0.1217538E+00
         -1   -1    0    0    0  501 -0.00000000000E+00  0.00000000000E+00  0.18265868224E+03  0.18265868224E+03  0.00000000000E+00 0.  1.
          1   -1    0    0  501    0  0.00000000000E+00 -0.00000000000E+00 -0.15408140931E+03  0.15408140931E+03  0.00000000000E+00 0. -1.
         25    2    1    2    0    0 -0.10336995584E+03 -0.62753566601E+02 -0.26218942470E+02  0.17594983979E+03  0.12509018862E+03 0.  0.
          5    1    3    3  502    0 -0.41910133584E+02 -0.44970439043E+02 -0.73776053291E+02  0.96120643589E+02  0.41800000000E+01 0.  1.
         -5    1    3    3    0  502 -0.61459822254E+02 -0.17783127557E+02  0.47557110821E+02  0.79829196205E+02  0.41800000000E+01 0.  1.
        -11    1    1    2    0    0 -0.11810550953E+02  0.23704751266E+02  0.23014146128E+02  0.35086397199E+02  0.00000000000E+00 0. -1.
         11    1    1    2    0    0  0.11518050679E+03  0.39048815335E+02  0.31782069274E+02  0.12570385456E+03  0.00000000000E+00 0.  1.
</event>
<event>
 7    1  0.2661133E-009  0.1446297E+03  0.7561462E-02  0.1207232E+00
         -2   -1    0    0    0  501 -0.00000000000E+00  0.00000000000E+00  0.37072700546E+03  0.37072700546E+03  0.00000000000E+00 0.  1.
          2   -1    0    0  501    0  0.00000000000E+00 -0.00000000000E+00 -0.10729519635E+03  0.10729519635E+03  0.00000000000E+00 0. -1.
         25    2    1    2    0    0  0.94593182990E+02 -0.99214163827E+02  0.25649934860E+03  0.31659108382E+03  0.12508668173E+03 0.  0.
          5    1    3    3  502    0  0.77908892011E+02 -0.10770334843E+03  0.26430796370E+03  0.29588169729E+03  0.41800000000E+01 0. -1.
         -5    1    3    3    0  502  0.16684290979E+02  0.84891845984E+01 -0.78086150957E+01  0.20709386527E+02  0.41800000000E+01 0. -1.
        -11    1    1    2    0    0 -0.34934835362E+02  0.35944512562E+02 -0.38606124250E+02  0.63268345440E+02  0.00000000000E+00 0.  1.
         11    1    1    2    0    0 -0.59658347628E+02  0.63269651265E+02  0.45538584766E+02  0.98162772554E+02  0.00000000000E+00 0. -1.
</event>
<event>
 7    1  0.2661133E-009  0.1496320E+03  0.7561462E-02  0.1200926E+00
          1   -1    0    0  501    0  0.00000000000E+00  0.00000000000E+00  0.13239731222E+03  0.13239731222E+03  0.00000000000E+00 0. -1.
         -1   -1    0    0    0  501 -0.00000000000E+00 -0.00000000000E+00 -0.23690776846E+03  0.23690776846E+03  0.00000000000E+00 0.  1.
         25    2    1    2    0    0  0.13106523213E+03  0.16415591813E+02 -0.99460660156E+02  0.20733211602E+03  0.12508643686E+03 0.  0.
          5    1    3    3  502    0  0.27856599093E+02 -0.14965828001E+02  0.26478775647E+02  0.41455567546E+02  0.41800000000E+01 0.  1.
         -5    1    3    3    0  502  0.10320863303E+03  0.31381419814E+02 -0.12593943580E+03  0.16587654847E+03  0.41800000000E+01 0.  1.
        -11    1    1    2    0    0 -0.10276008339E+03 -0.51000899575E+02  0.91378945698E+01  0.11508356795E+03  0.00000000000E+00 0. -1.
         11    1    1    2    0    0 -0.28305148740E+02  0.34585307761E+02 -0.14187690649E+02  0.46889396713E+02  0.00000000000E+00 0.  1.
</event>
<event>
 7    1  0.2661133E-009  0.8578244E+02  0.7561462E-02  0.1313399E+00
          1   -1    0    0  501    0  0.00000000000E+00  0.00000000000E+00  0.19262590802E+02  0.19262590802E+02  0.00000000000E+00 0. -1.
         -1   -1    0    0    0  501 -0.00000000000E+00 -0.00000000000E+00 -0.61268589578E+03  0.61268589578E+03  0.00000000000E+00 0.  1.
         25    2    1    2    0    0  0.70938504762E+01 -0.39709528079E+01 -0.34672950482E+03  0.36869381249E+03  0.12509071378E+03 0.  0.
          5    1    3    3  502    0 -0.24820180038E+02 -0.39412181179E+02 -0.29308617042E+03  0.29679342488E+03  0.41800000000E+01 0.  1.
         -5    1    3    3    0  502  0.31914030514E+02  0.35441228371E+02 -0.53643334397E+02  0.71900387602E+02  0.41800000000E+01 0.  1.
        -11    1    1    2    0    0  0.34462995992E+02  0.73284952023E+01 -0.44257778858E+02  0.56569920666E+02  0.00000000000E+00 0. -1.
         11    1    1    2    0    0 -0.41556846468E+02 -0.33575423944E+01 -0.20243602130E+03  0.20668475343E+03  0.00000000000E+00 0.  1.
</event>
<event>
 7    1  0.2661133E-009  0.2703445E+03  0.7561462E-02  0.1101083E+00
         -2   -1    0    0    0  501 -0.00000000000E+00  0.00000000000E+00  0.32318972739E+02  0.32318972739E+02  0.00000000000E+00 0.  1.
          2   -1    0    0  501    0  0.00000000000E+00 -0.00000000000E+00 -0.26493109676E+04  0.26493109676E+04  0.00000000000E+00 0. -1.
         25    2    1    2    0    0 -0.19908100064E+03 -0.15382584832E+03 -0.18004837327E+04  0.18222744774E+04  0.12508782182E+03 0.  0.
          5    1    3    3  502    0 -0.14434664235E+03 -0.16378562490E+03 -0.15712303265E+04  0.15863303236E+04  0.41800000000E+01 0. -1.
         -5    1    3    3    0  502 -0.54734358285E+02  0.99597765783E+01 -0.22925340614E+03  0.23594415388E+03  0.41800000000E+01 0. -1.
        -11    1    1    2    0    0  0.12864981011E+03  0.14766087673E+03 -0.63700331124E+03  0.66642908602E+03  0.00000000000E+00 0. -1.
         11    1    1    2    0    0  0.70431190527E+02  0.61649715864E+01 -0.17950495096E+03  0.19292637687E+03  0.00000000000E+00 0.  1.
</event>
<event>
 6    1  0.2661133E-009  0.1166085E+03  0.7561462E-02  0.1248799E+00
          1   -1    0    0  501    0  0.00000000000E+00  0.00000000000E+00  0.51055602945E+03  0.51055602945E+03  0.00000000000E+00 0. -1.
         -1   -1    0    0    0  501 -0.00000000000E+00 -0.00000000000E+00 -0.47508316934E+02  0.47508316934E+02  0.00000000000E+00 0.  1.
          5    1    1    2  502    0  0.98015515619E+01  0.87633254940E+02  0.22493912792E+02  0.91099430827E+02  0.41800000000E+01 0.  1.
         -5    1    1    2    0  502 -0.10253370681E+02 -0.28381321976E+01  0.10741104928E+03  0.10801755650E+03  0.41800000000E+01 0.  1.
        -11    1    1    2    0    0  0.30105656348E+02  0.11896615459E+02  0.74149420584E+02  0.80907456866E+02  0.00000000000E+00 0.  1.
         11    1    1    2    0    0 -0.29653837229E+02 -0.96691738201E+02  0.25899332985E+03  0.27803990219E+03  0.00000000000E+00 0. -1.
</event>
<event>
 7    1  0.2661133E-009  0.1053295E+03  0.7561462E-02  0.1269472E+00
          2   -1    0    0  501    0  0.00000000000E+00  0.00000000000E+00  0.25264600106E+03  0.25264600106E+03  0.00000000000E+00 0. -1.
         -2   -1    0    0    0  501 -0.00000000000E+00 -0.00000000000E+00 -0.60367723723E+02  0.60367723723E+02  0.00000000000E+00 0.  1.
         25    2    1    2    0    0  0.41880231616E+02 -0.40370695868E+02  0.83347038781E+02  0.16117378971E+03  0.12508602932E+03 0.  0.
          5    1    3    3  502    0 -0.39511437809E+02 -0.35950941338E+02  0.49046300379E+02  0.72640456233E+02  0.41800000000E+01 0. -1.
         -5    1    3    3    0  502  0.81391669425E+02 -0.44197545299E+01  0.34300738402E+02  0.88533333479E+02  0.41800000000E+01 0. -1.
        -11    1    1    2    0    0 -0.52386946269E+02  0.28620811827E+02  0.22202693784E+02  0.63690679226E+02  0.00000000000E+00 0.  1.
         11    1    1    2    0    0  0.10506714653E+02  0.11749884041E+02  0.86728544776E+02  0.88149255849E+02  0.00000000000E+00 0. -1.
</event>
<event>
 7    1  0.2661133E-009  0.9971605E+02  0.7561462E-02  0.1280894E+00
         -1   -1    0    0    0  501 -0.00000000000E+00  0.00000000000E+00  0.15566555117E+03  0.15566555117E+03  0.00000000000E+00 0.  1.
          1   -1    0    0  501    0  0.00000000000E+00 -0.00000000000E+00 -0.12992476440E+03  0.12992476440E+03  0.00000000000E+00 0. -1.
         25    2    1    2    0    0  0.16544744288E+02  0.41300790333E+02  0.95176377131E+02  0.16335435169E+03  0.12508644054E+03 0.  0.
          5    1    3    3  502    0 -0.25642896726E+00  0.80781595722E+02  0.88212024969E+02  0.11968527776E+03  0.41800000000E+01 0.  1.
         -5    1    3    3    0  502  0.16801173255E+02 -0.39480805389E+02  0.69643521619E+01  0.43669073930E+02  0.41800000000E+01 0.  1.
        -11    1    1    2    0    0 -0.36588781482E+02 -0.94340601981E+01  0.56843462907E+01  0.38210629606E+02  0.00000000000E+00 0.  1.
         11    1    1    2    0    0  0.20044037194E+02 -0.31866730135E+02 -0.75119936653E+02  0.84025334271E+02  0.00000000000E+00 0. -1.
</event>
<event>
 6    1  0.2661133E-009  0.9540585E+02  0.7561462E-02  0.1290265E+00
         -1   -1    0    0    0  501 -0.00000000000E+00  0.00000000000E+00  0.12891667685E+03  0.12891667685E+03  0.00000000000E+00 0.  1.
          1   -1    0    0  501    0  0.00000000000E+00 -0.00000000000E+00 -0.11474414137E+03  0.11474414137E+03  0.00000000000E+00 0. -1.
          5    1    1    2  502    0  0.30161807091E+01 -0.25946829919E+02 -0.37605498048E+02  0.45978051420E+02  0.41800000000E+01 0.  1.
         -5    1    1    2    0  502  0.15204130792E+02  0.71347893336E+02  0.58551704023E+02  0.93634726040E+02  0.41800000000E+01 0.  1.
        -11    1    1    2    0    0 -0.10902282429E+02  0.21437385179E+02 -0.24686364045E+02  0.34465023070E+02  0.00000000000E+00 0. -1.
         11    1    1    2    0    0 -0.73180290722E+01 -0.66838448596E+02  0.17912693558E+02  0.69583017689E+02  0.00000000000E+00 0.  1.
</event>
<event>
 7    1  0.2661133E-009  0.8129887E+02  0.7561462E-02  0.1325405E+00
          2   -1    0    0  501    0  0.00000000000E+00  0.00000000000E+00  0.23587875464E+03  0.23587875464E+03  0.00000000000E+00 0.  1.
         -2   -1    0    0    0  501 -0.00000000000E+00 -0.00000000000E+00 -0.73794912095E+02  0.73794912095E+02  0.00000000000E+00 0. -1.
         25    2    1    2    0    0 -0.13207390923E+02 -0.39773919512E+02  0.16194125857E+03  0.20887991700E+03  0.12509775637E+03 0.  0.
          5    1    3    3  502    0  0.24018752888E+02 -0.41126678619E+01 -0.11949571888E+02  0.27460502463E+02  0.41800000000E+01 0.  1.
         -5    1    3    3    0  502 -0.37226143811E+02 -0.35661251650E+02  0.17389083046E+03  0.18141941454E+03  0.41800000000E+01 0.  1.
        -11    1    1    2    0    0  0.37761669101E+02 -0.18716207213E+01 -0.25949810268E+02  0.45856725464E+02  0.00000000000E+00 0. -1.
         11    1    1    2    0    0 -0.24554278178E+02  0.41645540234E+02  0.26092394234E+02  0.54937024264E+02  0.00000000000E+00 0.  1.
</event>
<event>
 7    1  0.2661133E-009  0.9649424E+02  0.7561462E-02  0.1287846E+00
         -2   -1    0    0    0  501 -0.00000000000E+00  0.00000000000E+00  0.17971358342E+02  0.17971358342E+02  0.00000000000E+00 0.  1.
          2   -1    0    0  501    0  0.00000000000E+00 -0.00000000000E+00 -0.98180619789E+03  0.98180619789E+03  0.00000000000E+00 0. -1.
         25    2    1    2    0    0  0.15884352633E+02 -0.73882805880E+02 -0.47452679292E+03  0.49652276942E+03  0.12509277233E+03 0.  0.
          5    1    3    3  502    0  0.14963895171E+02 -0.86800472068E+02 -0.16836914673E+03  0.19006283719E+03  0.41800000000E+01 0.  1.
         -5    1    3    3    0  502  0.92045746159E+00  0.12917666188E+02 -0.30615764620E+03  0.30645993224E+03  0.41800000000E+01 0.  1.
        -11    1    1    2    0    0 -0.25946439744E+02  0.76519115909E+02 -0.48550073267E+03  0.49217817328E+03  0.00000000000E+00 0. -1.
         11    1    1    2    0    0  0.10062087112E+02 -0.26363100293E+01 -0.38073139549E+01  0.11076613524E+02  0.00000000000E+00 0.  1.
</event>
<event>
 7    1  0.2661133E-009  0.1625601E+03  0.7561462E-02  0.1185836E+00
          2   -1    0    0  501    0  0.00000000000E+00  0.00000000000E+00  0.65531593215E+02  0.65531593215E+02  0.00000000000E+00 0. -1.
         -2   -1    0    0    0  501 -0.00000000000E+00 -0.00000000000E+00 -0.53891899276E+03  0.53891899276E+03  0.00000000000E+00 0.  1.
         25    2    1    2    0    0 -0.48902731570E+02 -0.13560899215E+03 -0.16849764671E+03  0.25460172467E+03  0.12509718364E+03 0.  0.
          5    1    3    3  502    0 -0.17643710974E+02 -0.11388033852E+03 -0.42475727144E+02  0.12288894106E+03  0.41800000000E+01 0. -1.
         -5    1    3    3    0  502 -0.31259020596E+02 -0.21728653633E+02 -0.12602191956E+03  0.13171278362E+03  0.41800000000E+01 0. -1.
        -11    1    1    2    0    0 -0.93998082419E+01  0.10544657768E+03 -0.19278596775E+03  0.21994037033E+03  0.00000000000E+00 0.  1.
         11    1    1    2    0    0  0.58302539812E+02  0.30162414468E+02 -0.11210378509E+03  0.12990849097E+03  0.00000000000E+00 0. -1.
</event>
<event>
 7    1  0.2661133E-009  0.9363564E+02  0.7561462E-02  0.1294279E+00
          2   -1    0    0  501    0  0.00000000000E+00  0.00000000000E+00  0.58168968935E+03  0.58168968935E+03  0.00000000000E+00 0. -1.
         -2   -1    0    0    0  501 -0.00000000000E+00 -0.00000000000E+00 -0.26335998470E+02  0.26335998470E+02  0.00000000000E+00 0.  1.
         25    2    1    2    0    0  0.32925191028E+02 -0.40831315300E+02  0.24443965746E+03  0.27956431388E+03  0.12511672527E+03 0.  0.
          5    1    3    3  502    0  0.44898317213E+02 -0.45987648104E+01  0.23593005861E+03  0.24024460968E+03  0.41800000000E+01 0.  1.
         -5    1    3    3    0  502 -0.11973126185E+02 -0.36232550490E+02  0.85095988542E+01  0.39319704199E+02  0.41800000000E+01 0.  1.
        -11    1    1    2    0    0 -0.23576419544E+02 -0.26563380370E+02  0.14162864403E+03  0.14601415529E+03  0.00000000000E+00 0. -1.
         11    1    1    2    0    0 -0.93487714837E+01  0.67394695671E+02  0.16928538939E+03  0.18244721865E+03  0.00000000000E+00 0.  1.
</event>
<event>
 7    1  0.2661133E-009  0.1419522E+03  0.7561462E-02  0.1210726E+00
          1   -1    0    0  501    0  0.00000000000E+00  0.00000000000E+00  0.85236798821E+03  0.85236798821E+03  0.00000000000E+00 0. -1.
         -1   -1    0    0    0  501 -0.00000000000E+00 -0.00000000000E+00 -0.29859642868E+02  0.29859642868E+02  0.00000000000E+00 0.  1.
         25    2    1    2    0    0 -0.53216522797E+02  0.11251903283E+03  0.56928820374E+03  0.59601052161E+03  0.12508777679E+03 0.  0.
          5    1    3    3  502    0 -0.70894500453E+02  0.11163738070E+03  0.32296594785E+03  0.34901778011E+03  0.41800000000E+01 0.  1.
         -5    1    3    3    0  502  0.17677977656E+02  0.88165212950E+00  0.24632225589E+03  0.24699274149E+03  0.41800000000E+01 0.  1.
        -11    1    1    2    0    0  0.38718715436E+02 -0.28326998207E+02  0.89373293619E+02  0.10143541475E+03  0.00000000000E+00 0.  1.
         11    1    1    2    0    0  0.14497807361E+02 -0.84192034619E+02  0.16384684798E+03  0.18478169473E+03  0.00000000000E+00 0. -1.
</event>
<event>
 7    1  0.2661133E-009  0.1240848E+03  0.7561462E-02  0.1236507E+00
         -1   -1    0    0    0  501 -0.00000000000E+00  0.00000000000E+00  0.79041475271E+02  0.79041475271E+02  0.00000000000E+00 0.  1.
          1   -1    0    0  501    0  0.00000000000E+00 -0.00000000000E+00 -0.29989129475E+03  0.29989129475E+03  0.00000000000E+00 0. -1.
         25    2    1    2    0    0  0.60788189633E+02 -0.74715176458E+02 -0.57391267590E+02  0.16798494313E+03  0.12509045499E+03 0.  0.
          5    1    3    3  502    0 -0.18117861576E+02  0.19450363899E+02  0.88768222326E+01  0.28334500822E+02  0.41800000000E+01 0. -1.
         -5    1    3    3    0  502  0.78906051209E+02 -0.94165540357E+02 -0.66268089822E+02  0.13965044231E+03  0.41800000000E+01 0. -1.
        -11    1    1    2    0    0 -0.39110934475E+02  0.32388244480E+02 -0.15440207868E+03  0.16253819698E+03  0.00000000000E+00 0. -1.
         11    1    1    2    0    0 -0.21677255158E+02  0.42326931978E+02 -0.90564732145E+01  0.48409629919E+02  0.00000000000E+00 0.  1.
</event>
<event>
 7    1  0.2661133E-009  0.1210521E+03  0.7561462E-02  0.1241371E+00
         -1   -1    0    0    0  501 -0.00000000000E+00  0.00000000000E+00  0.16934543679E+02  0.16934543679E+02  0.00000000000E+00 0.  1.
          1   -1    0    0  501    0  0.00000000000E+00 -0.00000000000E+00 -0.93214179181E+03  0.93214179181E+03  0.00000000000E+00 0. -1.
         25    2    1    2    0    0  0.20701854326E+02  0.57628295131E+02 -0.47631552117E+03  0.49626142363E+03  0.12509731296E+03 0.  0.
          5    1    3    3  502    0  0.24270285065E+02 -0.36809026337E+02 -0.13496479011E+03  0.14204547907E+03  0.41800000000E+01 0. -1.
         -5    1    3    3    0  502 -0.35684307387E+01  0.94437321469E+02 -0.34135073106E+03  0.35421594456E+03  0.41800000000E+01 0. -1.
        -11    1    1    2    0    0  0.12113072789E+02  0.17473377519E+02 -0.37198112247E+02  0.42845594979E+02  0.00000000000E+00 0.  1.
         11    1    1    2    0    0 -0.32814927115E+02 -0.75101672650E+02 -0.40169361471E+03  0.40996931687E+03  0.00000000000E+00 0. -1.
</event>
<event>
 7    1  0.2661133E-009  0.6786649E+02  0.7561462E-02  0.1367502E+00
         -1   -1    0    0    0  501 -0.00000000000E+00  0.00000000000E+00  0.86720845341E+02  0.86720845341E+02  0.00000000000E+00 0.  1.
          1   -1    0    0  501    0  0.00000000000E+00 -0.00000000000E+00 -0.20729092730E+03  0.20729092730E+03  0.00000000000E+00 0. -1.
         25    2    1    2    0    0 -0.63536980567E+02 -0.78845820346E+01 -0.10047607989E+02  0.14088511785E+03  0.12509415443E+03 0.  0.
          5    1    3    3  502    0 -0.26963854801E+02 -0.14549930145E+02  0.56576973264E+02  0.64476167975E+02  0.41800000000E+01 0. -1.
         -5    1    3    3    0  502 -0.36573125766E+02  0.66653481100E+01 -0.66624581253E+02  0.76408949874E+02  0.41800000000E+01 0. -1.
        -11    1    1    2    0    0  0.26413732849E+02 -0.71245940442E+01  0.76064920623E+01  0.28395489867E+02  0.00000000000E+00 0.  1.
         11    1    1    2    0    0  0.37123247718E+02  0.15009176079E+02 -0.11812896603E+03  0.12473116492E+03  0.00000000000E+00 0. -1.
</event>
<event>
 7    1  0.2661133E-009  0.1388939E+03  0.7561462E-02  0.1214825E+00
         -2   -1    0    0    0  501 -0.00000000000E+00  0.00000000000E+00  0.18368563901E+03  0.18368563901E+03  0.00000000000E+00 0.  1.
          2   -1    0    0  501    0  0.00000000000E+00 -0.00000000000E+00 -0.11978793375E+03  0.11978793375E+03  0.00000000000E+00 0. -1.
         25    2    1    2    0    0 -0.41035395890E+02 -0.87890537932E+02  0.61306675022E+02  0.16974760239E+03  0.12508832776E+03 0.  0.
          5    1    3    3  502    0 -0.30203563872E+02 -0.11709294099E+03  0.66230719536E+02  0.13793836562E+03  0.41800000000E+01 0.  1.
         -5    1    3    3    0  502 -0.10831832018E+02  0.29202403060E+02 -0.49240445144E+01  0.31809236767E+02  0.41800000000E+01 0.  1.
        -11    1    1    2    0    0  0.33423817910E+02 -0.35459170801E+01  0.21695726291E+02  0.40005370526E+02  0.00000000000E+00 0.  1.
         11    1    1    2    0    0  0.76115779794E+01  0.91436455012E+02 -0.19104696054E+02  0.93720599848E+02  0.00000000000E+00 0. -1.
</event>
<event>
 7    1  0.2661133E-009  0.2361149E+03  0.7561462E-02  0.1122408E+00
         -1   -1    0    0    0  501 -0.00000000000E+00  0.00000000000E+00  0.58070451644E+03  0.58070451644E+03  0.00000000000E+00 0.  1.
          1   -1    0    0  501    0  0.00000000000E+00 -0.00000000000E+00 -0.10837789897E+03  0.10837789897E+03  0.00000000000E+00 0. -1.
         25    2    1    2    0    0 -0.19993316245E+03  0.10153487851E+03  0.28569361906E+03  0.38412327296E+03  0.12508894379E+03 0.  0.
          5    1    3    3  502    0 -0.45608429274E+02 -0.68349281739E+01  0.58892004607E+01  0.46679761632E+02  0.41800000000E+01 0.  1.
         -5    1    3    3    0  502 -0.15432473318E+03  0.10836980669E+03  0.27980441860E+03  0.33744351133E+03  0.41800000000E+01 0.  1.
        -11    1    1    2    0    0  0.11184738902E+03 -0.13317303771E+02  0.61537415235E+02  0.12835124653E+03  0.00000000000E+00 0. -1.
         11    1    1    2    0    0  0.88085773428E+02 -0.88217574742E+02  0.12509558317E+03  0.17660789592E+03  0.00000000000E+00 0.  1.
</event>
<event>
 7    1  0.2661133E-009  0.1582576E+03  0.7561462E-02  0.1190678E+00
         -1   -1    0    0    0  501 -0.00000000000E+00  0.00000000000E+00  0.15916633485E+03  0.15916633485E+03  0.00000000000E+00 0.  1.
          1   -1    0    0  501    0  0.00000000000E+00 -0.00000000000E+00 -0.17718209977E+03  0.17718209977E+03  0.00000000000E+00 0. -1.
         25    2    1    2    0    0  0.86055110227E+02  0.89922936327E+02  0.19762334365E+02  0.17756454801E+03  0.12508797855E+03 0.  0.
          5    1    3    3  502    0  0.12171523343E+02 -0.27916134072E+02 -0.14904853621E+02  0.34162605046E+02  0.41800000000E+01 0.  1.
         -5    1    3    3    0  502  0.73883586884E+02  0.11783907040E+03  0.34667187986E+02  0.14340194297E+03  0.41800000000E+01 0.  1.
        -11    1    1    2    0    0  0.18476933915E+01  0.11938657690E+02 -0.19587732377E+02  0.23013578122E+02  0.00000000000E+00 0. -1.
         11    1    1    2    0    0 -0.87902803618E+02 -0.10186159402E+03 -0.18190366909E+02  0.13577030849E+03  0.00000000000E+00 0.  1.
</event>
<event>
 7    1  0.2661133E-009  0.2316367E+03  0.7561462E-02  0.1125493E+00
         -2   -1    0    0    0  501 -0.00000000000E+00  0.00000000000E+00  0.92290853968E+02  0.92290853968E+02  0.00000000000E+00 0.  1.
          2   -1    0    0  501    0  0.00000000000E+00 -0.00000000000E+00 -0.61826727374E+03  0.61826727374E+03  0.00000000000E+00 0. -1.
         25    2    1    2    0    0  0.15578147667E+03 -0.13331594245E+03 -0.35267435730E+03  0.42669538015E+03  0.12509490862E+03 0.  0.
          5    1    3    3  502    0  0.10634645805E+03 -0.15308738180E+03 -0.26452548811E+03  0.32363022397E+03  0.41800000000E+01 0.  1.
         -5    1    3    3    0  502  0.49435018619E+02  0.19771439352E+02 -0.88148869185E+02  0.10306515618E+03  0.41800000000E+01 0.  1.
        -11    1    1    2    0    0 -0.10835676902E+03  0.34339607892E+02 -0.10397122398E+03  0.15404678990E+03  0.00000000000E+00 0.  1.
         11    1    1    2    0    0 -0.47424707649E+02  0.98976334553E+02 -0.69330838497E+02  0.12981595766E+03  0.00000000000E+00 0. -1.
</event>
<event>
 7    1  0.2661133E-009  0.1016924E+03  0.7561462E-02  0.1276777E+00
          2   -1    0    0  501    0  0.00000000000E+00  0.00000000000E+00  0.23115587053E+03  0.23115587053E+03  0.00000000000E+00 0. -1.
         -2   -1    0    0    0  501 -0.00000000000E+00 -0.00000000000E+00 -0.62505338041E+02  0.62505338041E+02  0.00000000000E+00 0.  1.
         25    2    1    2    0    0  0.18740906295E+02  0.34967089054E+02  0.45998882808E+02  0.13906140701E+03  0.12509300066E+03 0.  0.
          5    1    3    3  502    0 -0.42437768924E+02  0.27757014050E+02 -0.14202676974E+02  0.52826172428E+02  0.41800000000E+01 0.  1.
         -5    1    3    3    0  502  0.61178675219E+02  0.72100750036E+01  0.60201559782E+02  0.86235234581E+02  0.41800000000E+01 0.  1.
        -11    1    1    2    0    0  0.73076157599E+01 -0.56495662183E+02  0.95713442232E+02  0.11138323086E+03  0.00000000000E+00 0.  1.
         11    1    1    2    0    0 -0.26048522055E+02  0.21528573129E+02  0.26938207448E+02  0.43216570697E+02  0.00000000000E+00 0. -1.
</event>
<event>
 7    1  0.2661133E-009  0.1080908E+03  0.7561462E-02  0.1264147E+00
         -2   -1    0    0    0  501 -0.00000000000E+00  0.00000000000E+00  0.32124159573E+03  0.32124159573E+03  0.00000000000E+00 0.  1.
          2   -1    0    0  501    0  0.00000000000E+00 -0.00000000000E+00 -0.38578497792E+02  0.38578497792E+02  0.00000000000E+00 0. -1.
         25    2    1    2    0    0 -0.26547507205E+02 -0.50486204672E+01  0.14977668789E+03  0.19702358359E+03  0.12511985274E+03 0.  0.
          5    1    3    3  502    0 -0.67303986437E+01 -0.64521748763E+02  0.81256814682E+02  0.10406006276E+03  0.41800000000E+01 0. -1.
         -5    1    3    3    0  502 -0.19817108562E+02  0.59473128296E+02  0.68519873210E+02  0.92963520834E+02  0.41800000000E+01 0. -1.
        -11    1    1    2    0    0 -0.57511824055E+01 -0.35807968784E+02  0.28450558001E+02  0.46094695769E+02  0.00000000000E+00 0. -1.
         11    1    1    2    0    0  0.32298689611E+02  0.40856589251E+02  0.10443585204E+03  0.11670181416E+03  0.00000000000E+00 0.  1.
</event>
<event>
 7    1  0.2661133E-009  0.1849677E+03  0.7561462E-02  0.1163080E+00
         -2   -1    0    0    0  501 -0.00000000000E+00  0.00000000000E+00  0.37286317142E+02  0.37286317142E+02  0.00000000000E+00 0.  1.
          2   -1    0    0  501    0  0.00000000000E+00 -0.00000000000E+00 -0.99971736330E+03  0.99971736330E+03  0.00000000000E+00 0. -1.
         25    2    1    2    0    0  0.11560097307E+03 -0.10705668680E+03 -0.56521730486E+03  0.59995196570E+03  0.12508813004E+03 0.  0.
          5    1    3    3  502    0 -0.10525452707E+02 -0.66575054588E+02 -0.16196079826E+03  0.17547591179E+03  0.41800000000E+01 0. -1.
         -5    1    3    3    0  502  0.12612642578E+03 -0.40481632209E+02 -0.40325650660E+03  0.42447605391E+03  0.41800000000E+01 0. -1.
        -11    1    1    2    0    0 -0.45365395057E+02  0.45213300344E+01 -0.47178471994E+02  0.65606933427E+02  0.00000000000E+00 0.  1.
         11    1    1    2    0    0 -0.70235578017E+02  0.10253535676E+03 -0.35003526931E+03  0.37144478131E+03  0.00000000000E+00 0. -1.
</event>
<event>
 7    1  0.2661133E-009  0.1312935E+03  0.7561462E-02  0.1225549E+00
          3   -1    0    0  501    0  0.00000000000E+00  0.00000000000E+00  0.46182581296E+02  0.46182581296E+02  0.00000000000E+00 0. -1.
         -3   -1    0    0    0  501 -0.00000000000E+00 -0.00000000000E+00 -0.45080833624E+03  0.45080833624E+03  0.00000000000E+00 0.  1.
         25    2    1    2    0    0  0.60935015994E+02  0.65849421000E+02 -0.25647842105E+03  0.29912825957E+03  0.12508921931E+03 0.  0.
          5    1    3    3  502    0  0.55382220460E+02  0.98484934342E+02 -0.15193506393E+03  0.18938904057E+03  0.41800000000E+01 0.  1.
         -5    1    3    3    0  502  0.55527955340E+01 -0.32635513342E+02 -0.10454335712E+03  0.10973921900E+03  0.41800000000E+01 0.  1.
        -11    1    1    2    0    0  0.90418826070E+01 -0.40859992231E+02 -0.10235731781E+03  0.11058171239E+03  0.00000000000E+00 0.  1.
         11    1    1    2    0    0 -0.69976898601E+02 -0.24989428769E+02 -0.45790016087E+02  0.87280945579E+02  0.00000000000E+00 0. -1.
</event>
<event>
 7    1  0.2661133E-009  0.1069062E+03  0.7561462E-02  0.1266409E+00
          1   -1    0    0  501    0  0.00000000000E+00  0.00000000000E+00  0.24773774641E+03  0.24773774641E+03  0.00000000000E+00 0. -1.
         -1   -1    0    0    0  501 -0.00000000000E+00 -0.00000000000E+00 -0.75074399215E+02  0.75074399215E+02  0.00000000000E+00 0.  1.
         25    2    1    2    0    0 -0.76164136358E+02 -0.20242577041E+02  0.12345326260E+03  0.19260992831E+03  0.12508852404E+03 0.  0.
          5    1    3    3  502    0 -0.15592738597E+02 -0.33296001331E+02  0.12512788529E+03  0.13048454804E+03  0.41800000000E+01 0.  1.
         -5    1    3    3    0  502 -0.60571397761E+02  0.13053424289E+02 -0.16746226926E+01  0.62125380269E+02  0.41800000000E+01 0.  1.
        -11    1    1    2    0    0  0.26375092215E+01  0.38787689429E+02  0.36478425735E+02  0.53311507672E+02  0.00000000000E+00 0. -1.
         11    1    1    2    0    0  0.73526627137E+02 -0.18545112388E+02  0.12731658864E+02  0.76890709641E+02  0.00000000000E+00 0.  1.
</event>
<event>
 7    1  0.2661133E-009  0.1325904E+03  0.7561462E-02  0.1223662E+00
         -2   -1    0    0    0  501 -0.00000000000E+00  0.00000000000E+00  0.40276592871E+03  0.40276592871E+03  0.00000000000E+00 0.  1.
          2   -1    0    0  501    0  0.00000000000E+00 -0.00000000000E+00 -0.50493534247E+02  0.50493534247E+02  0.00000000000E+00 0. -1.
         25    2    1    2    0    0  0.79333201549E+02  0.47209918181E+02  0.19802841834E+03  0.25176500090E+03  0.12509127853E+03 0.  0.
          5    1    3    3  502    0  0.70572144185E+02 -0.30539170706E+02  0.93523719182E+02  0.12114960558E+03  0.41800000000E+01 0.  1.
         -5    1    3    3    0  502  0.87610573638E+01  0.77749088887E+02  0.10450469916E+03  0.13061539532E+03  0.41800000000E+01 0.  1.
        -11    1    1    2    0    0 -0.64987670057E+02 -0.49342448565E+01  0.14034101357E+03  0.15473636974E+03  0.00000000000E+00 0.  1.
         11    1    1    2    0    0 -0.14345531491E+02 -0.42275673325E+02  0.13902962551E+02  0.46758092311E+02  0.00000000000E+00 0. -1.
</event>
<event>
 7    1  0.2661133E-009  0.1705080E+03  0.7561462E-02  0.1177319E+00
          1   -1    0    0  501    0  0.00000000000E+00  0.00000000000E+00  0.85609290309E+02  0.85609290309E+02  0.00000000000E+00 0. -1.
         -1   -1    0    0    0  501 -0.00000000000E+00 -0.00000000000E+00 -0.55116884869E+03  0.55116884869E+03  0.00000000000E+00 0.  1.
         25    2    1    2    0    0 -0.11323672934E+02 -0.16340656787E+03 -0.37348936068E+03  0.42658170789E+03  0.12509084286E+03 0.  0.
          5    1    3    3  502    0 -0.43329432855E+01 -0.86967891307E+02 -0.65221394329E+02  0.10887373969E+03  0.41800000000E+01 0.  1.
         -5    1    3    3    0  502 -0.69907296489E+01 -0.76438676564E+02 -0.30826796635E+03  0.31770796820E+03  0.41800000000E+01 0.  1.
        -11    1    1    2    0    0 -0.25662036282E+02  0.10291284365E+03 -0.90256391274E+02  0.13926883951E+03  0.00000000000E+00 0.  1.
         11    1    1    2    0    0  0.36985709216E+02  0.60493724224E+02 -0.18138064287E+01  0.70927591602E+02  0.00000000000E+00 0. -1.
</event>
<event>
 7    1  0.2661133E-009  0.1460400E+03  0.7561462E-02  0.1205425E+00
          1   -1    0    0  501    0  0.00000000000E+00  0.00000000000E+00  0.85985357225E+02  0.85985357225E+02  0.00000000000E+00 0. -1.
         -1   -1    0    0    0  501 -0.00000000000E+00 -0.00000000000E+00 -0.25527330159E+03  0.25527330159E+03  0.00000000000E+00 0.  1.
         25    2    1    2    0    0 -0.72632116170E+02  0.71776806280E+02 -0.92872874979E+02  0.18628042053E+03  0.12509072686E+03 0.  0.
          5    1    3    3  502    0 -0.10355284431E+03  0.74978107654E+02 -0.86095324447E+02  0.15419074383E+03  0.41800000000E+01 0. -1.
         -5    1    3    3    0  502  0.30920728139E+02 -0.32013013738E+01 -0.67775505316E+01  0.32089676694E+02  0.41800000000E+01 0. -1.
        -11    1    1    2    0    0 -0.79096533023E+01 -0.48245990609E+02 -0.15495188072E+02  0.51286831435E+02  0.00000000000E+00 0. -1.
         11    1    1    2    0    0  0.80541769472E+02 -0.23530815671E+02 -0.60919881311E+02  0.10369140685E+03  0.00000000000E+00 0.  1.
</event>
<event>
 7    1  0.2661133E-009  0.1225397E+03  0.7561462E-02  0.1238965E+00
         -1   -1    0    0    0  501 -0.00000000000E+00  0.00000000000E+00  0.40377481818E+03  0.40377481818E+03  0.00000000000E+00 0.  1.
          1   -1    0    0  501    0  0.00000000000E+00 -0.00000000000E+00 -0.12357572745E+03  0.12357572745E+03  0.00000000000E+00 0. -1.
         25    2    1    2    0    0 -0.61529570975E+02 -0.41890571558E+02  0.35726690797E+03  0.38578017672E+03  0.12508394435E+03 0.  0.
          5    1    3    3  502    0 -0.39483150294E+02 -0.83994530466E+02  0.18485053678E+03  0.20688449350E+03  0.41800000000E+01 0.  1.
         -5    1    3    3    0  502 -0.22046420681E+02  0.42103958908E+02  0.17241637119E+03  0.17889568322E+03  0.41800000000E+01 0.  1.
        -11    1    1    2    0    0  0.67685447830E+02  0.58908142868E+01 -0.79968317037E+02  0.10493308949E+03  0.00000000000E+00 0. -1.
         11    1    1    2    0    0 -0.61558768553E+01  0.35999757271E+02  0.29004997932E+01  0.36637279409E+02  0.00000000000E+00 0.  1.
</event>
<event>
 7    1  0.2661133E-009  0.8034282E+02  0.7561462E-02  0.1328081E+00
         -2   -1    0    0    0  501 -0.00000000000E+00  0.00000000000E+00  0.39888893617E+02  0.39888893617E+02  0.00000000000E+00 0.  1.
          2   -1    0    0  501    0  0.00000000000E+00 -0.00000000000E+00 -0.54008676205E+03  0.54008676205E+03  0.00000000000E+00 0. -1.
         25    2    1    2    0    0  0.55464802565E+02 -0.56400232446E+02 -0.15661451275E+03  0.21549144004E+03  0.12510445470E+03 0.  0.
          5    1    3    3  502    0  0.12090455058E+02 -0.15486469751E+02  0.20416995444E+02  0.28641507499E+02  0.41800000000E+01 0. -1.
         -5    1    3    3    0  502  0.43374347507E+02 -0.40913762695E+02 -0.17703150819E+03  0.18684993254E+03  0.41800000000E+01 0. -1.
        -11    1    1    2    0    0 -0.86679357245E+01  0.19127625581E+02 -0.62836440241E+01  0.21919930481E+02  0.00000000000E+00 0.  1.
         11    1    1    2    0    0 -0.46796866841E+02  0.37272606865E+02 -0.33729971166E+03  0.34256428515E+03  0.00000000000E+00 0. -1.
</event>
<event>
 7    1  0.2661133E-009  0.1908114E+03  0.7561462E-02  0.1157732E+00
          2   -1    0    0  501    0  0.00000000000E+00  0.00000000000E+00  0.57797255442E+03  0.57797255442E+03  0.00000000000E+00 0. -1.
         -2   -1    0    0    0  501 -0.00000000000E+00 -0.00000000000E+00 -0.78142165386E+02  0.78142165386E+02  0.00000000000E+00 0.  1.
         25    2    1    2    0    0 -0.94918946501E+02  0.13770370137E+03  0.37457999078E+03  0.42887040838E+03  0.12509093458E+03 0.  0.
          5    1    3    3  502    0 -0.10925888007E+03  0.15143333703E+03  0.35220447368E+03  0.39866655505E+03  0.41800000000E+01 0.  1.
         -5    1    3    3    0  502  0.14339933569E+02 -0.13729635663E+02  0.22375517105E+02  0.30203853329E+02  0.41800000000E+01 0.  1.
        -11    1    1    2    0    0  0.52104414156E+02 -0.11463325080E+03  0.12664370846E+03  0.17858970031E+03  0.00000000000E+00 0.  1.
         11    1    1    2    0    0  0.42814532345E+02 -0.23070450565E+02 -0.13933102119E+01  0.48654611113E+02  0.00000000000E+00 0. -1.
</event>
<event>
 7    1  0.2661133E-009  0.1906324E+03  0.7561462E-02  0.1157892E+00
         -1   -1    0    0    0  501 -0.00000000000E+00  0.00000000000E+00  0.66640653204E+02  0.66640653204E+02  0.00000000000E+00 0.  1.
          1   -1    0    0  501    0  0.00000000000E+00 -0.00000000000E+00 -0.55967909396E+03  0.55967909396E+03  0.00000000000E+00 0. -1.
         25    2    1    2    0    0  0.10598905921E+03 -0.89087107483E+02 -0.26218512312E+03  0.32180709052E+03  0.12509424980E+03 0.  0.
          5    1    3    3  502    0  0.24357029563E+02 -0.97465025517E+02 -0.11124963622E+03  0.14995549355E+03  0.41800000000E+01 0.  1.
         -5    1    3    3    0  502  0.81632029644E+02  0.83779180338E+01 -0.15093548691E+03  0.17185159697E+03  0.41800000000E+01 0.  1.
        -11    1    1    2    0    0 -0.31702000349E+02 -0.39132995148E+02 -0.56146138419E+02  0.75424114147E+02  0.00000000000E+00 0.  1.
         11    1    1    2    0    0 -0.74287058858E+02  0.12822010263E+03 -0.17470717921E+03  0.22908854249E+03  0.00000000000E+00 0. -1.
</event>
<event>
 7    1  0.2661133E-009  0.1354963E+03  0.7561462E-02  0.1219521E+00
         -1   -1    0    0    0  501 -0.00000000000E+00  0.00000000000E+00  0.45203756733E+03  0.45203756733E+03  0.00000000000E+00 0.  1.
          1   -1    0    0  501    0  0.00000000000E+00 -0.00000000000E+00 -0.62097862308E+02  0.62097862308E+02  0.00000000000E+00 0. -1.
         25    2    1    2    0    0 -0.82865200590E+02 -0.66314010538E+02  0.10206164312E+03  0.19320159999E+03  0.12508433067E+03 0.  0.
          5    1    3    3  502    0 -0.84289956997E+02  0.77423557120E+01  0.78081701226E+02  0.11523439325E+03  0.41800000000E+01 0.  1.
         -5    1    3    3    0  502  0.14247564064E+01 -0.74056366250E+02  0.23979941897E+02  0.77967206737E+02  0.41800000000E+01 0.  1.
        -11    1    1    2    0    0  0.29513631884E+02  0.46639240757E+02  0.24099687523E+03  0.24723625769E+03  0.00000000000E+00 0.  1.
         11    1    1    2    0    0  0.53351568706E+02  0.19674769781E+02  0.46881186675E+02  0.73697571965E+02  0.00000000000E+00 0. -1.
</event>
<event>
 7    1  0.2661133E-009  0.1170038E+03  0.7561462E-02  0.1248123E+00
          2   -1    0    0  501    0  0.00000000000E+00  0.00000000000E+00  0.38835792756E+03  0.38835792756E+03  0.00000000000E+00 0. -1.
         -2   -1    0    0    0  501 -0.00000000000E+00 -0.00000000000E+00 -0.49947928456E+02  0.49947928456E+02  0.00000000000E+00 0.  1.
         25    2    1    2    0    0 -0.24434401718E+02 -0.78247394725E+02  0.21121825265E+03  0.25881530027E+03  0.12511001014E+03 0.  0.
          5    1    3    3  502    0  0.37502362223E+02  0.12012896452E+02  0.47738257771E+02  0.62025402123E+02  0.41800000000E+01 0.  1.
         -5    1    3    3    0  502 -0.61936763941E+02 -0.90260291177E+02  0.16347999487E+03  0.19678989815E+03  0.41800000000E+01 0.  1.
        -11    1    1    2    0    0  0.15818550578E+02  0.17847918706E+02  0.11477804045E+03  0.11722957526E+03  0.00000000000E+00 0. -1.
         11    1    1    2    0    0  0.86158511400E+01  0.60399476018E+02  0.12413706006E+02  0.62260980485E+02  0.00000000000E+00 0.  1.
</event>
<event>
 7    1  0.2661133E-009  0.8588514E+02  0.7561462E-02  0.1313134E+00
          2   -1    0    0  501    0  0.00000000000E+00  0.00000000000E+00  0.15199748402E+03  0.15199748402E+03  0.00000000000E+00 0. -1.
         -2   -1    0    0    0  501 -0.00000000000E+00 -0.00000000000E+00 -0.16964429562E+03  0.16964429562E+03  0.00000000000E+00 0.  1.
         25    2    1    2    0    0 -0.45829009723E+02  0.49419720190E+02 -0.10640171237E+03  0.17752040635E+03  0.12509821501E+03 0.  0.
          5    1    3    3  502    0 -0.21067390144E+02  0.30249696968E+02 -0.13183931617E+03  0.13695969036E+03  0.41800000000E+01 0.  1.
         -5    1    3    3    0  502 -0.24761619579E+02  0.19170023222E+02  0.25437603801E+02  0.40560715990E+02  0.41800000000E+01 0.  1.
        -11    1    1    2    0    0  0.23705022775E+02 -0.69357159922E+02  0.31897474182E+02  0.79936178270E+02  0.00000000000E+00 0.  1.
         11    1    1    2    0    0  0.22123986948E+02  0.19937439732E+02  0.56857426586E+02  0.64185195018E+02  0.00000000000E+00 0. -1.
</event>
<event>
 7    1  0.2661133E-009  0.1315264E+03  0.7561462E-02  0.1225208E+00
         -1   -1    0    0    0  501 -0.00000000000E+00  0.00000000000E+00  0.30399825951E+02  0.30399825951E+02  0.00000000000E+00 0.  1.
          1   -1    0    0  501    0  0.00000000000E+00 -0.00000000000E+00 -0.58407296167E+03  0.58407296167E+03  0.00000000000E+00 0. -1.
         25    2    1    2    0    0 -0.55266589401E+02 -0.52652975337E+02 -0.34085897082E+03  0.37102434220E+03  0.12508993884E+03 0.  0.
          5    1    3    3  502    0  0.66129211613E+01  0.36587456372E+02 -0.10050997726E+03  0.10724784668E+03  0.41800000000E+01 0.  1.
         -5    1    3    3    0  502 -0.61879510562E+02 -0.89240431709E+02 -0.24034899356E+03  0.26377649551E+03  0.41800000000E+01 0.  1.
        -11    1    1    2    0    0  0.76593583996E+02  0.22128989692E+02 -0.16079921481E+03  0.17947884771E+03  0.00000000000E+00 0. -1.
         11    1    1    2    0    0 -0.21326994595E+02  0.30523985645E+02 -0.52014950094E+02  0.63969597712E+02  0.00000000000E+00 0.  1.
</event>
<event>
 7    1  0.2661133E-009  0.1154391E+03  0.7561462E-02  0.1250817E+00
         -2   -1    0    0    0  501 -0.00000000000E+00  0.00000000000E+00  0.29532259551E+02  0.29532259551E+02  0.00000000000E+00 0.  1.
          2   -1    0    0  501    0  0.00000000000E+00 -0.00000000000E+00 -0.78603312883E+03  0.78603312883E+03  0.00000000000E+00 0. -1.
         25    2    1    2    0    0  0.14171912222E+02 -0.83504293570E+02 -0.53060145339E+03  0.55168730289E+03  0.12508863935E+03 0.  0.
          5    1    3    3  502    0 -0.46650665105E+02 -0.66979692613E+02 -0.37400452938E+03  0.38283080359E+03  0.41800000000E+01 0.  1.
         -5    1    3    3    0  502  0.60822577327E+02 -0.16524600957E+02 -0.15659692400E+03  0.16885649930E+03  0.41800000000E+01 0.  1.
        -11    1    1    2    0    0  0.19657992483E+01  0.30766114286E+02  0.52522598774E+00  0.30833326406E+02  0.00000000000E+00 0.  1.
         11    1    1    2    0    0 -0.16137711471E+02  0.52738179284E+02 -0.22642464188E+03  0.23304475909E+03  0.00000000000E+00 0. -1.
</event>
<event>
 7    1  0.2661133E-009  0.1113579E+03  0.7561462E-02  0.1258076E+00
         -2   -1    0    0    0  501 -0.00000000000E+00  0.00000000000E+00  0.26534342494E+02  0.26534342494E+02  0.00000000000E+00 0.  1.
          2   -1    0    0  501    0  0.00000000000E+00 -0.00000000000E+00 -0.75549559491E+03  0.75549559491E+03  0.00000000000E+00 0. -1.
         25    2    1    2    0    0  0.12481142032E+02 -0.82497883703E+02 -0.30120637359E+03  0.33665323482E+03  0.12509373005E+03 0.  0.
          5    1    3    3  502    0  0.29962022927E+02 -0.22496569333E+02 -0.25757424275E+03  0.26031861512E+03  0.41800000000E+01 0. -1.
         -5    1    3    3    0  502 -0.17480880895E+02 -0.60001314370E+02 -0.43632130847E+02  0.76334619703E+02  0.41800000000E+01 0. -1.
        -11    1    1    2    0    0 -0.40199433588E+02  0.55357891452E+01 -0.17800566666E+03  0.18257233303E+03  0.00000000000E+00 0.  1.
         11    1    1    2    0    0  0.27718291555E+02  0.76962094558E+02 -0.24974921215E+03  0.26280436956E+03  0.00000000000E+00 0. -1.
</event>
<event>
 7    1  0.2661133E-009  0.1353621E+03  0.7561462E-02  0.1219709E+00
          1   -1    0    0  501    0  0.00000000000E+00  0.00000000000E+00  0.16384310915E+03  0.16384310915E+03  0.00000000000E+00 0. -1.
         -1   -1    0    0    0  501 -0.00000000000E+00 -0.00000000000E+00 -0.13301859463E+03  0.13301859463E+03  0.00000000000E+00 0.  1.
         25    2    1    2    0    0 -0.45513120435E+02 -0.79845261201E+02 -0.21533164983E+02  0.15670571720E+03  0.12508514996E+03 0.  0.
          5    1    3    3  502    0 -0.79730505688E+02 -0.66014412094E+02  0.14916841660E+02  0.10466537492E+03  0.41800000000E+01 0. -1.
         -5    1    3    3    0  502  0.34217385253E+02 -0.13830849107E+02 -0.36450006643E+02  0.52040342282E+02  0.41800000000E+01 0. -1.
        -11    1    1    2    0    0  0.58785659236E+02  0.10918105500E+02  0.22720975816E+02  0.63962500745E+02  0.00000000000E+00 0.  1.
         11    1    1    2    0    0 -0.13272538801E+02  0.68927155701E+02  0.29636703688E+02  0.76193485841E+02  0.00000000000E+00 0. -1.
</event>
<event>
 7    1  0.2661133E-009  0.1166285E+03  0.7561462E-02  0.1248765E+00
          2   -1    0    0  501    0  0.00000000000E+00  0.00000000000E+00  0.21406633107E+03  0.21406633107E+03  0.00000000000E+00 0. -1.
         -2   -1    0    0    0  501 -0.00000000000E+00 -0.00000000000E+00 -0.10424883818E+03  0.10424883818E+03  0.00000000000E+00 0.  1.
         25    2    1    2    0    0  0.52978042962E+02  0.46192649281E+02  0.13808138142E+03  0.19913421257E+03  0.12509009888E+03 0.  0.
          5    1    3    3  502    0  0.47084370144E+02  0.84300225763E+02  0.65231071635E+02  0.11660202006E+03  0.41800000000E+01 0. -1.
         -5    1    3    3    0  502  0.58936728179E+01 -0.38107576482E+02  0.72850309788E+02  0.82532192512E+02  0.41800000000E+01 0. -1.
        -11    1    1    2    0    0 -0.40517959992E+02 -0.64204412825E+02  0.84927323996E+01  0.76393967116E+02  0.00000000000E+00 0. -1.
         11    1    1    2    0    0 -0.12460082970E+02  0.18011763544E+02 -0.36756620927E+02  0.42786989559E+02  0.00000000000E+00 0.  1.
</event>
<event>
 7    1  0.2661133E-009  0.2496319E+03  0.7561462E-02  0.1113538E+00
         -1   -1    0    0    0  501 -0.00000000000E+00  0.00000000000E+00  0.91866429514E+02  0.91866429514E+02  0.00000000000E+00 0.  1.
          1   -1    0    0  501    0  0.00000000000E+00 -0.00000000000E+00 -0.32145720737E+04  0.32145720737E+04  0.00000000000E+00 0. -1.
         25    2    1    2    0    0  0.22048022964E+03  0.63048143876E+02 -0.30328626030E+04  0.30440907288E+04  0.12508475619E+03 0.  0.
          5    1    3    3  502    0  0.47834399786E+02 -0.37624065183E+02 -0.64775105894E+03  0.65061709695E+03  0.41800000000E+01 0. -1.
         -5    1    3    3    0  502  0.17264582986E+03  0.10067220906E+03 -0.23851115441E+04  0.23934736319E+04  0.41800000000E+01 0. -1.
        -11    1    1    2    0    0 -0.19016970321E+03 -0.28315061901E+02 -0.97568712993E+02  0.21560591946E+03  0.00000000000E+00 0. -1.
         11    1    1    2    0    0 -0.30310526435E+02 -0.34733081975E+02  0.77256718631E+01  0.46741854927E+02  0.00000000000E+00 0.  1.
</event>
<event>
 7    1  0.2661133E-009  0.7347520E+02  0.7561462E-02  0.1348659E+00
          2   -1    0    0  501    0  0.00000000000E+00  0.00000000000E+00  0.65850195020E+03  0.65850195020E+03  0.00000000000E+00 0. -1.
         -2   -1    0    0    0  501 -0.00000000000E+00 -0.00000000000E+00 -0.58269074036E+02  0.58269074036E+02  0.00000000000E+00 0.  1.
         25    2    1    2    0    0 -0.30194136553E+02  0.48299026936E+02  0.61150269352E+03  0.62676007224E+03  0.12509261401E+03 0.  0.
          5    1    3    3  502    0 -0.99520727898E+01  0.15783978285E+02  0.60120096674E+01  0.20044809391E+02  0.41800000000E+01 0. -1.
         -5    1    3    3    0  502 -0.20242063763E+02  0.32515048651E+02  0.60549068386E+03  0.60671526285E+03  0.41800000000E+01 0. -1.
        -11    1    1    2    0    0  0.50063011774E+02 -0.18269484453E+02 -0.63837258651E+01  0.53673374833E+02  0.00000000000E+00 0.  1.
         11    1    1    2    0    0 -0.19868875221E+02 -0.30029542483E+02 -0.48860914929E+01  0.36337577167E+02  0.00000000000E+00 0. -1.
</event>
<event>
 7    1  0.2661133E-009  0.1198199E+03  0.7561462E-02  0.1243394E+00
         -1   -1    0    0    0  501 -0.00000000000E+00  0.00000000000E+00  0.11064920463E+04  0.11064920463E+04  0.00000000000E+00 0.  1.
          1   -1    0    0  501    0  0.00000000000E+00 -0.00000000000E+00 -0.18094225400E+02  0.18094225400E+02  0.00000000000E+00 0. -1.
         25    2    1    2    0    0  0.88178736803E+02 -0.20529874780E+02  0.68661049430E+03  0.70375919973E+03  0.12508427135E+03 0.  0.
          5    1    3    3  502    0  0.89334098864E+02 -0.40222671883E+02  0.67134250266E+03  0.67846641246E+03  0.41800000000E+01 0. -1.
         -5    1    3    3    0  502 -0.11553620617E+01  0.19692797103E+02  0.15267991636E+02  0.25292787269E+02  0.41800000000E+01 0. -1.
        -11    1    1    2    0    0 -0.50894250485E+02 -0.29648438179E+02  0.14426544606E+03  0.15582610034E+03  0.00000000000E+00 0.  1.
         11    1    1    2    0    0 -0.37284486317E+02  0.50178312959E+02  0.25752188058E+03  0.26500097168E+03  0.00000000000E+00 0. -1.
</event>
<event>
 7    1  0.3821054E-009  0.1645438E+03  0.7561462E-02  0.1183660E+00
          1   -1    0    0  501    0  0.00000000000E+00  0.00000000000E+00  0.14264988930E+04  0.14264988930E+04  0.00000000000E+00 0. -1.
         -1   -1    0    0    0  501 -0.00000000000E+00 -0.00000000000E+00 -0.25680875875E+02  0.25680875875E+02  0.00000000000E+00 0.  1.
         25    2    1    2    0    0  0.13165247693E+03 -0.15018232055E+02  0.10573266763E+04  0.10729140575E+04  0.12508777884E+03 0.  0.
          5    1    3    3  502    0 -0.17503082942E+02 -0.52978168528E+01  0.32155039418E+03  0.32209711761E+03  0.41800000000E+01 0.  1.
         -5    1    3    3    0  502  0.14915555987E+03 -0.97204152020E+01  0.73577628213E+03  0.75081693991E+03  0.41800000000E+01 0.  1.
        -11    1    1    2    0    0 -0.60893686908E+02 -0.38531531164E+02  0.15356157023E+03  0.16962864101E+03  0.00000000000E+00 0.  1.
         11    1    1    2    0    0 -0.70758790025E+02  0.53549763219E+02  0.18992977055E+03  0.20963707031E+03  0.00000000000E+00 0. -1.
</event>
<event>
 7    1  0.2661133E-009  0.9323606E+02  0.7561462E-02  0.1295199E+00
         -2   -1    0    0    0  501 -0.00000000000E+00  0.00000000000E+00  0.79961662155E+02  0.79961662155E+02  0.00000000000E+00 0.  1.
          2   -1    0    0  501    0  0.00000000000E+00 -0.00000000000E+00 -0.15106407432E+03  0.15106407432E+03  0.00000000000E+00 0. -1.
         25    2    1    2    0    0  0.18403646457E+01 -0.11768829705E+02 -0.56272127076E+02  0.13768376735E+03  0.12509346590E+03 0.  0.
          5    1    3    3  502    0 -0.45007572389E+02  0.33078242336E+02 -0.76757119158E+01  0.56535304384E+02  0.41800000000E+01 0. -1.
         -5    1    3    3    0  502  0.46847937035E+02 -0.44847072042E+02 -0.48596415160E+02  0.81148462965E+02  0.41800000000E+01 0. -1.
        -11    1    1    2    0    0 -0.29090458116E+02 -0.98235571834E+01  0.25629958345E+02  0.39995647187E+02  0.00000000000E+00 0.  1.
         11    1    1    2    0    0  0.27250093471E+02  0.21592386889E+02 -0.40460243437E+02  0.53346321942E+02  0.00000000000E+00 0. -1.
</event>
<event>
 7    1  0.2661133E-009  0.7545787E+02  0.7561462E-02  0.1342459E+00
          1   -1    0    0  501    0  0.00000000000E+00  0.00000000000E+00  0.12447089650E+03  0.12447089650E+03  0.00000000000E+00 0. -1.
         -1   -1    0    0    0  501 -0.00000000000E+00 -0.00000000000E+00 -0.84306597176E+02  0.84306597176E+02  0.00000000000E+00 0.  1.
         25    2    1    2    0    0 -0.31087998737E+02 -0.26458509594E+01  0.93690876790E+00  0.12892354883E+03  0.12508772702E+03 0.  0.
          5    1    3    3  502    0 -0.56812688949E+02  0.15527830832E+02 -0.44178468010E+02  0.73742827392E+02  0.41800000000E+01 0.  1.
         -5    1    3    3    0  502  0.25724690212E+02 -0.18173681791E+02  0.45115376778E+02  0.55180721436E+02  0.41800000000E+01 0.  1.
        -11    1    1    2    0    0  0.25809101785E+02  0.25714836363E+02  0.29660969003E+01  0.36553526163E+02  0.00000000000E+00 0.  1.
         11    1    1    2    0    0  0.52788969523E+01 -0.23068985404E+02  0.36261293653E+02  0.43300418681E+02  0.00000000000E+00 0. -1.
</event>
<event>
 7    1  0.2661133E-009  0.1091129E+03  0.7561462E-02  0.1262222E+00
         -2   -1    0    0    0  501 -0.00000000000E+00  0.00000000000E+00  0.15336345884E+03  0.15336345884E+03  0.00000000000E+00 0.  1.
          2   -1    0    0  501    0  0.00000000000E+00 -0.00000000000E+00 -0.10855873316E+03  0.10855873316E+03  0.00000000000E+00 0. -1.
         25    2    1    2    0    0  0.37492565621E+02  0.19441406418E+02  0.14372026024E+02  0.13282055932E+03  0.12510429683E+03 0.  0.
          5    1    3    3  502    0 -0.22648256808E+01 -0.44385870948E+02  0.32668827727E+02  0.55316902302E+02  0.41800000000E+01 0.  1.
         -5    1    3    3    0  502  0.39757391301E+02  0.63827277367E+02 -0.18296801703E+02  0.77503657021E+02  0.41800000000E+01 0.  1.
        -11    1    1    2    0    0 -0.29320823162E+02 -0.54709129402E+02 -0.21593187634E+02  0.65719595731E+02  0.00000000000E+00 0. -1.
         11    1    1    2    0    0 -0.81717424590E+01  0.35267722984E+02  0.52025887285E+02  0.63382036943E+02  0.00000000000E+00 0.  1.
</event>
<event>
 7    1  0.2661133E-009  0.1660385E+03  0.7561462E-02  0.1182043E+00
          2   -1    0    0  501    0  0.00000000000E+00  0.00000000000E+00  0.15545779715E+03  0.15545779715E+03  0.00000000000E+00 0. -1.
         -2   -1    0    0    0  501 -0.00000000000E+00 -0.00000000000E+00 -0.22597894817E+03  0.22597894817E+03  0.00000000000E+00 0.  1.
         25    2    1    2    0    0  0.17938081650E+02 -0.13672248261E+03  0.29822362294E+02  0.18855648949E+03  0.12509741967E+03 0.  0.
          5    1    3    3  502    0 -0.35427251514E+02 -0.12668616542E+03  0.18153946370E+02  0.13285899604E+03  0.41800000000E+01 0. -1.
         -5    1    3    3    0  502  0.53365333164E+02 -0.10036317193E+02  0.11668415923E+02  0.55697493450E+02  0.41800000000E+01 0. -1.
        -11    1    1    2    0    0  0.15481788169E+02  0.25156411402E+02 -0.64635115296E+02  0.71064962737E+02  0.00000000000E+00 0.  1.
         11    1    1    2    0    0 -0.33419869819E+02  0.11156607121E+03 -0.35708398013E+02  0.12181529310E+03  0.00000000000E+00 0. -1.
</event>
<event>
 7    1  0.2661133E-009  0.1502599E+03  0.7561462E-02  0.1200154E+00
          1   -1    0    0  501    0  0.00000000000E+00  0.00000000000E+00  0.17546802801E+03  0.17546802801E+03  0.00000000000E+00 0. -1.
         -1   -1    0    0    0  501 -0.00000000000E+00 -0.00000000000E+00 -0.15635591676E+03  0.15635591676E+03  0.00000000000E+00 0.  1.
         25    2    1    2    0    0 -0.21693014371E+02  0.11286886363E+03 -0.36437024074E+02  0.17373435945E+03  0.12508398650E+03 0.  0.
          5    1    3    3  502    0  0.37057532905E+02  0.98494622518E+02 -0.40811348458E+02  0.11294905919E+03  0.41800000000E+01 0. -1.
         -5    1    3    3    0  502 -0.58750547276E+02  0.14374241112E+02  0.43743243839E+01  0.60785300251E+02  0.41800000000E+01 0. -1.
        -11    1    1    2    0    0  0.41356863502E+02 -0.34749416621E+02  0.55619204460E+02  0.77533270401E+02  0.00000000000E+00 0. -1.
         11    1    1    2    0    0 -0.19663849131E+02 -0.78119447009E+02 -0.70069137764E-01  0.80556314919E+02  0.00000000000E+00 0.  1.
</event>
<event>
 7    1  0.2661133E-009  0.1376324E+03  0.7561462E-02  0.1216551E+00
         -1   -1    0    0    0  501 -0.00000000000E+00  0.00000000000E+00  0.59487989942E+03  0.59487989942E+03  0.00000000000E+00 0.  1.
          1   -1    0    0  501    0  0.00000000000E+00 -0.00000000000E+00 -0.69361953632E+02  0.69361953632E+02  0.00000000000E+00 0. -1.
         25    2    1    2    0    0 -0.80732929046E+02  0.10167813860E+03  0.46000601565E+03  0.49407312892E+03  0.12508586087E+03 0.  0.
          5    1    3    3  502    0 -0.10210807123E+02  0.47755685655E+02  0.34632116899E+03  0.34977234108E+03  0.41800000000E+01 0. -1.
         -5    1    3    3    0  502 -0.70522121924E+02  0.53922452947E+02  0.11368484666E+03  0.14430078785E+03  0.41800000000E+01 0. -1.
        -11    1    1    2    0    0  0.16625085655E+02 -0.56643561472E+02 -0.11688055949E+02  0.60178876536E+02  0.00000000000E+00 0. -1.
         11    1    1    2    0    0  0.64107843392E+02 -0.45034577130E+02  0.77199986090E+02  0.10998984759E+03  0.00000000000E+00 0.  1.
</event>
<event>
 7    1  0.2661133E-009  0.1235213E+03  0.7561462E-02  0.1237399E+00
         -2   -1    0    0    0  501 -0.00000000000E+00  0.00000000000E+00  0.87116328940E+02  0.87116328940E+02  0.00000000000E+00 0.  1.
          2   -1    0    0  501    0  0.00000000000E+00 -0.00000000000E+00 -0.22553557257E+03  0.22553557257E+03  0.00000000000E+00 0. -1.
         25    2    1    2    0    0  0.88344590538E+02  0.92081228554E+01 -0.54212212254E+02  0.16271186478E+03  0.12508649319E+03 0.  0.
          5    1    3    3  502    0  0.88287529053E+02 -0.38164492799E+02 -0.83361939093E+01  0.96634263208E+02  0.41800000000E+01 0.  1.
         -5    1    3    3    0  502  0.57061484586E-01  0.47372615654E+02 -0.45876018344E+02  0.66077601569E+02  0.41800000000E+01 0.  1.
        -11    1    1    2    0    0 -0.48893705827E+02 -0.31243860534E+02 -0.43528946638E+01  0.58186948558E+02  0.00000000000E+00 0.  1.
         11    1    1    2    0    0 -0.39450884711E+02  0.22035737679E+02 -0.79854136710E+02  0.91753088173E+02  0.00000000000E+00 0. -1.
</event>
<event>
 7    1  0.2661133E-009  0.1361117E+03  0.7561462E-02  0.1218659E+00
          2   -1    0    0  501    0  0.00000000000E+00  0.00000000000E+00  0.10580840207E+03  0.10580840207E+03  0.00000000000E+00 0. -1.
         -2   -1    0    0    0  501 -0.00000000000E+00 -0.00000000000E+00 -0.21946108750E+03  0.21946108750E+03  0.00000000000E+00 0.  1.
         25    2    1    2    0    0 -0.42489817930E+02 -0.97962406460E+02 -0.53929509183E+02  0.17307923244E+03  0.12508401589E+03 0.  0.
          5    1    3    3  502    0 -0.60821587818E+02  0.35716086036E+01 -0.23416074406E+02  0.65404945328E+02  0.41800000000E+01 0.  1.
         -5    1    3    3    0  502  0.18331769888E+02 -0.10153401506E+03 -0.30513434777E+02  0.10767428711E+03  0.41800000000E+01 0.  1.
        -11    1    1    2    0    0  0.32395882359E+00  0.13376002094E+02 -0.56029061469E+02  0.57604497310E+02  0.00000000000E+00 0.  1.
         11    1    1    2    0    0  0.42165859106E+02  0.84586404367E+02 -0.36941147748E+01  0.94585759826E+02  0.00000000000E+00 0. -1.
</event>
<event>
 7    1  0.2661133E-009  0.7879516E+02  0.7561462E-02  0.1332506E+00
         -2   -1    0    0    0  501 -0.00000000000E+00  0.00000000000E+00  0.21505145487E+02  0.21505145487E+02  0.00000000000E+00 0.  1.
          2   -1    0    0  501    0  0.00000000000E+00 -0.00000000000E+00 -0.78011072495E+03  0.78011072495E+03  0.00000000000E+00 0. -1.
         25    2    1    2    0    0  0.25260367313E+02 -0.48479451579E+02 -0.28685452245E+03  0.31768142089E+03  0.12509046624E+03 0.  0.
          5    1    3    3  502    0  0.67567997754E+01 -0.20440701914E+02  0.61113339123E+01  0.22766146800E+02  0.41800000000E+01 0.  1.
         -5    1    3    3    0  502  0.18503567538E+02 -0.28038749665E+02 -0.29296585636E+03  0.29491527409E+03  0.41800000000E+01 0.  1.
        -11    1    1    2    0    0 -0.51267823379E+02  0.54799414021E+02 -0.40716260545E+03  0.41402023232E+03  0.00000000000E+00 0.  1.
         11    1    1    2    0    0  0.26007456066E+02 -0.63199624419E+01 -0.64588451559E+02  0.69914217232E+02  0.00000000000E+00 0. -1.
</event>
<event>
 7    1  0.2661133E-009  0.1492042E+03  0.7561462E-02  0.1201454E+00
         -1   -1    0    0    0  501 -0.00000000000E+00  0.00000000000E+00  0.43472587998E+03  0.43472587998E+03  0.00000000000E+00 0.  1.
          1   -1    0    0  501    0  0.00000000000E+00 -0.00000000000E+00 -0.79751867117E+02  0.79751867117E+02  0.00000000000E+00 0. -1.
         25    2    1    2    0    0  0.81383258035E+02 -0.95859676365E+02  0.71774085370E+02  0.19133926721E+03  0.12508750379E+03 0.  0.
          5    1    3    3  502    0  0.79904614417E+02 -0.14827117085E+02 -0.23767206013E+01  0.81410761003E+02  0.41800000000E+01 0.  1.
         -5    1    3    3    0  502  0.14786436172E+01 -0.81032559280E+02  0.74150805971E+02  0.10992850621E+03  0.41800000000E+01 0.  1.
        -11    1    1    2    0    0 -0.27402942376E+02  0.71662255265E+02  0.23380651967E+03  0.24607293374E+03  0.00000000000E+00 0.  1.
         11    1    1    2    0    0 -0.53980315659E+02  0.24197421100E+02  0.49393407828E+02  0.77065546150E+02  0.00000000000E+00 0. -1.
</event>
<event>
 7    1  0.2661133E-009  0.1278474E+03  0.7561462E-02  0.1230685E+00
          2   -1    0    0  501    0  0.00000000000E+00  0.00000000000E+00  0.10254847659E+04  0.10254847659E+04  0.00000000000E+00 0.  1.
         -2   -1    0    0    0  501 -0.00000000000E+00 -0.00000000000E+00 -0.16475849844E+02  0.16475849844E+02  0.00000000000E+00 0. -1.
         25    2    1    2    0    0 -0.55698670627E+02  0.40789440063E+02  0.58128081943E+03  0.59858202577E+03  0.12508769004E+03 0.  0.
          5    1    3    3  502    0 -0.90181276897E+01  0.80673811913E+02  0.33857367633E+03  0.34819419475E+03  0.41800000000E+01 0. -1.
         -5    1    3    3    0  502 -0.46680542938E+02 -0.39884371850E+02  0.24270714311E+03  0.25038783102E+03  0.41800000000E+01 0. -1.
        -11    1    1    2    0    0  0.79843560491E+02 -0.23692141358E+02  0.25854370756E+03  0.27162687723E+03  0.00000000000E+00 0.  1.
         11    1    1    2    0    0 -0.24144889864E+02 -0.17097298705E+02  0.16918438909E+03  0.17175171277E+03  0.00000000000E+00 0. -1.
</event>
<event>
 7    1  0.2661133E-009  0.1146049E+03  0.7561462E-02  0.1252272E+00
          1   -1    0    0  501    0  0.00000000000E+00  0.00000000000E+00  0.10048700454E+04  0.10048700454E+04  0.00000000000E+00 0. -1.
         -1   -1    0    0    0  501 -0.00000000000E+00 -0.00000000000E+00 -0.16885829403E+02  0.16885829403E+02  0.00000000000E+00 0.  1.
         25    2    1    2    0    0  0.67470940933E+02  0.27127366943E+01  0.61609303269E+03  0.63227949730E+03  0.12508817280E+03 0.  0.
          5    1    3    3  502    0  0.62469328363E+02  0.43199679067E+02  0.54438508745E+03  0.54967374423E+03  0.41800000000E+01 0.  1.
         -5    1    3    3    0  502  0.50016125697E+01 -0.40486942373E+02  0.71707945241E+02  0.82605753078E+02  0.41800000000E+01 0.  1.
        -11    1    1    2    0    0  0.17758787990E+02 -0.18290549796E+02  0.13149336160E+03  0.13394186391E+03  0.00000000000E+00 0. -1.
         11    1    1    2    0    0 -0.85229728923E+02  0.15577813102E+02  0.24039782173E+03  0.25553451361E+03  0.00000000000E+00 0.  1.
</event>
<event>
 7    1  0.2661133E-009  0.1754783E+03  0.7561462E-02  0.1172252E+00
         -2   -1    0    0    0  501 -0.00000000000E+00  0.00000000000E+00  0.18917598518E+03  0.18917598518E+03  0.00000000000E+00 0.  1.
          2   -1    0    0  501    0  0.00000000000E+00 -0.00000000000E+00 -0.20022017642E+03  0.20022017642E+03  0.00000000000E+00 0. -1.
         25    2    1    2    0    0  0.52456005292E+01 -0.15211280283E+03  0.40669630198E+02  0.20116154754E+03  0.12508448457E+03 0.  0.
          5    1    3    3  502    0 -0.47283424659E+02 -0.12274918837E+03  0.48650374228E+02  0.14031185554E+03  0.41800000000E+01 0.  1.
         -5    1    3    3    0  502  0.52529025188E+02 -0.29363614455E+02 -0.79807440300E+01  0.60849691999E+02  0.41800000000E+01 0.  1.
        -11    1    1    2    0    0  0.15579338616E+02  0.11824486746E+03 -0.76209528596E+02  0.14153606156E+03  0.00000000000E+00 0. -1.
         11    1    1    2    0    0 -0.20824939145E+02  0.33867935367E+02  0.24495707162E+02  0.46698552502E+02  0.00000000000E+00 0.  1.
</event>
<event>
 7    1  0.2661133E-009  0.1016681E+03  0.7561462E-02  0.1276827E+00
         -1   -1    0    0    0  501 -0.00000000000E+00  0.00000000000E+00  0.22884591569E+02  0.22884591569E+02  0.00000000000E+00 0.  1.
          1   -1    0    0  501    0  0.00000000000E+00 -0.00000000000E+00 -0.58704330446E+03  0.58704330446E+03  0.00000000000E+00 0. -1.
         25    2    1    2    0    0 -0.21654100039E+02  0.36051885634E+02 -0.41384825801E+03  0.43438070533E+03  0.12509027941E+03 0.  0.
          5    1    3    3  502    0  0.44782321860E+02 -0.12731023969E+02 -0.10991069746E+03  0.11943772076E+03  0.41800000000E+01 0. -1.
         -5    1    3    3    0  502 -0.66436421899E+02  0.48782909602E+02 -0.30393756054E+03  0.31494298457E+03  0.41800000000E+01 0. -1.
        -11    1    1    2    0    0 -0.91320762238E+01 -0.41764556406E+02 -0.13314255113E+03  0.13983780572E+03  0.00000000000E+00 0. -1.
         11    1    1    2    0    0  0.30786176263E+02  0.57126707721E+01 -0.17167903760E+02  0.35709384981E+02  0.00000000000E+00 0.  1.
</event>
<event>
 7    1  0.2661133E-009  0.1374958E+03  0.7561462E-02  0.1216739E+00
          2   -1    0    0  501    0  0.00000000000E+00  0.00000000000E+00  0.44395538929E+03  0.44395538929E+03  0.00000000000E+00 0. -1.
         -2   -1    0    0    0  501 -0.00000000000E+00 -0.00000000000E+00 -0.44983956353E+02  0.44983956353E+02  0.00000000000E+00 0.  1.
         25    2    1    2    0    0  0.68772684250E+02 -0.55676070464E+02  0.24732323719E+03  0.29093980522E+03  0.12509068586E+03 0.  0.
          5    1    3    3  502    0  0.64436131063E+01  0.38522751918E+02  0.50606449555E+02  0.64062529623E+02  0.41800000000E+01 0. -1.
         -5    1    3    3    0  502  0.62329071144E+02 -0.94198822382E+02  0.19671678763E+03  0.22687727560E+03  0.41800000000E+01 0. -1.
        -11    1    1    2    0    0 -0.77897615825E+02  0.12920382803E+02  0.70644071907E+02  0.10595074204E+03  0.00000000000E+00 0.  1.
         11    1    1    2    0    0  0.91249315748E+01  0.42755687661E+02  0.81004123840E+02  0.92048798377E+02  0.00000000000E+00 0. -1.
</event>
<event>
 7    1  0.2661133E-009  0.1022656E+03  0.7561462E-02  0.1275603E+00
          2   -1    0    0  501    0  0.00000000000E+00  0.00000000000E+00  0.33172876967E+03  0.33172876967E+03  0.00000000000E+00 0. -1.
         -2   -1    0    0    0  501 -0.00000000000E+00 -0.00000000000E+00 -0.41143194719E+02  0.41143194719E+02  0.00000000000E+00 0.  1.
         25    2    1    2    0    0 -0.24561181001E+02 -0.23619695234E+01  0.21390370720E+03  0.24901851318E+03  0.12508634393E+03 0.  0.
          5    1    3    3  502    0 -0.48894781240E+02 -0.52140870023E+02  0.12923990411E+03  0.14774909534E+03  0.41800000000E+01 0. -1.
         -5    1    3    3    0  502  0.24333600239E+02  0.49778900500E+02  0.84663803094E+02  0.10126941784E+03  0.41800000000E+01 0. -1.
        -11    1    1    2    0    0  0.30768218668E+02 -0.30853469503E+02  0.78748701233E+02  0.89999876701E+02  0.00000000000E+00 0.  1.
         11    1    1    2    0    0 -0.62070376667E+01  0.33215439026E+02 -0.20668334852E+01  0.33853574508E+02  0.00000000000E+00 0. -1.
</event>
<event>
 7    1  0.2661133E-009  0.1171078E+03  0.7561462E-02  0.1247946E+00
          2   -1    0    0  501    0  0.00000000000E+00  0.00000000000E+00  0.17729675022E+03  0.17729675022E+03  0.00000000000E+00 0. -1.
         -2   -1    0    0    0  501 -0.00000000000E+00 -0.00000000000E+00 -0.14947179783E+03  0.14947179783E+03  0.00000000000E+00 0.  1.
         25    2    1    2    0    0  0.64763823707E+02  0.88924199400E+02  0.65869560834E+02  0.17913104645E+03  0.12508903492E+03 0.  0.
          5    1    3    3  502    0  0.47128761465E+00  0.42990026785E+02  0.87085732290E+02  0.97209884700E+02  0.41800000000E+01 0. -1.
         -5    1    3    3    0  502  0.64292536093E+02  0.45934172615E+02 -0.21216171456E+02  0.81921161749E+02  0.41800000000E+01 0. -1.
        -11    1    1    2    0    0 -0.37801865758E+02 -0.34594356247E+02 -0.63725844041E+02  0.81772450970E+02  0.00000000000E+00 0.  1.
         11    1    1    2    0    0 -0.26961957950E+02 -0.54329843152E+02  0.25681235595E+02  0.65865050635E+02  0.00000000000E+00 0. -1.
</event>
<event>
 7    1  0.2661133E-009  0.1077247E+03  0.7561462E-02  0.1264842E+00
         -1   -1    0    0    0  501 -0.00000000000E+00  0.00000000000E+00  0.52677450703E+02  0.52677450703E+02  0.00000000000E+00 0.  1.
          1   -1    0    0  501    0  0.00000000000E+00 -0.00000000000E+00 -0.29538471276E+03  0.29538471276E+03  0.00000000000E+00 0. -1.
         25    2    1    2    0    0  0.10693892407E+02 -0.50948764528E+02 -0.18140908246E+03  0.22641955724E+03  0.12508566969E+03 0.  0.
          5    1    3    3  502    0  0.33219827988E+02  0.23678023472E+02 -0.16949791467E+02  0.44373117964E+02  0.41800000000E+01 0. -1.
         -5    1    3    3    0  502 -0.22525935580E+02 -0.74626788001E+02 -0.16445929099E+03  0.18204643928E+03  0.41800000000E+01 0. -1.
        -11    1    1    2    0    0  0.16943745791E+02 -0.16398130450E+02  0.39210301060E+01  0.23903214863E+02  0.00000000000E+00 0.  1.
         11    1    1    2    0    0 -0.27637638198E+02  0.67346894978E+02 -0.65219209707E+02  0.97739391359E+02  0.00000000000E+00 0. -1.
</event>
<event>
 7    1  0.2661133E-009  0.1466964E+03  0.7561462E-02  0.1204592E+00
         -1   -1    0    0    0  501 -0.00000000000E+00  0.00000000000E+00  0.53046892926E+02  0.53046892926E+02  0.00000000000E+00 0.  1.
          1   -1    0    0  501    0  0.00000000000E+00 -0.00000000000E+00 -0.50755943174E+03  0.50755943174E+03  0.00000000000E+00 0. -1.
         25    2    1    2    0    0 -0.10068803723E+03 -0.68537951753E+02 -0.24275550909E+03  0.29902937409E+03  0.12511114141E+03 0.  0.
          5    1    3    3  502    0 -0.22102167302E+02  0.34638948384E+02 -0.35294652750E+02  0.54328146087E+02  0.41800000000E+01 0.  1.
         -5    1    3    3    0  502 -0.78585869930E+02 -0.10317690014E+03 -0.20746085634E+03  0.24470122801E+03  0.41800000000E+01 0.  1.
        -11    1    1    2    0    0  0.32921465978E+02  0.28979973168E+02 -0.98410359672E+01  0.44950058464E+02  0.00000000000E+00 0.  1.
         11    1    1    2    0    0  0.67766571254E+02  0.39557978585E+02 -0.20191599376E+03  0.21662689211E+03  0.00000000000E+00 0. -1.
</event>
<event>
 7    1  0.2661133E-009  0.1306996E+03  0.7561462E-02  0.1226421E+00
         -2   -1    0    0    0  501 -0.00000000000E+00  0.00000000000E+00  0.49103106985E+03  0.49103106985E+03  0.00000000000E+00 0.  1.
          2   -1    0    0  501    0  0.00000000000E+00 -0.00000000000E+00 -0.35529260875E+02  0.35529260875E+02  0.00000000000E+00 0. -1.
         25    2    1    2    0    0 -0.35672746231E+02  0.63374726039E+02  0.24558131860E+03  0.28503822132E+03  0.12509077841E+03 0.  0.
          5    1    3    3  502    0  0.79610392840E+01  0.91327013398E+02  0.14074763412E+03  0.16802193438E+03  0.41800000000E+01 0. -1.
         -5    1    3    3    0  502 -0.43633785515E+02 -0.27952287359E+02  0.10483368448E+03  0.11701628694E+03  0.41800000000E+01 0. -1.
        -11    1    1    2    0    0 -0.10739922114E+02 -0.69947472526E+02  0.14609576613E+03  0.16233289168E+03  0.00000000000E+00 0. -1.
         11    1    1    2    0    0  0.46412668345E+02  0.65727464867E+01  0.63824724245E+02  0.79189217727E+02  0.00000000000E+00 0.  1.
</event>
<event>
 7    1  0.2661133E-009  0.1470761E+03  0.7561462E-02  0.1204113E+00
         -1   -1    0    0    0  501 -0.00000000000E+00  0.00000000000E+00  0.87730344311E+02  0.87730344311E+02  0.00000000000E+00 0.  1.
          1   -1    0    0  501    0  0.00000000000E+00 -0.00000000000E+00 -0.38436399593E+03  0.38436399593E+03  0.00000000000E+00 0. -1.
         25    2    1    2    0    0  0.43963743984E+02  0.11716369236E+03 -0.52696021206E+02  0.18461700940E+03  0.12508568230E+03 0.  0.
          5    1    3    3  502    0 -0.33033671667E+02  0.61760130521E+01 -0.34341893867E+02  0.48230744090E+02  0.41800000000E+01 0. -1.
         -5    1    3    3    0  502  0.76997415651E+02  0.11098767931E+03 -0.18354127338E+02  0.13638626531E+03  0.41800000000E+01 0. -1.
        -11    1    1    2    0    0 -0.15870560838E+02 -0.41615705229E+02 -0.18796679377E+02  0.48343115111E+02  0.00000000000E+00 0.  1.
         11    1    1    2    0    0 -0.28093183146E+02 -0.75547987133E+02 -0.22514095103E+03  0.23913421573E+03  0.00000000000E+00 0. -1.
</event>
<event>
 7    1  0.2661133E-009  0.1053614E+03  0.7561462E-02  0.1269409E+00
          2   -1    0    0  501    0  0.00000000000E+00  0.00000000000E+00  0.15671341352E+04  0.15671341352E+04  0.00000000000E+00 0. -1.
         -2   -1    0    0    0  501 -0.00000000000E+00 -0.00000000000E+00 -0.23294179709E+02  0.23294179709E+02  0.00000000000E+00 0.  1.
         25    2    1    2    0    0  0.74519247196E+02 -0.52179294960E+02  0.13391392780E+04  0.13480407900E+04  0.12507665094E+03 0.  0.
          5    1    3    3  502    0  0.46749192317E+02 -0.26894156639E+02  0.12506648649E+04  0.12518341980E+04  0.41800000000E+01 0. -1.
         -5    1    3    3    0  502  0.27770054879E+02 -0.25285138321E+02  0.88474413120E+02  0.96206592003E+02  0.41800000000E+01 0. -1.
        -11    1    1    2    0    0 -0.40220604684E+02  0.69588068126E+02  0.86463877378E+02  0.11805167664E+03  0.00000000000E+00 0.  1.
         11    1    1    2    0    0 -0.34298642512E+02 -0.17408773166E+02  0.11823680007E+03  0.12433584821E+03  0.00000000000E+00 0. -1.
</event>
<event>
 7    1  0.2661133E-009  0.9199268E+02  0.7561462E-02  0.1298097E+00
         -1   -1    0    0    0  501 -0.00000000000E+00  0.00000000000E+00  0.40820623068E+02  0.40820623068E+02  0.00000000000E+00 0.  1.
          1   -1    0    0  501    0  0.00000000000E+00 -0.00000000000E+00 -0.30521420214E+03  0.30521420214E+03  0.00000000000E+00 0. -1.
         25    2    1    2    0    0 -0.16409191787E+02  0.61223268213E+01 -0.15798367694E+03  0.20227061678E+03  0.12509122980E+03 0.  0.
          5    1    3    3  502    0  0.27109380176E+02 -0.24434540406E+02 -0.13010137679E+01  0.36757724293E+02  0.41800000000E+01 0. -1.
         -5    1    3    3    0  502 -0.43518571963E+02  0.30556867227E+02 -0.15668266317E+03  0.16551289249E+03  0.41800000000E+01 0. -1.
        -11    1    1    2    0    0  0.36852374527E+02 -0.39971879973E+02 -0.44283570244E+02  0.70120491231E+02  0.00000000000E+00 0.  1.
         11    1    1    2    0    0 -0.20443182740E+02  0.33849553152E+02 -0.62126331889E+02  0.73643717200E+02  0.00000000000E+00 0. -1.
</event>
<event>
 7    1  0.2908922E-009  0.2352959E+03  0.7561462E-02  0.1122967E+00
          1   -1    0    0  501    0  0.00000000000E+00  0.00000000000E+00  0.55787149348E+03  0.55787149348E+03  0.00000000000E+00 0. -1.
         -1   -1    0    0    0  501 -0.00000000000E+00 -0.00000000000E+00 -0.12426330077E+03  0.12426330077E+03  0.00000000000E+00 0.  1.
         25    2    1    2    0    0 -0.11733130058E+03 -0.19951188157E+03  0.14253239940E+03  0.29922378233E+03  0.12509101506E+03 0.  0.
          5    1    3    3  502    0 -0.11593915427E+03 -0.15624293385E+03  0.16041456315E+03  0.25219842652E+03  0.41800000000E+01 0.  1.
         -5    1    3    3    0  502 -0.13921463130E+01 -0.43268947724E+02 -0.17882163751E+02  0.47025355809E+02  0.41800000000E+01 0.  1.
        -11    1    1    2    0    0  0.65820401628E+02  0.90290138052E+02  0.20870892001E+03  0.23673624055E+03  0.00000000000E+00 0. -1.
         11    1    1    2    0    0  0.51510898954E+02  0.10922174352E+03  0.82366873296E+02  0.14617477137E+03  0.00000000000E+00 0.  1.
</event>
<event>
 7    1  0.2661133E-009  0.1975610E+03  0.7561462E-02  0.1151813E+00
         -1   -1    0    0    0  501 -0.00000000000E+00  0.00000000000E+00  0.67592126801E+02  0.67592126801E+02  0.00000000000E+00 0.  1.
          1   -1    0    0  501    0  0.00000000000E+00 -0.00000000000E+00 -0.69138107424E+03  0.69138107424E+03  0.00000000000E+00 0. -1.
         25    2    1    2    0    0 -0.15366276238E+03  0.10191018544E+03 -0.35370125494E+03  0.41803065059E+03  0.12508843529E+03 0.  0.
          5    1    3    3  502    0 -0.16566116689E+02  0.24244128651E+02 -0.18417615328E+03  0.18654903332E+03  0.41800000000E+01 0.  1.
         -5    1    3    3    0  502 -0.13709664569E+03  0.77666056789E+02 -0.16952510166E+03  0.23148161726E+03  0.41800000000E+01 0.  1.
        -11    1    1    2    0    0  0.16110204333E+03 -0.71011815394E+02 -0.22275949435E+03  0.28393368700E+03  0.00000000000E+00 0.  1.
         11    1    1    2    0    0 -0.74392809492E+01 -0.30898370047E+02 -0.47328198143E+02  0.57008863451E+02  0.00000000000E+00 0. -1.
</event>
<event>
 7    1  0.2661133E-009  0.1251707E+03  0.7561462E-02  0.1234803E+00
          2   -1    0    0  501    0  0.00000000000E+00  0.00000000000E+00  0.10042949041E+04  0.10042949041E+04  0.00000000000E+00 0. -1.
         -2   -1    0    0    0  501 -0.00000000000E+00 -0.00000000000E+00 -0.19565837068E+02  0.19565837068E+02  0.00000000000E+00 0.  1.
         25    2    1    2    0    0  0.23984597773E+02  0.80852115257E+02  0.59504161763E+03  0.61386812234E+03  0.12508884618E+03 0.  0.
          5    1    3    3  502    0  0.50474254328E+02  0.94304167502E+02  0.32521690941E+03  0.34238054402E+03  0.41800000000E+01 0.  1.
         -5    1    3    3    0  502 -0.26489656555E+02 -0.13452052245E+02  0.26982470822E+03  0.27148757832E+03  0.41800000000E+01 0.  1.
        -11    1    1    2    0    0 -0.49563132370E+02 -0.34613365306E+02  0.11152875977E+03  0.12685918730E+03  0.00000000000E+00 0. -1.
         11    1    1    2    0    0  0.25578534597E+02 -0.46238749951E+02  0.27815868965E+03  0.28313343155E+03  0.00000000000E+00 0.  1.
</event>
<event>
 7    1  0.2661133E-009  0.1341782E+03  0.7561462E-02  0.1221384E+00
          4   -1    0    0  501    0  0.00000000000E+00  0.00000000000E+00  0.31062606749E+03  0.31062606749E+03  0.00000000000E+00 0. -1.
         -4   -1    0    0    0  501 -0.00000000000E+00 -0.00000000000E+00 -0.59575733973E+02  0.59575733973E+02  0.00000000000E+00 0.  1.
         25    2    1    2    0    0 -0.80261079779E+02  0.16864757758E+02  0.14087810931E+03  0.20547585128E+03  0.12508965902E+03 0.  0.
          5    1    3    3  502    0  0.87735809695E+01 -0.40550443370E+02  0.25959339694E+02  0.49118976963E+02  0.41800000000E+01 0. -1.
         -5    1    3    3    0  502 -0.89034660748E+02  0.57415201127E+02  0.11491876962E+03  0.15635687431E+03  0.41800000000E+01 0. -1.
        -11    1    1    2    0    0  0.53211733135E+02 -0.53260173509E+02  0.54606717701E+02  0.93005528027E+02  0.00000000000E+00 0.  1.
         11    1    1    2    0    0  0.27049346644E+02  0.36395415751E+02  0.55565506509E+02  0.71720422163E+02  0.00000000000E+00 0. -1.
</event>
<event>
 7    1  0.2661133E-009  0.1585821E+03  0.7561462E-02  0.1190307E+00
         -2   -1    0    0    0  501 -0.00000000000E+00  0.00000000000E+00  0.17767764254E+03  0.17767764254E+03  0.00000000000E+00 0.  1.
          2   -1    0    0  501    0  0.00000000000E+00 -0.00000000000E+00 -0.27770945575E+03  0.27770945575E+03  0.00000000000E+00 0. -1.
         25    2    1    2    0    0 -0.83532729294E+02  0.90307788640E+02  0.10126534162E+03  0.20257191767E+03  0.12508996308E+03 0.  0.
          5    1    3    3  502    0 -0.74757999542E+02 -0.15458984748E+01  0.76252204498E+02  0.10687852632E+03  0.41800000000E+01 0.  1.
         -5    1    3    3    0  502 -0.87747297522E+01  0.91853687115E+02  0.25013137117E+02  0.95693391346E+02  0.41800000000E+01 0.  1.
        -11    1    1    2    0    0  0.50574018793E+02  0.32849577983E+01 -0.93148425420E+02  0.10604315859E+03  0.00000000000E+00 0.  1.
         11    1    1    2    0    0  0.32958710501E+02 -0.93592746438E+02 -0.10814872940E+03  0.14677202205E+03  0.00000000000E+00 0. -1.
</event>
<event>
 7    1  0.3290100E-009  0.1056045E+03  0.7561462E-02  0.1268933E+00
         -2   -1    0    0    0  501 -0.00000000000E+00  0.00000000000E+00  0.11325000720E+03  0.11325000720E+03  0.00000000000E+00 0.  1.
          2   -1    0    0  501    0  0.00000000000E+00 -0.00000000000E+00 -0.13531231786E+03  0.13531231786E+03  0.00000000000E+00 0. -1.
         25    2    1    2    0    0  0.54958116700E+02 -0.18811019851E+02  0.38630782485E+00  0.13792453697E+03  0.12509508226E+03 0.  0.
          5    1    3    3  502    0 -0.19860171847E+02  0.37464212570E+02 -0.96136467741E+01  0.43679380188E+02  0.41800000000E+01 0.  1.
         -5    1    3    3    0  502  0.74818288547E+02 -0.56275232421E+02  0.99999545990E+01  0.94245156783E+02  0.41800000000E+01 0.  1.
        -11    1    1    2    0    0 -0.52409119410E+02 -0.34107865408E+01  0.25011082866E+02  0.58171329092E+02  0.00000000000E+00 0.  1.
         11    1    1    2    0    0 -0.25489972897E+01  0.22221806392E+02 -0.47459701360E+02  0.52466458997E+02  0.00000000000E+00 0. -1.
</event>
<event>
 7    1  0.2661133E-009  0.8894711E+02  0.7561462E-02  0.1305422E+00
          3   -1    0    0  501    0  0.00000000000E+00  0.00000000000E+00  0.20966152687E+02  0.20966152687E+02  0.00000000000E+00 0. -1.
         -3   -1    0    0    0  501 -0.00000000000E+00 -0.00000000000E+00 -0.64574043405E+03  0.64574043405E+03  0.00000000000E+00 0.  1.
         25    2    1    2    0    0  0.16662362047E+02 -0.25848076548E+02 -0.26035614651E+03  0.29048006973E+03  0.12509032941E+03 0.  0.
          5    1    3    3  502    0 -0.17681857030E+02 -0.47731451695E+02 -0.23882652540E+03  0.24422637283E+03  0.41800000000E+01 0. -1.
         -5    1    3    3    0  502  0.34344219077E+02  0.21883375147E+02 -0.21529621108E+02  0.46253696899E+02  0.41800000000E+01 0. -1.
        -11    1    1    2    0    0  0.32531549323E+02  0.75405745504E+01 -0.75163744537E+02  0.82248103070E+02  0.00000000000E+00 0. -1.
         11    1    1    2    0    0 -0.49193911370E+02  0.18307501998E+02 -0.28925439031E+03  0.29397841394E+03  0.00000000000E+00 0.  1.
</event>
<event>
 7    1  0.2661133E-009  0.1713586E+03  0.7561462E-02  0.1176438E+00
          2   -1    0    0  501    0  0.00000000000E+00  0.00000000000E+00  0.10302393986E+03  0.10302393986E+03  0.00000000000E+00 0. -1.
         -2   -1    0    0    0  501 -0.00000000000E+00 -0.00000000000E+00 -0.32886998204E+03  0.32886998204E+03  0.00000000000E+00 0.  1.
         25    2    1    2    0    0  0.97855520330E+02  0.10984830260E+03 -0.92005736096E+02  0.21389939983E+03  0.12508215432E+03 0.  0.
          5    1    3    3  502    0  0.12006128492E+03  0.89031923841E+02 -0.10266420512E+03  0.18138028287E+03  0.41800000000E+01 0.  1.
         -5    1    3    3    0  502 -0.22205764594E+02  0.20816378758E+02  0.10658469029E+02  0.32519116960E+02  0.41800000000E+01 0.  1.
        -11    1    1    2    0    0 -0.53630163570E+02 -0.10509195469E+03 -0.12637753713E+03  0.17289243846E+03  0.00000000000E+00 0.  1.
         11    1    1    2    0    0 -0.44225356760E+02 -0.47563479107E+01 -0.74627689538E+01  0.45102083615E+02  0.00000000000E+00 0. -1.
</event>
<event>
 7    1  0.2661133E-009  0.9327985E+02  0.7561462E-02  0.1295098E+00
          2   -1    0    0  501    0  0.00000000000E+00  0.00000000000E+00  0.11727776278E+04  0.11727776278E+04  0.00000000000E+00 0. -1.
         -2   -1    0    0    0  501 -0.00000000000E+00 -0.00000000000E+00 -0.13710024100E+02  0.13710024100E+02  0.00000000000E+00 0.  1.
         25    2    1    2    0    0 -0.30714376965E+02 -0.55969468909E+02  0.67503203283E+03  0.68948818017E+03  0.12509896424E+03 0.  0.
          5    1    3    3  502    0  0.77960053037E+01 -0.16391913785E+02  0.57376754845E+03  0.57406980812E+03  0.41800000000E+01 0.  1.
         -5    1    3    3    0  502 -0.38510382269E+02 -0.39577555125E+02  0.10126448437E+03  0.11541837205E+03  0.41800000000E+01 0.  1.
        -11    1    1    2    0    0  0.64182536536E+02  0.36640775676E+02  0.30277096168E+03  0.31166039157E+03  0.00000000000E+00 0. -1.
         11    1    1    2    0    0 -0.33468159570E+02  0.19328693233E+02  0.18126460923E+03  0.18533908019E+03  0.00000000000E+00 0.  1.
</event>
<event>
 7    1  0.2661133E-009  0.1076945E+03  0.7561462E-02  0.1264900E+00
         -1   -1    0    0    0  501 -0.00000000000E+00  0.00000000000E+00  0.24953604725E+02  0.24953604725E+02  0.00000000000E+00 0.  1.
          1   -1    0    0  501    0  0.00000000000E+00 -0.00000000000E+00 -0.96167142820E+03  0.96167142820E+03  0.00000000000E+00 0. -1.
         25    2    1    2    0    0  0.73352731755E+02 -0.43739615820E+02 -0.72626534989E+03  0.74189039831E+03  0.12508488077E+03 0.  0.
          5    1    3    3  502    0  0.67925685367E+02 -0.60586353110E+01 -0.15557773987E+03  0.16991913176E+03  0.41800000000E+01 0.  1.
         -5    1    3    3    0  502  0.54270463885E+01 -0.37680980509E+02 -0.57068761002E+03  0.57197126655E+03  0.41800000000E+01 0.  1.
        -11    1    1    2    0    0 -0.69670143152E+02  0.49962692102E+01 -0.69604163219E+02  0.98608473724E+02  0.00000000000E+00 0.  1.
         11    1    1    2    0    0 -0.36825886032E+01  0.38743346610E+02 -0.14084831037E+03  0.14612616090E+03  0.00000000000E+00 0. -1.
</event>
<event>
 7    1  0.2661133E-009  0.1558347E+03  0.7561462E-02  0.1193481E+00
          1   -1    0    0  501    0  0.00000000000E+00  0.00000000000E+00  0.72544491303E+02  0.72544491303E+02  0.00000000000E+00 0. -1.
         -1   -1    0    0    0  501 -0.00000000000E+00 -0.00000000000E+00 -0.38941044899E+03  0.38941044899E+03  0.00000000000E+00 0.  1.
         25    2    1    2    0    0  0.11367421952E+03 -0.53884539850E+02 -0.19886359121E+03  0.26649432312E+03  0.12508846681E+03 0.  0.
          5    1    3    3  502    0  0.11296741256E+03 -0.81701569225E+02 -0.12441116685E+03  0.18690209616E+03  0.41800000000E+01 0. -1.
         -5    1    3    3    0  502  0.70680696751E+00  0.27817029375E+02 -0.74452424362E+02  0.79592226962E+02  0.41800000000E+01 0. -1.
        -11    1    1    2    0    0 -0.58622737411E+02 -0.10270448511E+02 -0.87018186561E+02  0.10542424885E+03  0.00000000000E+00 0.  1.
         11    1    1    2    0    0 -0.55051482114E+02  0.64154988361E+02 -0.30984179921E+02  0.90036368318E+02  0.00000000000E+00 0. -1.
</event>
<event>
 7    1  0.2661133E-009  0.1436371E+03  0.7561462E-02  0.1208517E+00
         -1   -1    0    0    0  501 -0.00000000000E+00  0.00000000000E+00  0.27762005917E+03  0.27762005917E+03  0.00000000000E+00 0.  1.
          1   -1    0    0  501    0  0.00000000000E+00 -0.00000000000E+00 -0.93399883032E+02  0.93399883032E+02  0.00000000000E+00 0. -1.
         25    2    1    2    0    0 -0.85980507332E+02  0.81374900632E+02  0.12307313742E+03  0.21167763848E+03  0.12508358558E+03 0.  0.
          5    1    3    3  502    0 -0.12777014350E+02  0.93206829085E+02  0.90394619526E+02  0.13053514746E+03  0.41800000000E+01 0. -1.
         -5    1    3    3    0  502 -0.73203492982E+02 -0.11831928454E+02  0.32678517899E+02  0.81142491013E+02  0.41800000000E+01 0. -1.
        -11    1    1    2    0    0  0.52312695370E+02 -0.56297273895E+02 -0.92221708081E+01  0.77401870645E+02  0.00000000000E+00 0. -1.
         11    1    1    2    0    0  0.33667811962E+02 -0.25077626736E+02  0.70369209521E+02  0.81940433081E+02  0.00000000000E+00 0.  1.
</event>
<event>
 7    1  0.2661133E-009  0.7833765E+02  0.7561462E-02  0.1333836E+00
          2   -1    0    0  501    0  0.00000000000E+00  0.00000000000E+00  0.33850823112E+02  0.33850823112E+02  0.00000000000E+00 0. -1.
         -2   -1    0    0    0  501 -0.00000000000E+00 -0.00000000000E+00 -0.45677813296E+03  0.45677813296E+03  0.00000000000E+00 0.  1.
         25    2    1    2    0    0 -0.24297988560E+02 -0.75966280880E+00 -0.34506377112E+03  0.36784266164E+03  0.12509295842E+03 0.  0.
          5    1    3    3  502    0 -0.49506031756E+01 -0.37258834569E+02 -0.25544392503E+02  0.45636801088E+02  0.41800000000E+01 0. -1.
         -5    1    3    3    0  502 -0.19347385385E+02  0.36499171760E+02 -0.31951937862E+03  0.32220586055E+03  0.41800000000E+01 0. -1.
        -11    1    1    2    0    0 -0.23852377470E+02 -0.13123818977E+02  0.32745706557E+01  0.27420673743E+02  0.00000000000E+00 0. -1.
         11    1    1    2    0    0  0.48150366030E+02  0.13883481786E+02 -0.81138109379E+02  0.95365620687E+02  0.00000000000E+00 0.  1.
</event>
<event>
 7    1  0.2661133E-009  0.1944835E+03  0.7561462E-02  0.1154479E+00
          1   -1    0    0  501    0  0.00000000000E+00  0.00000000000E+00  0.38878486429E+03  0.38878486429E+03  0.00000000000E+00 0. -1.
         -1   -1    0    0    0  501 -0.00000000000E+00 -0.00000000000E+00 -0.22437293358E+03  0.22437293358E+03  0.00000000000E+00 0.  1.
         25    2    1    2    0    0  0.17821654600E+03 -0.57835866716E+02  0.29462821960E+03  0.37088189336E+03  0.12506584784E+03 0.  0.
          5    1    3    3  502    0  0.67656066613E+02 -0.29002451162E+02  0.22556112266E+03  0.23730524220E+03  0.41800000000E+01 0. -1.
         -5    1    3    3    0  502  0.11056047939E+03 -0.28833415554E+02  0.69067096939E+02  0.13357665116E+03  0.41800000000E+01 0. -1.
        -11    1    1    2    0    0 -0.99192672820E+02 -0.59168619191E+01 -0.42410721194E+02  0.10804103326E+03  0.00000000000E+00 0.  1.
         11    1    1    2    0    0 -0.79023873185E+02  0.63752728635E+02 -0.87805567688E+02  0.13423487125E+03  0.00000000000E+00 0. -1.
</event>
<event>
 7    1  0.2661133E-009  0.1106930E+03  0.7561462E-02  0.1259292E+00
         -2   -1    0    0    0  501 -0.00000000000E+00  0.00000000000E+00  0.58713282981E+02  0.58713282981E+02  0.00000000000E+00 0.  1.
          2   -1    0    0  501    0  0.00000000000E+00 -0.00000000000E+00 -0.23980271690E+03  0.23980271690E+03  0.00000000000E+00 0. -1.
         25    2    1    2    0    0  0.24601775966E+02 -0.23553588529E+02 -0.60214698606E+02  0.14294537967E+03  0.12509017838E+03 0.  0.
          5    1    3    3  502    0 -0.32540369041E+00 -0.73506518240E+02 -0.32565024731E+02  0.80506318678E+02  0.41800000000E+01 0. -1.
         -5    1    3    3    0  502  0.24927179657E+02  0.49952929710E+02 -0.27649673875E+02  0.62439060993E+02  0.41800000000E+01 0. -1.
        -11    1    1    2    0    0 -0.53994017850E+02  0.29881422632E+02 -0.53043746333E+02  0.81375010950E+02  0.00000000000E+00 0.  1.
         11    1    1    2    0    0  0.29392241884E+02 -0.63278341027E+01 -0.67830988982E+02  0.74195609261E+02  0.00000000000E+00 0. -1.
</event>
<event>
 7    1  0.2661133E-009  0.1080350E+03  0.7561462E-02  0.1264253E+00
          1   -1    0    0  501    0  0.00000000000E+00  0.00000000000E+00  0.31753631185E+04  0.31753631185E+04  0.00000000000E+00 0. -1.
         -1   -1    0    0    0  501 -0.00000000000E+00 -0.00000000000E+00 -0.61936398572E+01  0.61936398572E+01  0.00000000000E+00 0.  1.
         25    2    1    2    0    0 -0.97031718769E+01 -0.49866174693E+01  0.27327160718E+04  0.27355990312E+04  0.12508362288E+03 0.  0.
          5    1    3    3  502    0 -0.47969055786E+01 -0.64610226737E+02  0.12795077049E+04  0.12811537499E+04  0.41800000000E+01 0. -1.
         -5    1    3    3    0  502 -0.49062662983E+01  0.59623609268E+02  0.14532083669E+04  0.14544452813E+04  0.41800000000E+01 0. -1.
        -11    1    1    2    0    0 -0.25489463266E+02  0.36106946296E+02  0.23250904612E+03  0.23667251812E+03  0.00000000000E+00 0. -1.
         11    1    1    2    0    0  0.35192635143E+02 -0.31120328826E+02  0.20394436071E+03  0.20928520899E+03  0.00000000000E+00 0.  1.
</event>
<event>
 7    1  0.2661133E-009  0.2758753E+03  0.7561462E-02  0.1097963E+00
          2   -1    0    0  501    0  0.00000000000E+00  0.00000000000E+00  0.15606826809E+04  0.15606826809E+04  0.00000000000E+00 0. -1.
         -2   -1    0    0    0  501 -0.00000000000E+00 -0.00000000000E+00 -0.52972677554E+02  0.52972677554E+02  0.00000000000E+00 0.  1.
         25    2    1    2    0    0  0.27175959039E+02 -0.25826487031E+03  0.93447739509E+03  0.97792317350E+03  0.12508579193E+03 0.  0.
          5    1    3    3  502    0  0.20993024436E+02 -0.27160534175E+03  0.89651085753E+03  0.93699485528E+03  0.41800000000E+01 0.  1.
         -5    1    3    3    0  502  0.61829346027E+01  0.13340471433E+02  0.37966537557E+02  0.40928318221E+02  0.41800000000E+01 0.  1.
        -11    1    1    2    0    0 -0.37053101037E+02  0.12473203888E+03  0.19435803472E+03  0.23389326515E+03  0.00000000000E+00 0. -1.
         11    1    1    2    0    0  0.98771419979E+01  0.13353283143E+03  0.37887457355E+03  0.40183891983E+03  0.00000000000E+00 0.  1.
</event>
<event>
 7    1  0.2661133E-009  0.9407178E+02  0.7561462E-02  0.1293280E+00
         -4   -1    0    0    0  501 -0.00000000000E+00  0.00000000000E+00  0.13143943424E+03  0.13143943424E+03  0.00000000000E+00 0.  1.
          4   -1    0    0  501    0  0.00000000000E+00 -0.00000000000E+00 -0.10293153940E+03  0.10293153940E+03  0.00000000000E+00 0. -1.
         25    2    1    2    0    0 -0.66722502539E+01  0.18959914669E+02 -0.61667225347E+01  0.12684535216E+03  0.12509083743E+03 0.  0.
          5    1    3    3  502    0 -0.16850576076E+02 -0.50454633024E+02  0.11040524135E+02  0.54488324262E+02  0.41800000000E+01 0. -1.
         -5    1    3    3    0  502  0.10178325822E+02  0.69414547694E+02 -0.17207246670E+02  0.72357027896E+02  0.41800000000E+01 0. -1.
        -11    1    1    2    0    0 -0.25590426025E+02 -0.19601989805E+02  0.58921063088E+02  0.67162486434E+02  0.00000000000E+00 0.  1.
         11    1    1    2    0    0  0.32262676279E+02  0.64207513608E+00 -0.24246445711E+02  0.40363135046E+02  0.00000000000E+00 0. -1.
</event>
<event>
 7    1  0.2661133E-009  0.1091117E+03  0.7561462E-02  0.1262224E+00
          2   -1    0    0  501    0  0.00000000000E+00  0.00000000000E+00  0.14354089685E+03  0.14354089685E+03  0.00000000000E+00 0. -1.
         -2   -1    0    0    0  501 -0.00000000000E+00 -0.00000000000E+00 -0.97228781471E+02  0.97228781471E+02  0.00000000000E+00 0.  1.
         25    2    1    2    0    0 -0.46049321298E+02 -0.24751655956E+02  0.32019216183E+02  0.13931214246E+03  0.12509779521E+03 0.  0.
          5    1    3    3  502    0 -0.16142062697E+02  0.48529870114E+02 -0.55228098803E+01  0.51610932082E+02  0.41800000000E+01 0. -1.
         -5    1    3    3    0  502 -0.29907258601E+02 -0.73281526070E+02  0.37542026063E+02  0.87701210374E+02  0.41800000000E+01 0. -1.
        -11    1    1    2    0    0  0.24354885108E+02  0.49239571112E+02  0.32689663101E+02  0.63924250997E+02  0.00000000000E+00 0. -1.
         11    1    1    2    0    0  0.21694436190E+02 -0.24487915156E+02 -0.18396763909E+02  0.37533284863E+02  0.00000000000E+00 0.  1.
</event>
<event>
 7    1  0.2661133E-009  0.1037142E+03  0.7561462E-02  0.1272674E+00
         -1   -1    0    0    0  501 -0.00000000000E+00  0.00000000000E+00  0.11710030407E+03  0.11710030407E+03  0.00000000000E+00 0.  1.
          1   -1    0    0  501    0  0.00000000000E+00 -0.00000000000E+00 -0.15006100993E+03  0.15006100993E+03  0.00000000000E+00 0. -1.
         25    2    1    2    0    0  0.25711908073E+02  0.44310585515E+02 -0.75318641043E+02  0.15474035670E+03  0.12508856902E+03 0.  0.
          5    1    3    3  502    0  0.68477589300E+02  0.13310502473E+01 -0.17406381522E+02  0.70791287944E+02  0.41800000000E+01 0.  1.
         -5    1    3    3    0  502 -0.42765681227E+02  0.42979535267E+02 -0.57912259521E+02  0.83949068759E+02  0.41800000000E+01 0.  1.
        -11    1    1    2    0    0 -0.23212310347E+02 -0.58860482048E+02  0.61507484600E+02  0.88241364226E+02  0.00000000000E+00 0.  1.
         11    1    1    2    0    0 -0.24995977258E+01  0.14549896534E+02 -0.19149549424E+02  0.24179593070E+02  0.00000000000E+00 0. -1.
</event>
<event>
 7    1  0.2661133E-009  0.1086236E+03  0.7561462E-02  0.1263140E+00
          1   -1    0    0  501    0  0.00000000000E+00  0.00000000000E+00  0.24966896470E+02  0.24966896470E+02  0.00000000000E+00 0. -1.
         -1   -1    0    0    0  501 -0.00000000000E+00 -0.00000000000E+00 -0.82652857479E+03  0.82652857479E+03  0.00000000000E+00 0.  1.
         25    2    1    2    0    0  0.33741098908E+02  0.86751236993E+02 -0.47169715893E+03  0.49679956981E+03  0.12508942378E+03 0.  0.
          5    1    3    3  502    0  0.24463875244E+02  0.73388809799E+02 -0.10907138331E+03  0.13378504271E+03  0.41800000000E+01 0.  1.
         -5    1    3    3    0  502  0.92772236642E+01  0.13362427194E+02 -0.36262577562E+03  0.36301452710E+03  0.41800000000E+01 0.  1.
        -11    1    1    2    0    0 -0.55159036058E+02 -0.31039204545E+02 -0.11036309960E+03  0.12722407488E+03  0.00000000000E+00 0. -1.
         11    1    1    2    0    0  0.21417937150E+02 -0.55712032448E+02 -0.21950141980E+03  0.22747182657E+03  0.00000000000E+00 0.  1.
</event>
<event>
 7    1  0.2661133E-009  0.1743887E+03  0.7561462E-02  0.1173347E+00
          2   -1    0    0  501    0  0.00000000000E+00  0.00000000000E+00  0.11765813033E+03  0.11765813033E+03  0.00000000000E+00 0.  1.
         -2   -1    0    0    0  501 -0.00000000000E+00 -0.00000000000E+00 -0.30126978287E+03  0.30126978287E+03  0.00000000000E+00 0. -1.
         25    2    1    2    0    0  0.83769221580E+02  0.12172627582E+03 -0.14123510658E+03  0.23964281221E+03  0.12508698334E+03 0.  0.
          5    1    3    3  502    0  0.61812432792E+02 -0.60213722616E+01 -0.31520990937E+02  0.69771620600E+02  0.41800000000E+01 0.  1.
         -5    1    3    3    0  502  0.21956788788E+02  0.12774764809E+03 -0.10971411565E+03  0.16987119161E+03  0.41800000000E+01 0.  1.
        -11    1    1    2    0    0 -0.17955748706E+02 -0.72409915443E+02  0.18622015162E+02  0.76892029592E+02  0.00000000000E+00 0.  1.
         11    1    1    2    0    0 -0.65813472873E+02 -0.49316360381E+02 -0.60998561113E+02  0.10239307140E+03  0.00000000000E+00 0. -1.
</event>
<event>
 7    1  0.2661133E-009  0.9249374E+02  0.7561462E-02  0.1296923E+00
          2   -1    0    0  501    0  0.00000000000E+00  0.00000000000E+00  0.67107538549E+03  0.67107538549E+03  0.00000000000E+00 0. -1.
         -2   -1    0    0    0  501 -0.00000000000E+00 -0.00000000000E+00 -0.55341936779E+02  0.55341936779E+02  0.00000000000E+00 0.  1.
         25    2    1    2    0    0 -0.38525757226E+02  0.80896470444E+01  0.62192767228E+03  0.63560379019E+03  0.12509385354E+03 0.  0.
          5    1    3    3  502    0  0.23573536714E+02  0.22558276794E+02  0.46504432481E+03  0.46620626758E+03  0.41800000000E+01 0. -1.
         -5    1    3    3    0  502 -0.62099293940E+02 -0.14468629749E+02  0.15688334747E+03  0.16939752261E+03  0.41800000000E+01 0. -1.
        -11    1    1    2    0    0  0.62735368179E+02 -0.21649218306E+00  0.51416735908E+01  0.62946088812E+02  0.00000000000E+00 0. -1.
         11    1    1    2    0    0 -0.24209610953E+02 -0.78731548613E+01 -0.11335897160E+02  0.27867443270E+02  0.00000000000E+00 0.  1.
</event>
<event>
 7    1  0.3081866E-009  0.1511456E+03  0.7561462E-02  0.1199072E+00
         -1   -1    0    0    0  501 -0.00000000000E+00  0.00000000000E+00  0.92273161378E+02  0.92273161378E+02  0.00000000000E+00 0. -1.
          1   -1    0    0  501    0  0.00000000000E+00 -0.00000000000E+00 -0.25936836804E+03  0.25936836804E+03  0.00000000000E+00 0.  1.
         25    2    1    2    0    0  0.46862607885E+02  0.97350703915E+02 -0.11233585904E+03  0.19984926535E+03  0.12508844896E+03 0.  0.
          5    1    3    3  502    0 -0.24439670572E+02  0.89977220263E+02 -0.59207043128E+02  0.11052666656E+03  0.41800000000E+01 0.  1.
         -5    1    3    3    0  502  0.71302278458E+02  0.73734836521E+01 -0.53128815912E+02  0.89322598790E+02  0.41800000000E+01 0.  1.
        -11    1    1    2    0    0  0.20094691158E+02 -0.53417816657E+02 -0.41623931535E+02  0.70638597279E+02  0.00000000000E+00 0. -1.
         11    1    1    2    0    0 -0.66957299043E+02 -0.43932887258E+02 -0.13135416084E+02  0.81153666791E+02  0.00000000000E+00 0.  1.
</event>
<event>
 7    1  0.2661133E-009  0.1386937E+03  0.7561462E-02  0.1215098E+00
         -2   -1    0    0    0  501 -0.00000000000E+00  0.00000000000E+00  0.60417918025E+02  0.60417918025E+02  0.00000000000E+00 0.  1.
          2   -1    0    0  501    0  0.00000000000E+00 -0.00000000000E+00 -0.40069686275E+03  0.40069686275E+03  0.00000000000E+00 0. -1.
         25    2    1    2    0    0  0.91241101447E+02 -0.60608125571E+02 -0.17338822846E+03  0.24021618612E+03  0.12506820071E+03 0.  0.
          5    1    3    3  502    0  0.45854824147E+02 -0.77675432304E+02 -0.16866918698E+03  0.19131885615E+03  0.41800000000E+01 0. -1.
         -5    1    3    3    0  502  0.45386277300E+02  0.17067306733E+02 -0.47190414776E+01  0.48897329976E+02  0.41800000000E+01 0. -1.
        -11    1    1    2    0    0 -0.12211652403E+02  0.58081283449E+02 -0.40641741237E+02  0.71932684312E+02  0.00000000000E+00 0. -1.
         11    1    1    2    0    0 -0.79029449044E+02  0.25268421217E+01 -0.12624897504E+03  0.14896591035E+03  0.00000000000E+00 0.  1.
</event>
<event>
 7    1  0.2661133E-009  0.1271652E+03  0.7561462E-02  0.1231724E+00
         -4   -1    0    0    0  501 -0.00000000000E+00  0.00000000000E+00  0.14489995947E+03  0.14489995947E+03  0.00000000000E+00 0.  1.
          4   -1    0    0  501    0  0.00000000000E+00 -0.00000000000E+00 -0.14289478532E+03  0.14289478532E+03  0.00000000000E+00 0. -1.
         25    2    1    2    0    0  0.64001148677E+02  0.68766467431E+02 -0.83078549018E+01  0.15665675920E+03  0.12508935077E+03 0.  0.
          5    1    3    3  502    0  0.31653626946E+02 -0.14009132468E+02 -0.47923997467E+02  0.59265418454E+02  0.41800000000E+01 0.  1.
         -5    1    3    3    0  502  0.32347521731E+02  0.82775599899E+02  0.39616142565E+02  0.97391340747E+02  0.41800000000E+01 0.  1.
        -11    1    1    2    0    0 -0.14975007372E+02 -0.79003655521E+02  0.10196579264E+02  0.81054294520E+02  0.00000000000E+00 0.  1.
         11    1    1    2    0    0 -0.49026141305E+02  0.10237188089E+02  0.11644978778E+00  0.50083691076E+02  0.00000000000E+00 0. -1.
</event>
<event>
 7    1  0.2661133E-009  0.6136306E+02  0.7561462E-02  0.1392199E+00
         -2   -1    0    0    0  501 -0.00000000000E+00  0.00000000000E+00  0.53188803865E+02  0.53188803865E+02  0.00000000000E+00 0.  1.
          2   -1    0    0  501    0  0.00000000000E+00 -0.00000000000E+00 -0.23572914141E+03  0.23572914141E+03  0.00000000000E+00 0. -1.
         25    2    1    2    0    0 -0.28397016217E+02 -0.74891001663E+00 -0.88019344246E+02  0.15556893900E+03  0.12508932178E+03 0.  0.
          5    1    3    3  502    0 -0.54033083328E+01 -0.12446234871E+02  0.30797101865E+02  0.33912215892E+02  0.41800000000E+01 0. -1.
         -5    1    3    3    0  502 -0.22993707884E+02  0.11697324855E+02 -0.11881644611E+03  0.12165672311E+03  0.41800000000E+01 0. -1.
        -11    1    1    2    0    0 -0.87433708431E+01  0.32423132732E+02 -0.88175360699E+01  0.34719663192E+02  0.00000000000E+00 0.  1.
         11    1    1    2    0    0  0.37140387060E+02 -0.31674222715E+02 -0.85703457226E+02  0.98629343079E+02  0.00000000000E+00 0. -1.
</event>
<event>
 7    1  0.2661133E-009  0.2245022E+03  0.7561462E-02  0.1130570E+00
         -1   -1    0    0    0  501 -0.00000000000E+00  0.00000000000E+00  0.82180676018E+02  0.82180676018E+02  0.00000000000E+00 0.  1.
          1   -1    0    0  501    0  0.00000000000E+00 -0.00000000000E+00 -0.69622777122E+03  0.69622777122E+03  0.00000000000E+00 0. -1.
         25    2    1    2    0    0  0.15791780440E+03 -0.13959655404E+03 -0.36270846475E+03  0.43775518003E+03  0.12508771480E+03 0.  0.
          5    1    3    3  502    0  0.10858150593E+03 -0.15231952973E+03 -0.32196172042E+03  0.37238153066E+03  0.41800000000E+01 0. -1.
         -5    1    3    3    0  502  0.49336298470E+02  0.12722975690E+02 -0.40746744336E+02  0.65373649364E+02  0.41800000000E+01 0. -1.
        -11    1    1    2    0    0 -0.88112113006E+02  0.77031908853E+02 -0.20506797343E+03  0.23611550810E+03  0.00000000000E+00 0. -1.
         11    1    1    2    0    0 -0.69805691394E+02  0.62564645186E+02 -0.46270657021E+02  0.10453775911E+03  0.00000000000E+00 0.  1.
</event>
<event>
 7    1  0.2661133E-009  0.1906519E+03  0.7561462E-02  0.1157875E+00
          1   -1    0    0  501    0  0.00000000000E+00  0.00000000000E+00  0.79262359122E+03  0.79262359122E+03  0.00000000000E+00 0. -1.
         -1   -1    0    0    0  501 -0.00000000000E+00 -0.00000000000E+00 -0.87201514682E+02  0.87201514682E+02  0.00000000000E+00 0.  1.
         25    2    1    2    0    0  0.15220718905E+03 -0.80866041951E+02  0.83201736557E+02  0.22863936937E+03  0.12508831730E+03 0.  0.
          5    1    3    3  502    0  0.12706528190E+03 -0.41055045758E+01  0.26686579720E+02  0.12996956171E+03  0.41800000000E+01 0.  1.
         -5    1    3    3    0  502  0.25141907142E+02 -0.76760537376E+02  0.56515156837E+02  0.98669807668E+02  0.41800000000E+01 0.  1.
        -11    1    1    2    0    0 -0.61470107314E+02  0.42364258275E+02  0.41568372068E+03  0.42233429900E+03  0.00000000000E+00 0. -1.
         11    1    1    2    0    0 -0.90737081731E+02  0.38501783676E+02  0.20653661931E+03  0.22885143753E+03  0.00000000000E+00 0.  1.
</event>
<event>
 7    1  0.2661133E-009  0.8507594E+02  0.7561462E-02  0.1315234E+00
          2   -1    0    0  501    0  0.00000000000E+00  0.00000000000E+00  0.84578040949E+03  0.84578040949E+03  0.00000000000E+00 0. -1.
         -2   -1    0    0    0  501 -0.00000000000E+00 -0.00000000000E+00 -0.18471916235E+02  0.18471916235E+02  0.00000000000E+00 0.  1.
         25    2    1    2    0    0  0.52359900836E+02  0.30886281495E+02  0.42414432336E+03  0.44636451516E+03  0.12508937506E+03 0.  0.
          5    1    3    3  502    0  0.37086900842E+02  0.40801398520E+02  0.42409189360E+03  0.42768165608E+03  0.41800000000E+01 0. -1.
         -5    1    3    3    0  502  0.15272999994E+02 -0.99151170243E+01  0.52429765855E-01  0.18682859078E+02  0.41800000000E+01 0. -1.
        -11    1    1    2    0    0 -0.13671637946E+02 -0.50837155383E+02  0.31711650761E+03  0.32145638810E+03  0.00000000000E+00 0. -1.
         11    1    1    2    0    0 -0.38688262890E+02  0.19950873888E+02  0.86047662285E+02  0.96431422467E+02  0.00000000000E+00 0.  1.
</event>
<event>
 7    1  0.2661133E-009  0.8122200E+02  0.7561462E-02  0.1325619E+00
         -2   -1    0    0    0  501 -0.00000000000E+00  0.00000000000E+00  0.39368782389E+02  0.39368782389E+02  0.00000000000E+00 0.  1.
          2   -1    0    0  501    0  0.00000000000E+00 -0.00000000000E+00 -0.33862697551E+03  0.33862697551E+03  0.00000000000E+00 0. -1.
         25    2    1    2    0    0 -0.25890839795E+02  0.22552186586E+02 -0.13483197611E+03  0.18709873749E+03  0.12508932442E+03 0.  0.
          5    1    3    3  502    0  0.15855978000E+02  0.41819972013E+02 -0.35928089807E+00  0.44921304303E+02  0.41800000000E+01 0. -1.
         -5    1    3    3    0  502 -0.41746817796E+02 -0.19267785427E+02 -0.13447269521E+03  0.14217743319E+03  0.41800000000E+01 0. -1.
        -11    1    1    2    0    0 -0.13911256162E+02 -0.27919633804E+02 -0.12253952699E+02  0.33514002394E+02  0.00000000000E+00 0.  1.
         11    1    1    2    0    0  0.39802095957E+02  0.53674472179E+01 -0.15217226432E+03  0.15738301802E+03  0.00000000000E+00 0. -1.
</event>
<event>
 7    1  0.2661133E-009  0.1102939E+03  0.7561462E-02  0.1260027E+00
          3   -1    0    0  501    0  0.00000000000E+00  0.00000000000E+00  0.38356079315E+03  0.38356079315E+03  0.00000000000E+00 0. -1.
         -3   -1    0    0    0  501 -0.00000000000E+00 -0.00000000000E+00 -0.34815502379E+02  0.34815502379E+02  0.00000000000E+00 0.  1.
         25    2    1    2    0    0  0.20103405991E+02  0.36360175225E+02  0.22095070752E+03  0.25727796905E+03  0.12508608608E+03 0.  0.
          5    1    3    3  502    0 -0.51241567072E+02  0.16874603181E+02  0.12379335479E+03  0.13510261847E+03  0.41800000000E+01 0. -1.
         -5    1    3    3    0  502  0.71344973062E+02  0.19485572044E+02  0.97157352728E+02  0.12217535058E+03  0.41800000000E+01 0. -1.
        -11    1    1    2    0    0  0.30680000614E+02 -0.26776663796E+02  0.84030589476E+02  0.93377685394E+02  0.00000000000E+00 0. -1.
         11    1    1    2    0    0 -0.50783406605E+02 -0.95835114285E+01  0.43763993777E+02  0.67720641085E+02  0.00000000000E+00 0.  1.
</event>
<event>
 7    1  0.2661133E-009  0.1072410E+03  0.7561462E-02  0.1265766E+00
          1   -1    0    0  501    0  0.00000000000E+00  0.00000000000E+00  0.39945002961E+03  0.39945002961E+03  0.00000000000E+00 0. -1.
         -1   -1    0    0    0  501 -0.00000000000E+00 -0.00000000000E+00 -0.40271679916E+02  0.40271679916E+02  0.00000000000E+00 0.  1.
         25    2    1    2    0    0 -0.56521614896E+02 -0.18841178364E+02  0.20940363016E+03  0.25109224945E+03  0.12509098471E+03 0.  0.
          5    1    3    3  502    0 -0.30397246466E+02 -0.57630725644E+02  0.42967328517E+02  0.78159816088E+02  0.41800000000E+01 0. -1.
         -5    1    3    3    0  502 -0.26124368430E+02  0.38789547279E+02  0.16643630164E+03  0.17293243336E+03  0.41800000000E+01 0. -1.
        -11    1    1    2    0    0  0.21814093333E+02  0.50657922802E+02  0.36987865995E+02  0.66409201482E+02  0.00000000000E+00 0.  1.
         11    1    1    2    0    0  0.34707521562E+02 -0.31816744438E+02  0.11278685355E+03  0.12222025860E+03  0.00000000000E+00 0. -1.
</event>
<event>
 7    1  0.2661133E-009  0.1926672E+03  0.7561462E-02  0.1156077E+00
         -2   -1    0    0    0  501 -0.00000000000E+00  0.00000000000E+00  0.18752540518E+03  0.18752540518E+03  0.00000000000E+00 0.  1.
          2   -1    0    0  501    0  0.00000000000E+00 -0.00000000000E+00 -0.28561731598E+03  0.28561731598E+03  0.00000000000E+00 0. -1.
         25    2    1    2    0    0 -0.14179721676E+03  0.11877472419E+03  0.29244923521E+02  0.22520128804E+03  0.12508584571E+03 0.  0.
          5    1    3    3  502    0 -0.14124408736E+03  0.12367480613E+03 -0.74593698430E+01  0.18793207412E+03  0.41800000000E+01 0.  1.
         -5    1    3    3    0  502 -0.55312940548E+00 -0.49000819403E+01  0.36704293364E+02  0.37269213924E+02  0.41800000000E+01 0.  1.
        -11    1    1    2    0    0  0.80114341306E+02 -0.35936892540E+02 -0.11386174932E+03  0.14378548566E+03  0.00000000000E+00 0. -1.
         11    1    1    2    0    0  0.61682875455E+02 -0.82837831645E+02 -0.13475084997E+02  0.10415594746E+03  0.00000000000E+00 0.  1.
</event>
<event>
 7    1  0.2661133E-009  0.1262500E+03  0.7561462E-02  0.1233129E+00
          3   -1    0    0  501    0  0.00000000000E+00  0.00000000000E+00  0.64242495151E+02  0.64242495151E+02  0.00000000000E+00 0. -1.
         -3   -1    0    0    0  501 -0.00000000000E+00 -0.00000000000E+00 -0.30948098651E+03  0.30948098651E+03  0.00000000000E+00 0.  1.
         25    2    1    2    0    0 -0.40175059541E+02  0.61398317098E+02 -0.63524947464E+02  0.15832377415E+03  0.12508880748E+03 0.  0.
          5    1    3    3  502    0  0.30979873828E+02 -0.15670168634E+02 -0.35147409321E+02  0.49579426675E+02  0.41800000000E+01 0. -1.
         -5    1    3    3    0  502 -0.71154933369E+02  0.77068485732E+02 -0.28377538143E+02  0.10874434747E+03  0.41800000000E+01 0. -1.
        -11    1    1    2    0    0  0.57287404650E+02 -0.97056369291E+01 -0.11842283843E+03  0.13190911561E+03  0.00000000000E+00 0.  1.
         11    1    1    2    0    0 -0.17112345109E+02 -0.51692680169E+02 -0.63290705468E+02  0.83490591906E+02  0.00000000000E+00 0. -1.
</event>
<event>
 7    1  0.2661133E-009  0.1314605E+03  0.7561462E-02  0.1225305E+00
         -1   -1    0    0    0  501 -0.00000000000E+00  0.00000000000E+00  0.39658663301E+02  0.39658663301E+02  0.00000000000E+00 0.  1.
          1   -1    0    0  501    0  0.00000000000E+00 -0.00000000000E+00 -0.62130893126E+03  0.62130893126E+03  0.00000000000E+00 0. -1.
         25    2    1    2    0    0  0.89232302308E+02 -0.45966592085E+02 -0.42046404346E+03  0.45001463886E+03  0.12509129458E+03 0.  0.
          5    1    3    3  502    0  0.61511501829E+02 -0.84568255395E+02 -0.34683359156E+03  0.36227954305E+03  0.41800000000E+01 0.  1.
         -5    1    3    3    0  502  0.27720800480E+02  0.38601663310E+02 -0.73630451903E+02  0.87735095811E+02  0.41800000000E+01 0.  1.
        -11    1    1    2    0    0 -0.52462441164E+02  0.10013715650E+01 -0.13934498985E+03  0.14889706738E+03  0.00000000000E+00 0. -1.
         11    1    1    2    0    0 -0.36769861144E+02  0.44965220520E+02 -0.21841234653E+02  0.62055888328E+02  0.00000000000E+00 0.  1.
</event>
<event>
 7    1  0.2661133E-009  0.1017801E+03  0.7561462E-02  0.1276597E+00
          2   -1    0    0  501    0  0.00000000000E+00  0.00000000000E+00  0.19854984554E+03  0.19854984554E+03  0.00000000000E+00 0. -1.
         -2   -1    0    0    0  501 -0.00000000000E+00 -0.00000000000E+00 -0.99550852777E+02  0.99550852777E+02  0.00000000000E+00 0.  1.
         25    2    1    2    0    0 -0.63973118266E+02  0.10211043223E+02  0.12193758390E+03  0.18628982381E+03  0.12505318398E+03 0.  0.
          5    1    3    3  502    0  0.28239603558E+02  0.20866630885E+02  0.73360487860E+02  0.81437860192E+02  0.41800000000E+01 0. -1.
         -5    1    3    3    0  502 -0.92212721824E+02 -0.10655587663E+02  0.48577096041E+02  0.10485196362E+03  0.41800000000E+01 0. -1.
        -11    1    1    2    0    0  0.35175336375E+02  0.13799299640E+02 -0.52066283464E+02  0.64332129092E+02  0.00000000000E+00 0.  1.
         11    1    1    2    0    0  0.28797781891E+02 -0.24010342863E+02  0.29127692331E+02  0.47478745421E+02  0.00000000000E+00 0. -1.
</event>
<event>
 7    1  0.2661133E-009  0.9541271E+02  0.7561462E-02  0.1290249E+00
         -2   -1    0    0    0  501 -0.00000000000E+00  0.00000000000E+00  0.24771001821E+02  0.24771001821E+02  0.00000000000E+00 0.  1.
          2   -1    0    0  501    0  0.00000000000E+00 -0.00000000000E+00 -0.60853872064E+03  0.60853872064E+03  0.00000000000E+00 0. -1.
         25    2    1    2    0    0  0.14424617980E+02  0.51262485358E+02 -0.38206740561E+03  0.40553584942E+03  0.12509160934E+03 0.  0.
          5    1    3    3  502    0  0.22432910264E+02  0.65213966922E+02 -0.38271602144E+03  0.38890245873E+03  0.41800000000E+01 0. -1.
         -5    1    3    3    0  502 -0.80082922843E+01 -0.13951481564E+02  0.64861583149E+00  0.16633390683E+02  0.41800000000E+01 0. -1.
        -11    1    1    2    0    0  0.10113984249E+02 -0.72170450658E+02 -0.15145206652E+03  0.16807318370E+03  0.00000000000E+00 0.  1.
         11    1    1    2    0    0 -0.24538602229E+02  0.20907965300E+02 -0.50248246693E+02  0.59700689343E+02  0.00000000000E+00 0. -1.
</event>
<event>
 7    1  0.2661133E-009  0.1206019E+03  0.7561462E-02  0.1242107E+00
         -4   -1    0    0    0  501 -0.00000000000E+00  0.00000000000E+00  0.15188801037E+03  0.15188801037E+03  0.00000000000E+00 0.  1.
          4   -1    0    0  501    0  0.00000000000E+00 -0.00000000000E+00 -0.10289898856E+03  0.10289898856E+03  0.00000000000E+00 0. -1.
         25    2    1    2    0    0  0.12859208980E+02 -0.56478252430E+02  0.47795884777E+02  0.14589611135E+03  0.12508427740E+03 0.  0.
          5    1    3    3  502    0  0.37077246873E+02  0.29895164183E+02  0.20659438716E+02  0.52083854363E+02  0.41800000000E+01 0.  1.
         -5    1    3    3    0  502 -0.24218037894E+02 -0.86373416613E+02  0.27136446061E+02  0.93812256990E+02  0.41800000000E+01 0.  1.
        -11    1    1    2    0    0  0.35130240989E+02  0.94029749915E+01 -0.15646273708E+02  0.39589842783E+02  0.00000000000E+00 0. -1.
         11    1    1    2    0    0 -0.47989449969E+02  0.47075277438E+02  0.16839410742E+02  0.69301044785E+02  0.00000000000E+00 0.  1.
</event>
<event>
 7    1  0.2661133E-009  0.5578786E+02  0.7561462E-02  0.1416409E+00
          2   -1    0    0  501    0  0.00000000000E+00  0.00000000000E+00  0.28537176486E+03  0.28537176486E+03  0.00000000000E+00 0. -1.
         -2   -1    0    0    0  501 -0.00000000000E+00 -0.00000000000E+00 -0.48842147605E+02  0.48842147605E+02  0.00000000000E+00 0.  1.
         25    2    1    2    0    0  0.48028153812E+02 -0.26060260911E+02  0.14063283957E+03  0.19598687624E+03  0.12508964520E+03 0.  0.
          5    1    3    3  502    0  0.98812754711E+01 -0.11896330105E+02  0.15254355272E+03  0.15338243104E+03  0.41800000000E+01 0. -1.
         -5    1    3    3    0  502  0.38146878341E+02 -0.14163930806E+02 -0.11910713154E+02  0.42604445201E+02  0.41800000000E+01 0. -1.
        -11    1    1    2    0    0 -0.16814219306E+02  0.96123813895E+01 -0.13284798061E+02  0.23486202468E+02  0.00000000000E+00 0.  1.
         11    1    1    2    0    0 -0.31213934506E+02  0.16447879521E+02  0.10918157575E+03  0.11474083376E+03  0.00000000000E+00 0. -1.
</event>
<event>
 7    1  0.2661133E-009  0.1067069E+03  0.7561462E-02  0.1266793E+00
         -1   -1    0    0    0  501 -0.00000000000E+00  0.00000000000E+00  0.11304680216E+02  0.11304680216E+02  0.00000000000E+00 0.  1.
          1   -1    0    0  501    0  0.00000000000E+00 -0.00000000000E+00 -0.12070953655E+04  0.12070953655E+04  0.00000000000E+00 0. -1.
         25    2    1    2    0    0 -0.12779272792E+02 -0.15591533708E+01 -0.88347640158E+03  0.89238094391E+03  0.12508979228E+03 0.  0.
          5    1    3    3  502    0  0.31914639631E+02 -0.47035871066E+02 -0.29580369605E+03  0.30124444623E+03  0.41800000000E+01 0. -1.
         -5    1    3    3    0  502 -0.44693912423E+02  0.45476717695E+02 -0.58767270553E+03  0.59113649768E+03  0.41800000000E+01 0. -1.
        -11    1    1    2    0    0  0.25740942365E+02 -0.40789110099E+02 -0.13877466504E+03  0.14691751180E+03  0.00000000000E+00 0.  1.
         11    1    1    2    0    0 -0.12961669573E+02  0.42348263470E+02 -0.17353961871E+03  0.17910159005E+03  0.00000000000E+00 0. -1.
</event>
<event>
 7    1  0.2661133E-009  0.2177439E+03  0.7561462E-02  0.1135576E+00
         -2   -1    0    0    0  501 -0.00000000000E+00  0.00000000000E+00  0.33974101846E+02  0.33974101846E+02  0.00000000000E+00 0.  1.
          2   -1    0    0  501    0  0.00000000000E+00 -0.00000000000E+00 -0.15654219115E+04  0.15654219115E+04  0.00000000000E+00 0. -1.
         25    2    1    2    0    0  0.18276685823E+03 -0.57712323703E+02 -0.10328074641E+04  0.10578619294E+04  0.12508463940E+03 0.  0.
          5    1    3    3  502    0  0.14595865761E+03  0.15285726466E+02 -0.64208180085E+03  0.65865324303E+03  0.41800000000E+01 0.  1.
         -5    1    3    3    0  502  0.36808200625E+02 -0.72998050169E+02 -0.39072566327E+03  0.39920868640E+03  0.41800000000E+01 0.  1.
        -11    1    1    2    0    0 -0.95011326543E+02  0.70254239654E+02 -0.22889741921E+03  0.25759821211E+03  0.00000000000E+00 0.  1.
         11    1    1    2    0    0 -0.87755531690E+02 -0.12541915951E+02 -0.26974292633E+03  0.28393587182E+03  0.00000000000E+00 0. -1.
</event>
<event>
 7    1  0.2661133E-009  0.7744006E+02  0.7561462E-02  0.1336477E+00
         -4   -1    0    0    0  501 -0.00000000000E+00  0.00000000000E+00  0.14128561714E+03  0.14128561714E+03  0.00000000000E+00 0.  1.
          4   -1    0    0  501    0  0.00000000000E+00 -0.00000000000E+00 -0.12205325268E+03  0.12205325268E+03  0.00000000000E+00 0. -1.
         25    2    1    2    0    0  0.32092942217E+02  0.40876724195E+02  0.66179017357E+02  0.15076226046E+03  0.12509489726E+03 0.  0.
          5    1    3    3  502    0  0.36035347237E+02  0.41007559428E+02 -0.24442310686E+02  0.59958862001E+02  0.41800000000E+01 0. -1.
         -5    1    3    3    0  502 -0.39424050200E+01 -0.13083523350E+00  0.90621328044E+02  0.90803398459E+02  0.41800000000E+01 0. -1.
        -11    1    1    2    0    0 -0.51087082485E+02 -0.51565347290E+02 -0.53092551562E+02  0.89931607732E+02  0.00000000000E+00 0. -1.
         11    1    1    2    0    0  0.18994140267E+02  0.10688623095E+02  0.61458986652E+01  0.22645001625E+02  0.00000000000E+00 0.  1.
</event>
<event>
 7    1  0.3087077E-009  0.8806294E+02  0.7561462E-02  0.1307612E+00
          1   -1    0    0  501    0  0.00000000000E+00  0.00000000000E+00  0.81304170739E+03  0.81304170739E+03  0.00000000000E+00 0. -1.
         -1   -1    0    0    0  501 -0.00000000000E+00 -0.00000000000E+00 -0.28360951352E+02  0.28360951352E+02  0.00000000000E+00 0.  1.
         25    2    1    2    0    0  0.16587919224E+01  0.59866315982E+02  0.66417567757E+03  0.67850114325E+03  0.12509094031E+03 0.  0.
          5    1    3    3  502    0 -0.20526231946E+02  0.81814165704E+02  0.26605305182E+03  0.27913541999E+03  0.41800000000E+01 0.  1.
         -5    1    3    3    0  502  0.22185023868E+02 -0.21947849722E+02  0.39812262574E+03  0.39936572327E+03  0.41800000000E+01 0.  1.
        -11    1    1    2    0    0 -0.39043650673E+01 -0.41650450382E+02  0.13383325071E+03  0.14021891128E+03  0.00000000000E+00 0. -1.
         11    1    1    2    0    0  0.22455731449E+01 -0.18215865600E+02 -0.13328172243E+02  0.22682604208E+02  0.00000000000E+00 0.  1.
</event>
<event>
 7    1  0.2661133E-009  0.1686380E+03  0.7561462E-02  0.1179276E+00
         -1   -1    0    0    0  501 -0.00000000000E+00  0.00000000000E+00  0.30689692437E+02  0.30689692437E+02  0.00000000000E+00 0.  1.
          1   -1    0    0  501    0  0.00000000000E+00 -0.00000000000E+00 -0.12934366765E+04  0.12934366765E+04  0.00000000000E+00 0. -1.
         25    2    1    2    0    0  0.14303732705E+03 -0.10788376890E+02 -0.94319355702E+03  0.96220453716E+03  0.12508964521E+03 0.  0.
          5    1    3    3  502    0  0.15665756994E+03 -0.26373241925E+01 -0.65298464597E+03  0.67153180861E+03  0.41800000000E+01 0.  1.
         -5    1    3    3    0  502 -0.13620242894E+02 -0.81510526975E+01 -0.29020891105E+03  0.29067272856E+03  0.41800000000E+01 0.  1.
        -11    1    1    2    0    0 -0.46822092101E+02  0.42077874909E+02 -0.79407616683E+02  0.10133323962E+03  0.00000000000E+00 0. -1.
         11    1    1    2    0    0 -0.96215234946E+02 -0.31289498019E+02 -0.24014581036E+03  0.26058859215E+03  0.00000000000E+00 0.  1.
</event>
<event>
 7    1  0.2661133E-009  0.1165993E+03  0.7561462E-02  0.1248815E+00
         -1   -1    0    0    0  501 -0.00000000000E+00  0.00000000000E+00  0.19152203475E+03  0.19152203475E+03  0.00000000000E+00 0.  1.
          1   -1    0    0  501    0  0.00000000000E+00 -0.00000000000E+00 -0.10624882603E+03  0.10624882603E+03  0.00000000000E+00 0. -1.
         25    2    1    2    0    0  0.26653482764E+02  0.43201246762E+02 -0.29706209126E+02  0.13822602476E+03  0.12508884521E+03 0.  0.
          5    1    3    3  502    0  0.29196276522E+02  0.84167947815E+02 -0.36586004614E+02  0.96398517291E+02  0.41800000000E+01 0.  1.
         -5    1    3    3    0  502 -0.25427937580E+01 -0.40966701053E+02  0.68797954875E+01  0.41827507471E+02  0.41800000000E+01 0.  1.
        -11    1    1    2    0    0  0.26305912877E+02 -0.42270134155E+02  0.26442812222E+02  0.56373642884E+02  0.00000000000E+00 0. -1.
         11    1    1    2    0    0 -0.52959395642E+02 -0.93111260709E+00  0.88536605627E+02  0.10317119314E+03  0.00000000000E+00 0.  1.
</event>
<event>
 7    1  0.2993324E-009  0.1439039E+03  0.7561462E-02  0.1208170E+00
          1   -1    0    0  501    0  0.00000000000E+00  0.00000000000E+00  0.11556168051E+04  0.11556168051E+04  0.00000000000E+00 0.  1.
         -1   -1    0    0    0  501 -0.00000000000E+00 -0.00000000000E+00 -0.25189819178E+02  0.25189819178E+02  0.00000000000E+00 0. -1.
         25    2    1    2    0    0 -0.48176159818E+02  0.11344037652E+03  0.44657135663E+03  0.47985808952E+03  0.12509255822E+03 0.  0.
          5    1    3    3  502    0  0.14909322041E+02  0.29686410624E+02  0.28653849063E+03  0.28848804112E+03  0.41800000000E+01 0. -1.
         -5    1    3    3    0  502 -0.63085481859E+02  0.83753965897E+02  0.16003286600E+03  0.19137004840E+03  0.41800000000E+01 0. -1.
        -11    1    1    2    0    0  0.26730186401E+01 -0.10256927466E+03  0.54048639933E+03  0.55013920874E+03  0.00000000000E+00 0.  1.
         11    1    1    2    0    0  0.45503141178E+02 -0.10871101865E+02  0.14336922999E+03  0.15080932604E+03  0.00000000000E+00 0. -1.
</event>
<event>
 7    1  0.2661133E-009  0.4473476E+03  0.7561462E-02  0.1028516E+00
         -1   -1    0    0    0  501 -0.00000000000E+00  0.00000000000E+00  0.23664844426E+03  0.23664844426E+03  0.00000000000E+00 0.  1.
          1   -1    0    0  501    0  0.00000000000E+00 -0.00000000000E+00 -0.88273848253E+03  0.88273848253E+03  0.00000000000E+00 0. -1.
         25    2    1    2    0    0 -0.41628212562E+03 -0.14414935434E+03 -0.38857073479E+03  0.60058660415E+03  0.12508880316E+03 0.  0.
          5    1    3    3  502    0 -0.90211209485E+02 -0.57094013965E+02 -0.16205000068E+03  0.19410168435E+03  0.41800000000E+01 0. -1.
         -5    1    3    3    0  502 -0.32607091614E+03 -0.87055340377E+02 -0.22652073411E+03  0.40648491979E+03  0.41800000000E+01 0. -1.
        -11    1    1    2    0    0  0.34619814719E+03  0.79991465240E+02 -0.20598912492E+03  0.41071073910E+03  0.00000000000E+00 0.  1.
         11    1    1    2    0    0  0.70083978431E+02  0.64157889102E+02 -0.51530178565E+02  0.10808958354E+03  0.00000000000E+00 0. -1.
</event>
<event>
 7    1  0.2661133E-009  0.2029602E+03  0.7561462E-02  0.1147265E+00
          1   -1    0    0  501    0  0.00000000000E+00  0.00000000000E+00  0.11622220284E+03  0.11622220284E+03  0.00000000000E+00 0. -1.
         -1   -1    0    0    0  501 -0.00000000000E+00 -0.00000000000E+00 -0.56655141607E+03  0.56655141607E+03  0.00000000000E+00 0.  1.
         25    2    1    2    0    0  0.19563597047E+03  0.15744463920E+01 -0.39747954380E+03  0.46034149318E+03  0.12509352813E+03 0.  0.
          5    1    3    3  502    0  0.19273184887E+03 -0.35786291106E+01 -0.26529820029E+03  0.32796185698E+03  0.41800000000E+01 0. -1.
         -5    1    3    3    0  502  0.29041216022E+01  0.51530755025E+01 -0.13218134351E+03  0.13237963620E+03  0.41800000000E+01 0. -1.
        -11    1    1    2    0    0 -0.37816046656E+02  0.25679902068E+02 -0.41723926766E+02  0.61890199706E+02  0.00000000000E+00 0. -1.
         11    1    1    2    0    0 -0.15781992382E+03 -0.27254348460E+02 -0.11125742669E+02  0.16054192603E+03  0.00000000000E+00 0.  1.
</event>
<event>
 7    1  0.2661133E-009  0.1329071E+03  0.7561462E-02  0.1223205E+00
          1   -1    0    0  501    0  0.00000000000E+00  0.00000000000E+00  0.35437441826E+03  0.35437441826E+03  0.00000000000E+00 0. -1.
         -1   -1    0    0    0  501 -0.00000000000E+00 -0.00000000000E+00 -0.71697555051E+02  0.71697555051E+02  0.00000000000E+00 0.  1.
         25    2    1    2    0    0  0.11630662882E+03  0.86036915985E+01  0.14473537592E+03  0.22404696637E+03  0.12508980247E+03 0.  0.
          5    1    3    3  502    0  0.21394968604E+01 -0.17519688505E+02 -0.16635300499E+02  0.24611431385E+02  0.41800000000E+01 0. -1.
         -5    1    3    3    0  502  0.11416713195E+03  0.26123380103E+02  0.16137067642E+03  0.19943553499E+03  0.41800000000E+01 0. -1.
        -11    1    1    2    0    0 -0.51000738545E+02 -0.33026806263E+02  0.18138701477E+02  0.63410233838E+02  0.00000000000E+00 0.  1.
         11    1    1    2    0    0 -0.65305890270E+02  0.24423114665E+02  0.11980278581E+03  0.13861477310E+03  0.00000000000E+00 0. -1.
</event>
<event>
 6    1  0.2661133E-009  0.2130371E+03  0.7561462E-02  0.1139183E+00
         -2   -1    0    0    0  501 -0.00000000000E+00  0.00000000000E+00  0.99696068624E+02  0.99696068624E+02  0.00000000000E+00 0.  1.
          2   -1    0    0  501    0  0.00000000000E+00 -0.00000000000E+00 -0.69710403427E+03  0.69710403427E+03  0.00000000000E+00 0. -1.
          5    1    1    2  502    0 -0.18331499339E+03  0.94092294776E+01 -0.47130729039E+03  0.50580723084E+03  0.41800000000E+01 0.  1.
         -5    1    1    2    0  502 -0.15606797364E+02  0.35087710865E+02 -0.27821256585E+02  0.47604771774E+02  0.41800000000E+01 0.  1.
        -11    1    1    2    0    0  0.17050022109E+03 -0.37707861947E+02 -0.41428993401E+02  0.17946746150E+03  0.00000000000E+00 0. -1.
         11    1    1    2    0    0  0.28421569667E+02 -0.67890783949E+01 -0.56850425269E+02  0.63920638772E+02  0.00000000000E+00 0.  1.
</event>
<event>
 7    1  0.2661133E-009  0.1643691E+03  0.7561462E-02  0.1183851E+00
         -1   -1    0    0    0  501 -0.00000000000E+00  0.00000000000E+00  0.17012923202E+03  0.17012923202E+03  0.00000000000E+00 0.  1.
          1   -1    0    0  501    0  0.00000000000E+00 -0.00000000000E+00 -0.18778216785E+03  0.18778216785E+03  0.00000000000E+00 0. -1.
         25    2    1    2    0    0 -0.11031379861E+02 -0.12568628557E+03 -0.75979116891E+02  0.19322948218E+03  0.12508426302E+03 0.  0.
          5    1    3    3  502    0 -0.16857649513E+02  0.22753207927E+02 -0.17336254540E+02  0.33465010676E+02  0.41800000000E+01 0. -1.
         -5    1    3    3    0  502  0.58262696522E+01 -0.14843949350E+03 -0.58642862351E+02  0.15976447150E+03  0.41800000000E+01 0. -1.
        -11    1    1    2    0    0 -0.36586219764E+02  0.61857498850E+02  0.12941396015E+02  0.73023156406E+02  0.00000000000E+00 0.  1.
         11    1    1    2    0    0  0.47617599625E+02  0.63828786723E+02  0.45384785041E+02  0.91658761293E+02  0.00000000000E+00 0. -1.
</event>
<event>
 7    1  0.2661133E-009  0.1090072E+03  0.7561462E-02  0.1262419E+00
         -1   -1    0    0    0  501 -0.00000000000E+00  0.00000000000E+00  0.28690350978E+02  0.28690350978E+02  0.00000000000E+00 0.  1.
          1   -1    0    0  501    0  0.00000000000E+00 -0.00000000000E+00 -0.47108724262E+03  0.47108724262E+03  0.00000000000E+00 0. -1.
         25    2    1    2    0    0  0.47104745512E+01  0.26848655230E+02 -0.17965553726E+03  0.22060546035E+03  0.12509044013E+03 0.  0.
          5    1    3    3  502    0  0.58916331813E+02 -0.98002131786E+01 -0.10795849485E+03  0.12344912856E+03  0.41800000000E+01 0. -1.
         -5    1    3    3    0  502 -0.54205857262E+02  0.36648868409E+02 -0.71697042405E+02  0.97156331789E+02  0.41800000000E+01 0. -1.
        -11    1    1    2    0    0 -0.25411009579E+02 -0.53264875541E+02 -0.14012118887E+03  0.15204214529E+03  0.00000000000E+00 0.  1.
         11    1    1    2    0    0  0.20700535028E+02  0.26416220310E+02 -0.12262016552E+03  0.12712998795E+03  0.00000000000E+00 0. -1.
</event>
<event>
 7    1  0.2661133E-009  0.1080549E+03  0.7561462E-02  0.1264215E+00
          3   -1    0    0  501    0  0.00000000000E+00  0.00000000000E+00  0.30731286416E+03  0.30731286416E+03  0.00000000000E+00 0. -1.
         -3   -1    0    0    0  501 -0.00000000000E+00 -0.00000000000E+00 -0.68940158632E+02  0.68940158632E+02  0.00000000000E+00 0.  1.
         25    2    1    2    0    0 -0.45077538322E+01 -0.91910610861E+02  0.98938096479E+02  0.18412729721E+03  0.12508490880E+03 0.  0.
          5    1    3    3  502    0 -0.61822867218E+01 -0.70384935575E+02  0.12884448843E+03  0.14700555916E+03  0.41800000000E+01 0. -1.
         -5    1    3    3    0  502  0.16745328896E+01 -0.21525675286E+02 -0.29906391947E+02  0.37121738054E+02  0.41800000000E+01 0. -1.
        -11    1    1    2    0    0 -0.35111774429E+02  0.69385617383E+02  0.52065906655E+02  0.93584503199E+02  0.00000000000E+00 0.  1.
         11    1    1    2    0    0  0.39619528261E+02  0.22524993478E+02  0.87368702392E+02  0.98541222382E+02  0.00000000000E+00 0. -1.
</event>
<event>
 7    1  0.2661133E-009  0.9132080E+02  0.7561462E-02  0.1299684E+00
         -4   -1    0    0    0  501 -0.00000000000E+00  0.00000000000E+00  0.13066148524E+03  0.13066148524E+03  0.00000000000E+00 0.  1.
          4   -1    0    0  501    0  0.00000000000E+00 -0.00000000000E+00 -0.11941376251E+03  0.11941376251E+03  0.00000000000E+00 0. -1.
         25    2    1    2    0    0 -0.27426713386E+02 -0.55887398346E+02  0.48520850726E+01  0.13980983362E+03  0.12509045106E+03 0.  0.
          5    1    3    3  502    0  0.13828353827E+02 -0.91798663735E+01 -0.52373627978E+02  0.55099570087E+02  0.41800000000E+01 0. -1.
         -5    1    3    3    0  502 -0.41255067213E+02 -0.46707531972E+02  0.57225713051E+02  0.84710263533E+02  0.41800000000E+01 0. -1.
        -11    1    1    2    0    0  0.28746472989E+02 -0.14823767482E+02  0.20302452176E+02  0.38187607362E+02  0.00000000000E+00 0.  1.
         11    1    1    2    0    0 -0.13197596034E+01  0.70711165828E+02 -0.13906814526E+02  0.72077806767E+02  0.00000000000E+00 0. -1.
</event>
<event>
 7    1  0.2661133E-009  0.1767540E+03  0.7561462E-02  0.1170982E+00
          2   -1    0    0  501    0  0.00000000000E+00  0.00000000000E+00  0.88086417001E+03  0.88086417001E+03  0.00000000000E+00 0. -1.
         -2   -1    0    0    0  501 -0.00000000000E+00 -0.00000000000E+00 -0.42721128092E+02  0.42721128092E+02  0.00000000000E+00 0.  1.
         25    2    1    2    0    0  0.84465607111E+02 -0.11714982079E+03  0.60239126177E+03  0.63196608846E+03  0.12508950961E+03 0.  0.
          5    1    3    3  502    0  0.10322859883E+03 -0.12946049858E+03  0.55780133732E+03  0.58187281138E+03  0.41800000000E+01 0. -1.
         -5    1    3    3    0  502 -0.18762991719E+02  0.12310677798E+02  0.44589924452E+02  0.50093277081E+02  0.41800000000E+01 0. -1.
        -11    1    1    2    0    0 -0.53793713935E+01  0.75453527845E+02  0.14869821986E+03  0.16683324936E+03  0.00000000000E+00 0. -1.
         11    1    1    2    0    0 -0.79086235718E+02  0.41696292941E+02  0.87053560282E+02  0.12478596028E+03  0.00000000000E+00 0.  1.
</event>
<event>
 7    1  0.2661133E-009  0.1611089E+03  0.7561462E-02  0.1187450E+00
          2   -1    0    0  501    0  0.00000000000E+00  0.00000000000E+00  0.44809847595E+02  0.44809847595E+02  0.00000000000E+00 0. -1.
         -2   -1    0    0    0  501 -0.00000000000E+00 -0.00000000000E+00 -0.73866876797E+03  0.73866876797E+03  0.00000000000E+00 0.  1.
         25    2    1    2    0    0  0.33721433118E+02  0.11442790437E+03 -0.18579469205E+03  0.25376779052E+03  0.12509014174E+03 0.  0.
          5    1    3    3  502    0  0.38342839773E+02 -0.16024266614E+02 -0.37127979808E+02  0.55883000698E+02  0.41800000000E+01 0.  1.
         -5    1    3    3    0  502 -0.46214066554E+01  0.13045217098E+03 -0.14866671224E+03  0.19788478982E+03  0.41800000000E+01 0.  1.
        -11    1    1    2    0    0  0.19241323280E+02  0.44141468171E+01 -0.70608773847E+02  0.73316520361E+02  0.00000000000E+00 0.  1.
         11    1    1    2    0    0 -0.52962756397E+02 -0.11884205119E+03 -0.43745545448E+03  0.45639430469E+03  0.00000000000E+00 0. -1.
</event>
<event>
 7    1  0.2661133E-009  0.1444838E+03  0.7561462E-02  0.1207420E+00
          2   -1    0    0  501    0  0.00000000000E+00  0.00000000000E+00  0.11999326190E+04  0.11999326190E+04  0.00000000000E+00 0.  1.
         -2   -1    0    0    0  501 -0.00000000000E+00 -0.00000000000E+00 -0.18332669709E+02  0.18332669709E+02  0.00000000000E+00 0. -1.
         25    2    1    2    0    0 -0.91783819270E+02  0.37733449452E+02  0.70851379011E+03  0.72628050453E+03  0.12507396932E+03 0.  0.
          5    1    3    3  502    0 -0.12055613147E+03  0.37937280750E+02  0.49968028044E+03  0.51543270478E+03  0.41800000000E+01 0.  1.
         -5    1    3    3    0  502  0.28772312195E+02 -0.20383129835E+00  0.20883350967E+03  0.21084779974E+03  0.41800000000E+01 0.  1.
        -11    1    1    2    0    0  0.36448843729E+02  0.29121967439E+02  0.20326410671E+03  0.20854952475E+03  0.00000000000E+00 0.  1.
         11    1    1    2    0    0  0.55334975541E+02 -0.66855416890E+02  0.26982205243E+03  0.28343525939E+03  0.00000000000E+00 0. -1.
</event>
<event>
 7    1  0.2661133E-009  0.2277026E+03  0.7561462E-02  0.1128267E+00
          1   -1    0    0  501    0  0.00000000000E+00  0.00000000000E+00  0.11414746706E+03  0.11414746706E+03  0.00000000000E+00 0. -1.
         -1   -1    0    0    0  501 -0.00000000000E+00 -0.00000000000E+00 -0.49659685205E+03  0.49659685205E+03  0.00000000000E+00 0.  1.
         25    2    1    2    0    0 -0.17389632533E+03  0.10797287481E+03 -0.26755709934E+03  0.35934973103E+03  0.12508938455E+03 0.  0.
          5    1    3    3  502    0 -0.10292459629E+03 -0.53575475533E+01 -0.89027453795E+02  0.13625540637E+03  0.41800000000E+01 0. -1.
         -5    1    3    3    0  502 -0.70971729041E+02  0.11333042236E+03 -0.17852964555E+03  0.22309432466E+03  0.41800000000E+01 0. -1.
        -11    1    1    2    0    0  0.98569484997E+02 -0.16442650159E+02 -0.79458347789E+02  0.12767119154E+03  0.00000000000E+00 0.  1.
         11    1    1    2    0    0  0.75326840334E+02 -0.91530224648E+02 -0.35433937851E+02  0.12372339654E+03  0.00000000000E+00 0. -1.
</event>
<event>
 7    1  0.2661133E-009  0.1503821E+03  0.7561462E-02  0.1200004E+00
         -1   -1    0    0    0  501 -0.00000000000E+00  0.00000000000E+00  0.35236991336E+02  0.35236991336E+02  0.00000000000E+00 0.  1.
          1   -1    0    0  501    0  0.00000000000E+00 -0.00000000000E+00 -0.83833278758E+03  0.83833278758E+03  0.00000000000E+00 0. -1.
         25    2    1    2    0    0  0.27728031972E+02  0.12195731263E+03 -0.30888219527E+03  0.35594651804E+03  0.12508910139E+03 0.  0.
          5    1    3    3  502    0  0.45457481968E+02  0.13915454781E+03 -0.22550449987E+03  0.26888682137E+03  0.41800000000E+01 0.  1.
         -5    1    3    3    0  502 -0.17729449996E+02 -0.17197235174E+02 -0.83377695396E+02  0.87059696670E+02  0.41800000000E+01 0.  1.
        -11    1    1    2    0    0 -0.21254428178E+02 -0.28355968086E+02 -0.38398416354E+02  0.52251794436E+02  0.00000000000E+00 0.  1.
         11    1    1    2    0    0 -0.64736037942E+01 -0.93601344548E+02 -0.45581518462E+03  0.46537146645E+03  0.00000000000E+00 0. -1.
</event>
<event>
 7    1  0.2661133E-009  0.1177827E+03  0.7561462E-02  0.1246800E+00
          2   -1    0    0  501    0  0.00000000000E+00  0.00000000000E+00  0.64779894652E+03  0.64779894652E+03  0.00000000000E+00 0. -1.
         -2   -1    0    0    0  501 -0.00000000000E+00 -0.00000000000E+00 -0.27007656620E+02  0.27007656620E+02  0.00000000000E+00 0.  1.
         25    2    1    2    0    0  0.61970484908E+02 -0.55029029948E+01  0.22795764593E+03  0.26734823476E+03  0.12505905545E+03 0.  0.
          5    1    3    3  502    0  0.11546230022E+02  0.53661678889E+02  0.55683177617E+02  0.78300573934E+02  0.41800000000E+01 0.  1.
         -5    1    3    3    0  502  0.50424254886E+02 -0.59164581883E+02  0.17227446832E+03  0.18904766083E+03  0.41800000000E+01 0.  1.
        -11    1    1    2    0    0 -0.58489010885E+02 -0.30864909932E+02  0.18563216319E+03  0.19706066850E+03  0.00000000000E+00 0.  1.
         11    1    1    2    0    0 -0.34814740232E+01  0.36367812927E+02  0.20720148078E+03  0.21039769988E+03  0.00000000000E+00 0. -1.
</event>
<event>
 7    1  0.2661133E-009  0.2058121E+03  0.7561462E-02  0.1144926E+00
          2   -1    0    0  501    0  0.00000000000E+00  0.00000000000E+00  0.60404985062E+03  0.60404985062E+03  0.00000000000E+00 0. -1.
         -2   -1    0    0    0  501 -0.00000000000E+00 -0.00000000000E+00 -0.83579785747E+02  0.83579785747E+02  0.00000000000E+00 0.  1.
         25    2    1    2    0    0 -0.73510080791E+02  0.16482438286E+03  0.38824473977E+03  0.44603985673E+03  0.12508703637E+03 0.  0.
          5    1    3    3  502    0  0.10620735889E+02  0.11134741710E+03  0.14537079392E+03  0.18346985433E+03  0.41800000000E+01 0. -1.
         -5    1    3    3    0  502 -0.84130816680E+02  0.53476965759E+02  0.24287394585E+03  0.26257000239E+03  0.41800000000E+01 0. -1.
        -11    1    1    2    0    0  0.27758376603E+02 -0.14891256288E+03  0.83874531780E+02  0.17314853720E+03  0.00000000000E+00 0.  1.
         11    1    1    2    0    0  0.45751704187E+02 -0.15911819979E+02  0.48350793319E+02  0.68441242432E+02  0.00000000000E+00 0. -1.
</event>
<event>
 7    1  0.2661133E-009  0.1010341E+03  0.7561462E-02  0.1278136E+00
          3   -1    0    0  501    0  0.00000000000E+00  0.00000000000E+00  0.17167189281E+02  0.17167189281E+02  0.00000000000E+00 0. -1.
         -3   -1    0    0    0  501 -0.00000000000E+00 -0.00000000000E+00 -0.70678959856E+03  0.70678959856E+03  0.00000000000E+00 0.  1.
         25    2    1    2    0    0  0.17641346043E+02  0.10332467935E+02 -0.41690224023E+03  0.43574432253E+03  0.12509060606E+03 0.  0.
          5    1    3    3  502    0 -0.45364292481E+02  0.27101033173E+02 -0.11185978105E+03  0.12378395716E+03  0.41800000000E+01 0.  1.
         -5    1    3    3    0  502  0.63005638524E+02 -0.16768565238E+02 -0.30504245917E+03  0.31196036537E+03  0.41800000000E+01 0.  1.
        -11    1    1    2    0    0 -0.14973890513E+02 -0.45786705448E+02 -0.21571363641E+03  0.22102717645E+03  0.00000000000E+00 0.  1.
         11    1    1    2    0    0 -0.26674555300E+01  0.35454237513E+02 -0.57006532642E+02  0.67185288869E+02  0.00000000000E+00 0. -1.
</event>
<event>
 7    1  0.2661133E-009  0.6180194E+02  0.7561462E-02  0.1390422E+00
         -3   -1    0    0    0  501 -0.00000000000E+00  0.00000000000E+00  0.28082726270E+02  0.28082726270E+02  0.00000000000E+00 0.  1.
          3   -1    0    0  501    0  0.00000000000E+00 -0.00000000000E+00 -0.43526703224E+03  0.43526703224E+03  0.00000000000E+00 0. -1.
         25    2    1    2    0    0 -0.78469452357E+01  0.35193789223E+01 -0.18990131809E+03  0.22756649325E+03  0.12510011055E+03 0.  0.
          5    1    3    3  502    0  0.12643794314E+02  0.27865092094E+02  0.38970294070E+01  0.31128574177E+02  0.41800000000E+01 0.  1.
         -5    1    3    3    0  502 -0.20490739550E+02 -0.24345713172E+02 -0.19379834750E+03  0.19643791908E+03  0.41800000000E+01 0.  1.
        -11    1    1    2    0    0  0.20368602129E+02 -0.27115159295E+02 -0.20236605954E+03  0.20518804515E+03  0.00000000000E+00 0. -1.
         11    1    1    2    0    0 -0.12521656893E+02  0.23595780373E+02 -0.14916928334E+02  0.30595220112E+02  0.00000000000E+00 0.  1.
</event>
<event>
 7    1  0.2661133E-009  0.1341417E+03  0.7561462E-02  0.1221436E+00
         -2   -1    0    0    0  501 -0.00000000000E+00  0.00000000000E+00  0.55469307845E+02  0.55469307845E+02  0.00000000000E+00 0.  1.
          2   -1    0    0  501    0  0.00000000000E+00 -0.00000000000E+00 -0.43668661186E+03  0.43668661186E+03  0.00000000000E+00 0. -1.
         25    2    1    2    0    0 -0.14319714507E+02 -0.10750637064E+03 -0.23365575528E+03  0.28636644170E+03  0.12509217802E+03 0.  0.
          5    1    3    3  502    0 -0.85553301347E+01 -0.13141722552E+03 -0.15287838088E+03  0.20182406343E+03  0.41800000000E+01 0.  1.
         -5    1    3    3    0  502 -0.57643843719E+01  0.23910854880E+02 -0.80777374398E+02  0.84542378266E+02  0.41800000000E+01 0.  1.
        -11    1    1    2    0    0 -0.43892334787E+00  0.82751003904E+02 -0.15527908146E+03  0.17595315979E+03  0.00000000000E+00 0. -1.
         11    1    1    2    0    0  0.14758637855E+02  0.24755366741E+02  0.77175327228E+01  0.29836318223E+02  0.00000000000E+00 0.  1.
</event>
<event>
 7    1  0.2661133E-009  0.1685343E+03  0.7561462E-02  0.1179385E+00
          2   -1    0    0  501    0  0.00000000000E+00  0.00000000000E+00  0.16899186852E+03  0.16899186852E+03  0.00000000000E+00 0.  1.
         -2   -1    0    0    0  501 -0.00000000000E+00 -0.00000000000E+00 -0.18286598112E+03  0.18286598112E+03  0.00000000000E+00 0. -1.
         25    2    1    2    0    0 -0.30317105051E+02  0.12866721880E+03  0.31013292049E+02  0.18461632892E+03  0.12508790736E+03 0.  0.
          5    1    3    3  502    0 -0.68469101366E+02  0.12605759191E+03  0.25275918200E+02  0.14572192271E+03  0.41800000000E+01 0.  1.
         -5    1    3    3    0  502  0.38151996315E+02  0.26096268907E+01  0.57373738485E+01  0.38894406204E+02  0.41800000000E+01 0.  1.
        -11    1    1    2    0    0 -0.27320363031E+01 -0.12116603855E+03 -0.53181531505E+02  0.13235160828E+03  0.00000000000E+00 0. -1.
         11    1    1    2    0    0  0.33049141354E+02 -0.75011802437E+01  0.82941268574E+01  0.34889912433E+02  0.00000000000E+00 0.  1.
</event>
<event>
 7    1  0.2661133E-009  0.1466245E+03  0.7561462E-02  0.1204683E+00
         -1   -1    0    0    0  501 -0.00000000000E+00  0.00000000000E+00  0.32082028365E+02  0.32082028365E+02  0.00000000000E+00 0.  1.
          1   -1    0    0  501    0  0.00000000000E+00 -0.00000000000E+00 -0.10393174388E+04  0.10393174388E+04  0.00000000000E+00 0. -1.
         25    2    1    2    0    0 -0.11601922369E+03 -0.47742419359E+02 -0.75248229787E+03  0.77305647820E+03  0.12508761339E+03 0.  0.
          5    1    3    3  502    0  0.12961240351E+01  0.24037728873E+02 -0.36173422277E+02  0.43651818131E+02  0.41800000000E+01 0.  1.
         -5    1    3    3    0  502 -0.11731534772E+03 -0.71780148232E+02 -0.71630887559E+03  0.72940466007E+03  0.41800000000E+01 0.  1.
        -11    1    1    2    0    0  0.94398399968E+02  0.53947360685E+02 -0.12083896677E+03  0.16255285766E+03  0.00000000000E+00 0.  1.
         11    1    1    2    0    0  0.21620823721E+02 -0.62049413264E+01 -0.13391414582E+03  0.13579013133E+03  0.00000000000E+00 0. -1.
</event>
<event>
 7    1  0.2661133E-009  0.1272702E+03  0.7561462E-02  0.1231563E+00
         -1   -1    0    0    0  501 -0.00000000000E+00  0.00000000000E+00  0.16729142268E+03  0.16729142268E+03  0.00000000000E+00 0.  1.
          1   -1    0    0  501    0  0.00000000000E+00 -0.00000000000E+00 -0.26157501500E+03  0.26157501500E+03  0.00000000000E+00 0. -1.
         25    2    1    2    0    0  0.12109932578E+03 -0.37043289444E+02  0.78108273771E+02  0.19437817073E+03  0.12507885044E+03 0.  0.
          5    1    3    3  502    0  0.66398384263E+01 -0.24938404784E+01  0.74226813458E+02  0.74681985316E+02  0.41800000000E+01 0. -1.
         -5    1    3    3    0  502  0.11445948735E+03 -0.34549448965E+02  0.38814603129E+01  0.11969618541E+03  0.41800000000E+01 0. -1.
        -11    1    1    2    0    0 -0.78425184299E+02  0.22477198290E+02 -0.17089758303E+03  0.18937190357E+03  0.00000000000E+00 0. -1.
         11    1    1    2    0    0 -0.42674141480E+02  0.14566091154E+02 -0.14942830609E+01  0.45116363377E+02  0.00000000000E+00 0.  1.
</event>
<event>
 7    1  0.2661133E-009  0.1087842E+03  0.7561462E-02  0.1262838E+00
         -2   -1    0    0    0  501 -0.00000000000E+00  0.00000000000E+00  0.41368476908E+02  0.41368476908E+02  0.00000000000E+00 0.  1.
          2   -1    0    0  501    0  0.00000000000E+00 -0.00000000000E+00 -0.47857255730E+03  0.47857255730E+03  0.00000000000E+00 0. -1.
         25    2    1    2    0    0 -0.68518793831E+02 -0.29203973529E+02 -0.32582595789E+03  0.35687301323E+03  0.12509234813E+03 0.  0.
          5    1    3    3  502    0  0.10735793589E+02 -0.25555989983E+02 -0.23304094892E+03  0.23472094530E+03  0.41800000000E+01 0.  1.
         -5    1    3    3    0  502 -0.79254587419E+02 -0.36479835454E+01 -0.92785008969E+02  0.12215206793E+03  0.41800000000E+01 0.  1.
        -11    1    1    2    0    0 -0.15124951122E+02  0.21226163668E+02 -0.34524875785E+01  0.26291326346E+02  0.00000000000E+00 0.  1.
         11    1    1    2    0    0  0.83643744953E+02  0.79778098605E+01 -0.10792563492E+03  0.13677669463E+03  0.00000000000E+00 0. -1.
</event>
<event>
 7    1  0.2661133E-009  0.1098268E+03  0.7561462E-02  0.1260891E+00
         -3   -1    0    0    0  501 -0.00000000000E+00  0.00000000000E+00  0.86287980055E+02  0.86287980055E+02  0.00000000000E+00 0.  1.
          3   -1    0    0  501    0  0.00000000000E+00 -0.00000000000E+00 -0.23201009295E+03  0.23201009295E+03  0.00000000000E+00 0. -1.
         25    2    1    2    0    0  0.40867853280E+02 -0.65887002112E+02 -0.14496341941E+03  0.20657600967E+03  0.12509187154E+03 0.  0.
          5    1    3    3  502    0  0.16366693863E+02 -0.97500756568E+02 -0.69032599711E+02  0.12065338131E+03  0.41800000000E+01 0. -1.
         -5    1    3    3    0  502  0.24501159418E+02  0.31613754457E+02 -0.75930819701E+02  0.85922628359E+02  0.41800000000E+01 0. -1.
        -11    1    1    2    0    0 -0.50741567995E+01  0.27642226862E+02  0.37495505173E+02  0.46858859155E+02  0.00000000000E+00 0.  1.
         11    1    1    2    0    0 -0.35793696481E+02  0.38244775249E+02 -0.38254198660E+02  0.64863204182E+02  0.00000000000E+00 0. -1.
</event>
<event>
 7    1  0.2661133E-009  0.1718274E+03  0.7561462E-02  0.1175955E+00
         -2   -1    0    0    0  501 -0.00000000000E+00  0.00000000000E+00  0.98778605295E+02  0.98778605295E+02  0.00000000000E+00 0. -1.
          2   -1    0    0  501    0  0.00000000000E+00 -0.00000000000E+00 -0.56893894724E+03  0.56893894724E+03  0.00000000000E+00 0.  1.
         25    2    1    2    0    0 -0.29401633355E+02 -0.15328181587E+03 -0.43531539536E+02  0.20470200524E+03  0.12509254532E+03 0.  0.
          5    1    3    3  502    0 -0.50150439039E+02 -0.23941977199E+02  0.19800001014E+02  0.59142178250E+02  0.41800000000E+01 0. -1.
         -5    1    3    3    0  502  0.20748805684E+02 -0.12933983867E+03 -0.63331540550E+02  0.14555982699E+03  0.41800000000E+01 0. -1.
        -11    1    1    2    0    0  0.26660362630E+02  0.99381893280E+02 -0.37299770337E+03  0.38692999673E+03  0.00000000000E+00 0.  1.
         11    1    1    2    0    0  0.27412707242E+01  0.53899922593E+02 -0.53631099038E+02  0.76085550565E+02  0.00000000000E+00 0. -1.
</event>
<event>
 7    1  0.2661133E-009  0.1314574E+03  0.7561462E-02  0.1225309E+00
          1   -1    0    0  501    0  0.00000000000E+00  0.00000000000E+00  0.20600294016E+04  0.20600294016E+04  0.00000000000E+00 0. -1.
         -1   -1    0    0    0  501 -0.00000000000E+00 -0.00000000000E+00 -0.13928448939E+02  0.13928448939E+02  0.00000000000E+00 0.  1.
         25    2    1    2    0    0  0.42092563351E+02  0.59202829184E+02  0.17042413928E+04  0.17103692223E+04  0.12508953841E+03 0.  0.
          5    1    3    3  502    0 -0.58931817940E+01 -0.35980578554E+02  0.34433376576E+03  0.34628390991E+03  0.41800000000E+01 0. -1.
         -5    1    3    3    0  502  0.47985745145E+02  0.95183407739E+02  0.13599076271E+04  0.13640853124E+04  0.41800000000E+01 0. -1.
        -11    1    1    2    0    0 -0.41460734877E+02  0.15920900588E+02  0.84134417833E+02  0.95137100419E+02  0.00000000000E+00 0. -1.
         11    1    1    2    0    0 -0.63182847430E+00 -0.75123729772E+02  0.25772514206E+03  0.26845152790E+03  0.00000000000E+00 0.  1.
</event>
<event>
 7    1  0.2661133E-009  0.1163597E+03  0.7561462E-02  0.1249226E+00
         -3   -1    0    0    0  501 -0.00000000000E+00  0.00000000000E+00  0.43412335280E+03  0.43412335280E+03  0.00000000000E+00 0.  1.
          3   -1    0    0  501    0  0.00000000000E+00 -0.00000000000E+00 -0.39431580197E+02  0.39431580197E+02  0.00000000000E+00 0. -1.
         25    2    1    2    0    0  0.60282201940E+01 -0.72833058905E+02  0.25091371674E+03  0.28974224748E+03  0.12510748506E+03 0.  0.
          5    1    3    3  502    0 -0.48605348291E+02 -0.41400569508E+02  0.19552895392E+03  0.20573169726E+03  0.41800000000E+01 0.  1.
         -5    1    3    3    0  502  0.54633568484E+02 -0.31432489397E+02  0.55384762826E+02  0.84010550221E+02  0.41800000000E+01 0.  1.
        -11    1    1    2    0    0  0.21162756490E+02  0.75344182394E+02  0.69467819769E+02  0.10464409236E+03  0.00000000000E+00 0. -1.
         11    1    1    2    0    0 -0.27190976684E+02 -0.25111234889E+01  0.74310236092E+02  0.79168593155E+02  0.00000000000E+00 0.  1.
</event>
<event>
 7    1  0.2661133E-009  0.9998242E+02  0.7561462E-02  0.1280333E+00
          2   -1    0    0  501    0  0.00000000000E+00  0.00000000000E+00  0.43146121633E+02  0.43146121633E+02  0.00000000000E+00 0. -1.
         -2   -1    0    0    0  501 -0.00000000000E+00 -0.00000000000E+00 -0.34783475266E+03  0.34783475266E+03  0.00000000000E+00 0.  1.
         25    2    1    2    0    0  0.56010038829E+02  0.61157955944E+01 -0.16312494736E+03  0.21314537498E+03  0.12508667002E+03 0.  0.
          5    1    3    3  502    0  0.76451720849E+02  0.53814792277E+01 -0.17358250978E+03  0.18979511596E+03  0.41800000000E+01 0.  1.
         -5    1    3    3    0  502 -0.20441682020E+02  0.73431636671E+00  0.10457562424E+02  0.23350259018E+02  0.41800000000E+01 0.  1.
        -11    1    1    2    0    0  0.18274924753E+02  0.16561836333E+02 -0.61630736860E+02  0.66382339694E+02  0.00000000000E+00 0.  1.
         11    1    1    2    0    0 -0.74284963582E+02 -0.22677631928E+02 -0.79932946811E+02  0.11145315962E+03  0.00000000000E+00 0. -1.
</event>
<event>
 7    1  0.2661133E-009  0.3109223E+03  0.7561462E-02  0.1079905E+00
         -2   -1    0    0    0  501 -0.00000000000E+00  0.00000000000E+00  0.49110296904E+02  0.49110296904E+02  0.00000000000E+00 0.  1.
          2   -1    0    0  501    0  0.00000000000E+00 -0.00000000000E+00 -0.27757326080E+04  0.27757326080E+04  0.00000000000E+00 0. -1.
         25    2    1    2    0    0  0.18846926976E+03  0.23107477300E+03 -0.20950358155E+04  0.21198440684E+04  0.12509032651E+03 0.  0.
          5    1    3    3  502    0  0.13750746380E+03  0.23409648195E+03 -0.17120353820E+04  0.17334336120E+04  0.41800000000E+01 0.  1.
         -5    1    3    3    0  502  0.50961805957E+02 -0.30217089469E+01 -0.38300043346E+03  0.38641045641E+03  0.41800000000E+01 0.  1.
        -11    1    1    2    0    0 -0.16226783067E+03 -0.18490954264E+03 -0.58402765036E+03  0.63372761042E+03  0.00000000000E+00 0. -1.
         11    1    1    2    0    0 -0.26201439088E+02 -0.46165230364E+02 -0.47558845230E+02  0.71271226063E+02  0.00000000000E+00 0.  1.
</event>
<event>
 7    1  0.2661133E-009  0.1092596E+03  0.7561462E-02  0.1261947E+00
          2   -1    0    0  501    0  0.00000000000E+00  0.00000000000E+00  0.22948274017E+03  0.22948274017E+03  0.00000000000E+00 0. -1.
         -2   -1    0    0    0  501 -0.00000000000E+00 -0.00000000000E+00 -0.71752996702E+02  0.71752996702E+02  0.00000000000E+00 0.  1.
         25    2    1    2    0    0 -0.17479248500E+02 -0.42584369102E+02  0.14466470534E+03  0.19670493177E+03  0.12508397417E+03 0.  0.
          5    1    3    3  502    0 -0.63445857287E+02 -0.30808455643E+02  0.12806204900E+03  0.14625969554E+03  0.41800000000E+01 0. -1.
         -5    1    3    3    0  502  0.45966608787E+02 -0.11775913460E+02  0.16602656337E+02  0.50445236233E+02  0.41800000000E+01 0. -1.
        -11    1    1    2    0    0  0.16293781357E+02 -0.26514705358E+02 -0.82739742082E+01  0.32202104905E+02  0.00000000000E+00 0. -1.
         11    1    1    2    0    0  0.11854671430E+01  0.69099074461E+02  0.21339012338E+02  0.72328700190E+02  0.00000000000E+00 0.  1.
</event>
<event>
 7    1  0.2661133E-009  0.1181960E+03  0.7561462E-02  0.1246103E+00
         -4   -1    0    0    0  501 -0.00000000000E+00  0.00000000000E+00  0.97673234438E+03  0.97673234438E+03  0.00000000000E+00 0.  1.
          4   -1    0    0  501    0  0.00000000000E+00 -0.00000000000E+00 -0.19692233147E+02  0.19692233147E+02  0.00000000000E+00 0. -1.
         25    2    1    2    0    0 -0.41201872377E+02  0.76486785864E+02  0.54041760689E+03  0.56147321011E+03  0.12511256189E+03 0.  0.
          5    1    3    3  502    0  0.17850733660E+02 -0.15320300567E+02  0.25085508005E+03  0.25199028530E+03  0.41800000000E+01 0.  1.
         -5    1    3    3    0  502 -0.59052606037E+02  0.91807086431E+02  0.28956252684E+03  0.30948292481E+03  0.41800000000E+01 0.  1.
        -11    1    1    2    0    0 -0.12213683011E+02 -0.32953812983E+01  0.52139326995E+01  0.13682787903E+02  0.00000000000E+00 0. -1.
         11    1    1    2    0    0  0.53415555388E+02 -0.73191404566E+02  0.41140857164E+03  0.42126857951E+03  0.00000000000E+00 0.  1.
</event>
<event>
 7    1  0.2661133E-009  0.9579423E+02  0.7561462E-02  0.1289397E+00
         -2   -1    0    0    0  501 -0.00000000000E+00  0.00000000000E+00  0.21940910106E+03  0.21940910106E+03  0.00000000000E+00 0.  1.
          2   -1    0    0  501    0  0.00000000000E+00 -0.00000000000E+00 -0.66504994360E+02  0.66504994360E+02  0.00000000000E+00 0. -1.
         25    2    1    2    0    0  0.49123639366E+02 -0.44186377276E+01  0.63512980807E+02  0.14870786734E+03  0.12508986679E+03 0.  0.
          5    1    3    3  502    0  0.79873340783E+01 -0.55679440597E+02 -0.11432731476E+01  0.56416106605E+02  0.41800000000E+01 0. -1.
         -5    1    3    3    0  502  0.41136305288E+02  0.51260802870E+02  0.64656253954E+02  0.92291760732E+02  0.41800000000E+01 0. -1.
        -11    1    1    2    0    0 -0.39413737308E+02  0.24926915740E+02  0.10134456477E+03  0.11155946676E+03  0.00000000000E+00 0.  1.
         11    1    1    2    0    0 -0.97099020582E+01 -0.20508278013E+02 -0.11953438876E+02  0.25646761316E+02  0.00000000000E+00 0. -1.
</event>
<event>
 7    1  0.2661133E-009  0.1028890E+03  0.7561462E-02  0.1274335E+00
         -1   -1    0    0    0  501 -0.00000000000E+00  0.00000000000E+00  0.17338372309E+03  0.17338372309E+03  0.00000000000E+00 0.  1.
          1   -1    0    0  501    0  0.00000000000E+00 -0.00000000000E+00 -0.19246184259E+03  0.19246184259E+03  0.00000000000E+00 0. -1.
         25    2    1    2    0    0  0.28941070360E+02  0.68482843977E+02  0.11817265176E+03  0.18745462843E+03  0.12508787560E+03 0.  0.
          5    1    3    3  502    0  0.43585274407E+02  0.71867744790E+02  0.17979957037E+02  0.86054634630E+02  0.41800000000E+01 0. -1.
         -5    1    3    3    0  502 -0.14644204047E+02 -0.33849008131E+01  0.10019269473E+03  0.10139999380E+03  0.41800000000E+01 0. -1.
        -11    1    1    2    0    0 -0.54903907237E+02 -0.48532755775E+02 -0.12189570707E+03  0.14222668813E+03  0.00000000000E+00 0.  1.
         11    1    1    2    0    0  0.25962836878E+02 -0.19950088202E+02 -0.15355064191E+02  0.36164249118E+02  0.00000000000E+00 0. -1.
</event>
<event>
 7    1  0.2661133E-009  0.1089233E+03  0.7561462E-02  0.1262577E+00
         -4   -1    0    0    0  501 -0.00000000000E+00  0.00000000000E+00  0.98302411015E+02  0.98302411015E+02  0.00000000000E+00 0.  1.
          4   -1    0    0  501    0  0.00000000000E+00 -0.00000000000E+00 -0.17611208672E+03  0.17611208672E+03  0.00000000000E+00 0. -1.
         25    2    1    2    0    0 -0.38108943610E+02 -0.53997116145E+02 -0.89489248507E+02  0.16740391221E+03  0.12509102322E+03 0.  0.
          5    1    3    3  502    0  0.28317408360E+02 -0.35719205791E+02 -0.87035897608E+02  0.98338482553E+02  0.41800000000E+01 0. -1.
         -5    1    3    3    0  502 -0.66426351969E+02 -0.18277910354E+02 -0.24533509000E+01  0.69065429656E+02  0.41800000000E+01 0. -1.
        -11    1    1    2    0    0  0.55372167377E+02  0.62756819836E+02  0.19823948968E+02  0.86008629268E+02  0.00000000000E+00 0.  1.
         11    1    1    2    0    0 -0.17263223768E+02 -0.87597036910E+01 -0.81443761667E+01  0.21001956260E+02  0.00000000000E+00 0. -1.
</event>
<event>
 7    1  0.2661133E-009  0.9577228E+02  0.7561462E-02  0.1289446E+00
          2   -1    0    0  501    0  0.00000000000E+00  0.00000000000E+00  0.17346751249E+04  0.17346751249E+04  0.00000000000E+00 0. -1.
         -2   -1    0    0    0  501 -0.00000000000E+00 -0.00000000000E+00 -0.78415481785E+01  0.78415481785E+01  0.00000000000E+00 0.  1.
         25    2    1    2    0    0 -0.19705846214E+02 -0.13378169191E+01  0.12893264292E+04  0.12955308827E+04  0.12509003523E+03 0.  0.
          5    1    3    3  502    0 -0.57460562069E+02  0.16185529397E+02  0.33602928954E+03  0.34131633917E+03  0.41800000000E+01 0.  1.
         -5    1    3    3    0  502  0.37754715855E+02 -0.17523346316E+02  0.95329713968E+03  0.95421454357E+03  0.41800000000E+01 0.  1.
        -11    1    1    2    0    0 -0.35055554969E+02 -0.82350727634E+00  0.13068512458E+03  0.13530769337E+03  0.00000000000E+00 0.  1.
         11    1    1    2    0    0  0.54761401183E+02  0.21613241954E+01  0.30682202288E+03  0.31167809693E+03  0.00000000000E+00 0. -1.
</event>
<event>
 7    1  0.2661133E-009  0.1455915E+03  0.7561462E-02  0.1205997E+00
          1   -1    0    0  501    0  0.00000000000E+00  0.00000000000E+00  0.28344828108E+03  0.28344828108E+03  0.00000000000E+00 0. -1.
         -1   -1    0    0    0  501 -0.00000000000E+00 -0.00000000000E+00 -0.82649721959E+02  0.82649721959E+02  0.00000000000E+00 0.  1.
         25    2    1    2    0    0  0.89733744664E+01  0.10279966202E+03  0.72865701471E+02  0.17777676239E+03  0.12508746873E+03 0.  0.
          5    1    3    3  502    0  0.11177402952E+02 -0.24861521157E+02  0.34951005153E+02  0.44520497888E+02  0.41800000000E+01 0. -1.
         -5    1    3    3    0  502 -0.22040284851E+01  0.12766118318E+03  0.37914696318E+02  0.13325626450E+03  0.41800000000E+01 0. -1.
        -11    1    1    2    0    0  0.37995527933E+02 -0.26731858490E+02  0.28030387729E+02  0.54258225528E+02  0.00000000000E+00 0.  1.
         11    1    1    2    0    0 -0.46968902399E+02 -0.76067803533E+02  0.99902469924E+02  0.13406301512E+03  0.00000000000E+00 0. -1.
</event>
<event>
 7    1  0.2661133E-009  0.8232786E+02  0.7561462E-02  0.1322572E+00
         -3   -1    0    0    0  501 -0.00000000000E+00  0.00000000000E+00  0.33447188864E+02  0.33447188864E+02  0.00000000000E+00 0.  1.
          3   -1    0    0  501    0  0.00000000000E+00 -0.00000000000E+00 -0.41001913699E+03  0.41001913699E+03  0.00000000000E+00 0. -1.
         25    2    1    2    0    0 -0.27149146073E+02  0.34234425867E+02 -0.20281640556E+03  0.24226229011E+03  0.12508977094E+03 0.  0.
          5    1    3    3  502    0  0.41770318921E+02 -0.37002764282E+01 -0.12340717878E+03  0.13040420147E+03  0.41800000000E+01 0.  1.
         -5    1    3    3    0  502 -0.68919464994E+02  0.37934702295E+02 -0.79409226787E+02  0.11185808863E+03  0.41800000000E+01 0.  1.
        -11    1    1    2    0    0  0.68111689309E+01 -0.99384706970E+01  0.94290584249E+01  0.15299423675E+02  0.00000000000E+00 0.  1.
         11    1    1    2    0    0  0.20337977143E+02 -0.24295955170E+02 -0.18318460099E+03  0.18590461207E+03  0.00000000000E+00 0. -1.
</event>
<event>
 7    1  0.2661133E-009  0.1189744E+03  0.7561462E-02  0.1244799E+00
          2   -1    0    0  501    0  0.00000000000E+00  0.00000000000E+00  0.45138896841E+03  0.45138896841E+03  0.00000000000E+00 0. -1.
         -2   -1    0    0    0  501 -0.00000000000E+00 -0.00000000000E+00 -0.58405042524E+02  0.58405042524E+02  0.00000000000E+00 0.  1.
         25    2    1    2    0    0 -0.15380029596E+02 -0.55406555441E+02  0.38489005536E+03  0.40877163898E+03  0.12508983342E+03 0.  0.
          5    1    3    3  502    0 -0.51976346963E+02  0.18286647451E+02  0.15038712906E+03  0.16021767414E+03  0.41800000000E+01 0. -1.
         -5    1    3    3    0  502  0.36596317367E+02 -0.73693202892E+02  0.23450292630E+03  0.24855396485E+03  0.41800000000E+01 0. -1.
        -11    1    1    2    0    0 -0.27984928342E+02 -0.23470162073E+01 -0.17251149278E+01  0.28136110622E+02  0.00000000000E+00 0.  1.
         11    1    1    2    0    0  0.43364957938E+02  0.57753571649E+02  0.98189854514E+01  0.72886261329E+02  0.00000000000E+00 0. -1.
</event>
<event>
 6    1  0.2661133E-009  0.1116907E+03  0.7561462E-02  0.1257471E+00
         -2   -1    0    0    0  501 -0.00000000000E+00  0.00000000000E+00  0.16788567703E+03  0.16788567703E+03  0.00000000000E+00 0.  1.
          2   -1    0    0  501    0  0.00000000000E+00 -0.00000000000E+00 -0.82222171060E+02  0.82222171060E+02  0.00000000000E+00 0. -1.
          5    1    1    2  502    0  0.35290841629E+02 -0.57392444438E+02  0.27335255395E+02  0.72828735874E+02  0.41800000000E+01 0.  1.
         -5    1    1    2    0  502 -0.49139458960E+02  0.30586164912E+02  0.54034164723E+02  0.79292895447E+02  0.41800000000E+01 0.  1.
        -11    1    1    2    0    0  0.48984390225E+02 -0.65228594483E+01  0.65975892369E+00  0.49421184354E+02  0.00000000000E+00 0. -1.
         11    1    1    2    0    0 -0.35135772894E+02  0.33329138975E+02  0.36343269328E+01  0.48565032419E+02  0.00000000000E+00 0.  1.
</event>
<event>
 7    1  0.2661133E-009  0.1235257E+03  0.7561462E-02  0.1237391E+00
         -1   -1    0    0    0  501 -0.00000000000E+00  0.00000000000E+00  0.10621483237E+03  0.10621483237E+03  0.00000000000E+00 0.  1.
          1   -1    0    0  501    0  0.00000000000E+00 -0.00000000000E+00 -0.22483746046E+03  0.22483746046E+03  0.00000000000E+00 0. -1.
         25    2    1    2    0    0 -0.20269000060E+02 -0.10688336690E+03 -0.66359208548E+02  0.17856562707E+03  0.12508897685E+03 0.  0.
          5    1    3    3  502    0 -0.25721208283E+02 -0.65195871485E+02 -0.10163304787E+03  0.12352664099E+03  0.41800000000E+01 0. -1.
         -5    1    3    3    0  502  0.54522082231E+01 -0.41687495415E+02  0.35273839325E+02  0.55038986085E+02  0.41800000000E+01 0. -1.
        -11    1    1    2    0    0 -0.30627735603E+02  0.45554706535E+02  0.38320223438E+01  0.55027028549E+02  0.00000000000E+00 0. -1.
         11    1    1    2    0    0  0.50896735662E+02  0.61328660366E+02 -0.56095441886E+02  0.97459637203E+02  0.00000000000E+00 0.  1.
</event>
<event>
 7    1  0.2661133E-009  0.1056285E+03  0.7561462E-02  0.1268886E+00
          4   -1    0    0  501    0  0.00000000000E+00  0.00000000000E+00  0.98208446949E+02  0.98208446949E+02  0.00000000000E+00 0.  1.
         -4   -1    0    0    0  501 -0.00000000000E+00 -0.00000000000E+00 -0.14098501054E+03  0.14098501054E+03  0.00000000000E+00 0. -1.
         25    2    1    2    0    0 -0.95096734040E+01 -0.36536454308E+02 -0.51416059153E+02  0.14041582301E+03  0.12509055053E+03 0.  0.
          5    1    3    3  502    0 -0.23879085000E+02 -0.79498171525E+02 -0.21107082824E+02  0.85750517908E+02  0.41800000000E+01 0.  1.
         -5    1    3    3    0  502  0.14369411596E+02  0.42961717217E+02 -0.30308976328E+02  0.54665305102E+02  0.41800000000E+01 0.  1.
        -11    1    1    2    0    0 -0.31743440013E+02  0.23122758652E+02  0.30945686763E+02  0.49999434804E+02  0.00000000000E+00 0.  1.
         11    1    1    2    0    0  0.41253113417E+02  0.13413695656E+02 -0.22306191205E+02  0.48778199677E+02  0.00000000000E+00 0. -1.
</event>
<event>
 7    1  0.2661133E-009  0.1257184E+03  0.7561462E-02  0.1233951E+00
         -1   -1    0    0    0  501 -0.00000000000E+00  0.00000000000E+00  0.93199208111E+02  0.93199208111E+02  0.00000000000E+00 0.  1.
          1   -1    0    0  501    0  0.00000000000E+00 -0.00000000000E+00 -0.28169228980E+03  0.28169228980E+03  0.00000000000E+00 0. -1.
         25    2    1    2    0    0  0.15163063113E+02 -0.11229285943E+03 -0.56357969429E+02  0.17794216351E+03  0.12509031967E+03 0.  0.
          5    1    3    3  502    0 -0.77790438900E+01  0.40212944835E+01 -0.58494740077E+02  0.59294108897E+02  0.41800000000E+01 0.  1.
         -5    1    3    3    0  502  0.22942107003E+02 -0.11631415392E+03  0.21367706482E+01  0.11864805461E+03  0.41800000000E+01 0.  1.
        -11    1    1    2    0    0  0.17582234906E+02  0.35249803981E+02 -0.99651744920E+02  0.10715481291E+03  0.00000000000E+00 0. -1.
         11    1    1    2    0    0 -0.32745298019E+02  0.77043055451E+02 -0.32483367341E+02  0.89794521489E+02  0.00000000000E+00 0.  1.
</event>
<event>
 7    1  0.2661133E-009  0.1104213E+03  0.7561462E-02  0.1259792E+00
          2   -1    0    0  501    0  0.00000000000E+00  0.00000000000E+00  0.12287405669E+03  0.12287405669E+03  0.00000000000E+00 0. -1.
         -2   -1    0    0    0  501 -0.00000000000E+00 -0.00000000000E+00 -0.11637714758E+03  0.11637714758E+03  0.00000000000E+00 0.  1.
         25    2    1    2    0    0  0.63987610778E+01  0.50360759404E+02  0.14617548732E+01  0.13500947014E+03  0.12509304565E+03 0.  0.
          5    1    3    3  502    0  0.52101019410E+02  0.68027253666E+02 -0.59082367408E+00  0.85790704260E+02  0.41800000000E+01 0. -1.
         -5    1    3    3    0  502 -0.45702258332E+02 -0.17666494261E+02  0.20525785473E+01  0.49218765881E+02  0.41800000000E+01 0. -1.
        -11    1    1    2    0    0  0.30223319295E+01  0.17301282752E+02  0.27237942505E+02  0.32409479895E+02  0.00000000000E+00 0. -1.
         11    1    1    2    0    0 -0.94210930073E+01 -0.67662042157E+02 -0.22202788262E+02  0.71832254238E+02  0.00000000000E+00 0.  1.
</event>
<event>
 7    1  0.4798098E-009  0.1149372E+03  0.7561462E-02  0.1251691E+00
          3   -1    0    0  501    0  0.00000000000E+00  0.00000000000E+00  0.17902099652E+03  0.17902099652E+03  0.00000000000E+00 0. -1.
         -3   -1    0    0    0  501 -0.00000000000E+00 -0.00000000000E+00 -0.10922870637E+03  0.10922870637E+03  0.00000000000E+00 0.  1.
         25    2    1    2    0    0  0.66192568100E+02 -0.43119915324E+02 -0.17309826752E+01  0.14795967690E+03  0.12509311139E+03 0.  0.
          5    1    3    3  502    0  0.22085927630E+02 -0.79485614874E+02 -0.24691283645E+02  0.86214169712E+02  0.41800000000E+01 0. -1.
         -5    1    3    3    0  502  0.44106640471E+02  0.36365699550E+02  0.22960300970E+02  0.61745507189E+02  0.41800000000E+01 0. -1.
        -11    1    1    2    0    0  0.18609321078E+01  0.16934425873E+02 -0.18029714025E+02  0.24805411421E+02  0.00000000000E+00 0.  1.
         11    1    1    2    0    0 -0.68053500208E+02  0.26185489451E+02  0.89552986845E+02  0.11548461456E+03  0.00000000000E+00 0. -1.
</event>
<event>
 7    1  0.2661133E-009  0.9849251E+02  0.7561462E-02  0.1283498E+00
          2   -1    0    0  501    0  0.00000000000E+00  0.00000000000E+00  0.48698983196E+03  0.48698983196E+03  0.00000000000E+00 0. -1.
         -2   -1    0    0    0  501 -0.00000000000E+00 -0.00000000000E+00 -0.28269892322E+02  0.28269892322E+02  0.00000000000E+00 0.  1.
         25    2    1    2    0    0  0.79117957647E+01 -0.18860051801E+01  0.16745137062E+03  0.20917171249E+03  0.12508673093E+03 0.  0.
          5    1    3    3  502    0  0.55566200689E+02 -0.19354570846E+02  0.38273171236E+02  0.70317210611E+02  0.41800000000E+01 0.  1.
         -5    1    3    3    0  502 -0.47654404924E+02  0.17468565666E+02  0.12917819939E+03  0.13885450188E+03  0.41800000000E+01 0.  1.
        -11    1    1    2    0    0  0.34409449198E+02 -0.19606403484E+02  0.19216968927E+03  0.19620808018E+03  0.00000000000E+00 0. -1.
         11    1    1    2    0    0 -0.42321244963E+02  0.21492408664E+02  0.99098879745E+02  0.10987993162E+03  0.00000000000E+00 0.  1.
</event>
<event>
 7    1  0.2661133E-009  0.1129048E+03  0.7561462E-02  0.1255283E+00
          1   -1    0    0  501    0  0.00000000000E+00  0.00000000000E+00  0.39208545619E+02  0.39208545619E+02  0.00000000000E+00 0. -1.
         -1   -1    0    0    0  501 -0.00000000000E+00 -0.00000000000E+00 -0.61292797934E+03  0.61292797934E+03  0.00000000000E+00 0.  1.
         25    2    1    2    0    0  0.95830235823E+02 -0.51479997019E+02 -0.32913610284E+03  0.36852491394E+03  0.12508562592E+03 0.  0.
          5    1    3    3  502    0  0.23068721219E+02  0.59504633559E+01  0.23454356642E+01  0.24301180657E+02  0.41800000000E+01 0.  1.
         -5    1    3    3    0  502  0.72761514604E+02 -0.57430460375E+02 -0.33148153851E+03  0.34422373329E+03  0.41800000000E+01 0.  1.
        -11    1    1    2    0    0 -0.22748408762E+02  0.13822553048E+02 -0.11203398037E+01  0.26642226544E+02  0.00000000000E+00 0. -1.
         11    1    1    2    0    0 -0.73081827062E+02  0.37657443971E+02 -0.24346299107E+03  0.25696938447E+03  0.00000000000E+00 0.  1.
</event>
<event>
 7    1  0.2661133E-009  0.1254837E+03  0.7561462E-02  0.1234315E+00
         -1   -1    0    0    0  501 -0.00000000000E+00  0.00000000000E+00  0.23397383336E+02  0.23397383336E+02  0.00000000000E+00 0.  1.
          1   -1    0    0  501    0  0.00000000000E+00 -0.00000000000E+00 -0.11128607810E+04  0.11128607810E+04  0.00000000000E+00 0. -1.
         25    2    1    2    0    0 -0.91099168723E+02 -0.44808058007E+02 -0.80539885734E+03  0.82135180540E+03  0.12507856821E+03 0.  0.
          5    1    3    3  502    0  0.82550111002E+01 -0.39691893864E+02 -0.86860634277E+02  0.95947036608E+02  0.41800000000E+01 0. -1.
         -5    1    3    3    0  502 -0.99354179823E+02 -0.51161641425E+01 -0.71853822306E+03  0.72540476879E+03  0.41800000000E+01 0. -1.
        -11    1    1    2    0    0  0.40869988625E+02  0.44482603048E+02 -0.59489479499E+02  0.84782404514E+02  0.00000000000E+00 0.  1.
         11    1    1    2    0    0  0.50229180098E+02  0.32545495855E+00 -0.22457506083E+03  0.23012395442E+03  0.00000000000E+00 0. -1.
</event>
<event>
 7    1  0.2661133E-009  0.1915839E+03  0.7561462E-02  0.1157040E+00
         -1   -1    0    0    0  501 -0.00000000000E+00  0.00000000000E+00  0.15003081085E+03  0.15003081085E+03  0.00000000000E+00 0.  1.
          1   -1    0    0  501    0  0.00000000000E+00 -0.00000000000E+00 -0.43913940889E+03  0.43913940889E+03  0.00000000000E+00 0. -1.
         25    2    1    2    0    0 -0.57661817327E+02 -0.16374324451E+03 -0.33341050359E+03  0.39616610827E+03  0.12509310985E+03 0.  0.
          5    1    3    3  502    0 -0.39238106963E+02  0.16719194956E+00 -0.12056392504E+03  0.12685735853E+03  0.41800000000E+01 0. -1.
         -5    1    3    3    0  502 -0.18423710365E+02 -0.16391043646E+03 -0.21284657855E+03  0.26930874974E+03  0.41800000000E+01 0. -1.
        -11    1    1    2    0    0  0.64588383447E+02  0.14520584718E+03  0.17781671221E+02  0.15991430568E+03  0.00000000000E+00 0. -1.
         11    1    1    2    0    0 -0.69265661191E+01  0.18537397339E+02  0.26520234338E+02  0.33089805796E+02  0.00000000000E+00 0.  1.
</event>
<event>
 7    1  0.2661133E-009  0.1016535E+03  0.7561462E-02  0.1276857E+00
          2   -1    0    0  501    0  0.00000000000E+00  0.00000000000E+00  0.11999992258E+03  0.11999992258E+03  0.00000000000E+00 0. -1.
         -2   -1    0    0    0  501 -0.00000000000E+00 -0.00000000000E+00 -0.13366966367E+03  0.13366966367E+03  0.00000000000E+00 0.  1.
         25    2    1    2    0    0 -0.52072366774E+02  0.34647357735E+02  0.76580318145E+01  0.14006363650E+03  0.12508879262E+03 0.  0.
          5    1    3    3  502    0  0.95724931572E+01 -0.34853347040E+02  0.26712086811E+02  0.45137527701E+02  0.41800000000E+01 0.  1.
         -5    1    3    3    0  502 -0.61644859931E+02  0.69500704775E+02 -0.19054054997E+02  0.94926108800E+02  0.41800000000E+01 0.  1.
        -11    1    1    2    0    0  0.12369961219E+02  0.87178069444E+01 -0.47055115655E+02  0.49428736660E+02  0.00000000000E+00 0.  1.
         11    1    1    2    0    0  0.39702405555E+02 -0.43365164679E+02  0.25727342754E+02  0.64177213087E+02  0.00000000000E+00 0. -1.
</event>
<event>
 7    1  0.2661133E-009  0.1078994E+03  0.7561462E-02  0.1264510E+00
         -2   -1    0    0    0  501 -0.00000000000E+00  0.00000000000E+00  0.49522688173E+02  0.49522688173E+02  0.00000000000E+00 0.  1.
          2   -1    0    0  501    0  0.00000000000E+00 -0.00000000000E+00 -0.32958279265E+03  0.32958279265E+03  0.00000000000E+00 0. -1.
         25    2    1    2    0    0  0.55410111700E+02 -0.22851915995E+02 -0.19186987630E+03  0.23675563660E+03  0.12508673584E+03 0.  0.
          5    1    3    3  502    0 -0.29728815519E+02 -0.72698202149E+01 -0.57049711976E+01  0.31411333217E+02  0.41800000000E+01 0. -1.
         -5    1    3    3    0  502  0.85138927219E+02 -0.15582095780E+02 -0.18616490511E+03  0.20534430338E+03  0.41800000000E+01 0. -1.
        -11    1    1    2    0    0  0.15949282604E+02  0.21644749727E+02  0.24343638711E+01  0.26996313337E+02  0.00000000000E+00 0.  1.
         11    1    1    2    0    0 -0.71359394304E+02  0.12071662675E+01 -0.90624592043E+02  0.11535353089E+03  0.00000000000E+00 0. -1.
</event>
<event>
 7    1  0.2661133E-009  0.9626490E+02  0.7561462E-02  0.1288352E+00
         -2   -1    0    0    0  501 -0.00000000000E+00  0.00000000000E+00  0.60892994162E+02  0.60892994162E+02  0.00000000000E+00 0.  1.
          2   -1    0    0  501    0  0.00000000000E+00 -0.00000000000E+00 -0.19295265115E+03  0.19295265115E+03  0.00000000000E+00 0. -1.
         25    2    1    2    0    0  0.13285818165E+01 -0.23842505913E+01 -0.51765896456E+02  0.13540716538E+03  0.12509173682E+03 0.  0.
          5    1    3    3  502    0  0.37684250233E+02 -0.38729504898E+02 -0.62497692984E+02  0.82725517790E+02  0.41800000000E+01 0. -1.
         -5    1    3    3    0  502 -0.36355668416E+02  0.36345254307E+02  0.10731796527E+02  0.52681647595E+02  0.41800000000E+01 0. -1.
        -11    1    1    2    0    0 -0.12613336103E+02  0.42889525396E+02 -0.36354292674E+02  0.57621543125E+02  0.00000000000E+00 0.  1.
         11    1    1    2    0    0  0.11284754287E+02 -0.40505274805E+02 -0.43939467860E+02  0.60816936803E+02  0.00000000000E+00 0. -1.
</event>
<event>
 7    1  0.2661133E-009  0.2247049E+03  0.7561462E-02  0.1130423E+00
          1   -1    0    0  501    0  0.00000000000E+00  0.00000000000E+00  0.34041070849E+03  0.34041070849E+03  0.00000000000E+00 0. -1.
         -1   -1    0    0    0  501 -0.00000000000E+00 -0.00000000000E+00 -0.19882737296E+03  0.19882737296E+03  0.00000000000E+00 0.  1.
         25    2    1    2    0    0  0.17645631305E+03  0.85533384526E+02 -0.62860014765E+02  0.24094018829E+03  0.12509197654E+03 0.  0.
          5    1    3    3  502    0  0.41063302680E+02  0.87475138102E+02 -0.33168019221E+02  0.10225304158E+03  0.41800000000E+01 0. -1.
         -5    1    3    3    0  502  0.13539301037E+03 -0.19417535760E+01 -0.29691995544E+02  0.13868714671E+03  0.41800000000E+01 0. -1.
        -11    1    1    2    0    0 -0.51976322677E+02  0.18309994404E+02  0.50919369518E+02  0.75030501839E+02  0.00000000000E+00 0.  1.
         11    1    1    2    0    0 -0.12447999038E+03 -0.10384337893E+03  0.15352398078E+03  0.22326739132E+03  0.00000000000E+00 0. -1.
</event>
<event>
 7    1  0.2661133E-009  0.1071966E+03  0.7561462E-02  0.1265851E+00
          1   -1    0    0  501    0  0.00000000000E+00  0.00000000000E+00  0.32248867967E+03  0.32248867967E+03  0.00000000000E+00 0. -1.
         -1   -1    0    0    0  501 -0.00000000000E+00 -0.00000000000E+00 -0.57746205982E+02  0.57746205982E+02  0.00000000000E+00 0.  1.
         25    2    1    2    0    0 -0.34494603286E+02  0.52746084724E+02  0.21835857624E+03  0.25942296890E+03  0.12509109426E+03 0.  0.
          5    1    3    3  502    0  0.27083650621E+02  0.17602534462E+01  0.15476616725E+03  0.15718352823E+03  0.41800000000E+01 0. -1.
         -5    1    3    3    0  502 -0.61578253907E+02  0.50985831278E+02  0.63592408996E+02  0.10223944066E+03  0.41800000000E+01 0. -1.
        -11    1    1    2    0    0 -0.18810494134E+02  0.12529560823E+02 -0.35131816557E+01  0.22872844802E+02  0.00000000000E+00 0.  1.
         11    1    1    2    0    0  0.53305097420E+02 -0.65275645547E+02  0.49897079100E+02  0.97939071955E+02  0.00000000000E+00 0. -1.
</event>
<event>
 7    1  0.2661133E-009  0.8896076E+02  0.7561462E-02  0.1305388E+00
         -2   -1    0    0    0  501 -0.00000000000E+00  0.00000000000E+00  0.84490528036E+02  0.84490528036E+02  0.00000000000E+00 0.  1.
          2   -1    0    0  501    0  0.00000000000E+00 -0.00000000000E+00 -0.22919015994E+03  0.22919015994E+03  0.00000000000E+00 0. -1.
         25    2    1    2    0    0 -0.56684166903E+02 -0.12627788874E+02 -0.15192788373E+03  0.20518611720E+03  0.12508678990E+03 0.  0.
          5    1    3    3  502    0 -0.41718234259E+02  0.43859016451E+02 -0.25446158914E+02  0.65795165455E+02  0.41800000000E+01 0.  1.
         -5    1    3    3    0  502 -0.14965932644E+02 -0.56486805325E+02 -0.12648172482E+03  0.13939095175E+03  0.41800000000E+01 0.  1.
        -11    1    1    2    0    0  0.32752866370E+02  0.30868111942E+01  0.49236297650E+02  0.59215636998E+02  0.00000000000E+00 0.  1.
         11    1    1    2    0    0  0.23931300534E+02  0.95409776797E+01 -0.42008045821E+02  0.49278933775E+02  0.00000000000E+00 0. -1.
</event>
<event>
 7    1  0.2661133E-009  0.9700939E+02  0.7561462E-02  0.1286714E+00
         -1   -1    0    0    0  501 -0.00000000000E+00  0.00000000000E+00  0.78338429535E+02  0.78338429535E+02  0.00000000000E+00 0.  1.
          1   -1    0    0  501    0  0.00000000000E+00 -0.00000000000E+00 -0.17886260147E+03  0.17886260147E+03  0.00000000000E+00 0. -1.
         25    2    1    2    0    0 -0.50709693101E+01 -0.17301227564E+02 -0.21486687434E+01  0.12640253915E+03  0.12509171803E+03 0.  0.
          5    1    3    3  502    0 -0.57172142926E+02  0.21544667885E+02 -0.22082937883E+01  0.61279487616E+02  0.41800000000E+01 0.  1.
         -5    1    3    3    0  502  0.52101173616E+02 -0.38845895449E+02  0.59625044932E-01  0.65123051530E+02  0.41800000000E+01 0.  1.
        -11    1    1    2    0    0  0.26150508290E+02  0.32466316430E+02 -0.96074100799E+02  0.10472890542E+03  0.00000000000E+00 0. -1.
         11    1    1    2    0    0 -0.21079538980E+02 -0.15165088866E+02 -0.23014023891E+01  0.26069586435E+02  0.00000000000E+00 0.  1.
</event>
<event>
 7    1  0.2661133E-009  0.9347969E+02  0.7561462E-02  0.1294637E+00
         -2   -1    0    0    0  501 -0.00000000000E+00  0.00000000000E+00  0.63807036343E+02  0.63807036343E+02  0.00000000000E+00 0.  1.
          2   -1    0    0  501    0  0.00000000000E+00 -0.00000000000E+00 -0.24839350460E+03  0.24839350460E+03  0.00000000000E+00 0. -1.
         25    2    1    2    0    0 -0.17228385700E+02 -0.52856293584E+02 -0.14278214912E+03  0.19779909127E+03  0.12508850209E+03 0.  0.
          5    1    3    3  502    0 -0.27677344451E+02 -0.97719359154E+00 -0.14197077629E+03  0.14470716646E+03  0.41800000000E+01 0. -1.
         -5    1    3    3    0  502  0.10448958751E+02 -0.51879099992E+02 -0.81137283234E+00  0.53091924818E+02  0.41800000000E+01 0. -1.
        -11    1    1    2    0    0 -0.28425476754E+02  0.53078776615E+02 -0.17615152082E+02  0.62734821579E+02  0.00000000000E+00 0.  1.
         11    1    1    2    0    0  0.45653862454E+02 -0.22248303171E+00 -0.24189167053E+02  0.51666628092E+02  0.00000000000E+00 0. -1.
</event>
<event>
 7    1  0.2661133E-009  0.5043206E+02  0.7561462E-02  0.1443025E+00
          2   -1    0    0  501    0  0.00000000000E+00  0.00000000000E+00  0.32398205550E+03  0.32398205550E+03  0.00000000000E+00 0. -1.
         -2   -1    0    0    0  501 -0.00000000000E+00 -0.00000000000E+00 -0.37855413323E+02  0.37855413323E+02  0.00000000000E+00 0.  1.
         25    2    1    2    0    0 -0.12857477497E+02 -0.45541871743E+01  0.13252195976E+03  0.18274570842E+03  0.12509144167E+03 0.  0.
          5    1    3    3  502    0  0.58385872256E+01 -0.72170516800E+01  0.15371591250E+03  0.15405268285E+03  0.41800000000E+01 0.  1.
         -5    1    3    3    0  502 -0.18696064723E+02  0.26628645056E+01 -0.21193952747E+02  0.28693025573E+02  0.41800000000E+01 0.  1.
        -11    1    1    2    0    0 -0.26511073714E+02  0.15199482378E+02  0.12646390961E+03  0.13010373449E+03  0.00000000000E+00 0. -1.
         11    1    1    2    0    0  0.39368551211E+02 -0.10645295204E+02  0.27140772817E+02  0.48988025920E+02  0.00000000000E+00 0.  1.
</event>
<event>
 7    1  0.2661133E-009  0.2414258E+03  0.7561462E-02  0.1118847E+00
          2   -1    0    0  501    0  0.00000000000E+00  0.00000000000E+00  0.42671854728E+03  0.42671854728E+03  0.00000000000E+00 0. -1.
         -2   -1    0    0    0  501 -0.00000000000E+00 -0.00000000000E+00 -0.14998943753E+03  0.14998943753E+03  0.00000000000E+00 0.  1.
         25    2    1    2    0    0  0.22085702057E+03  0.40417360736E+02  0.10085169454E+03  0.27608850563E+03  0.12506962887E+03 0.  0.
          5    1    3    3  502    0 -0.16013723565E+02  0.49603539231E+01  0.42154898053E+01  0.17784465350E+02  0.41800000000E+01 0.  1.
         -5    1    3    3    0  502  0.23687074414E+03  0.35457006813E+02  0.96636204734E+02  0.25830404028E+03  0.41800000000E+01 0.  1.
        -11    1    1    2    0    0 -0.31662112032E+02 -0.15325433656E+02 -0.74779096737E+01  0.35962166066E+02  0.00000000000E+00 0.  1.
         11    1    1    2    0    0 -0.18919490854E+03 -0.25091927080E+02  0.18335532488E+03  0.26465731311E+03  0.00000000000E+00 0. -1.
</event>
<event>
 7    1  0.2661133E-009  0.9802374E+02  0.7561462E-02  0.1284507E+00
          2   -1    0    0  501    0  0.00000000000E+00  0.00000000000E+00  0.76126637463E+03  0.76126637463E+03  0.00000000000E+00 0. -1.
         -2   -1    0    0    0  501 -0.00000000000E+00 -0.00000000000E+00 -0.42018256517E+02  0.42018256517E+02  0.00000000000E+00 0.  1.
         25    2    1    2    0    0  0.50362598646E+02 -0.65675357650E+02  0.64161482490E+03  0.65891435730E+03  0.12509557456E+03 0.  0.
          5    1    3    3  502    0  0.63130011259E+02 -0.43730906442E+02  0.16988928675E+03  0.18648762065E+03  0.41800000000E+01 0.  1.
         -5    1    3    3    0  502 -0.12767412613E+02 -0.21944451208E+02  0.47172553815E+03  0.47242673665E+03  0.41800000000E+01 0.  1.
        -11    1    1    2    0    0 -0.44294255351E+02  0.22267095405E+02 -0.60095963467E+01  0.49939161418E+02  0.00000000000E+00 0.  1.
         11    1    1    2    0    0 -0.60683432953E+01  0.43408262245E+02  0.83642889554E+02  0.94431112428E+02  0.00000000000E+00 0. -1.
</event>
<event>
 7    1  0.2661133E-009  0.1672908E+03  0.7561462E-02  0.1180703E+00
          2   -1    0    0  501    0  0.00000000000E+00  0.00000000000E+00  0.56700162112E+03  0.56700162112E+03  0.00000000000E+00 0. -1.
         -2   -1    0    0    0  501 -0.00000000000E+00 -0.00000000000E+00 -0.10322651651E+03  0.10322651651E+03  0.00000000000E+00 0.  1.
         25    2    1    2    0    0  0.11517803438E+03  0.91727253736E+02  0.20145333502E+02  0.19424926956E+03  0.12508827116E+03 0.  0.
          5    1    3    3  502    0  0.39589766242E+02  0.83970911246E+02 -0.36020936354E+02  0.99666663345E+02  0.41800000000E+01 0. -1.
         -5    1    3    3    0  502  0.75588268134E+02  0.77563424906E+01  0.56166269856E+02  0.94582606212E+02  0.41800000000E+01 0. -1.
        -11    1    1    2    0    0 -0.37488093946E+01 -0.44285058382E+02  0.67373804003E+02  0.80712139320E+02  0.00000000000E+00 0.  1.
         11    1    1    2    0    0 -0.11142922498E+03 -0.47442195354E+02  0.37625596710E+03  0.39526672875E+03  0.00000000000E+00 0. -1.
</event>
<event>
 7    1  0.2661133E-009  0.1701838E+03  0.7561462E-02  0.1177656E+00
         -3   -1    0    0    0  501 -0.00000000000E+00  0.00000000000E+00  0.55744501749E+03  0.55744501749E+03  0.00000000000E+00 0.  1.
          3   -1    0    0  501    0  0.00000000000E+00 -0.00000000000E+00 -0.80485380756E+02  0.80485380756E+02  0.00000000000E+00 0. -1.
         25    2    1    2    0    0  0.10858742672E+03  0.12237240592E+03  0.36581331626E+03  0.41980164070E+03  0.12509116758E+03 0.  0.
          5    1    3    3  502    0  0.72032199959E+02  0.77935572091E+02  0.34071802597E+03  0.35688770902E+03  0.41800000000E+01 0. -1.
         -5    1    3    3    0  502  0.36555226765E+02  0.44436833827E+02  0.25095290287E+02  0.62913931677E+02  0.41800000000E+01 0. -1.
        -11    1    1    2    0    0 -0.71794890372E+02 -0.11969780136E+03  0.11525207667E+03  0.18101135630E+03  0.00000000000E+00 0.  1.
         11    1    1    2    0    0 -0.36792536352E+02 -0.26746045576E+01 -0.41057562016E+01  0.37117401239E+02  0.00000000000E+00 0. -1.
</event>
<event>
 7    1  0.2661133E-009  0.1287986E+03  0.7561462E-02  0.1229249E+00
          2   -1    0    0  501    0  0.00000000000E+00  0.00000000000E+00  0.22741078869E+04  0.22741078869E+04  0.00000000000E+00 0. -1.
         -2   -1    0    0    0  501 -0.00000000000E+00 -0.00000000000E+00 -0.91367086730E+01  0.91367086730E+01  0.00000000000E+00 0.  1.
         25    2    1    2    0    0  0.26062923572E+01  0.68215200116E+02  0.17312677537E+04  0.17371230244E+04  0.12509300780E+03 0.  0.
          5    1    3    3  502    0  0.61309248417E+02  0.15647477564E+02  0.81552675503E+03  0.81798840338E+03  0.41800000000E+01 0.  1.
         -5    1    3    3    0  502 -0.58702956060E+02  0.52567722552E+02  0.91574099866E+03  0.91913462101E+03  0.41800000000E+01 0.  1.
        -11    1    1    2    0    0 -0.47758144428E+02 -0.36057479558E+02  0.30291401320E+03  0.30876832996E+03  0.00000000000E+00 0.  1.
         11    1    1    2    0    0  0.45151852071E+02 -0.32157720559E+02  0.23078941132E+03  0.23735324121E+03  0.00000000000E+00 0. -1.
</event>
<event>
 7    1  0.2661133E-009  0.1032602E+03  0.7561462E-02  0.1273586E+00
         -2   -1    0    0    0  501 -0.00000000000E+00  0.00000000000E+00  0.49856610316E+02  0.49856610316E+02  0.00000000000E+00 0.  1.
          2   -1    0    0  501    0  0.00000000000E+00 -0.00000000000E+00 -0.28730387294E+03  0.28730387294E+03  0.00000000000E+00 0. -1.
         25    2    1    2    0    0 -0.38683764332E+02 -0.18974567812E+02 -0.92559002441E+02  0.16146618680E+03  0.12509073787E+03 0.  0.
          5    1    3    3  502    0  0.13763146631E+02  0.38186540532E+02 -0.23764489681E+00  0.40806432803E+02  0.41800000000E+01 0.  1.
         -5    1    3    3    0  502 -0.52446910964E+02 -0.57161108344E+02 -0.92321357544E+02  0.12065975400E+03  0.41800000000E+01 0.  1.
        -11    1    1    2    0    0  0.57339374758E+02  0.31627971906E+02 -0.13694083117E+03  0.15179237052E+03  0.00000000000E+00 0.  1.
         11    1    1    2    0    0 -0.18655610426E+02 -0.12653404094E+02 -0.79474290089E+01  0.23901925935E+02  0.00000000000E+00 0. -1.
</event>
<event>
 6    1  0.2661133E-009  0.1732369E+03  0.7561462E-02  0.1174514E+00
          1   -1    0    0  501    0  0.00000000000E+00  0.00000000000E+00  0.58046363887E+03  0.58046363887E+03  0.00000000000E+00 0. -1.
         -1   -1    0    0    0  501 -0.00000000000E+00 -0.00000000000E+00 -0.70269353342E+02  0.70269353342E+02  0.00000000000E+00 0.  1.
          5    1    1    2  502    0 -0.58631434331E+01 -0.10501731400E+02 -0.13545125833E+02  0.18590471945E+02  0.41800000000E+01 0.  1.
         -5    1    1    2    0  502  0.14136362389E+02 -0.15892384283E+03  0.26702816298E+03  0.31109184622E+03  0.41800000000E+01 0.  1.
        -11    1    1    2    0    0  0.15370505257E+02  0.47088872795E+02  0.19748184607E+02  0.53325464539E+02  0.00000000000E+00 0.  1.
         11    1    1    2    0    0 -0.23643724213E+02  0.12233670143E+03  0.23696306378E+03  0.26772520951E+03  0.00000000000E+00 0. -1.
</event>
<event>
 7    1  0.2661133E-009  0.9112598E+02  0.7561462E-02  0.1300148E+00
         -2   -1    0    0    0  501 -0.00000000000E+00  0.00000000000E+00  0.18313664261E+02  0.18313664261E+02  0.00000000000E+00 0.  1.
          2   -1    0    0  501    0  0.00000000000E+00 -0.00000000000E+00 -0.67841222161E+03  0.67841222161E+03  0.00000000000E+00 0. -1.
         25    2    1    2    0    0  0.69932259514E+01 -0.81318933478E+01 -0.44705017311E+03  0.46434475410E+03  0.12508861051E+03 0.  0.
          5    1    3    3  502    0 -0.42265143651E+02 -0.42405501491E+02 -0.15607682700E+03  0.16721847162E+03  0.41800000000E+01 0.  1.
         -5    1    3    3    0  502  0.49258369602E+02  0.34273608143E+02 -0.29097334611E+03  0.29712628247E+03  0.41800000000E+01 0.  1.
        -11    1    1    2    0    0  0.77396357619E+01  0.32607234961E+02 -0.19656059403E+03  0.19939709340E+03  0.00000000000E+00 0. -1.
         11    1    1    2    0    0 -0.14732861713E+02 -0.24475341613E+02 -0.16487790213E+02  0.32984038374E+02  0.00000000000E+00 0.  1.
</event>
<event>
 7    1  0.2661133E-009  0.1212869E+03  0.7561462E-02  0.1240989E+00
          1   -1    0    0  501    0  0.00000000000E+00  0.00000000000E+00  0.18724110822E+04  0.18724110822E+04  0.00000000000E+00 0. -1.
         -1   -1    0    0    0  501 -0.00000000000E+00 -0.00000000000E+00 -0.89144940929E+01  0.89144940929E+01  0.00000000000E+00 0.  1.
         25    2    1    2    0    0 -0.46322600136E+02  0.53300965815E+02  0.13149627761E+04  0.13227854117E+04  0.12508943449E+03 0.  0.
          5    1    3    3  502    0  0.19690283057E+02 -0.27975543743E+02  0.48693035948E+03  0.48814852829E+03  0.41800000000E+01 0. -1.
         -5    1    3    3    0  502 -0.66012883193E+02  0.81276509558E+02  0.82803241664E+03  0.83463688342E+03  0.41800000000E+01 0. -1.
        -11    1    1    2    0    0 -0.20552864384E+02 -0.19729068062E+02  0.10790403848E+03  0.11160169300E+03  0.00000000000E+00 0.  1.
         11    1    1    2    0    0  0.66875464520E+02 -0.33571897753E+02  0.44062977349E+03  0.44693847156E+03  0.00000000000E+00 0. -1.
</event>
<event>
 7    1  0.2661133E-009  0.1145505E+03  0.7561462E-02  0.1252368E+00
          1   -1    0    0  501    0  0.00000000000E+00  0.00000000000E+00  0.22152054264E+02  0.22152054264E+02  0.00000000000E+00 0. -1.
         -1   -1    0    0    0  501 -0.00000000000E+00 -0.00000000000E+00 -0.59487614055E+03  0.59487614055E+03  0.00000000000E+00 0.  1.
         25    2    1    2    0    0  0.24385357072E+02 -0.31003782879E+02 -0.33715773497E+03  0.36177237188E+03  0.12509208853E+03 0.  0.
          5    1    3    3  502    0 -0.16043103707E+02 -0.71526695922E+02 -0.20217746777E+03  0.21509683931E+03  0.41800000000E+01 0.  1.
         -5    1    3    3    0  502  0.40428460778E+02  0.40522913042E+02 -0.13498026720E+03  0.14667553257E+03  0.41800000000E+01 0.  1.
        -11    1    1    2    0    0 -0.36878607200E+02 -0.22594147124E+02 -0.10101675419E+03  0.10988590346E+03  0.00000000000E+00 0.  1.
         11    1    1    2    0    0  0.12493250128E+02  0.53597930003E+02 -0.13454959714E+03  0.14536991948E+03  0.00000000000E+00 0. -1.
</event>
<event>
 7    1  0.2661133E-009  0.1713056E+03  0.7561462E-02  0.1176493E+00
         -2   -1    0    0    0  501 -0.00000000000E+00  0.00000000000E+00  0.80896787182E+02  0.80896787182E+02  0.00000000000E+00 0. -1.
          2   -1    0    0  501    0  0.00000000000E+00 -0.00000000000E+00 -0.47642058709E+03  0.47642058709E+03  0.00000000000E+00 0.  1.
         25    2    1    2    0    0 -0.12291389181E+03  0.90833917146E+02 -0.28961907777E+03  0.35055057375E+03  0.12509144352E+03 0.  0.
          5    1    3    3  502    0 -0.12075899323E+03  0.11291633257E+03 -0.20726995589E+03  0.26516247778E+03  0.41800000000E+01 0.  1.
         -5    1    3    3    0  502 -0.21548985855E+01 -0.22082415425E+02 -0.82349121875E+02  0.85388095965E+02  0.41800000000E+01 0.  1.
        -11    1    1    2    0    0  0.62877285969E+02 -0.31822617341E+02 -0.10005444333E+03  0.12238105938E+03  0.00000000000E+00 0.  1.
         11    1    1    2    0    0  0.60036605845E+02 -0.59011299805E+02 -0.58502788086E+01  0.84385741143E+02  0.00000000000E+00 0. -1.
</event>
<event>
 7    1  0.2661133E-009  0.9368487E+02  0.7561462E-02  0.1294166E+00
          1   -1    0    0  501    0  0.00000000000E+00  0.00000000000E+00  0.49235278072E+03  0.49235278072E+03  0.00000000000E+00 0. -1.
         -1   -1    0    0    0  501 -0.00000000000E+00 -0.00000000000E+00 -0.43388992343E+02  0.43388992343E+02  0.00000000000E+00 0.  1.
         25    2    1    2    0    0  0.17020274924E+02  0.89287577276E+02  0.31694375941E+03  0.35265247996E+03  0.12509381990E+03 0.  0.
          5    1    3    3  502    0  0.86803169696E+01  0.31037982293E+02  0.28245525546E+03  0.28431874364E+03  0.41800000000E+01 0.  1.
         -5    1    3    3    0  502  0.83399579547E+01  0.58249594983E+02  0.34488503949E+02  0.68333736317E+02  0.41800000000E+01 0.  1.
        -11    1    1    2    0    0 -0.25792803614E+02 -0.60082712949E+02  0.13736294940E+03  0.15213080221E+03  0.00000000000E+00 0. -1.
         11    1    1    2    0    0  0.87725286898E+01 -0.29204864327E+02 -0.53429204296E+01  0.30958490898E+02  0.00000000000E+00 0.  1.
</event>
<event>
 7    1  0.2661133E-009  0.9354372E+02  0.7561462E-02  0.1294490E+00
          3   -1    0    0  501    0  0.00000000000E+00  0.00000000000E+00  0.15951651617E+03  0.15951651617E+03  0.00000000000E+00 0. -1.
         -3   -1    0    0    0  501 -0.00000000000E+00 -0.00000000000E+00 -0.10461191267E+03  0.10461191267E+03  0.00000000000E+00 0.  1.
         25    2    1    2    0    0  0.49588444516E+02  0.21211971367E+02  0.74821898674E+02  0.15542669581E+03  0.12510067821E+03 0.  0.
          5    1    3    3  502    0  0.34967850273E+02 -0.24291834981E+02 -0.21452929809E+02  0.47859632226E+02  0.41800000000E+01 0.  1.
         -5    1    3    3    0  502  0.14620594243E+02  0.45503806348E+02  0.96274828483E+02  0.10756706358E+03  0.41800000000E+01 0.  1.
        -11    1    1    2    0    0 -0.39702306520E+02 -0.51178449841E+02  0.96153048916E+01  0.65482524075E+02  0.00000000000E+00 0. -1.
         11    1    1    2    0    0 -0.98861379966E+01  0.29966478474E+02 -0.29532600059E+02  0.43219208957E+02  0.00000000000E+00 0.  1.
</event>
<event>
 7    1  0.2661133E-009  0.1111387E+03  0.7561462E-02  0.1258476E+00
          3   -1    0    0  501    0  0.00000000000E+00  0.00000000000E+00  0.72472149781E+02  0.72472149781E+02  0.00000000000E+00 0. -1.
         -3   -1    0    0    0  501 -0.00000000000E+00 -0.00000000000E+00 -0.18874053420E+03  0.18874053420E+03  0.00000000000E+00 0.  1.
         25    2    1    2    0    0  0.45393058992E+02 -0.18894881481E+02 -0.65060536398E+02  0.14931327037E+03  0.12507610867E+03 0.  0.
          5    1    3    3  502    0  0.68940543454E+02  0.27627100825E+02 -0.13004804491E+02  0.75515909394E+02  0.41800000000E+01 0.  1.
         -5    1    3    3    0  502 -0.23547484462E+02 -0.46521982305E+02 -0.52055731907E+02  0.73797360972E+02  0.41800000000E+01 0.  1.
        -11    1    1    2    0    0  0.11314768854E+02  0.34874629570E+02 -0.35248538317E+02  0.50859839120E+02  0.00000000000E+00 0.  1.
         11    1    1    2    0    0 -0.56707827846E+02 -0.15979748089E+02 -0.15959309700E+02  0.61039574491E+02  0.00000000000E+00 0. -1.
</event>
<event>
 7    1  0.2661133E-009  0.9491143E+02  0.7561462E-02  0.1291376E+00
          1   -1    0    0  501    0  0.00000000000E+00  0.00000000000E+00  0.51536868810E+03  0.51536868810E+03  0.00000000000E+00 0. -1.
         -1   -1    0    0    0  501 -0.00000000000E+00 -0.00000000000E+00 -0.28713377682E+02  0.28713377682E+02  0.00000000000E+00 0.  1.
         25    2    1    2    0    0  0.22892486756E+02  0.13289221593E+02  0.17593721449E+03  0.21748599396E+03  0.12508231197E+03 0.  0.
          5    1    3    3  502    0  0.55640253556E+02  0.13280762618E+02  0.17532347662E+03  0.18446682716E+03  0.41800000000E+01 0. -1.
         -5    1    3    3    0  502 -0.32747766800E+02  0.84589747880E-02  0.61373787500E+00  0.33019166799E+02  0.41800000000E+01 0. -1.
        -11    1    1    2    0    0 -0.29228478099E+02  0.37906916999E+02  0.17418716068E+03  0.18064441656E+03  0.00000000000E+00 0.  1.
         11    1    1    2    0    0  0.63359913425E+01 -0.51196138593E+02  0.13653093525E+03  0.14595165526E+03  0.00000000000E+00 0. -1.
</event>
<event>
 7    1  0.2661133E-009  0.1243869E+03  0.7561462E-02  0.1236031E+00
         -2   -1    0    0    0  501 -0.00000000000E+00  0.00000000000E+00  0.20863515463E+02  0.20863515463E+02  0.00000000000E+00 0. -1.
          2   -1    0    0  501    0  0.00000000000E+00 -0.00000000000E+00 -0.11136525459E+04  0.11136525459E+04  0.00000000000E+00 0.  1.
         25    2    1    2    0    0  0.11339487811E+02 -0.69071796759E+02 -0.88170223010E+03  0.89327809303E+03  0.12508969520E+03 0.  0.
          5    1    3    3  502    0 -0.52498071601E+02 -0.71323917749E+01 -0.27663745975E+03  0.28169606861E+03  0.41800000000E+01 0.  1.
         -5    1    3    3    0  502  0.63837559412E+02 -0.61939404984E+02 -0.60506477035E+03  0.61158202442E+03  0.41800000000E+01 0.  1.
        -11    1    1    2    0    0  0.33019155742E+02  0.13991330400E+02 -0.29738236993E+02  0.46587387904E+02  0.00000000000E+00 0.  1.
         11    1    1    2    0    0 -0.44358643553E+02  0.55080466359E+02 -0.18134856334E+03  0.19465058042E+03  0.00000000000E+00 0. -1.
</event>
<event>
 7    1  0.2661133E-009  0.1178197E+03  0.7561462E-02  0.1246738E+00
         -3   -1    0    0    0  501 -0.00000000000E+00  0.00000000000E+00  0.98173875303E+02  0.98173875303E+02  0.00000000000E+00 0.  1.
          3   -1    0    0  501    0  0.00000000000E+00 -0.00000000000E+00 -0.19161943013E+03  0.19161943013E+03  0.00000000000E+00 0. -1.
         25    2    1    2    0    0  0.15545275969E+02 -0.74351831666E+02 -0.79289101908E+02  0.16644350013E+03  0.12508727584E+03 0.  0.
          5    1    3    3  502    0  0.24817160476E+02 -0.10716637307E+03 -0.48429349614E+02  0.12026386521E+03  0.41800000000E+01 0.  1.
         -5    1    3    3    0  502 -0.92718845070E+01  0.32814541404E+02 -0.30859752293E+02  0.46179634921E+02  0.41800000000E+01 0.  1.
        -11    1    1    2    0    0 -0.24701364372E+02  0.10739008737E+02  0.33757603596E+02  0.43186334772E+02  0.00000000000E+00 0.  1.
         11    1    1    2    0    0  0.91560884030E+01  0.63612822930E+02 -0.47914056519E+02  0.80163470534E+02  0.00000000000E+00 0. -1.
</event>
<event>
 6    1  0.2661133E-009  0.1091935E+03  0.7561462E-02  0.1262071E+00
          1   -1    0    0  501    0  0.00000000000E+00  0.00000000000E+00  0.10392101664E+03  0.10392101664E+03  0.00000000000E+00 0. -1.
         -1   -1    0    0    0  501 -0.00000000000E+00 -0.00000000000E+00 -0.19139712089E+03  0.19139712089E+03  0.00000000000E+00 0.  1.
          5    1    1    2  502    0 -0.21012375146E+02 -0.31027537133E+02 -0.13509893508E+02  0.40052685209E+02  0.41800000000E+01 0.  1.
         -5    1    1    2    0  502  0.90760947369E+02  0.45895349040E+02  0.22657233413E+02  0.10428209461E+03  0.41800000000E+01 0.  1.
        -11    1    1    2    0    0 -0.61159729606E+02  0.64009971196E+00 -0.11193729177E+03  0.12755735785E+03  0.00000000000E+00 0.  1.
         11    1    1    2    0    0 -0.85888426169E+01 -0.15507911619E+02  0.15313847614E+02  0.23425999851E+02  0.00000000000E+00 0. -1.
</event>
<event>
 7    1  0.2661133E-009  0.9872375E+02  0.7561462E-02  0.1283003E+00
         -2   -1    0    0    0  501 -0.00000000000E+00  0.00000000000E+00  0.20011838374E+02  0.20011838374E+02  0.00000000000E+00 0.  1.
          2   -1    0    0  501    0  0.00000000000E+00 -0.00000000000E+00 -0.63044904142E+03  0.63044904142E+03  0.00000000000E+00 0. -1.
         25    2    1    2    0    0 -0.75289121061E+01 -0.80576474739E+01 -0.41601628622E+03  0.43455590889E+03  0.12509067648E+03 0.  0.
          5    1    3    3  502    0 -0.46038528717E+02  0.28092820540E+02 -0.32307770587E+03  0.32757507403E+03  0.41800000000E+01 0.  1.
         -5    1    3    3    0  502  0.38509616611E+02 -0.36150468014E+02 -0.92938580353E+02  0.10698083486E+03  0.41800000000E+01 0.  1.
        -11    1    1    2    0    0  0.47554552790E+02  0.14745548555E+02 -0.77237495188E+02  0.91893946243E+02  0.00000000000E+00 0.  1.
         11    1    1    2    0    0 -0.40025640684E+02 -0.66879010807E+01 -0.11718342164E+03  0.12401102467E+03  0.00000000000E+00 0. -1.
</event>
<event>
 7    1  0.2661133E-009  0.1347175E+03  0.7561462E-02  0.1220619E+00
          2   -1    0    0  501    0  0.00000000000E+00  0.00000000000E+00  0.15046730602E+03  0.15046730602E+03  0.00000000000E+00 0. -1.
         -2   -1    0    0    0  501 -0.00000000000E+00 -0.00000000000E+00 -0.16227582385E+03  0.16227582385E+03  0.00000000000E+00 0.  1.
         25    2    1    2    0    0  0.18981459589E+02 -0.10993197599E+03 -0.18636913343E+02  0.16864469966E+03  0.12509342521E+03 0.  0.
          5    1    3    3  502    0  0.41159527194E+02 -0.12400352655E+03  0.80467392408E+01  0.13097023970E+03  0.41800000000E+01 0. -1.
         -5    1    3    3    0  502 -0.22178067605E+02  0.14071550561E+02 -0.26683652583E+02  0.37674459957E+02  0.41800000000E+01 0. -1.
        -11    1    1    2    0    0 -0.58832386935E+01  0.66303917245E+02  0.48501367769E+02  0.82360212573E+02  0.00000000000E+00 0. -1.
         11    1    1    2    0    0 -0.13098220896E+02  0.43628058745E+02 -0.41672972256E+02  0.61738217638E+02  0.00000000000E+00 0.  1.
</event>
<event>
 7    1  0.2661133E-009  0.1844652E+03  0.7561462E-02  0.1163550E+00
         -2   -1    0    0    0  501 -0.00000000000E+00  0.00000000000E+00  0.21646421761E+03  0.21646421761E+03  0.00000000000E+00 0. -1.
          2   -1    0    0  501    0  0.00000000000E+00 -0.00000000000E+00 -0.17338575167E+03  0.17338575167E+03  0.00000000000E+00 0.  1.
         25    2    1    2    0    0  0.14253476694E+03 -0.51029278632E+02  0.62875193157E+02  0.20620529524E+03  0.12508871574E+03 0.  0.
          5    1    3    3  502    0  0.27793520615E+02 -0.72705432516E+02  0.38100224386E+02  0.86762083907E+02  0.41800000000E+01 0. -1.
         -5    1    3    3    0  502  0.11474124633E+03  0.21676153884E+02  0.24774968771E+02  0.11944321133E+03  0.41800000000E+01 0. -1.
        -11    1    1    2    0    0 -0.20666455220E+02  0.47966394857E+02 -0.31800071316E+02  0.61148360098E+02  0.00000000000E+00 0. -1.
         11    1    1    2    0    0 -0.12186831172E+03  0.30628837752E+01  0.12003344101E+02  0.12249631394E+03  0.00000000000E+00 0.  1.
</event>
<event>
 7    1  0.2661133E-009  0.8033304E+02  0.7561462E-02  0.1328109E+00
         -2   -1    0    0    0  501 -0.00000000000E+00  0.00000000000E+00  0.18214867973E+03  0.18214867973E+03  0.00000000000E+00 0. -1.
          2   -1    0    0  501    0  0.00000000000E+00 -0.00000000000E+00 -0.74682784311E+02  0.74682784311E+02  0.00000000000E+00 0.  1.
         25    2    1    2    0    0 -0.26322251207E+02 -0.19665657890E+02  0.86752050320E+02  0.15572717581E+03  0.12508171746E+03 0.  0.
          5    1    3    3  502    0 -0.15263667017E+02  0.37518639975E+02 -0.10715582227E+02  0.42106103819E+02  0.41800000000E+01 0.  1.
         -5    1    3    3    0  502 -0.11058584190E+02 -0.57184297865E+02  0.97467632547E+02  0.11362107199E+03  0.41800000000E+01 0.  1.
        -11    1    1    2    0    0  0.29684136978E+02  0.34977809241E+02  0.50017920940E+02  0.67870373084E+02  0.00000000000E+00 0. -1.
         11    1    1    2    0    0 -0.33618857711E+01 -0.15312151351E+02 -0.29304075841E+02  0.33233915144E+02  0.00000000000E+00 0.  1.
</event>
<event>
 7    1  0.2661133E-009  0.9179426E+02  0.7561462E-02  0.1298564E+00
         -1   -1    0    0    0  501 -0.00000000000E+00  0.00000000000E+00  0.23864732550E+03  0.23864732550E+03  0.00000000000E+00 0.  1.
          1   -1    0    0  501    0  0.00000000000E+00 -0.00000000000E+00 -0.62306970930E+02  0.62306970930E+02  0.00000000000E+00 0. -1.
         25    2    1    2    0    0  0.13357697233E+02 -0.14952540169E+02  0.34571802382E+02  0.13131780450E+03  0.12508856753E+03 0.  0.
          5    1    3    3  502    0 -0.15898028812E+01  0.41616898567E+02 -0.24143786498E+02  0.48320684453E+02  0.41800000000E+01 0. -1.
         -5    1    3    3    0  502  0.14947500114E+02 -0.56569438737E+02  0.58715588880E+02  0.82997120047E+02  0.41800000000E+01 0. -1.
        -11    1    1    2    0    0 -0.38337455916E+02  0.34326702724E+02  0.46848528716E+02  0.69590715536E+02  0.00000000000E+00 0. -1.
         11    1    1    2    0    0  0.24979758683E+02 -0.19374162554E+02  0.94920023476E+02  0.10004577640E+03  0.00000000000E+00 0.  1.
</event>
<event>
 7    1  0.2661133E-009  0.1747703E+03  0.7561462E-02  0.1172963E+00
          1   -1    0    0  501    0  0.00000000000E+00  0.00000000000E+00  0.26352991128E+02  0.26352991128E+02  0.00000000000E+00 0. -1.
         -1   -1    0    0    0  501 -0.00000000000E+00 -0.00000000000E+00 -0.13471050918E+04  0.13471050918E+04  0.00000000000E+00 0.  1.
         25    2    1    2    0    0  0.54791739202E+02 -0.13710789993E+03 -0.53399176233E+03  0.56797533314E+03  0.12509222959E+03 0.  0.
          5    1    3    3  502    0  0.46459364590E+02  0.17119252777E+01 -0.21421725245E+03  0.21924394380E+03  0.41800000000E+01 0. -1.
         -5    1    3    3    0  502  0.83323746122E+01 -0.13881982521E+03 -0.31977450988E+03  0.34873138933E+03  0.41800000000E+01 0. -1.
        -11    1    1    2    0    0 -0.67630699084E+02  0.77971583273E+02 -0.60949952571E+03  0.61817728129E+03  0.00000000000E+00 0.  1.
         11    1    1    2    0    0  0.12838959882E+02  0.59136316655E+02 -0.17726081265E+03  0.18730546853E+03  0.00000000000E+00 0. -1.
</event>
<event>
 7    1  0.2661133E-009  0.1313096E+03  0.7561462E-02  0.1225525E+00
          1   -1    0    0  501    0  0.00000000000E+00  0.00000000000E+00  0.11772010067E+04  0.11772010067E+04  0.00000000000E+00 0. -1.
         -1   -1    0    0    0  501 -0.00000000000E+00 -0.00000000000E+00 -0.19205582461E+02  0.19205582461E+02  0.00000000000E+00 0.  1.
         25    2    1    2    0    0 -0.10291344471E+03  0.10363134994E+02  0.78645832746E+03  0.80303245010E+03  0.12508334589E+03 0.  0.
          5    1    3    3  502    0 -0.31974865663E+02 -0.42753163980E+02  0.50721988437E+03  0.51003892848E+03  0.41800000000E+01 0. -1.
         -5    1    3    3    0  502 -0.70938579045E+02  0.53116298974E+02  0.27923844308E+03  0.29299352162E+03  0.41800000000E+01 0. -1.
        -11    1    1    2    0    0  0.33582569032E+02  0.25617426189E+02  0.20663222002E+03  0.21090499240E+03  0.00000000000E+00 0.  1.
         11    1    1    2    0    0  0.69330875676E+02 -0.35980561183E+02  0.16490487678E+03  0.18246914668E+03  0.00000000000E+00 0. -1.
</event>
<event>
 7    1  0.2661133E-009  0.1694441E+03  0.7561462E-02  0.1178429E+00
          3   -1    0    0  501    0  0.00000000000E+00  0.00000000000E+00  0.36634553374E+03  0.36634553374E+03  0.00000000000E+00 0. -1.
         -3   -1    0    0    0  501 -0.00000000000E+00 -0.00000000000E+00 -0.87277427695E+02  0.87277427695E+02  0.00000000000E+00 0.  1.
         25    2    1    2    0    0  0.13256334330E+03  0.26394172758E+02  0.83491701787E+02  0.20220560449E+03  0.12508616980E+03 0.  0.
          5    1    3    3  502    0  0.15631895980E+03  0.30346247653E+02  0.67543281636E+02  0.17302045901E+03  0.41800000000E+01 0. -1.
         -5    1    3    3    0  502 -0.23755616503E+02 -0.39520748953E+01  0.15948420152E+02  0.29185145481E+02  0.41800000000E+01 0. -1.
        -11    1    1    2    0    0 -0.13554133928E+03 -0.39924953343E+02  0.18926711164E+03  0.23619376813E+03  0.00000000000E+00 0. -1.
         11    1    1    2    0    0  0.29779959817E+01  0.13530780585E+02  0.63092926227E+01  0.15223588825E+02  0.00000000000E+00 0.  1.
</event>
<event>
 7    1  0.2661133E-009  0.1298785E+03  0.7561462E-02  0.1227636E+00
          2   -1    0    0  501    0  0.00000000000E+00  0.00000000000E+00  0.62125292485E+03  0.62125292485E+03  0.00000000000E+00 0. -1.
         -2   -1    0    0    0  501 -0.00000000000E+00 -0.00000000000E+00 -0.32733946791E+02  0.32733946791E+02  0.00000000000E+00 0.  1.
         25    2    1    2    0    0 -0.18183722642E+02 -0.68315690881E+02  0.34748153981E+03  0.37601798025E+03  0.12509364321E+03 0.  0.
          5    1    3    3  502    0 -0.65206281460E+01 -0.10078585116E+03  0.19518748682E+03  0.21980885741E+03  0.41800000000E+01 0. -1.
         -5    1    3    3    0  502 -0.11663094496E+02  0.32470160274E+02  0.15229405300E+03  0.15620912285E+03  0.41800000000E+01 0. -1.
        -11    1    1    2    0    0 -0.91005206854E+01  0.89136164642E+02  0.22041130906E+03  0.23792692257E+03  0.00000000000E+00 0. -1.
         11    1    1    2    0    0  0.27284243328E+02 -0.20820473760E+02  0.20626129187E+02  0.40041968818E+02  0.00000000000E+00 0.  1.
</event>
<event>
 7    1  0.2661133E-009  0.1423323E+03  0.7561462E-02  0.1210225E+00
          3   -1    0    0  501    0  0.00000000000E+00  0.00000000000E+00  0.39725611919E+03  0.39725611919E+03  0.00000000000E+00 0. -1.
         -3   -1    0    0    0  501 -0.00000000000E+00 -0.00000000000E+00 -0.67398078173E+02  0.67398078173E+02  0.00000000000E+00 0.  1.
         25    2    1    2    0    0  0.11040247943E+03  0.19441147327E+02  0.10901418689E+03  0.20024512043E+03  0.12508936662E+03 0.  0.
          5    1    3    3  502    0  0.11493441336E+03 -0.29425402226E+02  0.76679956225E+02  0.14132608308E+03  0.41800000000E+01 0.  1.
         -5    1    3    3    0  502 -0.45319339358E+01  0.48866549553E+02  0.32334230665E+02  0.58919037357E+02  0.41800000000E+01 0.  1.
        -11    1    1    2    0    0 -0.28586058916E+02  0.91700287787E+01  0.14851783740E+03  0.15152161634E+03  0.00000000000E+00 0. -1.
         11    1    1    2    0    0 -0.81816420510E+02 -0.28611176105E+02  0.72326016729E+02  0.11288746059E+03  0.00000000000E+00 0.  1.
</event>
<event>
 7    1  0.2661133E-009  0.1860017E+03  0.7561462E-02  0.1162118E+00
          2   -1    0    0  501    0  0.00000000000E+00  0.00000000000E+00  0.53823080564E+03  0.53823080564E+03  0.00000000000E+00 0. -1.
         -2   -1    0    0    0  501 -0.00000000000E+00 -0.00000000000E+00 -0.73250150620E+02  0.73250150620E+02  0.00000000000E+00 0.  1.
         25    2    1    2    0    0  0.14803924969E+03  0.75152446420E+02  0.22620617074E+03  0.30721565102E+03  0.12509482362E+03 0.  0.
          5    1    3    3  502    0  0.69392958753E+02 -0.28507275940E+02  0.60371430594E+02  0.96385836812E+02  0.41800000000E+01 0. -1.
         -5    1    3    3    0  502  0.78646290939E+02  0.10365972236E+03  0.16583474015E+03  0.21082981421E+03  0.41800000000E+01 0. -1.
        -11    1    1    2    0    0 -0.35021506867E+02 -0.25040788121E+02  0.13863922133E+03  0.14517017843E+03  0.00000000000E+00 0. -1.
         11    1    1    2    0    0 -0.11301774283E+03 -0.50111658299E+02  0.10013526295E+03  0.15909512681E+03  0.00000000000E+00 0.  1.
</event>
<event>
 7    1  0.2661133E-009  0.1047497E+03  0.7561462E-02  0.1270614E+00
          2   -1    0    0  501    0  0.00000000000E+00  0.00000000000E+00  0.13122972379E+03  0.13122972379E+03  0.00000000000E+00 0. -1.
         -2   -1    0    0    0  501 -0.00000000000E+00 -0.00000000000E+00 -0.13621970654E+03  0.13621970654E+03  0.00000000000E+00 0.  1.
         25    2    1    2    0    0  0.81841323500E+01  0.48671905268E+02  0.66588839342E+02  0.15006304856E+03  0.12509560597E+03 0.  0.
          5    1    3    3  502    0  0.61212720566E+02  0.66020014683E+01  0.11685279408E+02  0.62806064495E+02  0.41800000000E+01 0.  1.
         -5    1    3    3    0  502 -0.53028588216E+02  0.42069903800E+02  0.54903559934E+02  0.87256984061E+02  0.41800000000E+01 0.  1.
        -11    1    1    2    0    0  0.20520637313E+02 -0.46922255919E+02 -0.72322095176E+02  0.88618734514E+02  0.00000000000E+00 0.  1.
         11    1    1    2    0    0 -0.28704769663E+02 -0.17496493487E+01  0.74327308196E+00  0.28767647265E+02  0.00000000000E+00 0. -1.
</event>
<event>
 7    1  0.2661133E-009  0.7630739E+02  0.7561462E-02  0.1339870E+00
         -2   -1    0    0    0  501 -0.00000000000E+00  0.00000000000E+00  0.25520501683E+03  0.25520501683E+03  0.00000000000E+00 0. -1.
          2   -1    0    0  501    0  0.00000000000E+00 -0.00000000000E+00 -0.54874379172E+02  0.54874379172E+02  0.00000000000E+00 0.  1.
         25    2    1    2    0    0  0.10192686962E+02  0.43489968948E+02  0.13182555925E+03  0.18713941923E+03  0.12509162998E+03 0.  0.
          5    1    3    3  502    0  0.63974598348E+01  0.66578834214E+00  0.14245067707E+03  0.14265706630E+03  0.41800000000E+01 0. -1.
         -5    1    3    3    0  502  0.37952271275E+01  0.42824180606E+02 -0.10625117823E+02  0.44482352931E+02  0.41800000000E+01 0. -1.
        -11    1    1    2    0    0  0.29899697362E+02  0.12896283589E+02  0.17355467098E+02  0.36898757038E+02  0.00000000000E+00 0.  1.
         11    1    1    2    0    0 -0.40092384324E+02 -0.56386252537E+02  0.51149611305E+02  0.86041219730E+02  0.00000000000E+00 0. -1.
</event>
<event>
 7    1  0.2661133E-009  0.9433176E+02  0.7561462E-02  0.1292688E+00
          1   -1    0    0  501    0  0.00000000000E+00  0.00000000000E+00  0.47396204086E+03  0.47396204086E+03  0.00000000000E+00 0. -1.
         -1   -1    0    0    0  501 -0.00000000000E+00 -0.00000000000E+00 -0.38654945156E+02  0.38654945156E+02  0.00000000000E+00 0.  1.
         25    2    1    2    0    0  0.42706466685E+01  0.68148699926E+02  0.32896091375E+03  0.35850438490E+03  0.12509047724E+03 0.  0.
          5    1    3    3  502    0 -0.46252676935E+02  0.23854559293E+02  0.52790826930E+02  0.74247518010E+02  0.41800000000E+01 0.  1.
         -5    1    3    3    0  502  0.50523323603E+02  0.44294140633E+02  0.27617008682E+03  0.28425686689E+03  0.41800000000E+01 0.  1.
        -11    1    1    2    0    0 -0.57555130977E+01 -0.16709108589E+02  0.10081833196E+03  0.10235553869E+03  0.00000000000E+00 0. -1.
         11    1    1    2    0    0  0.14848664292E+01 -0.51439591337E+02  0.55278499942E+01  0.51757062424E+02  0.00000000000E+00 0.  1.
</event>
<event>
 7    1  0.2661133E-009  0.1032183E+03  0.7561462E-02  0.1273670E+00
          2   -1    0    0  501    0  0.00000000000E+00  0.00000000000E+00  0.75788842973E+03  0.75788842973E+03  0.00000000000E+00 0.  1.
         -2   -1    0    0    0  501 -0.00000000000E+00 -0.00000000000E+00 -0.15678349880E+02  0.15678349880E+02  0.00000000000E+00 0. -1.
         25    2    1    2    0    0  0.11043848893E+02 -0.90921296273E+00  0.38372407704E+03  0.40375220950E+03  0.12509550794E+03 0.  0.
          5    1    3    3  502    0  0.62283297322E+02  0.14823507186E+02  0.13757559913E+03  0.15180073572E+03  0.41800000000E+01 0. -1.
         -5    1    3    3    0  502 -0.51239448429E+02 -0.15732720149E+02  0.24614847791E+03  0.25195147377E+03  0.41800000000E+01 0. -1.
        -11    1    1    2    0    0 -0.24152902801E+01  0.44253550747E+02  0.22099405851E+03  0.22539428626E+03  0.00000000000E+00 0.  1.
         11    1    1    2    0    0 -0.86285586125E+01 -0.43344337784E+02  0.13749194430E+03  0.14442028386E+03  0.00000000000E+00 0. -1.
</event>
<event>
 7    1  0.2661133E-009  0.1766290E+03  0.7561462E-02  0.1171106E+00
         -1   -1    0    0    0  501 -0.00000000000E+00  0.00000000000E+00  0.34629184529E+02  0.34629184529E+02  0.00000000000E+00 0.  1.
          1   -1    0    0  501    0  0.00000000000E+00 -0.00000000000E+00 -0.11874384378E+04  0.11874384378E+04  0.00000000000E+00 0. -1.
         25    2    1    2    0    0  0.15494549640E+03 -0.58285896999E+02 -0.74187395627E+03  0.77034404644E+03  0.12509048824E+03 0.  0.
          5    1    3    3  502    0  0.51750768925E+02 -0.21159776352E+02 -0.70581781985E+02  0.90139550518E+02  0.41800000000E+01 0.  1.
         -5    1    3    3    0  502  0.10319472747E+03 -0.37126120647E+02 -0.67129217429E+03  0.68020449592E+03  0.41800000000E+01 0.  1.
        -11    1    1    2    0    0 -0.11501594075E+03 -0.21166318604E+01 -0.26054551449E+03  0.28481065970E+03  0.00000000000E+00 0.  1.
         11    1    1    2    0    0 -0.39929555644E+02  0.60402528860E+02 -0.15038978248E+03  0.16691291616E+03  0.00000000000E+00 0. -1.
</event>
<event>
 7    1  0.2661133E-009  0.1580461E+03  0.7561462E-02  0.1190920E+00
         -2   -1    0    0    0  501 -0.00000000000E+00  0.00000000000E+00  0.95853489447E+02  0.95853489447E+02  0.00000000000E+00 0.  1.
          2   -1    0    0  501    0  0.00000000000E+00 -0.00000000000E+00 -0.28634954153E+03  0.28634954153E+03  0.00000000000E+00 0. -1.
         25    2    1    2    0    0 -0.12436390032E+03 -0.12067184151E+02 -0.70952619669E+02  0.19050840019E+03  0.12508868722E+03 0.  0.
          5    1    3    3  502    0 -0.14672371467E+03  0.41743789631E+01 -0.69661175770E+02  0.16252823046E+03  0.41800000000E+01 0. -1.
         -5    1    3    3    0  502  0.22359814359E+02 -0.16241563114E+02 -0.12914438994E+01  0.27980169726E+02  0.41800000000E+01 0. -1.
        -11    1    1    2    0    0  0.59522705821E+02  0.38920147182E+02 -0.28203748874E+02  0.76506090055E+02  0.00000000000E+00 0.  1.
         11    1    1    2    0    0  0.64841194494E+02 -0.26852963032E+02 -0.91339683538E+02  0.11518854073E+03  0.00000000000E+00 0. -1.
</event>
<event>
 7    1  0.3196737E-009  0.3518927E+03  0.7561462E-02  0.1061841E+00
          1   -1    0    0  501    0  0.00000000000E+00  0.00000000000E+00  0.10309942150E+04  0.10309942150E+04  0.00000000000E+00 0. -1.
         -1   -1    0    0    0  501 -0.00000000000E+00 -0.00000000000E+00 -0.12824161860E+03  0.12824161860E+03  0.00000000000E+00 0.  1.
         25    2    1    2    0    0 -0.40049355559E+02  0.33398204897E+03  0.32385700151E+03  0.48340284607E+03  0.12508794604E+03 0.  0.
          5    1    3    3  502    0 -0.36844873456E+02  0.15392827270E+02  0.39876081484E+02  0.56586730828E+02  0.41800000000E+01 0. -1.
         -5    1    3    3    0  502 -0.32044821035E+01  0.31858922170E+03  0.28398092002E+03  0.42681611524E+03  0.41800000000E+01 0. -1.
        -11    1    1    2    0    0  0.53806365833E+02 -0.13188305041E+03  0.19138957492E+03  0.23857542492E+03  0.00000000000E+00 0.  1.
         11    1    1    2    0    0 -0.13757010274E+02 -0.20209899856E+03  0.38750602002E+03  0.43725756266E+03  0.00000000000E+00 0. -1.
</event>
<event>
 7    1  0.2661133E-009  0.1823968E+03  0.7561462E-02  0.1165503E+00
         -2   -1    0    0    0  501 -0.00000000000E+00  0.00000000000E+00  0.26638849007E+02  0.26638849007E+02  0.00000000000E+00 0.  1.
          2   -1    0    0  501    0  0.00000000000E+00 -0.00000000000E+00 -0.15280115502E+04  0.15280115502E+04  0.00000000000E+00 0. -1.
         25    2    1    2    0    0 -0.27020592606E+02  0.16833740684E+03 -0.74398611314E+03  0.77345332515E+03  0.12508842746E+03 0.  0.
          5    1    3    3  502    0 -0.43921010298E+02  0.13344923513E+03 -0.34450368038E+03  0.37207258929E+03  0.41800000000E+01 0. -1.
         -5    1    3    3    0  502  0.16900417692E+02  0.34888171705E+02 -0.39948243275E+03  0.40138073586E+03  0.41800000000E+01 0. -1.
        -11    1    1    2    0    0 -0.17432908120E+02 -0.85939819540E+01 -0.35097885344E+02  0.40120124214E+02  0.00000000000E+00 0.  1.
         11    1    1    2    0    0  0.44453500726E+02 -0.15974342488E+03 -0.72228870274E+03  0.74107694987E+03  0.00000000000E+00 0. -1.
</event>
<event>
 7    1  0.2661133E-009  0.1295273E+03  0.7561462E-02  0.1228159E+00
          2   -1    0    0  501    0  0.00000000000E+00  0.00000000000E+00  0.94535534949E+02  0.94535534949E+02  0.00000000000E+00 0. -1.
         -2   -1    0    0    0  501 -0.00000000000E+00 -0.00000000000E+00 -0.24472378051E+03  0.24472378051E+03  0.00000000000E+00 0.  1.
         25    2    1    2    0    0  0.48260917805E+02 -0.91063416889E+02 -0.11094441747E+03  0.19641176643E+03  0.12508899289E+03 0.  0.
          5    1    3    3  502    0  0.83913581396E+02 -0.53144813603E+02 -0.10376954874E+03  0.14370613070E+03  0.41800000000E+01 0.  1.
         -5    1    3    3    0  502 -0.35652663591E+02 -0.37918603287E+02 -0.71748687255E+01  0.52705635729E+02  0.41800000000E+01 0.  1.
        -11    1    1    2    0    0 -0.34714377400E+02  0.33334808560E+02 -0.62733042817E+02  0.79067895641E+02  0.00000000000E+00 0.  1.
         11    1    1    2    0    0 -0.13546540404E+02  0.57728608329E+02  0.23489214731E+02  0.63779653380E+02  0.00000000000E+00 0. -1.
</event>
<event>
 7    1  0.2878808E-009  0.8926973E+02  0.7561462E-02  0.1304630E+00
         -2   -1    0    0    0  501 -0.00000000000E+00  0.00000000000E+00  0.19664527000E+02  0.19664527000E+02  0.00000000000E+00 0.  1.
          2   -1    0    0  501    0  0.00000000000E+00 -0.00000000000E+00 -0.84030178032E+03  0.84030178032E+03  0.00000000000E+00 0. -1.
         25    2    1    2    0    0 -0.28682725946E+02  0.58531551120E+02 -0.52890987897E+03  0.54739515777E+03  0.12508859834E+03 0.  0.
          5    1    3    3  502    0 -0.35635343980E+02  0.22272449379E+01 -0.34840308452E+02  0.50061540664E+02  0.41800000000E+01 0.  1.
         -5    1    3    3    0  502  0.69526180337E+01  0.56304306183E+02 -0.49406957052E+03  0.49733361711E+03  0.41800000000E+01 0.  1.
        -11    1    1    2    0    0  0.38294413316E+02 -0.15003956669E+02 -0.41586440973E+02  0.58489425367E+02  0.00000000000E+00 0.  1.
         11    1    1    2    0    0 -0.96116873698E+01 -0.43527594451E+02 -0.25014093338E+03  0.25408172418E+03  0.00000000000E+00 0. -1.
</event>
<event>
 7    1  0.2661133E-009  0.1244083E+03  0.7561462E-02  0.1235997E+00
          1   -1    0    0  501    0  0.00000000000E+00  0.00000000000E+00  0.11408272236E+04  0.11408272236E+04  0.00000000000E+00 0. -1.
         -1   -1    0    0    0  501 -0.00000000000E+00 -0.00000000000E+00 -0.23632762778E+02  0.23632762778E+02  0.00000000000E+00 0.  1.
         25    2    1    2    0    0  0.75243953638E+02  0.67911519952E+02  0.84417749345E+03  0.85939319389E+03  0.12508954452E+03 0.  0.
          5    1    3    3  502    0  0.45524288756E+02  0.82393231221E+02  0.79130665981E+03  0.79689698687E+03  0.41800000000E+01 0. -1.
         -5    1    3    3    0  502  0.29719664882E+02 -0.14481711270E+02  0.52870833641E+02  0.62496207020E+02  0.41800000000E+01 0. -1.
        -11    1    1    2    0    0 -0.59484600553E+02 -0.81197009684E+02  0.26405844687E+03  0.28259199466E+03  0.00000000000E+00 0. -1.
         11    1    1    2    0    0 -0.15759353085E+02  0.13285489732E+02  0.89585204746E+01  0.22474797801E+02  0.00000000000E+00 0.  1.
</event>
<event>
 7    1  0.2661133E-009  0.9299126E+02  0.7561462E-02  0.1295765E+00
         -1   -1    0    0    0  501 -0.00000000000E+00  0.00000000000E+00  0.37858053519E+02  0.37858053519E+02  0.00000000000E+00 0.  1.
          1   -1    0    0  501    0  0.00000000000E+00 -0.00000000000E+00 -0.36897468859E+03  0.36897468859E+03  0.00000000000E+00 0. -1.
         25    2    1    2    0    0 -0.25805575736E+02 -0.34759232282E+02 -0.20769461617E+03  0.24629157278E+03  0.12509337818E+03 0.  0.
          5    1    3    3  502    0  0.11712022456E+02  0.16093811972E+02  0.77240989672E+01  0.21755835049E+02  0.41800000000E+01 0. -1.
         -5    1    3    3    0  502 -0.37517598192E+02 -0.50853044255E+02 -0.21541871514E+03  0.22453573773E+03  0.41800000000E+01 0. -1.
        -11    1    1    2    0    0  0.53264945044E+02  0.48112273576E+02 -0.80300755548E+02  0.10770402305E+03  0.00000000000E+00 0.  1.
         11    1    1    2    0    0 -0.27459369308E+02 -0.13353041294E+02 -0.43121263353E+02  0.52837146287E+02  0.00000000000E+00 0. -1.
</event>
<event>
 7    1  0.2661133E-009  0.1054987E+03  0.7561462E-02  0.1269140E+00
          3   -1    0    0  501    0  0.00000000000E+00  0.00000000000E+00  0.45223969589E+02  0.45223969589E+02  0.00000000000E+00 0. -1.
         -3   -1    0    0    0  501 -0.00000000000E+00 -0.00000000000E+00 -0.45639113658E+03  0.45639113658E+03  0.00000000000E+00 0.  1.
         25    2    1    2    0    0 -0.92013352555E+02  0.20288950189E+02 -0.21915592151E+03  0.26936887859E+03  0.12510865785E+03 0.  0.
          5    1    3    3  502    0 -0.71058640662E+02  0.28323475906E+02 -0.23119736858E+03  0.24355953141E+03  0.41800000000E+01 0. -1.
         -5    1    3    3    0  502 -0.20954711893E+02 -0.80345257170E+01  0.12041447075E+02  0.25809347176E+02  0.41800000000E+01 0. -1.
        -11    1    1    2    0    0  0.27276100407E+02 -0.35783667809E+02 -0.14208203516E+03  0.14903610721E+03  0.00000000000E+00 0.  1.
         11    1    1    2    0    0  0.64737252148E+02  0.15494717620E+02 -0.49929210316E+02  0.83210120374E+02  0.00000000000E+00 0. -1.
</event>
<event>
 7    1  0.2661133E-009  0.9650944E+02  0.7561462E-02  0.1287812E+00
          2   -1    0    0  501    0  0.00000000000E+00  0.00000000000E+00  0.16404689874E+03  0.16404689874E+03  0.00000000000E+00 0.  1.
         -2   -1    0    0    0  501 -0.00000000000E+00 -0.00000000000E+00 -0.81363290771E+02  0.81363290771E+02  0.00000000000E+00 0. -1.
         25    2    1    2    0    0 -0.35454241866E+02 -0.44883630530E+02  0.54084857144E+02  0.14779853150E+03  0.12509072942E+03 0.  0.
          5    1    3    3  502    0 -0.19006018055E+02  0.27195516620E+02 -0.23249143007E+02  0.40728612757E+02  0.41800000000E+01 0.  1.
         -5    1    3    3    0  502 -0.16448223811E+02 -0.72079147150E+02  0.77334000151E+02  0.10706991874E+03  0.41800000000E+01 0.  1.
        -11    1    1    2    0    0  0.45633331623E+01  0.53312617908E+02  0.36324628787E+02  0.64672543589E+02  0.00000000000E+00 0.  1.
         11    1    1    2    0    0  0.30890908703E+02 -0.84289873786E+01 -0.77258779593E+01  0.32939114423E+02  0.00000000000E+00 0. -1.
</event>
<event>
 7    1  0.2661133E-009  0.1234811E+03  0.7561462E-02  0.1237462E+00
         -2   -1    0    0    0  501 -0.00000000000E+00  0.00000000000E+00  0.38281321485E+02  0.38281321485E+02  0.00000000000E+00 0.  1.
          2   -1    0    0  501    0  0.00000000000E+00 -0.00000000000E+00 -0.62940555635E+03  0.62940555635E+03  0.00000000000E+00 0. -1.
         25    2    1    2    0    0 -0.17220189577E+02  0.97702009795E+02 -0.20998789654E+03  0.26378882294E+03  0.12508960295E+03 0.  0.
          5    1    3    3  502    0  0.34318886702E+02  0.88113143348E+02 -0.17969111393E+03  0.20309623542E+03  0.41800000000E+01 0. -1.
         -5    1    3    3    0  502 -0.51539076278E+02  0.95888664471E+01 -0.30296782608E+02  0.60692587519E+02  0.41800000000E+01 0. -1.
        -11    1    1    2    0    0  0.11924695058E+02 -0.39084076309E+02 -0.38166242525E+02  0.55914447521E+02  0.00000000000E+00 0.  1.
         11    1    1    2    0    0  0.52954945192E+01 -0.58617933486E+02 -0.34297009580E+03  0.34798360738E+03  0.00000000000E+00 0. -1.
</event>
<event>
 7    1  0.2661133E-009  0.1192242E+03  0.7561462E-02  0.1244382E+00
         -1   -1    0    0    0  501 -0.00000000000E+00  0.00000000000E+00  0.54477149947E+02  0.54477149947E+02  0.00000000000E+00 0.  1.
          1   -1    0    0  501    0  0.00000000000E+00 -0.00000000000E+00 -0.33964008610E+03  0.33964008610E+03  0.00000000000E+00 0. -1.
         25    2    1    2    0    0 -0.13188193866E+01 -0.81670852751E+02 -0.13978761328E+03  0.20459619049E+03  0.12508859606E+03 0.  0.
          5    1    3    3  502    0 -0.42331687300E+02 -0.41974660269E+02 -0.13443105872E+03  0.14711568850E+03  0.41800000000E+01 0.  1.
         -5    1    3    3    0  502  0.41012867914E+02 -0.39696192482E+02 -0.53565545536E+01  0.57480501988E+02  0.41800000000E+01 0.  1.
        -11    1    1    2    0    0 -0.43574896771E+02  0.51034523439E+02 -0.75900040971E+02  0.10131194614E+03  0.00000000000E+00 0. -1.
         11    1    1    2    0    0  0.44893716158E+02  0.30636329312E+02 -0.69475281911E+02  0.88209099422E+02  0.00000000000E+00 0.  1.
</event>
<event>
 7    1  0.2661133E-009  0.9609487E+02  0.7561462E-02  0.1288729E+00
         -2   -1    0    0    0  501 -0.00000000000E+00  0.00000000000E+00  0.27257048787E+04  0.27257048787E+04  0.00000000000E+00 0.  1.
          2   -1    0    0  501    0  0.00000000000E+00 -0.00000000000E+00 -0.13919035566E+02  0.13919035566E+02  0.00000000000E+00 0. -1.
         25    2    1    2    0    0 -0.19836636812E+02  0.98022103498E+01  0.25420725141E+04  0.25452445627E+04  0.12509053480E+03 0.  0.
          5    1    3    3  502    0 -0.48537669472E+02  0.51920693123E+02  0.11258125973E+04  0.11280616740E+04  0.41800000000E+01 0. -1.
         -5    1    3    3    0  502  0.28701032660E+02 -0.42118482773E+02  0.14162599168E+04  0.14171828888E+04  0.41800000000E+01 0. -1.
        -11    1    1    2    0    0  0.44193337256E+02 -0.10734773872E+02  0.34756330447E+02  0.57238876072E+02  0.00000000000E+00 0. -1.
         11    1    1    2    0    0 -0.24356700443E+02  0.93256352175E+00  0.13495699862E+03  0.13714047545E+03  0.00000000000E+00 0.  1.
</event>
<event>
 7    1  0.2661133E-009  0.1074241E+03  0.7561462E-02  0.1265416E+00
          1   -1    0    0  501    0  0.00000000000E+00  0.00000000000E+00  0.62064551492E+03  0.62064551492E+03  0.00000000000E+00 0. -1.
         -1   -1    0    0    0  501 -0.00000000000E+00 -0.00000000000E+00 -0.22183486227E+02  0.22183486227E+02  0.00000000000E+00 0.  1.
         25    2    1    2    0    0 -0.20806684284E+02 -0.22055188308E+02  0.42496017193E+03  0.44402549144E+03  0.12509252529E+03 0.  0.
          5    1    3    3  502    0 -0.13112509406E+02  0.47659138379E+02  0.26056156077E+03  0.26524164591E+03  0.41800000000E+01 0. -1.
         -5    1    3    3    0  502 -0.76941748783E+01 -0.69714326688E+02  0.16439861115E+03  0.17878384553E+03  0.41800000000E+01 0. -1.
        -11    1    1    2    0    0  0.21710640228E+02 -0.33226388002E+02  0.52919928658E+02  0.66150310717E+02  0.00000000000E+00 0.  1.
         11    1    1    2    0    0 -0.90395594435E+00  0.55281576311E+02  0.12058192811E+03  0.13265319899E+03  0.00000000000E+00 0. -1.
</event>
<event>
 7    1  0.2661133E-009  0.1202362E+03  0.7561462E-02  0.1242708E+00
          1   -1    0    0  501    0  0.00000000000E+00  0.00000000000E+00  0.87068671404E+02  0.87068671404E+02  0.00000000000E+00 0. -1.
         -1   -1    0    0    0  501 -0.00000000000E+00 -0.00000000000E+00 -0.29468788733E+03  0.29468788733E+03  0.00000000000E+00 0.  1.
         25    2    1    2    0    0 -0.59866497454E+02  0.10338969518E+03 -0.10959813367E+03  0.20476892587E+03  0.12508051610E+03 0.  0.
          5    1    3    3  502    0 -0.41008112355E+02  0.63278149669E+02  0.10906389658E+02  0.76303415650E+02  0.41800000000E+01 0. -1.
         -5    1    3    3    0  502 -0.18858385098E+02  0.40111545515E+02 -0.12050452333E+03  0.12846551022E+03  0.41800000000E+01 0. -1.
        -11    1    1    2    0    0  0.29444579969E+02 -0.36101376433E+02 -0.91720555952E+02  0.10287348081E+03  0.00000000000E+00 0.  1.
         11    1    1    2    0    0  0.30421917485E+02 -0.67288318751E+02 -0.63005263034E+01  0.74114152060E+02  0.00000000000E+00 0. -1.
</event>
<event>
 7    1  0.2661133E-009  0.2307733E+03  0.7561462E-02  0.1126097E+00
          1   -1    0    0  501    0  0.00000000000E+00  0.00000000000E+00  0.63603452771E+03  0.63603452771E+03  0.00000000000E+00 0. -1.
         -1   -1    0    0    0  501 -0.00000000000E+00 -0.00000000000E+00 -0.91849409250E+02  0.91849409250E+02  0.00000000000E+00 0.  1.
         25    2    1    2    0    0  0.10500422309E+03 -0.18498741428E+03  0.22479742838E+03  0.33380976690E+03  0.12509534909E+03 0.  0.
          5    1    3    3  502    0  0.82301891019E+02 -0.40710465498E+02  0.13154418618E+03  0.16047519616E+03  0.41800000000E+01 0.  1.
         -5    1    3    3    0  502  0.22702332068E+02 -0.14427694878E+03  0.93253242198E+02  0.17333457073E+03  0.41800000000E+01 0.  1.
        -11    1    1    2    0    0 -0.51123612235E+02  0.15194231824E+03  0.18008871555E+03  0.24110586320E+03  0.00000000000E+00 0. -1.
         11    1    1    2    0    0 -0.53880610852E+02  0.33045096037E+02  0.13929897454E+03  0.15296830686E+03  0.00000000000E+00 0.  1.
</event>
<event>
 7    1  0.2661133E-009  0.1586252E+03  0.7561462E-02  0.1190258E+00
          2   -1    0    0  501    0  0.00000000000E+00  0.00000000000E+00  0.10848754597E+03  0.10848754597E+03  0.00000000000E+00 0. -1.
         -2   -1    0    0    0  501 -0.00000000000E+00 -0.00000000000E+00 -0.32489421704E+03  0.32489421704E+03  0.00000000000E+00 0.  1.
         25    2    1    2    0    0 -0.10529394134E+03 -0.67435587675E+02 -0.12227177667E+02  0.17728756117E+03  0.12508798065E+03 0.  0.
          5    1    3    3  502    0 -0.10016190265E+03  0.39747343548E+01 -0.27360802723E+02  0.10399178420E+03  0.41800000000E+01 0. -1.
         -5    1    3    3    0  502 -0.51320386910E+01 -0.71410322029E+02  0.15133625056E+02  0.73295776964E+02  0.41800000000E+01 0. -1.
        -11    1    1    2    0    0  0.41928656093E+02 -0.11982156489E+02 -0.25407907560E+02  0.50469258390E+02  0.00000000000E+00 0. -1.
         11    1    1    2    0    0  0.63365285251E+02  0.79417744164E+02 -0.17877158585E+03  0.20562494345E+03  0.00000000000E+00 0.  1.
</event>
<event>
 7    1  0.2661133E-009  0.1015934E+03  0.7561462E-02  0.1276980E+00
         -3   -1    0    0    0  501 -0.00000000000E+00  0.00000000000E+00  0.56528532557E+02  0.56528532557E+02  0.00000000000E+00 0.  1.
          3   -1    0    0  501    0  0.00000000000E+00 -0.00000000000E+00 -0.22970794833E+03  0.22970794833E+03  0.00000000000E+00 0. -1.
         25    2    1    2    0    0 -0.96286044205E+01 -0.28713628877E+02 -0.11117199167E+03  0.17007071193E+03  0.12509057845E+03 0.  0.
          5    1    3    3  502    0  0.16702835455E+02 -0.62014667331E+02 -0.16818221753E+02  0.66521640534E+02  0.41800000000E+01 0. -1.
         -5    1    3    3    0  502 -0.26331439876E+02  0.33301038454E+02 -0.94353769919E+02  0.10354907139E+03  0.41800000000E+01 0. -1.
        -11    1    1    2    0    0  0.22245482427E+02 -0.29305552806E+02 -0.12497375087E+02  0.38856933715E+02  0.00000000000E+00 0.  1.
         11    1    1    2    0    0 -0.12616878007E+02  0.58019181683E+02 -0.49510049019E+02  0.77308835250E+02  0.00000000000E+00 0. -1.
</event>
<event>
 7    1  0.2661133E-009  0.2405869E+03  0.7561462E-02  0.1119402E+00
         -1   -1    0    0    0  501 -0.00000000000E+00  0.00000000000E+00  0.11464024130E+03  0.11464024130E+03  0.00000000000E+00 0.  1.
          1   -1    0    0  501    0  0.00000000000E+00 -0.00000000000E+00 -0.56282562028E+03  0.56282562028E+03  0.00000000000E+00 0. -1.
         25    2    1    2    0    0  0.49110723248E+02  0.21636455404E+03 -0.14970888010E+03  0.29544268895E+03  0.12509256689E+03 0.  0.
          5    1    3    3  502    0  0.83764102712E+02  0.18770583841E+03 -0.10114238433E+03  0.22912258942E+03  0.41800000000E+01 0. -1.
         -5    1    3    3    0  502 -0.34653379464E+02  0.28658715634E+02 -0.48566495772E+02  0.66320099530E+02  0.41800000000E+01 0. -1.
        -11    1    1    2    0    0 -0.63906174422E+02 -0.18535897728E+03 -0.28314543300E+03  0.34440279589E+03  0.00000000000E+00 0. -1.
         11    1    1    2    0    0  0.14795451174E+02 -0.31005576757E+02 -0.15331065874E+02  0.37620376744E+02  0.00000000000E+00 0.  1.
</event>
<event>
 7    1  0.2661133E-009  0.8901692E+02  0.7561462E-02  0.1305250E+00
          1   -1    0    0  501    0  0.00000000000E+00  0.00000000000E+00  0.50254760399E+03  0.50254760399E+03  0.00000000000E+00 0. -1.
         -1   -1    0    0    0  501 -0.00000000000E+00 -0.00000000000E+00 -0.24541573587E+02  0.24541573587E+02  0.00000000000E+00 0.  1.
         25    2    1    2    0    0 -0.17331720463E+02  0.78219413983E+01  0.26178295934E+03  0.29075618655E+03  0.12508905194E+03 0.  0.
          5    1    3    3  502    0  0.26205174642E+02  0.42209208846E+02  0.20608721338E+03  0.21203240415E+03  0.41800000000E+01 0.  1.
         -5    1    3    3    0  502 -0.43536895106E+02 -0.34387267448E+02  0.55695745965E+02  0.78723782408E+02  0.41800000000E+01 0.  1.
        -11    1    1    2    0    0 -0.11400645533E+02 -0.32639324027E+02  0.28490116659E+02  0.44799407795E+02  0.00000000000E+00 0.  1.
         11    1    1    2    0    0  0.28732365997E+02  0.24817382629E+02  0.18773295440E+03  0.19153358323E+03  0.00000000000E+00 0. -1.
</event>
<event>
 7    1  0.2661133E-009  0.3186060E+03  0.7561462E-02  0.1076293E+00
         -4   -1    0    0    0  501 -0.00000000000E+00  0.00000000000E+00  0.34065296369E+03  0.34065296369E+03  0.00000000000E+00 0.  1.
          4   -1    0    0  501    0  0.00000000000E+00 -0.00000000000E+00 -0.33751859188E+03  0.33751859188E+03  0.00000000000E+00 0. -1.
         25    2    1    2    0    0  0.23726252910E+03 -0.20630211845E+03  0.66603722370E+02  0.34487343460E+03  0.12509020052E+03 0.  0.
          5    1    3    3  502    0  0.16238241596E+03 -0.17807195497E+03  0.96103302562E+02  0.25948215223E+03  0.41800000000E+01 0.  1.
         -5    1    3    3    0  502  0.74880113137E+02 -0.28230163478E+02 -0.29499580192E+02  0.85391282371E+02  0.41800000000E+01 0.  1.
        -11    1    1    2    0    0 -0.21670438726E+02  0.32801296227E+02 -0.39172898967E+02  0.55498188820E+02  0.00000000000E+00 0.  1.
         11    1    1    2    0    0 -0.21559209037E+03  0.17350082222E+03 -0.24296451595E+02  0.27779993215E+03  0.00000000000E+00 0. -1.
</event>
<event>
 7    1  0.2661133E-009  0.8376376E+02  0.7561462E-02  0.1318697E+00
         -4   -1    0    0    0  501 -0.00000000000E+00  0.00000000000E+00  0.13273427687E+03  0.13273427687E+03  0.00000000000E+00 0.  1.
          4   -1    0    0  501    0  0.00000000000E+00 -0.00000000000E+00 -0.11066788213E+03  0.11066788213E+03  0.00000000000E+00 0. -1.
         25    2    1    2    0    0 -0.32222580494E+02  0.46508467810E+02  0.13631445605E+02  0.13797413015E+03  0.12509880898E+03 0.  0.
          5    1    3    3  502    0 -0.30961990041E+02  0.23680276784E+02 -0.53846471755E+02  0.66605669851E+02  0.41800000000E+01 0. -1.
         -5    1    3    3    0  502 -0.12605904530E+01  0.22828191026E+02  0.67477917360E+02  0.71368460296E+02  0.41800000000E+01 0. -1.
        -11    1    1    2    0    0  0.53549899153E+02  0.40219308612E+00  0.49261344539E+01  0.53777507001E+02  0.00000000000E+00 0.  1.
         11    1    1    2    0    0 -0.21327318659E+02 -0.46910660896E+02  0.35088146895E+01  0.51650521850E+02  0.00000000000E+00 0. -1.
</event>
<event>
 7    1  0.2661133E-009  0.2138683E+03  0.7561462E-02  0.1138539E+00
         -2   -1    0    0    0  501 -0.00000000000E+00  0.00000000000E+00  0.20317564085E+03  0.20317564085E+03  0.00000000000E+00 0.  1.
          2   -1    0    0  501    0  0.00000000000E+00 -0.00000000000E+00 -0.23898923060E+03  0.23898923060E+03  0.00000000000E+00 0. -1.
         25    2    1    2    0    0  0.15562773115E+03  0.11052466793E+03 -0.29772418464E+02  0.23015102812E+03  0.12508959158E+03 0.  0.
          5    1    3    3  502    0 -0.45091800089E+01  0.44625282939E+02  0.20922076197E+02  0.49668443242E+02  0.41800000000E+01 0. -1.
         -5    1    3    3    0  502  0.16013691115E+03  0.65899384992E+02 -0.50694494660E+02  0.18048258488E+03  0.41800000000E+01 0. -1.
        -11    1    1    2    0    0 -0.10170384860E+03 -0.11715653052E+03  0.97099992334E+01  0.15544648451E+03  0.00000000000E+00 0.  1.
         11    1    1    2    0    0 -0.53923882551E+02  0.66318625892E+01 -0.15751170515E+02  0.56567358815E+02  0.00000000000E+00 0. -1.
</event>
<event>
 7    1  0.2661133E-009  0.1039809E+03  0.7561462E-02  0.1272141E+00
         -2   -1    0    0    0  501 -0.00000000000E+00  0.00000000000E+00  0.42847747424E+03  0.42847747424E+03  0.00000000000E+00 0.  1.
          2   -1    0    0  501    0  0.00000000000E+00 -0.00000000000E+00 -0.44507680641E+02  0.44507680641E+02  0.00000000000E+00 0. -1.
         25    2    1    2    0    0 -0.18011980905E+02 -0.13947644997E+02  0.35048967361E+03  0.37283950098E+03  0.12508922386E+03 0.  0.
          5    1    3    3  502    0 -0.59265373134E+02  0.21883248304E+02  0.25499371609E+03  0.26273661460E+03  0.41800000000E+01 0.  1.
         -5    1    3    3    0  502  0.41253392228E+02 -0.35830893301E+02  0.95495957527E+02  0.11010288638E+03  0.41800000000E+01 0.  1.
        -11    1    1    2    0    0  0.49482210050E+02  0.26301400302E+02  0.55861313086E+01  0.56315696145E+02  0.00000000000E+00 0. -1.
         11    1    1    2    0    0 -0.31470229145E+02 -0.12353755306E+02  0.27893988678E+02  0.43829957756E+02  0.00000000000E+00 0.  1.
</event>
<event>
 7    1  0.2986651E-009  0.1290339E+03  0.7561462E-02  0.1228896E+00
          2   -1    0    0  501    0  0.00000000000E+00  0.00000000000E+00  0.11051334288E+04  0.11051334288E+04  0.00000000000E+00 0. -1.
         -2   -1    0    0    0  501 -0.00000000000E+00 -0.00000000000E+00 -0.25591569361E+02  0.25591569361E+02  0.00000000000E+00 0.  1.
         25    2    1    2    0    0 -0.11043141822E+03  0.10135996695E+02  0.78722970391E+03  0.80478264862E+03  0.12508664293E+03 0.  0.
          5    1    3    3  502    0 -0.31898795061E+02 -0.39858469905E+02  0.11205633158E+03  0.12320845992E+03  0.41800000000E+01 0.  1.
         -5    1    3    3    0  502 -0.78532623160E+02  0.49994466600E+02  0.67517337234E+03  0.68157418870E+03  0.41800000000E+01 0.  1.
        -11    1    1    2    0    0  0.92138218312E+02  0.11802805913E+01  0.29002427753E+03  0.30431057473E+03  0.00000000000E+00 0. -1.
         11    1    1    2    0    0  0.18293199909E+02 -0.11316277286E+02  0.22878779666E+01  0.21631774780E+02  0.00000000000E+00 0.  1.
</event>
<event>
 7    1  0.2661133E-009  0.1329198E+03  0.7561462E-02  0.1223187E+00
          2   -1    0    0  501    0  0.00000000000E+00  0.00000000000E+00  0.10494880539E+04  0.10494880539E+04  0.00000000000E+00 0. -1.
         -2   -1    0    0    0  501 -0.00000000000E+00 -0.00000000000E+00 -0.23145830214E+02  0.23145830214E+02  0.00000000000E+00 0.  1.
         25    2    1    2    0    0  0.59317585785E+02 -0.93906436746E+02  0.61864711421E+03  0.64086656923E+03  0.12509481519E+03 0.  0.
          5    1    3    3  502    0  0.79032984127E+02 -0.40523408081E+02  0.20706698145E+03  0.22534987551E+03  0.41800000000E+01 0.  1.
         -5    1    3    3    0  502 -0.19715398343E+02 -0.53383028665E+02  0.41158013276E+03  0.41551669373E+03  0.41800000000E+01 0.  1.
        -11    1    1    2    0    0  0.85152680384E+00  0.37119232583E+02  0.38779204169E+02  0.53687886915E+02  0.00000000000E+00 0.  1.
         11    1    1    2    0    0 -0.60169112589E+02  0.56787204163E+02  0.36891590534E+03  0.37807942800E+03  0.00000000000E+00 0. -1.
</event>
<event>
 7    1  0.2661133E-009  0.9484152E+02  0.7561462E-02  0.1291533E+00
         -1   -1    0    0    0  501 -0.00000000000E+00  0.00000000000E+00  0.26859961459E+03  0.26859961459E+03  0.00000000000E+00 0.  1.
          1   -1    0    0  501    0  0.00000000000E+00 -0.00000000000E+00 -0.55628793812E+02  0.55628793812E+02  0.00000000000E+00 0. -1.
         25    2    1    2    0    0 -0.40526946822E+02 -0.21692227010E+01  0.17059661760E+03  0.21540255200E+03  0.12509162452E+03 0.  0.
          5    1    3    3  502    0  0.15777205230E+02 -0.32852670723E+02  0.13907070608E+03  0.14382750734E+03  0.41800000000E+01 0.  1.
         -5    1    3    3    0  502 -0.56304152052E+02  0.30683448022E+02  0.31525911524E+02  0.71575044661E+02  0.41800000000E+01 0.  1.
        -11    1    1    2    0    0  0.73270467418E+01  0.38694500710E+02 -0.58560150182E+01  0.39815109080E+02  0.00000000000E+00 0. -1.
         11    1    1    2    0    0  0.33199900080E+02 -0.36525278009E+02  0.48230218197E+02  0.69010747324E+02  0.00000000000E+00 0.  1.
</event>
<event>
 7    1  0.3440958E-009  0.6629206E+02  0.7561462E-02  0.1373176E+00
          1   -1    0    0  501    0  0.00000000000E+00  0.00000000000E+00  0.32831899645E+03  0.32831899645E+03  0.00000000000E+00 0. -1.
         -1   -1    0    0    0  501 -0.00000000000E+00 -0.00000000000E+00 -0.48670407327E+02  0.48670407327E+02  0.00000000000E+00 0.  1.
         25    2    1    2    0    0 -0.58420072793E+01  0.14575793911E+02  0.62094293143E+02  0.14050921969E+03  0.12506221156E+03 0.  0.
          5    1    3    3  502    0  0.17120242557E+02 -0.35872745177E+01 -0.34816036368E+02  0.39186732858E+02  0.41800000000E+01 0.  1.
         -5    1    3    3    0  502 -0.22962249836E+02  0.18163068428E+02  0.96910329510E+02  0.10132248683E+03  0.41800000000E+01 0.  1.
        -11    1    1    2    0    0  0.22125297552E+02 -0.45209324339E+02  0.79183567203E+02  0.93826697235E+02  0.00000000000E+00 0.  1.
         11    1    1    2    0    0 -0.16283290273E+02  0.30633530429E+02  0.13837072877E+03  0.14265348685E+03  0.00000000000E+00 0. -1.
</event>
<event>
 7    1  0.2661133E-009  0.6246328E+02  0.7561462E-02  0.1387776E+00
         -1   -1    0    0    0  501 -0.00000000000E+00  0.00000000000E+00  0.16675988857E+03  0.16675988857E+03  0.00000000000E+00 0.  1.
          1   -1    0    0  501    0  0.00000000000E+00 -0.00000000000E+00 -0.14623650272E+03  0.14623650272E+03  0.00000000000E+00 0. -1.
         25    2    1    2    0    0  0.13400617211E+02  0.17561111452E+02  0.11986914055E+03  0.17465447778E+03  0.12509039362E+03 0.  0.
          5    1    3    3  502    0 -0.11749345487E+02  0.27152375269E+02  0.13847840356E+03  0.14166523658E+03  0.41800000000E+01 0.  1.
         -5    1    3    3    0  502  0.25149962698E+02 -0.95912638172E+01 -0.18609263012E+02  0.32989241203E+02  0.41800000000E+01 0.  1.
        -11    1    1    2    0    0 -0.38319817598E+02 -0.19149325560E+02 -0.79154525738E+01  0.43563281322E+02  0.00000000000E+00 0.  1.
         11    1    1    2    0    0  0.24919200387E+02  0.15882141074E+01 -0.91430302129E+02  0.94778632187E+02  0.00000000000E+00 0. -1.
</event>
<event>
 7    1  0.2661133E-009  0.1066863E+03  0.7561462E-02  0.1266832E+00
         -2   -1    0    0    0  501 -0.00000000000E+00  0.00000000000E+00  0.31203323960E+03  0.31203323960E+03  0.00000000000E+00 0.  1.
          2   -1    0    0  501    0  0.00000000000E+00 -0.00000000000E+00 -0.42779526997E+02  0.42779526997E+02  0.00000000000E+00 0. -1.
         25    2    1    2    0    0 -0.16723517592E+02 -0.25674683748E+02  0.11593186279E+03  0.17327257014E+03  0.12507726143E+03 0.  0.
          5    1    3    3  502    0 -0.14684040302E+02  0.45437828909E+02  0.80488498709E+02  0.93680777965E+02  0.41800000000E+01 0. -1.
         -5    1    3    3    0  502 -0.20394772901E+01 -0.71112512657E+02  0.35443364079E+02  0.79591792173E+02  0.41800000000E+01 0. -1.
        -11    1    1    2    0    0 -0.36936345673E+02  0.97735169137E+01  0.40972575017E+02  0.56022916454E+02  0.00000000000E+00 0. -1.
         11    1    1    2    0    0  0.53659863265E+02  0.15901166834E+02  0.11234927480E+03  0.12551728000E+03  0.00000000000E+00 0.  1.
</event>
<event>
 7    1  0.2661133E-009  0.8517864E+02  0.7561462E-02  0.1314966E+00
          1   -1    0    0  501    0  0.00000000000E+00  0.00000000000E+00  0.30042580652E+03  0.30042580652E+03  0.00000000000E+00 0. -1.
         -1   -1    0    0    0  501 -0.00000000000E+00 -0.00000000000E+00 -0.49954446291E+02  0.49954446291E+02  0.00000000000E+00 0.  1.
         25    2    1    2    0    0  0.43043157461E+02  0.15365884638E+02  0.17299905406E+03  0.21832301086E+03  0.12508973000E+03 0.  0.
          5    1    3    3  502    0  0.64806333738E+02 -0.27997880950E+00  0.17910646793E+03  0.19051650463E+03  0.41800000000E+01 0. -1.
         -5    1    3    3    0  502 -0.21763176277E+02  0.15645863447E+02 -0.61074138739E+01  0.27806506233E+02  0.41800000000E+01 0. -1.
        -11    1    1    2    0    0 -0.16162607679E+02 -0.39175782950E+02 -0.44485154128E+01  0.42611748921E+02  0.00000000000E+00 0.  1.
         11    1    1    2    0    0 -0.26880549782E+02  0.23809898312E+02  0.81920821586E+02  0.89445493031E+02  0.00000000000E+00 0. -1.
</event>
<event>
 7    1  0.2661133E-009  0.1089791E+03  0.7561462E-02  0.1262472E+00
          1   -1    0    0  501    0  0.00000000000E+00  0.00000000000E+00  0.11092777974E+04  0.11092777974E+04  0.00000000000E+00 0. -1.
         -1   -1    0    0    0  501 -0.00000000000E+00 -0.00000000000E+00 -0.48399286135E+02  0.48399286135E+02  0.00000000000E+00 0.  1.
         25    2    1    2    0    0 -0.78191511911E+02  0.36564028288E+02  0.10097695765E+04  0.10211426977E+04  0.12508785188E+03 0.  0.
          5    1    3    3  502    0 -0.12013231806E+01 -0.17129432052E+02  0.61841274879E+03  0.61866522521E+03  0.41800000000E+01 0. -1.
         -5    1    3    3    0  502 -0.76990188730E+02  0.53693460340E+02  0.39135682769E+03  0.40247747245E+03  0.41800000000E+01 0. -1.
        -11    1    1    2    0    0  0.88060697352E+02 -0.38766655624E+02  0.12980404632E+02  0.97087748510E+02  0.00000000000E+00 0.  1.
         11    1    1    2    0    0 -0.98691854407E+01  0.22026273357E+01  0.38128530173E+02  0.39446637392E+02  0.00000000000E+00 0. -1.
</event>
<event>
 7    1  0.2661133E-009  0.9779274E+02  0.7561462E-02  0.1285007E+00
          3   -1    0    0  501    0  0.00000000000E+00  0.00000000000E+00  0.10987314593E+03  0.10987314593E+03  0.00000000000E+00 0. -1.
         -3   -1    0    0    0  501 -0.00000000000E+00 -0.00000000000E+00 -0.30084821668E+03  0.30084821668E+03  0.00000000000E+00 0.  1.
         25    2    1    2    0    0  0.63780555528E+02  0.13693584487E+02  0.45555199912E+02  0.14824829842E+03  0.12508720249E+03 0.  0.
          5    1    3    3  502    0  0.64368424754E+02 -0.38582376000E+01  0.83880172797E+02  0.10588454038E+03  0.41800000000E+01 0.  1.
         -5    1    3    3    0  502 -0.58786922607E+00  0.17551822087E+02 -0.38324972885E+02  0.42363758042E+02  0.41800000000E+01 0.  1.
        -11    1    1    2    0    0 -0.59579161847E+02 -0.49133704077E+02 -0.17614551698E+03  0.19233055024E+03  0.00000000000E+00 0. -1.
         11    1    1    2    0    0 -0.42013936816E+01  0.35440119590E+02 -0.60384753681E+02  0.70142513944E+02  0.00000000000E+00 0.  1.
</event>
<event>
 7    1  0.2661133E-009  0.5685363E+03  0.7561462E-02  0.9972923E-01
          2   -1    0    0  501    0  0.00000000000E+00  0.00000000000E+00  0.46498693999E+03  0.46498693999E+03  0.00000000000E+00 0.  1.
         -2   -1    0    0    0  501 -0.00000000000E+00 -0.00000000000E+00 -0.73306246546E+03  0.73306246546E+03  0.00000000000E+00 0. -1.
         25    2    1    2    0    0 -0.43002768576E+03 -0.36943497506E+03 -0.45958066434E+02  0.58237892404E+03  0.12508819281E+03 0.  0.
          5    1    3    3  502    0 -0.34183712245E+03 -0.32208819284E+03 -0.80230153161E+02  0.47649530126E+03  0.41800000000E+01 0.  1.
         -5    1    3    3    0  502 -0.88190563307E+02 -0.47346782217E+02  0.34272086727E+02  0.10588362277E+03  0.41800000000E+01 0.  1.
        -11    1    1    2    0    0  0.42144196315E+03  0.35851007486E+03 -0.23055427367E+03  0.59941477725E+03  0.00000000000E+00 0. -1.
         11    1    1    2    0    0  0.85857226026E+01  0.10924900197E+02  0.84368146247E+01  0.16255704166E+02  0.00000000000E+00 0.  1.
</event>
<event>
 7    1  0.2661133E-009  0.1792291E+03  0.7561462E-02  0.1168551E+00
          2   -1    0    0  501    0  0.00000000000E+00  0.00000000000E+00  0.10743352787E+04  0.10743352787E+04  0.00000000000E+00 0. -1.
         -2   -1    0    0    0  501 -0.00000000000E+00 -0.00000000000E+00 -0.50733868249E+02  0.50733868249E+02  0.00000000000E+00 0.  1.
         25    2    1    2    0    0  0.15659216358E+02 -0.15689464774E+03  0.84687044646E+03  0.87045855597E+03  0.12508957997E+03 0.  0.
          5    1    3    3  502    0 -0.28051807927E+02  0.81473369882E+01  0.15813625189E+03  0.16086587454E+03  0.41800000000E+01 0.  1.
         -5    1    3    3    0  502  0.43711024285E+02 -0.16504198473E+03  0.68873419457E+03  0.70959268143E+03  0.41800000000E+01 0.  1.
        -11    1    1    2    0    0  0.21654550984E+01  0.19600107314E+02  0.87971818945E+02  0.90154835317E+02  0.00000000000E+00 0. -1.
         11    1    1    2    0    0 -0.17824671457E+02  0.13729454043E+03  0.88759145051E+02  0.16445575567E+03  0.00000000000E+00 0.  1.
</event>
<event>
 7    1  0.2661133E-009  0.2096430E+03  0.7561462E-02  0.1141849E+00
          1   -1    0    0  501    0  0.00000000000E+00  0.00000000000E+00  0.64497464437E+03  0.64497464437E+03  0.00000000000E+00 0. -1.
         -1   -1    0    0    0  501 -0.00000000000E+00 -0.00000000000E+00 -0.14702278920E+03  0.14702278920E+03  0.00000000000E+00 0.  1.
         25    2    1    2    0    0  0.17898812594E+03  0.16451969729E+02  0.54236865666E+03  0.58490939028E+03  0.12509124100E+03 0.  0.
          5    1    3    3  502    0  0.18405876184E+03  0.44635801486E+02  0.45458399548E+03  0.49247747555E+03  0.41800000000E+01 0. -1.
         -5    1    3    3    0  502 -0.50706358999E+01 -0.28183831756E+02  0.87784661180E+02  0.92431914723E+02  0.41800000000E+01 0. -1.
        -11    1    1    2    0    0 -0.17741456124E+02  0.28446441405E+02 -0.16604815318E+02  0.37412286562E+02  0.00000000000E+00 0.  1.
         11    1    1    2    0    0 -0.16124666981E+03 -0.44898411134E+02 -0.27811986171E+02  0.16967575673E+03  0.00000000000E+00 0. -1.
</event>
<event>
 7    1  0.2661133E-009  0.1757751E+03  0.7561462E-02  0.1171956E+00
          3   -1    0    0  501    0  0.00000000000E+00  0.00000000000E+00  0.95715550978E+02  0.95715550978E+02  0.00000000000E+00 0. -1.
         -3   -1    0    0    0  501 -0.00000000000E+00 -0.00000000000E+00 -0.41298959453E+03  0.41298959453E+03  0.00000000000E+00 0.  1.
         25    2    1    2    0    0  0.12909563847E+03 -0.74926556747E+02 -0.25745624217E+03  0.32281689701E+03  0.12508940635E+03 0.  0.
          5    1    3    3  502    0  0.14627446657E+03 -0.59572961322E+02 -0.25402449228E+03  0.29915058477E+03  0.41800000000E+01 0.  1.
         -5    1    3    3    0  502 -0.17178828102E+02 -0.15353595425E+02 -0.34317498945E+01  0.23666312234E+02  0.41800000000E+01 0.  1.
        -11    1    1    2    0    0 -0.75360689994E+02 -0.30704173947E+01 -0.50384913252E+02  0.90704468152E+02  0.00000000000E+00 0.  1.
         11    1    1    2    0    0 -0.53734948476E+02  0.77996974142E+02 -0.94328881252E+01  0.95183780348E+02  0.00000000000E+00 0. -1.
</event>
<event>
 6    1  0.2661133E-009  0.1011509E+03  0.7561462E-02  0.1277894E+00
          1   -1    0    0  501    0  0.00000000000E+00  0.00000000000E+00  0.51544467735E+02  0.51544467735E+02  0.00000000000E+00 0. -1.
         -1   -1    0    0    0  501 -0.00000000000E+00 -0.00000000000E+00 -0.26257867515E+03  0.26257867515E+03  0.00000000000E+00 0.  1.
          5    1    1    2  502    0 -0.22024553332E+02  0.83719755131E+02 -0.66970460705E+02  0.10952896127E+03  0.41800000000E+01 0. -1.
         -5    1    1    2    0  502 -0.20335018650E+02 -0.45967101880E+02 -0.48502349270E+02  0.69974550541E+02  0.41800000000E+01 0. -1.
        -11    1    1    2    0    0  0.73378578588E+00 -0.19881252510E+02  0.81091582477E+01  0.21483972873E+02  0.00000000000E+00 0. -1.
         11    1    1    2    0    0  0.41625786196E+02 -0.17871400741E+02 -0.10367055568E+03  0.11313565820E+03  0.00000000000E+00 0.  1.
</event>
<event>
 7    1  0.2661133E-009  0.2201553E+03  0.7561462E-02  0.1133767E+00
         -2   -1    0    0    0  501 -0.00000000000E+00  0.00000000000E+00  0.62714039297E+02  0.62714039297E+02  0.00000000000E+00 0.  1.
          2   -1    0    0  501    0  0.00000000000E+00 -0.00000000000E+00 -0.89968494958E+03  0.89968494958E+03  0.00000000000E+00 0. -1.
         25    2    1    2    0    0  0.10332657543E+03  0.18400485443E+03 -0.41606004408E+03  0.48299848770E+03  0.12508961266E+03 0.  0.
          5    1    3    3  502    0  0.74740565272E+01  0.17889081285E+02  0.48652992454E+01  0.20421172516E+02  0.41800000000E+01 0.  1.
         -5    1    3    3    0  502  0.95852518907E+02  0.16611577314E+03 -0.42092534333E+03  0.46257731519E+03  0.41800000000E+01 0.  1.
        -11    1    1    2    0    0 -0.98217607918E+02 -0.86119344797E+02 -0.22008843048E+03  0.25593389241E+03  0.00000000000E+00 0.  1.
         11    1    1    2    0    0 -0.51089675163E+01 -0.97885509631E+02 -0.20082243571E+03  0.22346660876E+03  0.00000000000E+00 0. -1.
</event>
<event>
 7    1  0.2661133E-009  0.1024166E+03  0.7561462E-02  0.1275295E+00
         -2   -1    0    0    0  501 -0.00000000000E+00  0.00000000000E+00  0.93891459976E+02  0.93891459976E+02  0.00000000000E+00 0.  1.
          2   -1    0    0  501    0  0.00000000000E+00 -0.00000000000E+00 -0.16856512464E+03  0.16856512464E+03  0.00000000000E+00 0. -1.
         25    2    1    2    0    0  0.26028054930E+02 -0.67982515027E+01  0.19890167838E+02  0.12948717462E+03  0.12509050223E+03 0.  0.
          5    1    3    3  502    0 -0.39641127690E+02  0.21919992061E+02 -0.17253116091E+02  0.48652312087E+02  0.41800000000E+01 0. -1.
         -5    1    3    3    0  502  0.65669182620E+02 -0.28718243564E+02  0.37143283930E+02  0.80834862531E+02  0.41800000000E+01 0. -1.
        -11    1    1    2    0    0 -0.43086130799E+02 -0.26181222836E+02 -0.76648366802E+02  0.91743355235E+02  0.00000000000E+00 0. -1.
         11    1    1    2    0    0  0.17058075869E+02  0.32979474339E+02 -0.17915465701E+02  0.41226054763E+02  0.00000000000E+00 0.  1.
</event>
<event>
 7    1  0.2661133E-009  0.1332870E+03  0.7561462E-02  0.1222658E+00
          1   -1    0    0  501    0  0.00000000000E+00  0.00000000000E+00  0.12152512905E+03  0.12152512905E+03  0.00000000000E+00 0. -1.
         -1   -1    0    0    0  501 -0.00000000000E+00 -0.00000000000E+00 -0.25666121887E+03  0.25666121887E+03  0.00000000000E+00 0.  1.
         25    2    1    2    0    0  0.34992139542E+02  0.11087844044E+03  0.15187318667E+02  0.17145343787E+03  0.12508856192E+03 0.  0.
          5    1    3    3  502    0  0.12078062790E+02  0.10895803629E+03 -0.35772341785E+02  0.11539006070E+03  0.41800000000E+01 0.  1.
         -5    1    3    3    0  502  0.22914076752E+02  0.19204041514E+01  0.50959660452E+02  0.56063377162E+02  0.41800000000E+01 0.  1.
        -11    1    1    2    0    0 -0.49566274009E+02 -0.48167015796E+02 -0.11257941126E+03  0.13210223605E+03  0.00000000000E+00 0.  1.
         11    1    1    2    0    0  0.14574134468E+02 -0.62711424644E+02 -0.37743997227E+02  0.74630674009E+02  0.00000000000E+00 0. -1.
</event>
<event>
 7    1  0.2661133E-009  0.1570985E+03  0.7561462E-02  0.1192012E+00
         -2   -1    0    0    0  501 -0.00000000000E+00  0.00000000000E+00  0.12331257506E+03  0.12331257506E+03  0.00000000000E+00 0.  1.
          2   -1    0    0  501    0  0.00000000000E+00 -0.00000000000E+00 -0.27064061427E+03  0.27064061427E+03  0.00000000000E+00 0. -1.
         25    2    1    2    0    0 -0.10323083419E+03  0.10413993892E+03 -0.81693767147E+02  0.20933930882E+03  0.12508933856E+03 0.  0.
          5    1    3    3  502    0 -0.37381921789E+02  0.12407110688E+01 -0.78506132618E+02  0.87061086021E+02  0.41800000000E+01 0.  1.
         -5    1    3    3    0  502 -0.65848912398E+02  0.10289922786E+03 -0.31876345293E+01  0.12227822280E+03  0.41800000000E+01 0.  1.
        -11    1    1    2    0    0  0.68654585212E+02 -0.35090929482E+02  0.84956909986E+01  0.77569337809E+02  0.00000000000E+00 0.  1.
         11    1    1    2    0    0  0.34576248976E+02 -0.69049009442E+02 -0.74129963063E+02  0.10704454270E+03  0.00000000000E+00 0. -1.
</event>
<event>
 7    1  0.2661133E-009  0.1012175E+03  0.7561462E-02  0.1277756E+00
         -1   -1    0    0    0  501 -0.00000000000E+00  0.00000000000E+00  0.22690814836E+02  0.22690814836E+02  0.00000000000E+00 0.  1.
          1   -1    0    0  501    0  0.00000000000E+00 -0.00000000000E+00 -0.73255589703E+03  0.73255589703E+03  0.00000000000E+00 0. -1.
         25    2    1    2    0    0  0.48649346346E+02 -0.19478849451E+02 -0.52349515898E+03  0.54077502818E+03  0.12507703688E+03 0.  0.
          5    1    3    3  502    0  0.79368359269E+02 -0.33109859039E+02 -0.23457863234E+03  0.24988038412E+03  0.41800000000E+01 0.  1.
         -5    1    3    3    0  502 -0.30719012924E+02  0.13631009588E+02 -0.28891652664E+03  0.29089464407E+03  0.41800000000E+01 0.  1.
        -11    1    1    2    0    0 -0.58204417807E+02 -0.27547589076E+01 -0.52500214699E+02  0.78432235033E+02  0.00000000000E+00 0.  1.
         11    1    1    2    0    0  0.95550714610E+01  0.22233608359E+02 -0.13386970851E+03  0.13603944865E+03  0.00000000000E+00 0. -1.
</event>
<event>
 7    1  0.2661133E-009  0.1010846E+03  0.7561462E-02  0.1278032E+00
         -3   -1    0    0    0  501 -0.00000000000E+00  0.00000000000E+00  0.29104015523E+03  0.29104015523E+03  0.00000000000E+00 0.  1.
          3   -1    0    0  501    0  0.00000000000E+00 -0.00000000000E+00 -0.42500493752E+02  0.42500493752E+02  0.00000000000E+00 0. -1.
         25    2    1    2    0    0  0.15076750309E+02  0.52079284387E+01  0.11869206652E+03  0.17317255896E+03  0.12508596086E+03 0.  0.
          5    1    3    3  502    0  0.52473592308E+02  0.46496779974E+02  0.65877141427E+02  0.96294852408E+02  0.41800000000E+01 0. -1.
         -5    1    3    3    0  502 -0.37396841999E+02 -0.41288851535E+02  0.52814925095E+02  0.76877706557E+02  0.41800000000E+01 0. -1.
        -11    1    1    2    0    0 -0.26630901910E+02 -0.35079227606E+02  0.11844905810E+03  0.12637221415E+03  0.00000000000E+00 0.  1.
         11    1    1    2    0    0  0.11554151601E+02  0.29871299167E+02  0.11398536857E+02  0.33995875862E+02  0.00000000000E+00 0. -1.
</event>
<event>
 7    1  0.2661133E-009  0.1219553E+03  0.7561462E-02  0.1239906E+00
          1   -1    0    0  501    0  0.00000000000E+00  0.00000000000E+00  0.16822585388E+03  0.16822585388E+03  0.00000000000E+00 0. -1.
         -1   -1    0    0    0  501 -0.00000000000E+00 -0.00000000000E+00 -0.18627078761E+03  0.18627078761E+03  0.00000000000E+00 0.  1.
         25    2    1    2    0    0 -0.44534886224E+01 -0.11082496320E+03 -0.87182100454E+02  0.18854888784E+03  0.12509180004E+03 0.  0.
          5    1    3    3  502    0  0.15639037300E+02 -0.45528924804E+02 -0.10690518195E+03  0.11731859533E+03  0.41800000000E+01 0. -1.
         -5    1    3    3    0  502 -0.20092525922E+02 -0.65296038395E+02  0.19723081497E+02  0.71230292515E+02  0.41800000000E+01 0. -1.
        -11    1    1    2    0    0  0.30811033876E+02  0.84284005228E+02  0.27895579073E+01  0.89782487040E+02  0.00000000000E+00 0.  1.
         11    1    1    2    0    0 -0.26357545253E+02  0.26540957971E+02  0.66347608818E+02  0.76165266609E+02  0.00000000000E+00 0. -1.
</event>
<event>
 6    1  0.2661133E-009  0.1171532E+03  0.7561462E-02  0.1247869E+00
         -1   -1    0    0    0  501 -0.00000000000E+00  0.00000000000E+00  0.11628516689E+03  0.11628516689E+03  0.00000000000E+00 0.  1.
          1   -1    0    0  501    0  0.00000000000E+00 -0.00000000000E+00 -0.22001650399E+03  0.22001650399E+03  0.00000000000E+00 0. -1.
          5    1    1    2  502    0 -0.17557162426E+02  0.39165923132E+02 -0.22932179725E+02  0.48842407334E+02  0.41800000000E+01 0.  1.
         -5    1    1    2    0  502  0.98737782276E+02 -0.27879995579E+02 -0.12189209660E+03  0.15937879224E+03  0.41800000000E+01 0.  1.
        -11    1    1    2    0    0 -0.15428569353E+02 -0.16438891586E+02 -0.25717306558E+02  0.34200259728E+02  0.00000000000E+00 0. -1.
         11    1    1    2    0    0 -0.65752050497E+02  0.51529640331E+01  0.66810245793E+02  0.93880211578E+02  0.00000000000E+00 0.  1.
</event>
<event>
 7    1  0.2661133E-009  0.9820656E+02  0.7561462E-02  0.1284113E+00
          2   -1    0    0  501    0  0.00000000000E+00  0.00000000000E+00  0.22030944843E+04  0.22030944843E+04  0.00000000000E+00 0. -1.
         -2   -1    0    0    0  501 -0.00000000000E+00 -0.00000000000E+00 -0.12889148681E+02  0.12889148681E+02  0.00000000000E+00 0.  1.
         25    2    1    2    0    0  0.71329189087E+02  0.79624600570E+01  0.18768522779E+04  0.18823849659E+04  0.12508969861E+03 0.  0.
          5    1    3    3  502    0  0.67324026436E+02  0.34648420317E+02  0.17837402285E+04  0.17853514256E+04  0.41800000000E+01 0. -1.
         -5    1    3    3    0  502  0.40051626512E+01 -0.26685960260E+02  0.93112049400E+02  0.97033540316E+02  0.41800000000E+01 0. -1.
        -11    1    1    2    0    0  0.50916339334E+01  0.13057736793E+02  0.44731053585E+01  0.14711828500E+02  0.00000000000E+00 0.  1.
         11    1    1    2    0    0 -0.76420823021E+02 -0.21020196850E+02  0.30887995233E+03  0.31888683858E+03  0.00000000000E+00 0. -1.
</event>
<event>
 7    1  0.2661133E-009  0.2591152E+03  0.7561462E-02  0.1107676E+00
          2   -1    0    0  501    0  0.00000000000E+00  0.00000000000E+00  0.25584370525E+03  0.25584370525E+03  0.00000000000E+00 0.  1.
         -2   -1    0    0    0  501 -0.00000000000E+00 -0.00000000000E+00 -0.43266796171E+03  0.43266796171E+03  0.00000000000E+00 0. -1.
         25    2    1    2    0    0 -0.15517509896E+02  0.25364909573E+03 -0.28053586439E+03  0.39865449612E+03  0.12508548755E+03 0.  0.
          5    1    3    3  502    0  0.27058776721E+01  0.24122878508E+03 -0.19501476396E+03  0.31023681130E+03  0.41800000000E+01 0.  1.
         -5    1    3    3    0  502 -0.18223387568E+02  0.12420310651E+02 -0.85521100430E+02  0.88417684825E+02  0.41800000000E+01 0.  1.
        -11    1    1    2    0    0  0.12481974829E+01 -0.13420344277E+03  0.10363016987E+03  0.16956218375E+03  0.00000000000E+00 0.  1.
         11    1    1    2    0    0  0.14269312413E+02 -0.11944565295E+03  0.81438060794E-01  0.12029498709E+03  0.00000000000E+00 0. -1.
</event>
<event>
 7    1  0.2661133E-009  0.1366474E+03  0.7561462E-02  0.1217913E+00
          2   -1    0    0  501    0  0.00000000000E+00  0.00000000000E+00  0.13591872613E+03  0.13591872613E+03  0.00000000000E+00 0. -1.
         -2   -1    0    0    0  501 -0.00000000000E+00 -0.00000000000E+00 -0.33258040435E+03  0.33258040435E+03  0.00000000000E+00 0.  1.
         25    2    1    2    0    0  0.49500698406E+02  0.38591993640E+02  0.77210956994E+02  0.15983590588E+03  0.12508526617E+03 0.  0.
          5    1    3    3  502    0  0.87930601246E+02  0.39522909980E+02  0.35140265956E+02  0.10269450686E+03  0.41800000000E+01 0. -1.
         -5    1    3    3    0  502 -0.38429902839E+02 -0.93091633995E+00  0.42070691039E+02  0.57141399020E+02  0.41800000000E+01 0. -1.
        -11    1    1    2    0    0  0.27408111908E+02 -0.53202698412E+02 -0.15675396721E+03  0.16779016047E+03  0.00000000000E+00 0.  1.
         11    1    1    2    0    0 -0.76908810314E+02  0.14610704772E+02 -0.11711866801E+03  0.14087306412E+03  0.00000000000E+00 0. -1.
</event>
<event>
 7    1  0.2661133E-009  0.1083315E+03  0.7561462E-02  0.1263691E+00
         -2   -1    0    0    0  501 -0.00000000000E+00  0.00000000000E+00  0.28267290910E+02  0.28267290910E+02  0.00000000000E+00 0.  1.
          2   -1    0    0  501    0  0.00000000000E+00 -0.00000000000E+00 -0.69889448601E+03  0.69889448601E+03  0.00000000000E+00 0. -1.
         25    2    1    2    0    0  0.22424683719E+02 -0.78560087897E+02 -0.44462631976E+03  0.46905202713E+03  0.12507072432E+03 0.  0.
          5    1    3    3  502    0  0.89497630246E+01  0.14836468573E+02 -0.26939720913E+03  0.26998619917E+03  0.41800000000E+01 0.  1.
         -5    1    3    3    0  502  0.13474920694E+02 -0.93396556470E+02 -0.17522911063E+03  0.19906582796E+03  0.41800000000E+01 0.  1.
        -11    1    1    2    0    0  0.20372914000E+02  0.46943144315E+02 -0.18201956424E+03  0.18907627082E+03  0.00000000000E+00 0. -1.
         11    1    1    2    0    0 -0.42797597719E+02  0.31616943582E+02 -0.43981311108E+02  0.69033478970E+02  0.00000000000E+00 0.  1.
</event>
<event>
 7    1  0.2661133E-009  0.1571705E+03  0.7561462E-02  0.1191929E+00
          1   -1    0    0  501    0  0.00000000000E+00  0.00000000000E+00  0.57495141026E+03  0.57495141026E+03  0.00000000000E+00 0. -1.
         -1   -1    0    0    0  501 -0.00000000000E+00 -0.00000000000E+00 -0.80717204767E+02  0.80717204767E+02  0.00000000000E+00 0.  1.
         25    2    1    2    0    0  0.12107596169E+03 -0.79161643143E+01  0.42517572647E+02  0.17937926389E+03  0.12508845739E+03 0.  0.
          5    1    3    3  502    0  0.11485765576E+03 -0.54130933393E+02  0.36456873017E+02  0.13217040148E+03  0.41800000000E+01 0.  1.
         -5    1    3    3    0  502  0.62183059235E+01  0.46214769079E+02  0.60606996305E+01  0.47208862405E+02  0.41800000000E+01 0.  1.
        -11    1    1    2    0    0 -0.27784382115E+02 -0.28988929421E+02  0.22226615266E+03  0.22586405765E+03  0.00000000000E+00 0. -1.
         11    1    1    2    0    0 -0.93291579573E+02  0.36905093735E+02  0.22945048018E+03  0.25042529348E+03  0.00000000000E+00 0.  1.
</event>
<event>
 7    1  0.2661133E-009  0.1299645E+03  0.7561462E-02  0.1227508E+00
          2   -1    0    0  501    0  0.00000000000E+00  0.00000000000E+00  0.20377720332E+03  0.20377720332E+03  0.00000000000E+00 0. -1.
         -2   -1    0    0    0  501 -0.00000000000E+00 -0.00000000000E+00 -0.10096623950E+03  0.10096623950E+03  0.00000000000E+00 0.  1.
         25    2    1    2    0    0  0.47709440706E+02 -0.69702669906E+02  0.15052622393E+02  0.15168549790E+03  0.12508899195E+03 0.  0.
          5    1    3    3  502    0 -0.17336944405E+02 -0.81554421122E+02 -0.11268543168E+01  0.83489133703E+02  0.41800000000E+01 0. -1.
         -5    1    3    3    0  502  0.65046385111E+02  0.11851751216E+02  0.16179476710E+02  0.68196364195E+02  0.41800000000E+01 0. -1.
        -11    1    1    2    0    0  0.16351336898E+02  0.11790696923E+01 -0.86573805364E+01  0.18539327427E+02  0.00000000000E+00 0.  1.
         11    1    1    2    0    0 -0.64060777604E+02  0.68523600214E+02  0.96415721959E+02  0.13451861750E+03  0.00000000000E+00 0. -1.
</event>
<event>
 7    1  0.2661133E-009  0.1766624E+03  0.7561462E-02  0.1171073E+00
         -2   -1    0    0    0  501 -0.00000000000E+00  0.00000000000E+00  0.27936490088E+02  0.27936490088E+02  0.00000000000E+00 0.  1.
          2   -1    0    0  501    0  0.00000000000E+00 -0.00000000000E+00 -0.19883569773E+04  0.19883569773E+04  0.00000000000E+00 0. -1.
         25    2    1    2    0    0  0.15324910370E+03  0.19104698977E+02 -0.16134921754E+04  0.16256854768E+04  0.12508394020E+03 0.  0.
          5    1    3    3  502    0  0.16060153465E+03 -0.16262263054E+02 -0.12524457252E+04  0.12628123697E+04  0.41800000000E+01 0.  1.
         -5    1    3    3    0  502 -0.73524309504E+01  0.35366962031E+02 -0.36104645024E+03  0.36287310713E+03  0.41800000000E+01 0.  1.
        -11    1    1    2    0    0 -0.13525546320E+03 -0.10858915877E+02 -0.34499561397E+03  0.37072082494E+03  0.00000000000E+00 0. -1.
         11    1    1    2    0    0 -0.17993640497E+02 -0.82457831003E+01 -0.19326978556E+01  0.19887165667E+02  0.00000000000E+00 0.  1.
</event>
<event>
 7    1  0.3556334E-009  0.1463528E+03  0.7561462E-02  0.1205028E+00
          1   -1    0    0  501    0  0.00000000000E+00  0.00000000000E+00  0.70581724295E+03  0.70581724295E+03  0.00000000000E+00 0. -1.
         -1   -1    0    0    0  501 -0.00000000000E+00 -0.00000000000E+00 -0.39517865974E+02  0.39517865974E+02  0.00000000000E+00 0.  1.
         25    2    1    2    0    0  0.11998104642E+03  0.30459639719E+02  0.29472938997E+03  0.34327121442E+03  0.12508585926E+03 0.  0.
          5    1    3    3  502    0  0.14046179591E+03  0.35759433043E+02  0.20572212477E+03  0.25168893138E+03  0.41800000000E+01 0. -1.
         -5    1    3    3    0  502 -0.20480749484E+02 -0.52997933232E+01  0.89007265199E+02  0.91582283041E+02  0.41800000000E+01 0. -1.
        -11    1    1    2    0    0 -0.63440954438E+02 -0.35998681317E+01  0.30142686671E+03  0.30805173222E+03  0.00000000000E+00 0. -1.
         11    1    1    2    0    0 -0.56540091983E+02 -0.26859771588E+02  0.70143120294E+02  0.94012162276E+02  0.00000000000E+00 0.  1.
</event>
<event>
 7    1  0.2661133E-009  0.9788567E+02  0.7561462E-02  0.1284806E+00
          3   -1    0    0  501    0  0.00000000000E+00  0.00000000000E+00  0.33722627021E+03  0.33722627021E+03  0.00000000000E+00 0. -1.
         -3   -1    0    0    0  501 -0.00000000000E+00 -0.00000000000E+00 -0.49777627369E+02  0.49777627369E+02  0.00000000000E+00 0.  1.
         25    2    1    2    0    0  0.29187379520E+02  0.35181284097E+02  0.23998812584E+03  0.27446414866E+03  0.12508653996E+03 0.  0.
          5    1    3    3  502    0 -0.58119976576E+01  0.68470494490E+02  0.20032442090E+03  0.21182382761E+03  0.41800000000E+01 0. -1.
         -5    1    3    3    0  502  0.34999377178E+02 -0.33289210394E+02  0.39663704941E+02  0.62640321049E+02  0.41800000000E+01 0. -1.
        -11    1    1    2    0    0 -0.44726189826E+02 -0.42110657164E+02  0.64070480138E+02  0.88762412812E+02  0.00000000000E+00 0. -1.
         11    1    1    2    0    0  0.15538810306E+02  0.69293730667E+01 -0.16609963142E+02  0.23777336108E+02  0.00000000000E+00 0.  1.
</event>
<event>
 7    1  0.2661133E-009  0.1104415E+03  0.7561462E-02  0.1259754E+00
         -2   -1    0    0    0  501 -0.00000000000E+00  0.00000000000E+00  0.25681566980E+02  0.25681566980E+02  0.00000000000E+00 0.  1.
          2   -1    0    0  501    0  0.00000000000E+00 -0.00000000000E+00 -0.50118237857E+03  0.50118237857E+03  0.00000000000E+00 0. -1.
         25    2    1    2    0    0  0.41525294040E+02  0.21664403559E+01 -0.26056387203E+03  0.29201100052E+03  0.12509136463E+03 0.  0.
          5    1    3    3  502    0  0.79897852761E+02  0.27747940108E+02 -0.18363998170E+03  0.20222445533E+03  0.41800000000E+01 0.  1.
         -5    1    3    3    0  502 -0.38372558721E+02 -0.25581499752E+02 -0.76923890337E+02  0.89786545189E+02  0.41800000000E+01 0.  1.
        -11    1    1    2    0    0 -0.47659869868E+02  0.30547715879E+02 -0.97012219260E+02  0.11232095453E+03  0.00000000000E+00 0.  1.
         11    1    1    2    0    0  0.61345758280E+01 -0.32714156235E+02 -0.11792472030E+03  0.12253199050E+03  0.00000000000E+00 0. -1.
</event>
<event>
 7    1  0.2661133E-009  0.1183728E+03  0.7561462E-02  0.1245806E+00
         -1   -1    0    0    0  501 -0.00000000000E+00  0.00000000000E+00  0.20867574091E+03  0.20867574091E+03  0.00000000000E+00 0.  1.
          1   -1    0    0  501    0  0.00000000000E+00 -0.00000000000E+00 -0.17321612673E+03  0.17321612673E+03  0.00000000000E+00 0. -1.
         25    2    1    2    0    0 -0.81982531466E+02 -0.82478339679E+01 -0.11371141601E+03  0.18806077496E+03  0.12508959476E+03 0.  0.
          5    1    3    3  502    0 -0.99361703861E+02 -0.42233246615E+02 -0.65211098490E+02  0.12619966355E+03  0.41800000000E+01 0. -1.
         -5    1    3    3    0  502  0.17379172394E+02  0.33985412647E+02 -0.48500317517E+02  0.61861111412E+02  0.41800000000E+01 0. -1.
        -11    1    1    2    0    0  0.61300662622E+02  0.22372544201E+02  0.15494806703E+03  0.16812853847E+03  0.00000000000E+00 0.  1.
         11    1    1    2    0    0  0.20681868844E+02 -0.14124710233E+02 -0.57770368433E+01  0.25702554207E+02  0.00000000000E+00 0. -1.
</event>
<event>
 7    1  0.2861590E-009  0.1229397E+03  0.7561462E-02  0.1238325E+00
          2   -1    0    0  501    0  0.00000000000E+00  0.00000000000E+00  0.39710734198E+03  0.39710734198E+03  0.00000000000E+00 0.  1.
         -2   -1    0    0    0  501 -0.00000000000E+00 -0.00000000000E+00 -0.54965815942E+02  0.54965815942E+02  0.00000000000E+00 0. -1.
         25    2    1    2    0    0 -0.34990149715E+02 -0.75479879496E+02  0.27033608672E+03  0.30928389394E+03  0.12511356634E+03 0.  0.
          5    1    3    3  502    0  0.12203050525E+02 -0.96380070682E+02  0.19452653161E+03  0.21747661108E+03  0.41800000000E+01 0. -1.
         -5    1    3    3    0  502 -0.47193200240E+02  0.20900191186E+02  0.75809555108E+02  0.91807282860E+02  0.41800000000E+01 0. -1.
        -11    1    1    2    0    0  0.47751582438E+02  0.56356256815E+02  0.72017165250E+01  0.74216615582E+02  0.00000000000E+00 0. -1.
         11    1    1    2    0    0 -0.12761432723E+02  0.19123622681E+02  0.64603722792E+02  0.68572648397E+02  0.00000000000E+00 0.  1.
</event>
<event>
 7    1  0.2661133E-009  0.9078824E+02  0.7561462E-02  0.1300954E+00
         -1   -1    0    0    0  501 -0.00000000000E+00  0.00000000000E+00  0.28424345073E+03  0.28424345073E+03  0.00000000000E+00 0.  1.
          1   -1    0    0  501    0  0.00000000000E+00 -0.00000000000E+00 -0.56172214417E+02  0.56172214417E+02  0.00000000000E+00 0. -1.
         25    2    1    2    0    0 -0.31922461571E+02  0.56571919883E+02  0.12334344738E+03  0.18730871763E+03  0.12510605108E+03 0.  0.
          5    1    3    3  502    0 -0.98771216413E+01 -0.11082019356E+01  0.12493312987E+03  0.12539754775E+03  0.41800000000E+01 0. -1.
         -5    1    3    3    0  502 -0.22045339930E+02  0.57680121819E+02 -0.15896824888E+01  0.61911169882E+02  0.41800000000E+01 0. -1.
        -11    1    1    2    0    0  0.42849648340E+02 -0.75635610370E+02  0.68244957953E+02  0.11051792707E+03  0.00000000000E+00 0. -1.
         11    1    1    2    0    0 -0.10927186768E+02  0.19063690486E+02  0.36482830985E+02  0.42589020443E+02  0.00000000000E+00 0.  1.
</event>
<event>
 7    1  0.2661133E-009  0.9670941E+02  0.7561462E-02  0.1287372E+00
         -2   -1    0    0    0  501 -0.00000000000E+00  0.00000000000E+00  0.92550439586E+02  0.92550439586E+02  0.00000000000E+00 0.  1.
          2   -1    0    0  501    0  0.00000000000E+00 -0.00000000000E+00 -0.16046451089E+03  0.16046451089E+03  0.00000000000E+00 0. -1.
         25    2    1    2    0    0 -0.28401909395E+02  0.43067728407E+02 -0.65488155051E+02  0.15032095333E+03  0.12508474276E+03 0.  0.
          5    1    3    3  502    0 -0.21672405521E+02 -0.43096345082E+02 -0.28794931489E+02  0.56334790316E+02  0.41800000000E+01 0.  1.
         -5    1    3    3    0  502 -0.67295038742E+01  0.86164073490E+02 -0.36693223562E+02  0.93986163014E+02  0.41800000000E+01 0.  1.
        -11    1    1    2    0    0  0.30626313978E+02 -0.23050878367E+02  0.40202254390E+02  0.55547595442E+02  0.00000000000E+00 0.  1.
         11    1    1    2    0    0 -0.22244045828E+01 -0.20016850040E+02 -0.42628170646E+02  0.47146401707E+02  0.00000000000E+00 0. -1.
</event>
<event>
 7    1  0.2661133E-009  0.1001937E+03  0.7561462E-02  0.1279889E+00
          1   -1    0    0  501    0  0.00000000000E+00  0.00000000000E+00  0.25439928294E+02  0.25439928294E+02  0.00000000000E+00 0. -1.
         -1   -1    0    0    0  501 -0.00000000000E+00 -0.00000000000E+00 -0.47427779639E+03  0.47427779639E+03  0.00000000000E+00 0.  1.
         25    2    1    2    0    0 -0.46281396609E+01  0.47751787256E+01 -0.22260592860E+03  0.25543418628E+03  0.12509597141E+03 0.  0.
          5    1    3    3  502    0 -0.32444445190E+02 -0.48851654467E+02 -0.71005314332E+02  0.92186513282E+02  0.41800000000E+01 0. -1.
         -5    1    3    3    0  502  0.27816305529E+02  0.53626833192E+02 -0.15160061427E+03  0.16324767300E+03  0.41800000000E+01 0. -1.
        -11    1    1    2    0    0  0.56339819083E+01  0.37917560383E+02 -0.50296165259E+02  0.63239128530E+02  0.00000000000E+00 0. -1.
         11    1    1    2    0    0 -0.10058422474E+01 -0.42692739109E+02 -0.17593577423E+03  0.18104440987E+03  0.00000000000E+00 0.  1.
</event>
<event>
 7    1  0.2661133E-009  0.2004860E+03  0.7561462E-02  0.1149330E+00
         -4   -1    0    0    0  501 -0.00000000000E+00  0.00000000000E+00  0.95381242461E+03  0.95381242461E+03  0.00000000000E+00 0.  1.
          4   -1    0    0  501    0  0.00000000000E+00 -0.00000000000E+00 -0.43658768083E+02  0.43658768083E+02  0.00000000000E+00 0. -1.
         25    2    1    2    0    0 -0.11458097746E+03 -0.12880589078E+03  0.45787287954E+03  0.50499441002E+03  0.12510804306E+03 0.  0.
          5    1    3    3  502    0 -0.65619917466E+02 -0.14099051868E+03  0.39323654600E+03  0.42289094745E+03  0.41800000000E+01 0. -1.
         -5    1    3    3    0  502 -0.48961059993E+02  0.12184627894E+02  0.64636333544E+02  0.82103462574E+02  0.41800000000E+01 0. -1.
        -11    1    1    2    0    0  0.13016209105E+03  0.11903272642E+03  0.40483068012E+03  0.44158672927E+03  0.00000000000E+00 0.  1.
         11    1    1    2    0    0 -0.15581113588E+02  0.97731643632E+01  0.47450096869E+02  0.50890053401E+02  0.00000000000E+00 0. -1.
</event>
<event>
 7    1  0.2661133E-009  0.2026712E+03  0.7561462E-02  0.1147505E+00
          1   -1    0    0  501    0  0.00000000000E+00  0.00000000000E+00  0.77620038887E+02  0.77620038887E+02  0.00000000000E+00 0. -1.
         -1   -1    0    0    0  501 -0.00000000000E+00 -0.00000000000E+00 -0.62741269863E+03  0.62741269863E+03  0.00000000000E+00 0.  1.
         25    2    1    2    0    0  0.18638837963E+03  0.39260823091E+02 -0.25195193493E+03  0.33971927864E+03  0.12508944988E+03 0.  0.
          5    1    3    3  502    0  0.79101382320E+02  0.36308638448E+02 -0.20450943650E+03  0.22229918562E+03  0.41800000000E+01 0. -1.
         -5    1    3    3    0  502  0.10728699731E+03  0.29521846434E+01 -0.47442498436E+02  0.11742009302E+03  0.41800000000E+01 0. -1.
        -11    1    1    2    0    0 -0.16167987070E+03  0.31529583259E+01 -0.21507402751E+03  0.26908578380E+03  0.00000000000E+00 0.  1.
         11    1    1    2    0    0 -0.24708508930E+02 -0.42413781417E+02 -0.82766697297E+02  0.96227675069E+02  0.00000000000E+00 0. -1.
</event>
<event>
 7    1  0.2661133E-009  0.7692219E+02  0.7561462E-02  0.1338020E+00
         -1   -1    0    0    0  501 -0.00000000000E+00  0.00000000000E+00  0.72533802665E+03  0.72533802665E+03  0.00000000000E+00 0. -1.
          1   -1    0    0  501    0  0.00000000000E+00 -0.00000000000E+00 -0.40690590885E+02  0.40690590885E+02  0.00000000000E+00 0.  1.
         25    2    1    2    0    0  0.10740970618E+02 -0.10663792731E+02  0.65708505340E+03  0.66905717984E+03  0.12509059746E+03 0.  0.
          5    1    3    3  502    0 -0.26168309115E+02 -0.74304310777E+01  0.60147421840E+03  0.60210356211E+03  0.41800000000E+01 0. -1.
         -5    1    3    3    0  502  0.36909279733E+02 -0.32333616538E+01  0.55610835002E+02  0.66953617733E+02  0.41800000000E+01 0. -1.
        -11    1    1    2    0    0 -0.68865666576E+00  0.49203093857E+02  0.28998522479E+02  0.57116836389E+02  0.00000000000E+00 0. -1.
         11    1    1    2    0    0 -0.10052313953E+02 -0.38539301126E+02 -0.14361401075E+01  0.39854601309E+02  0.00000000000E+00 0.  1.
</event>
<event>
 7    1  0.2661133E-009  0.1197836E+03  0.7561462E-02  0.1243454E+00
         -2   -1    0    0    0  501 -0.00000000000E+00  0.00000000000E+00  0.51896183900E+03  0.51896183900E+03  0.00000000000E+00 0.  1.
          2   -1    0    0  501    0  0.00000000000E+00 -0.00000000000E+00 -0.37813559568E+02  0.37813559568E+02  0.00000000000E+00 0. -1.
         25    2    1    2    0    0  0.11447012855E+02 -0.66728388143E+02  0.14816254803E+03  0.20538480591E+03  0.12508823275E+03 0.  0.
          5    1    3    3  502    0  0.51339677457E+02 -0.82427370289E+02  0.11760475314E+03  0.15257255394E+03  0.41800000000E+01 0. -1.
         -5    1    3    3    0  502 -0.39892664602E+02  0.15698982146E+02  0.30557794888E+02  0.52812251968E+02  0.41800000000E+01 0. -1.
        -11    1    1    2    0    0  0.27237446675E+02  0.50433894170E+02  0.10550872311E+03  0.12007308955E+03  0.00000000000E+00 0. -1.
         11    1    1    2    0    0 -0.38684459531E+02  0.16294493973E+02  0.22747700828E+03  0.23131750310E+03  0.00000000000E+00 0.  1.
</event>
<event>
 7    1  0.2661133E-009  0.1039329E+03  0.7561462E-02  0.1272236E+00
          1   -1    0    0  501    0  0.00000000000E+00  0.00000000000E+00  0.39393481808E+03  0.39393481808E+03  0.00000000000E+00 0. -1.
         -1   -1    0    0    0  501 -0.00000000000E+00 -0.00000000000E+00 -0.42118965551E+02  0.42118965551E+02  0.00000000000E+00 0.  1.
         25    2    1    2    0    0 -0.60108348512E+02  0.51433517324E+02  0.18239919555E+03  0.23489451102E+03  0.12509014552E+03 0.  0.
          5    1    3    3  502    0  0.13897535664E+02  0.18644548235E+02  0.14269894339E+03  0.14464170049E+03  0.41800000000E+01 0.  1.
         -5    1    3    3    0  502 -0.74005884176E+02  0.32788969090E+02  0.39700252152E+02  0.90252810524E+02  0.41800000000E+01 0.  1.
        -11    1    1    2    0    0 -0.18984242694E+00 -0.42182555675E+02  0.40219230346E+02  0.58283707269E+02  0.00000000000E+00 0.  1.
         11    1    1    2    0    0  0.60298190939E+02 -0.92509616495E+01  0.12919742663E+03  0.14287556534E+03  0.00000000000E+00 0. -1.
</event>
<event>
 7    1  0.2661133E-009  0.1351476E+03  0.7561462E-02  0.1220012E+00
          1   -1    0    0  501    0  0.00000000000E+00  0.00000000000E+00  0.82649232342E+02  0.82649232342E+02  0.00000000000E+00 0. -1.
         -1   -1    0    0    0  501 -0.00000000000E+00 -0.00000000000E+00 -0.27862596793E+03  0.27862596793E+03  0.00000000000E+00 0.  1.
         25    2    1    2    0    0  0.76356862648E+02  0.73958456031E+02 -0.94398415829E+02  0.18936491542E+03  0.12509111315E+03 0.  0.
          5    1    3    3  502    0 -0.24047827421E+02  0.51349192773E+02 -0.13618011794E+02  0.58463323950E+02  0.41800000000E+01 0. -1.
         -5    1    3    3    0  502  0.10040469007E+03  0.22609263258E+02 -0.80780404035E+02  0.13090159147E+03  0.41800000000E+01 0. -1.
        -11    1    1    2    0    0 -0.31454748586E+01 -0.18041059132E+02 -0.73287655569E+02  0.75541076809E+02  0.00000000000E+00 0.  1.
         11    1    1    2    0    0 -0.73211387790E+02 -0.55917396899E+02 -0.28290664187E+02  0.96369208039E+02  0.00000000000E+00 0. -1.
</event>
<event>
 7    1  0.2896878E-009  0.9754034E+02  0.7561462E-02  0.1285555E+00
         -2   -1    0    0    0  501 -0.00000000000E+00  0.00000000000E+00  0.24286775248E+02  0.24286775248E+02  0.00000000000E+00 0. -1.
          2   -1    0    0  501    0  0.00000000000E+00 -0.00000000000E+00 -0.78982050676E+03  0.78982050676E+03  0.00000000000E+00 0.  1.
         25    2    1    2    0    0  0.13011740532E+01 -0.67863755694E+02 -0.26525596947E+03  0.30102382279E+03  0.12508968845E+03 0.  0.
          5    1    3    3  502    0  0.10254461740E+02 -0.78232284521E+02 -0.27337205448E+03  0.28456141147E+03  0.41800000000E+01 0. -1.
         -5    1    3    3    0  502 -0.89532876872E+01  0.10368528827E+02  0.81160850116E+01  0.16462411317E+02  0.41800000000E+01 0. -1.
        -11    1    1    2    0    0 -0.23099462912E+02  0.75261380555E+02 -0.46003055570E+03  0.46671830129E+03  0.00000000000E+00 0.  1.
         11    1    1    2    0    0  0.21798288859E+02 -0.73976248614E+01 -0.40247206349E+02  0.46365157928E+02  0.00000000000E+00 0. -1.
</event>
<event>
 7    1  0.2661133E-009  0.1153608E+03  0.7561462E-02  0.1250953E+00
          1   -1    0    0  501    0  0.00000000000E+00  0.00000000000E+00  0.46307257291E+03  0.46307257291E+03  0.00000000000E+00 0. -1.
         -1   -1    0    0    0  501 -0.00000000000E+00 -0.00000000000E+00 -0.35016724655E+02  0.35016724655E+02  0.00000000000E+00 0.  1.
         25    2    1    2    0    0 -0.52366144181E+02 -0.40940646349E+02  0.27760521772E+03  0.31165647469E+03  0.12508697666E+03 0.  0.
          5    1    3    3  502    0  0.32875649766E+02 -0.36621459175E+02  0.59008893179E+02  0.76951033091E+02  0.41800000000E+01 0. -1.
         -5    1    3    3    0  502 -0.85241793947E+02 -0.43191871741E+01  0.21859632454E+03  0.23470544160E+03  0.41800000000E+01 0. -1.
        -11    1    1    2    0    0  0.14339423292E+02 -0.19660215682E+02  0.57385703606E+01  0.25001486572E+02  0.00000000000E+00 0.  1.
         11    1    1    2    0    0  0.38026720889E+02  0.60600862031E+02  0.14471206017E+03  0.16143133630E+03  0.00000000000E+00 0. -1.
</event>
<event>
 7    1  0.2661133E-009  0.8261488E+02  0.7561462E-02  0.1321790E+00
          2   -1    0    0  501    0  0.00000000000E+00  0.00000000000E+00  0.51774496919E+03  0.51774496919E+03  0.00000000000E+00 0. -1.
         -2   -1    0    0    0  501 -0.00000000000E+00 -0.00000000000E+00 -0.33848346870E+02  0.33848346870E+02  0.00000000000E+00 0.  1.
         25    2    1    2    0    0  0.42678216676E+02  0.13084009240E+02  0.39378320417E+03  0.41557841359E+03  0.12509030527E+03 0.  0.
          5    1    3    3  502    0  0.21493877912E+02  0.40984433660E+02  0.43912670346E+02  0.63933603114E+02  0.41800000000E+01 0.  1.
         -5    1    3    3    0  502  0.21184338763E+02 -0.27900424420E+02  0.34987053383E+03  0.35164481047E+03  0.41800000000E+01 0.  1.
        -11    1    1    2    0    0 -0.60946964619E+02 -0.19701760467E+02  0.26183310874E+02  0.69197237156E+02  0.00000000000E+00 0.  1.
         11    1    1    2    0    0  0.18268747943E+02  0.66177512263E+01  0.63930107275E+02  0.66817665320E+02  0.00000000000E+00 0. -1.
</event>
<event>
 7    1  0.2661133E-009  0.1074257E+03  0.7561462E-02  0.1265413E+00
         -2   -1    0    0    0  501 -0.00000000000E+00  0.00000000000E+00  0.32745978869E+03  0.32745978869E+03  0.00000000000E+00 0.  1.
          2   -1    0    0  501    0  0.00000000000E+00 -0.00000000000E+00 -0.37191227808E+02  0.37191227808E+02  0.00000000000E+00 0. -1.
         25    2    1    2    0    0  0.84423270884E+01 -0.24053569131E+02  0.18089474215E+03  0.22140471612E+03  0.12508914225E+03 0.  0.
          5    1    3    3  502    0 -0.49306028070E+02  0.19486258846E+02  0.57554564349E+02  0.78363250093E+02  0.41800000000E+01 0.  1.
         -5    1    3    3    0  502  0.57748355158E+02 -0.43539827977E+02  0.12334017780E+03  0.14304146603E+03  0.41800000000E+01 0.  1.
        -11    1    1    2    0    0 -0.31156450956E+01  0.56378961015E+02  0.86468047285E+02  0.10327157252E+03  0.00000000000E+00 0.  1.
         11    1    1    2    0    0 -0.53266819927E+01 -0.32325391884E+02  0.22905771451E+02  0.39974727858E+02  0.00000000000E+00 0. -1.
</event>
<event>
 7    1  0.2661133E-009  0.1481234E+03  0.7561462E-02  0.1202798E+00
          2   -1    0    0  501    0  0.00000000000E+00  0.00000000000E+00  0.67246365408E+03  0.67246365408E+03  0.00000000000E+00 0. -1.
         -2   -1    0    0    0  501 -0.00000000000E+00 -0.00000000000E+00 -0.46440361319E+02  0.46440361319E+02  0.00000000000E+00 0.  1.
         25    2    1    2    0    0 -0.13309972566E+03 -0.14965080519E+02  0.40741180416E+03  0.44673425918E+03  0.12509048543E+03 0.  0.
          5    1    3    3  502    0 -0.87636129005E+02 -0.73598567768E+01  0.89774712874E+02  0.12574271379E+03  0.41800000000E+01 0. -1.
         -5    1    3    3    0  502 -0.45463596655E+02 -0.76052237423E+01  0.31763709129E+03  0.32099154539E+03  0.41800000000E+01 0. -1.
        -11    1    1    2    0    0  0.72852764612E+02  0.53513232713E+02  0.12887668875E+03  0.15741789063E+03  0.00000000000E+00 0. -1.
         11    1    1    2    0    0  0.60246961048E+02 -0.38548152194E+02  0.89734799844E+02  0.11475186559E+03  0.00000000000E+00 0.  1.
</event>
<event>
 7    1  0.2661133E-009  0.1028825E+03  0.7561462E-02  0.1274349E+00
          2   -1    0    0  501    0  0.00000000000E+00  0.00000000000E+00  0.12649027599E+03  0.12649027599E+03  0.00000000000E+00 0. -1.
         -2   -1    0    0    0  501 -0.00000000000E+00 -0.00000000000E+00 -0.10270127180E+03  0.10270127180E+03  0.00000000000E+00 0.  1.
         25    2    1    2    0    0 -0.17373984895E+02 -0.20201532530E+02  0.37674454957E+02  0.13332674547E+03  0.12508676682E+03 0.  0.
          5    1    3    3  502    0 -0.34139293687E+02  0.44267439662E+02 -0.12290621130E+01  0.56072101631E+02  0.41800000000E+01 0. -1.
         -5    1    3    3    0  502  0.16765308792E+02 -0.64468972192E+02  0.38903517069E+02  0.77254643839E+02  0.41800000000E+01 0. -1.
        -11    1    1    2    0    0 -0.15525111951E+02 -0.23558885203E+02 -0.27553514578E+02  0.39436611653E+02  0.00000000000E+00 0.  1.
         11    1    1    2    0    0  0.32899096845E+02  0.43760417733E+02  0.13668063821E+02  0.56428190667E+02  0.00000000000E+00 0. -1.
</event>
<event>
 7    1  0.2661133E-009  0.8676620E+02  0.7561462E-02  0.1310877E+00
          3   -1    0    0  501    0  0.00000000000E+00  0.00000000000E+00  0.17417046437E+02  0.17417046437E+02  0.00000000000E+00 0. -1.
         -3   -1    0    0    0  501 -0.00000000000E+00 -0.00000000000E+00 -0.72421593985E+03  0.72421593985E+03  0.00000000000E+00 0.  1.
         25    2    1    2    0    0  0.21461506764E+02 -0.57738910936E+01 -0.34430537852E+03  0.36700167235E+03  0.12510035865E+03 0.  0.
          5    1    3    3  502    0  0.15251297694E+02 -0.40469680497E+02 -0.32235167621E+03  0.32526677155E+03  0.41800000000E+01 0. -1.
         -5    1    3    3    0  502  0.62102090702E+01  0.34695789403E+02 -0.21953702313E+02  0.41734900794E+02  0.41800000000E+01 0. -1.
        -11    1    1    2    0    0 -0.10975366080E+01 -0.42333981783E+02 -0.16177164914E+03  0.16722271696E+03  0.00000000000E+00 0.  1.
         11    1    1    2    0    0 -0.20363970156E+02  0.48107872877E+02 -0.20072186575E+03  0.20740859698E+03  0.00000000000E+00 0. -1.
</event>
<event>
 7    1  0.2661133E-009  0.1118458E+03  0.7561462E-02  0.1257189E+00
          2   -1    0    0  501    0  0.00000000000E+00  0.00000000000E+00  0.10959191404E+03  0.10959191404E+03  0.00000000000E+00 0. -1.
         -2   -1    0    0    0  501 -0.00000000000E+00 -0.00000000000E+00 -0.12902530998E+03  0.12902530998E+03  0.00000000000E+00 0.  1.
         25    2    1    2    0    0 -0.32134268900E+02 -0.36314080146E+02 -0.11141240101E+02  0.13462115204E+03  0.12508958267E+03 0.  0.
          5    1    3    3  502    0 -0.77356203931E+02 -0.32260260451E+02  0.97226451998E+01  0.84479044270E+02  0.41800000000E+01 0. -1.
         -5    1    3    3    0  502  0.45221935032E+02 -0.40538196947E+01 -0.20863885301E+02  0.50142107774E+02  0.41800000000E+01 0. -1.
        -11    1    1    2    0    0  0.54193931721E+02  0.45029013612E+02  0.13551615318E+02  0.71751240964E+02  0.00000000000E+00 0. -1.
         11    1    1    2    0    0 -0.22059662821E+02 -0.87149334659E+01 -0.21843771151E+02  0.32244831015E+02  0.00000000000E+00 0.  1.
</event>
<event>
 7    1  0.2661133E-009  0.1063783E+03  0.7561462E-02  0.1267427E+00
         -1   -1    0    0    0  501 -0.00000000000E+00  0.00000000000E+00  0.67535696748E+03  0.67535696748E+03  0.00000000000E+00 0.  1.
          1   -1    0    0  501    0  0.00000000000E+00 -0.00000000000E+00 -0.28270281973E+02  0.28270281973E+02  0.00000000000E+00 0. -1.
         25    2    1    2    0    0  0.25124781666E+02  0.24908062634E+02  0.15677331866E+03  0.20365752194E+03  0.12508735572E+03 0.  0.
          5    1    3    3  502    0  0.63541842414E+02 -0.81788019885E+01  0.13261708616E+03  0.14734049844E+03  0.41800000000E+01 0.  1.
         -5    1    3    3    0  502 -0.38417060748E+02  0.33086864622E+02  0.24156232502E+02  0.56317023499E+02  0.41800000000E+01 0.  1.
        -11    1    1    2    0    0 -0.22620810534E+02  0.32841098071E+02  0.18877430043E+03  0.19294034128E+03  0.00000000000E+00 0.  1.
         11    1    1    2    0    0 -0.25039711324E+01 -0.57749160705E+02  0.30153906642E+03  0.30702938624E+03  0.00000000000E+00 0. -1.
</event>
<event>
 7    1  0.2661133E-009  0.3890746E+03  0.7561462E-02  0.1047630E+00
         -1   -1    0    0    0  501 -0.00000000000E+00  0.00000000000E+00  0.30620706849E+03  0.30620706849E+03  0.00000000000E+00 0.  1.
          1   -1    0    0  501    0  0.00000000000E+00 -0.00000000000E+00 -0.49982049783E+03  0.49982049783E+03  0.00000000000E+00 0. -1.
         25    2    1    2    0    0 -0.36014024487E+03  0.10545372078E+03 -0.12359983401E+03  0.41442195051E+03  0.12508857221E+03 0.  0.
          5    1    3    3  502    0 -0.55829411590E+02  0.66512572941E+02 -0.44025332006E+02  0.97450232509E+02  0.41800000000E+01 0. -1.
         -5    1    3    3    0  502 -0.30431083327E+03  0.38941147843E+02 -0.79574502008E+02  0.31697171800E+03  0.41800000000E+01 0. -1.
        -11    1    1    2    0    0  0.14167064650E+03 -0.84405715405E+02 -0.43345676453E+02  0.17051024761E+03  0.00000000000E+00 0.  1.
         11    1    1    2    0    0  0.21846959836E+03 -0.21048005380E+02 -0.26667918869E+02  0.22109536819E+03  0.00000000000E+00 0. -1.
</event>
<event>
 7    1  0.3133026E-009  0.1234194E+03  0.7561462E-02  0.1237560E+00
          2   -1    0    0  501    0  0.00000000000E+00  0.00000000000E+00  0.15393227867E+03  0.15393227867E+03  0.00000000000E+00 0. -1.
         -2   -1    0    0    0  501 -0.00000000000E+00 -0.00000000000E+00 -0.13836970775E+03  0.13836970775E+03  0.00000000000E+00 0.  1.
         25    2    1    2    0    0 -0.40889288759E+02  0.73676183390E+02  0.56968576863E+02  0.16122163045E+03  0.12508749515E+03 0.  0.
          5    1    3    3  502    0 -0.30380875632E+02  0.10076070585E+03  0.99488225593E+01  0.10579304759E+03  0.41800000000E+01 0.  1.
         -5    1    3    3    0  502 -0.10508413127E+02 -0.27084522464E+02  0.47019754303E+02  0.55428582864E+02  0.41800000000E+01 0.  1.
        -11    1    1    2    0    0 -0.20703639879E+02 -0.30819252506E+02 -0.41979213370E+02  0.56042139363E+02  0.00000000000E+00 0.  1.
         11    1    1    2    0    0  0.61592928639E+02 -0.42856930884E+02  0.57320742892E+00  0.75038216596E+02  0.00000000000E+00 0. -1.
</event>
<event>
 7    1  0.2661133E-009  0.1293325E+03  0.7561462E-02  0.1228449E+00
         -2   -1    0    0    0  501 -0.00000000000E+00  0.00000000000E+00  0.34677112887E+02  0.34677112887E+02  0.00000000000E+00 0.  1.
          2   -1    0    0  501    0  0.00000000000E+00 -0.00000000000E+00 -0.71737048595E+03  0.71737048595E+03  0.00000000000E+00 0. -1.
         25    2    1    2    0    0 -0.93061523172E+02 -0.64440420960E+02 -0.39478838889E+03  0.42932262894E+03  0.12508810000E+03 0.  0.
          5    1    3    3  502    0 -0.26781253502E+02 -0.45157489066E+01 -0.32202185850E+01  0.27667123723E+02  0.41800000000E+01 0.  1.
         -5    1    3    3    0  502 -0.66280269670E+02 -0.59924672054E+02 -0.39156817031E+03  0.40165550521E+03  0.41800000000E+01 0.  1.
        -11    1    1    2    0    0  0.56306484201E+02 -0.11407618329E+02 -0.15546196132E+03  0.16573767024E+03  0.00000000000E+00 0.  1.
         11    1    1    2    0    0  0.36755038971E+02  0.75848039289E+02 -0.13244302285E+03  0.15698729967E+03  0.00000000000E+00 0. -1.
</event>
<event>
 7    1  0.2661133E-009  0.1299486E+03  0.7561462E-02  0.1227532E+00
          1   -1    0    0  501    0  0.00000000000E+00  0.00000000000E+00  0.32846897083E+03  0.32846897083E+03  0.00000000000E+00 0. -1.
         -1   -1    0    0    0  501 -0.00000000000E+00 -0.00000000000E+00 -0.63396617396E+02  0.63396617396E+02  0.00000000000E+00 0.  1.
         25    2    1    2    0    0 -0.10057698399E+02  0.93159543253E+02  0.16560267146E+03  0.22770782568E+03  0.12508697488E+03 0.  0.
          5    1    3    3  502    0 -0.45305433290E+02  0.92649221814E+01  0.11381481976E+03  0.12292154679E+03  0.41800000000E+01 0.  1.
         -5    1    3    3    0  502  0.35247734891E+02  0.83894621072E+02  0.51787851699E+02  0.10478627889E+03  0.41800000000E+01 0.  1.
        -11    1    1    2    0    0  0.43986176638E+02 -0.63858658915E+02  0.89152887239E+02  0.11815646134E+03  0.00000000000E+00 0. -1.
         11    1    1    2    0    0 -0.33928478239E+02 -0.29300884338E+02  0.10316794733E+02  0.46001301201E+02  0.00000000000E+00 0.  1.
</event>
<event>
 7    1  0.2661133E-009  0.1613004E+03  0.7561462E-02  0.1187236E+00
         -1   -1    0    0    0  501 -0.00000000000E+00  0.00000000000E+00  0.33457724149E+03  0.33457724149E+03  0.00000000000E+00 0.  1.
          1   -1    0    0  501    0  0.00000000000E+00 -0.00000000000E+00 -0.11411685239E+03  0.11411685239E+03  0.00000000000E+00 0. -1.
         25    2    1    2    0    0  0.12611782461E+03  0.78296656994E+02  0.39878696574E+02  0.19817511535E+03  0.12508794395E+03 0.  0.
          5    1    3    3  502    0  0.58140943372E+02  0.57878967209E+02  0.81560425436E+02  0.11575802149E+03  0.41800000000E+01 0.  1.
         -5    1    3    3    0  502  0.67976881241E+02  0.20417689785E+02 -0.41681728862E+02  0.82417093860E+02  0.41800000000E+01 0.  1.
        -11    1    1    2    0    0 -0.44995609315E+02 -0.75855626829E+02  0.12148303205E+03  0.15012264338E+03  0.00000000000E+00 0.  1.
         11    1    1    2    0    0 -0.81122215298E+02 -0.24410301641E+01  0.59098660465E+02  0.10039633515E+03  0.00000000000E+00 0. -1.
</event>
<event>
 7    1  0.2661133E-009  0.8395058E+02  0.7561462E-02  0.1318200E+00
         -2   -1    0    0    0  501 -0.00000000000E+00  0.00000000000E+00  0.22391058210E+03  0.22391058210E+03  0.00000000000E+00 0.  1.
          2   -1    0    0  501    0  0.00000000000E+00 -0.00000000000E+00 -0.70488934323E+02  0.70488934323E+02  0.00000000000E+00 0. -1.
         25    2    1    2    0    0  0.60690547278E+02 -0.15498665732E+02  0.10041130460E+03  0.17221406860E+03  0.12510677106E+03 0.  0.
          5    1    3    3  502    0  0.29047694733E+02 -0.27191697406E+02 -0.21662405138E+02  0.45496034701E+02  0.41800000000E+01 0. -1.
         -5    1    3    3    0  502  0.31642852545E+02  0.11693031674E+02  0.12207370974E+03  0.12671803390E+03  0.41800000000E+01 0. -1.
        -11    1    1    2    0    0 -0.63474414627E+02  0.36160937902E+02  0.65300605273E+02  0.97983589398E+02  0.00000000000E+00 0.  1.
         11    1    1    2    0    0  0.27838673493E+01 -0.20662272170E+02 -0.12290262098E+02  0.24201858422E+02  0.00000000000E+00 0. -1.
</event>
<event>
 7    1  0.2661133E-009  0.9363426E+02  0.7561462E-02  0.1294282E+00
          3   -1    0    0  501    0  0.00000000000E+00  0.00000000000E+00  0.51402567054E+03  0.51402567054E+03  0.00000000000E+00 0. -1.
         -3   -1    0    0    0  501 -0.00000000000E+00 -0.00000000000E+00 -0.37078698634E+02  0.37078698634E+02  0.00000000000E+00 0.  1.
         25    2    1    2    0    0  0.78686365196E+02 -0.22777674807E+02  0.22124877232E+03  0.26703681451E+03  0.12508906633E+03 0.  0.
          5    1    3    3  502    0  0.63535111284E+02 -0.13754520409E+02  0.23527087588E+03  0.24412241732E+03  0.41800000000E+01 0.  1.
         -5    1    3    3    0  502  0.15151253912E+02 -0.90231543973E+01 -0.14022103566E+02  0.22914397195E+02  0.41800000000E+01 0.  1.
        -11    1    1    2    0    0 -0.43373645944E+02 -0.20644123183E+02  0.44157755739E+02  0.65248451142E+02  0.00000000000E+00 0.  1.
         11    1    1    2    0    0 -0.35312719252E+02  0.43421797990E+02  0.21154044385E+03  0.21881910352E+03  0.00000000000E+00 0. -1.
</event>
<event>
 7    1  0.2661133E-009  0.1243091E+03  0.7561462E-02  0.1236153E+00
         -2   -1    0    0    0  501 -0.00000000000E+00  0.00000000000E+00  0.29882391807E+02  0.29882391807E+02  0.00000000000E+00 0. -1.
          2   -1    0    0  501    0  0.00000000000E+00 -0.00000000000E+00 -0.68673236051E+03  0.68673236051E+03  0.00000000000E+00 0.  1.
         25    2    1    2    0    0 -0.28027447271E+02  0.77224850971E+02 -0.24209647103E+03  0.28461645305E+03  0.12508640476E+03 0.  0.
          5    1    3    3  502    0 -0.52457360506E+01  0.10752408107E+03 -0.20405931740E+03  0.23075229830E+03  0.41800000000E+01 0.  1.
         -5    1    3    3    0  502 -0.22781711220E+02 -0.30299230094E+02 -0.38037153629E+02  0.53864154747E+02  0.41800000000E+01 0.  1.
        -11    1    1    2    0    0 -0.98386300200E+01 -0.60597559805E+02 -0.34872578136E+03  0.35408831311E+03  0.00000000000E+00 0.  1.
         11    1    1    2    0    0  0.37866077291E+02 -0.16627291167E+02 -0.66027716308E+02  0.77909986149E+02  0.00000000000E+00 0. -1.
</event>
<event>
 7    1  0.2661133E-009  0.9835979E+02  0.7561462E-02  0.1283783E+00
          1   -1    0    0  501    0  0.00000000000E+00  0.00000000000E+00  0.10949228613E+03  0.10949228613E+03  0.00000000000E+00 0. -1.
         -1   -1    0    0    0  501 -0.00000000000E+00 -0.00000000000E+00 -0.14875928152E+03  0.14875928152E+03  0.00000000000E+00 0.  1.
         25    2    1    2    0    0  0.16967103168E+02 -0.38166191880E+02 -0.74628365647E+02  0.15154208530E+03  0.12510423600E+03 0.  0.
          5    1    3    3  502    0  0.58860072027E+02 -0.20972079059E+02 -0.84332243016E+02  0.10504159077E+03  0.41800000000E+01 0.  1.
         -5    1    3    3    0  502 -0.41892968859E+02 -0.17194112821E+02  0.97038773686E+01  0.46500494530E+02  0.41800000000E+01 0.  1.
        -11    1    1    2    0    0 -0.65155359839E+01  0.62132094484E+02 -0.32073237487E+00  0.62473612377E+02  0.00000000000E+00 0.  1.
         11    1    1    2    0    0 -0.10451567184E+02 -0.23965902604E+02  0.35682102633E+02  0.44235869976E+02  0.00000000000E+00 0. -1.
</event>
<event>
 7    1  0.2661133E-009  0.2360381E+03  0.7561462E-02  0.1122461E+00
          2   -1    0    0  501    0  0.00000000000E+00  0.00000000000E+00  0.14772425528E+04  0.14772425528E+04  0.00000000000E+00 0. -1.
         -2   -1    0    0    0  501 -0.00000000000E+00 -0.00000000000E+00 -0.86662912084E+02  0.86662912084E+02  0.00000000000E+00 0.  1.
         25    2    1    2    0    0  0.51630382495E+01  0.21745004557E+03  0.12797844908E+04  0.13041504117E+04  0.12509506100E+03 0.  0.
          5    1    3    3  502    0 -0.49333037437E+02  0.40824158313E+02  0.26486408165E+03  0.27252672279E+03  0.41800000000E+01 0.  1.
         -5    1    3    3    0  502  0.54496075687E+02  0.17662588726E+03  0.10149204091E+04  0.10316236889E+04  0.41800000000E+01 0.  1.
        -11    1    1    2    0    0  0.21579858790E+02 -0.73451304771E+02  0.78751291412E+02  0.10982964252E+03  0.00000000000E+00 0. -1.
         11    1    1    2    0    0 -0.26742897040E+02 -0.14399874080E+03  0.32043858565E+02  0.14992541067E+03  0.00000000000E+00 0.  1.
</event>
<event>
 7    1  0.2661133E-009  0.1495031E+03  0.7561462E-02  0.1201085E+00
         -1   -1    0    0    0  501 -0.00000000000E+00  0.00000000000E+00  0.24026894351E+02  0.24026894351E+02  0.00000000000E+00 0.  1.
          1   -1    0    0  501    0  0.00000000000E+00 -0.00000000000E+00 -0.13144392624E+04  0.13144392624E+04  0.00000000000E+00 0. -1.
         25    2    1    2    0    0 -0.11175282477E+03  0.15304393891E+02 -0.10192775349E+04  0.10330997535E+04  0.12508193035E+03 0.  0.
          5    1    3    3  502    0  0.21125812317E+02  0.23981302932E+02 -0.28672600297E+03  0.28853193240E+03  0.41800000000E+01 0.  1.
         -5    1    3    3    0  502 -0.13287863708E+03 -0.86769090412E+01 -0.73255153194E+03  0.74456782115E+03  0.41800000000E+01 0.  1.
        -11    1    1    2    0    0 -0.96571108449E+01  0.42889685514E+01 -0.40286810825E+01  0.11308638838E+02  0.00000000000E+00 0.  1.
         11    1    1    2    0    0  0.12140993561E+03 -0.19593362442E+02 -0.26710615211E+03  0.29405776441E+03  0.00000000000E+00 0. -1.
</event>
<event>
 7    1  0.2661133E-009  0.9955130E+02  0.7561462E-02  0.1281242E+00
         -3   -1    0    0    0  501 -0.00000000000E+00  0.00000000000E+00  0.46842188843E+02  0.46842188843E+02  0.00000000000E+00 0.  1.
          3   -1    0    0  501    0  0.00000000000E+00 -0.00000000000E+00 -0.28497615067E+03  0.28497615067E+03  0.00000000000E+00 0. -1.
         25    2    1    2    0    0 -0.16953437871E+02 -0.14599658114E+02 -0.86675415496E+02  0.15381677042E+03  0.12508557926E+03 0.  0.
          5    1    3    3  502    0  0.46020881880E+02 -0.13079864017E+02 -0.75832734063E+02  0.89761240896E+02  0.41800000000E+01 0.  1.
         -5    1    3    3    0  502 -0.62974319751E+02 -0.15197940970E+01 -0.10842681434E+02  0.64055529526E+02  0.41800000000E+01 0.  1.
        -11    1    1    2    0    0 -0.12909499791E+02 -0.30918726213E+02 -0.89271077809E+02  0.95351707634E+02  0.00000000000E+00 0. -1.
         11    1    1    2    0    0  0.29862937661E+02  0.45518384327E+02 -0.62187468517E+02  0.82649861452E+02  0.00000000000E+00 0.  1.
</event>
<event>
 7    1  0.2661133E-009  0.4803074E+02  0.7561462E-02  0.1456262E+00
          1   -1    0    0  501    0  0.00000000000E+00  0.00000000000E+00  0.59487986051E+03  0.59487986051E+03  0.00000000000E+00 0. -1.
         -1   -1    0    0    0  501 -0.00000000000E+00 -0.00000000000E+00 -0.28713636570E+02  0.28713636570E+02  0.00000000000E+00 0.  1.
         25    2    1    2    0    0  0.30075406399E+02  0.20105384058E+01  0.47407604502E+03  0.49122754380E+03  0.12509129063E+03 0.  0.
          5    1    3    3  502    0  0.30730693601E+02 -0.22757863992E+01  0.19700713931E+02  0.36812297705E+02  0.41800000000E+01 0. -1.
         -5    1    3    3    0  502 -0.65528720200E+00  0.42863248050E+01  0.45437533109E+03  0.45441524610E+03  0.41800000000E+01 0. -1.
        -11    1    1    2    0    0  0.10037592087E+02 -0.13861893516E+02 -0.11520737142E+02  0.20630868402E+02  0.00000000000E+00 0.  1.
         11    1    1    2    0    0 -0.40112998486E+02  0.11851355110E+02  0.10361091606E+03  0.11173508488E+03  0.00000000000E+00 0. -1.
</event>
<event>
 6    1  0.2661133E-009  0.1875971E+03  0.7561462E-02  0.1160647E+00
          1   -1    0    0  501    0  0.00000000000E+00  0.00000000000E+00  0.68300283699E+02  0.68300283699E+02  0.00000000000E+00 0. -1.
         -1   -1    0    0    0  501 -0.00000000000E+00 -0.00000000000E+00 -0.68781500019E+03  0.68781500019E+03  0.00000000000E+00 0.  1.
          5    1    1    2  502    0 -0.62509189605E+02  0.10651885377E+03 -0.36715753482E+03  0.38739617031E+03  0.41800000000E+01 0.  1.
         -5    1    1    2    0  502  0.10649818141E+02  0.65453309271E+02 -0.48299040070E+02  0.82145139799E+02  0.41800000000E+01 0.  1.
        -11    1    1    2    0    0 -0.22300962288E+01 -0.67422625287E+02 -0.24298088562E+02  0.71702028128E+02  0.00000000000E+00 0. -1.
         11    1    1    2    0    0  0.54089467693E+02 -0.10454953776E+03 -0.17976005303E+03  0.21487194565E+03  0.00000000000E+00 0.  1.
</event>
<event>
 7    1  0.2661133E-009  0.1145069E+03  0.7561462E-02  0.1252444E+00
          2   -1    0    0  501    0  0.00000000000E+00  0.00000000000E+00  0.59544903400E+03  0.59544903400E+03  0.00000000000E+00 0. -1.
         -2   -1    0    0    0  501 -0.00000000000E+00 -0.00000000000E+00 -0.58581310846E+02  0.58581310846E+02  0.00000000000E+00 0.  1.
         25    2    1    2    0    0  0.26643084893E+02  0.78079310438E+02  0.50687458899E+03  0.52855819048E+03  0.12508268890E+03 0.  0.
          5    1    3    3  502    0  0.20941567351E+02  0.10418857160E+03  0.47496306652E+03  0.48672496819E+03  0.41800000000E+01 0.  1.
         -5    1    3    3    0  502  0.57015175413E+01 -0.26109261163E+02  0.31911522470E+02  0.41833222290E+02  0.41800000000E+01 0.  1.
        -11    1    1    2    0    0 -0.37902214220E+02 -0.36820976217E+02  0.54721158749E+02  0.76070804828E+02  0.00000000000E+00 0. -1.
         11    1    1    2    0    0  0.11259129327E+02 -0.41258334221E+02 -0.24728024592E+02  0.49401349538E+02  0.00000000000E+00 0.  1.
</event>
<event>
 7    1  0.2661133E-009  0.1500193E+03  0.7561462E-02  0.1200449E+00
          1   -1    0    0  501    0  0.00000000000E+00  0.00000000000E+00  0.83845523653E+02  0.83845523653E+02  0.00000000000E+00 0. -1.
         -1   -1    0    0    0  501 -0.00000000000E+00 -0.00000000000E+00 -0.38734493653E+03  0.38734493653E+03  0.00000000000E+00 0.  1.
         25    2    1    2    0    0  0.11403136240E+03 -0.65863819394E+02 -0.84488424283E+02  0.20032318663E+03  0.12509952416E+03 0.  0.
          5    1    3    3  502    0  0.73259891556E+02 -0.42771598200E+01  0.16309704671E+02  0.75291331993E+02  0.41800000000E+01 0. -1.
         -5    1    3    3    0  502  0.40771470847E+02 -0.61586659574E+02 -0.10079812895E+03  0.12503185463E+03  0.41800000000E+01 0. -1.
        -11    1    1    2    0    0 -0.49989402632E+02  0.72617391863E+02 -0.86358579686E+02  0.12341000876E+03  0.00000000000E+00 0. -1.
         11    1    1    2    0    0 -0.64041959771E+02 -0.67535724687E+01 -0.13265240891E+03  0.14745726480E+03  0.00000000000E+00 0.  1.
</event>
<event>
 7    1  0.2661133E-009  0.3806975E+03  0.7561462E-02  0.1050676E+00
          2   -1    0    0  501    0  0.00000000000E+00  0.00000000000E+00  0.65638597643E+03  0.65638597643E+03  0.00000000000E+00 0. -1.
         -2   -1    0    0    0  501 -0.00000000000E+00 -0.00000000000E+00 -0.23553906076E+03  0.23553906076E+03  0.00000000000E+00 0.  1.
         25    2    1    2    0    0  0.37100496452E+03  0.42640845755E+02  0.15248254880E+03  0.42232864592E+03  0.12509049545E+03 0.  0.
          5    1    3    3  502    0  0.12815624581E+03 -0.88012738746E+01  0.11259944257E+03  0.17087303072E+03  0.41800000000E+01 0.  1.
         -5    1    3    3    0  502  0.24284871871E+03  0.51442119630E+02  0.39883106233E+02  0.25145561520E+03  0.41800000000E+01 0.  1.
        -11    1    1    2    0    0 -0.90098826590E+02  0.29086002729E+02  0.53605700638E+02  0.10879965647E+03  0.00000000000E+00 0. -1.
         11    1    1    2    0    0 -0.28090613793E+03 -0.71726848484E+02  0.21475866623E+03  0.36079673480E+03  0.00000000000E+00 0.  1.
</event>
<event>
 7    1  0.2661133E-009  0.1225630E+03  0.7561462E-02  0.1238928E+00
          1   -1    0    0  501    0  0.00000000000E+00  0.00000000000E+00  0.65311493364E+02  0.65311493364E+02  0.00000000000E+00 0. -1.
         -1   -1    0    0    0  501 -0.00000000000E+00 -0.00000000000E+00 -0.33130992015E+03  0.33130992015E+03  0.00000000000E+00 0.  1.
         25    2    1    2    0    0  0.58489137932E+02  0.16435037968E+02 -0.25206411293E+03  0.28787874454E+03  0.12508702891E+03 0.  0.
          5    1    3    3  502    0 -0.20431797177E+02 -0.37824007591E+02 -0.79245760480E+02  0.90252295484E+02  0.41800000000E+01 0.  1.
         -5    1    3    3    0  502  0.78920935109E+02  0.54259045560E+02 -0.17281835245E+03  0.19762644906E+03  0.41800000000E+01 0.  1.
        -11    1    1    2    0    0 -0.37672848854E+01  0.32464314746E+02 -0.13483800769E+02  0.35354448808E+02  0.00000000000E+00 0.  1.
         11    1    1    2    0    0 -0.54721853047E+02 -0.48899352714E+02 -0.45051308590E+00  0.73388220164E+02  0.00000000000E+00 0. -1.
</event>
<event>
 7    1  0.2661133E-009  0.6666106E+02  0.7561462E-02  0.1371830E+00
         -1   -1    0    0    0  501 -0.00000000000E+00  0.00000000000E+00  0.45154134793E+02  0.45154134793E+02  0.00000000000E+00 0.  1.
          1   -1    0    0  501    0  0.00000000000E+00 -0.00000000000E+00 -0.30430738440E+03  0.30430738440E+03  0.00000000000E+00 0. -1.
         25    2    1    2    0    0  0.15760155910E+02  0.28055719106E+02 -0.10221501504E+03  0.16471246817E+03  0.12508709758E+03 0.  0.
          5    1    3    3  502    0  0.13686570091E+02  0.52644643911E+01 -0.12862019039E+03  0.12952089624E+03  0.41800000000E+01 0. -1.
         -5    1    3    3    0  502  0.20735858186E+01  0.22791254715E+02  0.26405175349E+02  0.35191571929E+02  0.41800000000E+01 0. -1.
        -11    1    1    2    0    0  0.22534156421E+02 -0.46972523732E+02 -0.64440021493E+02  0.82865689893E+02  0.00000000000E+00 0.  1.
         11    1    1    2    0    0 -0.38294312330E+02  0.18916804626E+02 -0.92498213066E+02  0.10188336113E+03  0.00000000000E+00 0. -1.
</event>
<event>
 7    1  0.2661133E-009  0.9551027E+02  0.7561462E-02  0.1290031E+00
          1   -1    0    0  501    0  0.00000000000E+00  0.00000000000E+00  0.93781771985E+02  0.93781771985E+02  0.00000000000E+00 0. -1.
         -1   -1    0    0    0  501 -0.00000000000E+00 -0.00000000000E+00 -0.16148682291E+03  0.16148682291E+03  0.00000000000E+00 0.  1.
         25    2    1    2    0    0 -0.30512836877E+02  0.27308047681E+02  0.43294412711E+01  0.13169444761E+03  0.12509164955E+03 0.  0.
          5    1    3    3  502    0  0.15641604921E+02  0.42735076999E+02 -0.43672584120E+02  0.63211657266E+02  0.41800000000E+01 0.  1.
         -5    1    3    3    0  502 -0.46154441798E+02 -0.15427029319E+02  0.48002025391E+02  0.68482790341E+02  0.41800000000E+01 0.  1.
        -11    1    1    2    0    0  0.48243638688E+02  0.15067804578E+02 -0.54703025308E+02  0.74477569687E+02  0.00000000000E+00 0.  1.
         11    1    1    2    0    0 -0.17730801812E+02 -0.42375852259E+02 -0.17331466888E+02  0.49096577600E+02  0.00000000000E+00 0. -1.
</event>
<event>
 7    1  0.2661133E-009  0.1461857E+03  0.7561462E-02  0.1205240E+00
          2   -1    0    0  501    0  0.00000000000E+00  0.00000000000E+00  0.54426952918E+03  0.54426952918E+03  0.00000000000E+00 0. -1.
         -2   -1    0    0    0  501 -0.00000000000E+00 -0.00000000000E+00 -0.45153913578E+02  0.45153913578E+02  0.00000000000E+00 0.  1.
         25    2    1    2    0    0 -0.56950363253E+02 -0.96581199831E+02  0.24353651564E+03  0.29585179120E+03  0.12508787260E+03 0.  0.
          5    1    3    3  502    0 -0.43391689213E+02 -0.11605308190E+03  0.12940326348E+03  0.17920333008E+03  0.41800000000E+01 0.  1.
         -5    1    3    3    0  502 -0.13558674040E+02  0.19471882074E+02  0.11413325216E+03  0.11664846112E+03  0.41800000000E+01 0.  1.
        -11    1    1    2    0    0  0.82005002643E+02  0.70517595174E+02  0.19691506989E+03  0.22466218293E+03  0.00000000000E+00 0. -1.
         11    1    1    2    0    0 -0.25054639390E+02  0.26063604656E+02  0.58664030072E+02  0.68909468631E+02  0.00000000000E+00 0.  1.
</event>
<event>
 7    1  0.2661133E-009  0.1410438E+03  0.7561462E-02  0.1211931E+00
          2   -1    0    0  501    0  0.00000000000E+00  0.00000000000E+00  0.10678334657E+03  0.10678334657E+03  0.00000000000E+00 0.  1.
         -2   -1    0    0    0  501 -0.00000000000E+00 -0.00000000000E+00 -0.24175015042E+03  0.24175015042E+03  0.00000000000E+00 0. -1.
         25    2    1    2    0    0 -0.62450523085E+02 -0.68778466848E+02 -0.15155128489E+03  0.21736382781E+03  0.12509474950E+03 0.  0.
          5    1    3    3  502    0 -0.62283978337E+02  0.20381979660E+02 -0.75848342690E+02  0.10032528366E+03  0.41800000000E+01 0.  1.
         -5    1    3    3    0  502 -0.16654474804E+00 -0.89160446508E+02 -0.75702942198E+02  0.11703854415E+03  0.41800000000E+01 0.  1.
        -11    1    1    2    0    0  0.50958413193E+02 -0.61760423262E+01  0.20416491187E+02  0.55242524257E+02  0.00000000000E+00 0.  1.
         11    1    1    2    0    0  0.11492109892E+02  0.74954509175E+02 -0.38320101550E+01  0.75927144930E+02  0.00000000000E+00 0. -1.
</event>
<event>
 7    1  0.2661133E-009  0.1021865E+03  0.7561462E-02  0.1275764E+00
          1   -1    0    0  501    0  0.00000000000E+00  0.00000000000E+00  0.74487445222E+03  0.74487445222E+03  0.00000000000E+00 0. -1.
         -1   -1    0    0    0  501 -0.00000000000E+00 -0.00000000000E+00 -0.18152566285E+02  0.18152566285E+02  0.00000000000E+00 0.  1.
         25    2    1    2    0    0  0.36269665940E+02 -0.72336785837E+01  0.46658804242E+03  0.48447716810E+03  0.12508361328E+03 0.  0.
          5    1    3    3  502    0  0.64055429091E+02  0.18437000795E+02  0.41516099996E+03  0.42049869117E+03  0.41800000000E+01 0.  1.
         -5    1    3    3    0  502 -0.27785763151E+02 -0.25670679379E+02  0.51427042464E+02  0.63978476930E+02  0.41800000000E+01 0.  1.
        -11    1    1    2    0    0 -0.26889880415E+02  0.49446083457E+02  0.15242365632E+03  0.16248369717E+03  0.00000000000E+00 0. -1.
         11    1    1    2    0    0 -0.93797855254E+01 -0.42212404874E+02  0.10771018720E+03  0.11606615324E+03  0.00000000000E+00 0.  1.
</event>
<event>
 7    1  0.2661133E-009  0.1604264E+03  0.7561462E-02  0.1188216E+00
         -1   -1    0    0    0  501 -0.00000000000E+00  0.00000000000E+00  0.83988838922E+02  0.83988838922E+02  0.00000000000E+00 0.  1.
          1   -1    0    0  501    0  0.00000000000E+00 -0.00000000000E+00 -0.30796862213E+03  0.30796862213E+03  0.00000000000E+00 0. -1.
         25    2    1    2    0    0  0.11353772098E+02  0.11736181017E+03 -0.13352680777E+03  0.21766727413E+03  0.12508769406E+03 0.  0.
          5    1    3    3  502    0 -0.45677774899E+02  0.10327900215E+03 -0.87551612782E+02  0.14295372925E+03  0.41800000000E+01 0. -1.
         -5    1    3    3    0  502  0.57031546997E+02  0.14082808019E+02 -0.45975194990E+02  0.74713544882E+02  0.41800000000E+01 0. -1.
        -11    1    1    2    0    0  0.21712872060E+02  0.49335905544E+01 -0.14732947810E+02  0.26699229952E+02  0.00000000000E+00 0.  1.
         11    1    1    2    0    0 -0.33066644157E+02 -0.12229540073E+03 -0.75720027627E+02  0.14759095697E+03  0.00000000000E+00 0. -1.
</event>
<event>
 6    1  0.2661133E-009  0.1074962E+03  0.7561462E-02  0.1265278E+00
          2   -1    0    0  501    0  0.00000000000E+00  0.00000000000E+00  0.19305235066E+03  0.19305235066E+03  0.00000000000E+00 0. -1.
         -2   -1    0    0    0  501 -0.00000000000E+00 -0.00000000000E+00 -0.67519979035E+02  0.67519979035E+02  0.00000000000E+00 0.  1.
          5    1    1    2  502    0 -0.53657800670E+02 -0.52392644849E+02  0.40605970689E+02  0.85384226076E+02  0.41800000000E+01 0. -1.
         -5    1    1    2    0  502  0.38973037230E+02  0.30777395870E+02  0.54592154576E+02  0.73918343250E+02  0.41800000000E+01 0. -1.
        -11    1    1    2    0    0  0.50855970219E+02  0.84497874456E+01 -0.11119362953E+01  0.51565153128E+02  0.00000000000E+00 0.  1.
         11    1    1    2    0    0 -0.36171206779E+02  0.13165461534E+02  0.31446182653E+02  0.49704607238E+02  0.00000000000E+00 0. -1.
</event>
<event>
 6    1  0.2661133E-009  0.1858957E+03  0.7561462E-02  0.1162216E+00
         -2   -1    0    0    0  501 -0.00000000000E+00  0.00000000000E+00  0.27890972374E+03  0.27890972374E+03  0.00000000000E+00 0.  1.
          2   -1    0    0  501    0  0.00000000000E+00 -0.00000000000E+00 -0.14022188736E+03  0.14022188736E+03  0.00000000000E+00 0. -1.
          5    1    1    2  502    0  0.22210624562E+02  0.83797508074E+02  0.47128289346E+02  0.98761744919E+02  0.41800000000E+01 0.  1.
         -5    1    1    2    0  502  0.11689888272E+03  0.57541939228E+01  0.20641061507E+02  0.11892007967E+03  0.41800000000E+01 0.  1.
        -11    1    1    2    0    0 -0.57377057288E+02 -0.53870817286E+02  0.79485751056E+02  0.11185783960E+03  0.00000000000E+00 0.  1.
         11    1    1    2    0    0 -0.81732449988E+02 -0.35680884711E+02 -0.85672655287E+01  0.89591946923E+02  0.00000000000E+00 0. -1.
</event>
<event>
 7    1  0.2661133E-009  0.1490421E+03  0.7561462E-02  0.1201655E+00
          1   -1    0    0  501    0  0.00000000000E+00  0.00000000000E+00  0.41329801491E+03  0.41329801491E+03  0.00000000000E+00 0. -1.
         -1   -1    0    0    0  501 -0.00000000000E+00 -0.00000000000E+00 -0.78503723640E+02  0.78503723640E+02  0.00000000000E+00 0.  1.
         25    2    1    2    0    0  0.96054172601E+02 -0.95694417367E+02  0.11251418832E+03  0.21608151959E+03  0.12509178608E+03 0.  0.
          5    1    3    3  502    0  0.40376423749E+02 -0.16886999983E+02 -0.23042475081E+02  0.49637228176E+02  0.41800000000E+01 0.  1.
         -5    1    3    3    0  502  0.55677748852E+02 -0.78807417384E+02  0.13555666340E+03  0.16644429141E+03  0.41800000000E+01 0.  1.
        -11    1    1    2    0    0 -0.51995716230E+02  0.10056389935E+03  0.18891490920E+03  0.22023963149E+03  0.00000000000E+00 0. -1.
         11    1    1    2    0    0 -0.44058456371E+02 -0.48694819835E+01  0.33365193753E+02  0.55480587477E+02  0.00000000000E+00 0.  1.
</event>
<event>
 7    1  0.2661133E-009  0.1074598E+03  0.7561462E-02  0.1265348E+00
         -2   -1    0    0    0  501 -0.00000000000E+00  0.00000000000E+00  0.57672324544E+02  0.57672324544E+02  0.00000000000E+00 0.  1.
          2   -1    0    0  501    0  0.00000000000E+00 -0.00000000000E+00 -0.35270497466E+03  0.35270497466E+03  0.00000000000E+00 0. -1.
         25    2    1    2    0    0 -0.25306895480E+02 -0.87736822528E+02 -0.15967255462E+03  0.22244036429E+03  0.12508477918E+03 0.  0.
          5    1    3    3  502    0 -0.16315801971E+02 -0.62776595676E+02 -0.47095388636E+01  0.65167158254E+02  0.41800000000E+01 0.  1.
         -5    1    3    3    0  502 -0.89910935093E+01 -0.24960226852E+02 -0.15496301575E+03  0.15727320604E+03  0.41800000000E+01 0.  1.
        -11    1    1    2    0    0 -0.10855976982E+02  0.86188353126E+02 -0.63924990462E+02  0.10785494359E+03  0.00000000000E+00 0.  1.
         11    1    1    2    0    0  0.36162872462E+02  0.15484694016E+01 -0.71435105034E+02  0.80081991317E+02  0.00000000000E+00 0. -1.
</event>
<event>
 7    1  0.2661133E-009  0.5768732E+02  0.7561462E-02  0.1407801E+00
          2   -1    0    0  501    0  0.00000000000E+00  0.00000000000E+00  0.28399432237E+03  0.28399432237E+03  0.00000000000E+00 0. -1.
         -2   -1    0    0    0  501 -0.00000000000E+00 -0.00000000000E+00 -0.69341435601E+02  0.69341435601E+02  0.00000000000E+00 0.  1.
         25    2    1    2    0    0  0.24964622348E+02  0.11612491766E+02  0.22843758443E+02  0.13010423444E+03  0.12508873725E+03 0.  0.
          5    1    3    3  502    0  0.18023304250E+02 -0.21044747677E+02 -0.45780237863E+02  0.53675166322E+02  0.41800000000E+01 0.  1.
         -5    1    3    3    0  502  0.69413180985E+01  0.32657239443E+02  0.68623996306E+02  0.76429068122E+02  0.41800000000E+01 0.  1.
        -11    1    1    2    0    0 -0.38579809730E+02 -0.62991265947E+01  0.20178480713E+03  0.20553634497E+03  0.00000000000E+00 0. -1.
         11    1    1    2    0    0  0.13615187382E+02 -0.53133651718E+01 -0.99756787992E+01  0.17695178563E+02  0.00000000000E+00 0.  1.
</event>
<event>
 7    1  0.2661133E-009  0.1050323E+03  0.7561462E-02  0.1270056E+00
          1   -1    0    0  501    0  0.00000000000E+00  0.00000000000E+00  0.19845822320E+02  0.19845822320E+02  0.00000000000E+00 0. -1.
         -1   -1    0    0    0  501 -0.00000000000E+00 -0.00000000000E+00 -0.10380718701E+04  0.10380718701E+04  0.00000000000E+00 0.  1.
         25    2    1    2    0    0  0.65520926574E+02  0.14834292866E+02 -0.79381737507E+03  0.80641557678E+03  0.12508800677E+03 0.  0.
          5    1    3    3  502    0  0.89965455689E+02  0.18812815790E+02 -0.75220328748E+03  0.75780931859E+03  0.41800000000E+01 0.  1.
         -5    1    3    3    0  502 -0.24444529115E+02 -0.39785229244E+01 -0.41614087594E+02  0.48606258183E+02  0.41800000000E+01 0.  1.
        -11    1    1    2    0    0  0.10085108757E+02 -0.14095756213E+02 -0.30652531077E+01  0.17601009587E+02  0.00000000000E+00 0. -1.
         11    1    1    2    0    0 -0.75606035331E+02 -0.73853665265E+00 -0.22134341964E+03  0.23390110610E+03  0.00000000000E+00 0.  1.
</event>
<event>
 7    1  0.2661133E-009  0.1091857E+03  0.7561462E-02  0.1262085E+00
          1   -1    0    0  501    0  0.00000000000E+00  0.00000000000E+00  0.93605045711E+02  0.93605045711E+02  0.00000000000E+00 0. -1.
         -1   -1    0    0    0  501 -0.00000000000E+00 -0.00000000000E+00 -0.14829207477E+03  0.14829207477E+03  0.00000000000E+00 0.  1.
         25    2    1    2    0    0  0.61900422146E+01 -0.45275609418E+02 -0.24269247479E+02  0.13537145260E+03  0.12509291097E+03 0.  0.
          5    1    3    3  502    0  0.58124782093E+02 -0.32502425267E+02 -0.42032736917E+02  0.78861405733E+02  0.41800000000E+01 0.  1.
         -5    1    3    3    0  502 -0.51934739878E+02 -0.12773184151E+02  0.17763489438E+02  0.56510046864E+02  0.41800000000E+01 0.  1.
        -11    1    1    2    0    0  0.29558839757E+02 -0.10823761505E+02 -0.24216878170E+02  0.39715689711E+02  0.00000000000E+00 0.  1.
         11    1    1    2    0    0 -0.35748881972E+02  0.56099370923E+02 -0.62009034108E+01  0.66809978172E+02  0.00000000000E+00 0. -1.
</event>
<event>
 7    1  0.2661133E-009  0.1503090E+03  0.7561462E-02  0.1200094E+00
          4   -1    0    0  501    0  0.00000000000E+00  0.00000000000E+00  0.55814250501E+03  0.55814250501E+03  0.00000000000E+00 0.  1.
         -4   -1    0    0    0  501 -0.00000000000E+00 -0.00000000000E+00 -0.63956451811E+02  0.63956451811E+02  0.00000000000E+00 0. -1.
         25    2    1    2    0    0 -0.13568664270E+03  0.32615706888E+02  0.14679542311E+03  0.23805807171E+03  0.12509236554E+03 0.  0.
          5    1    3    3  502    0 -0.17312625021E+02  0.38554606243E+02 -0.78332731858E+01  0.43185845094E+02  0.41800000000E+01 0.  1.
         -5    1    3    3    0  502 -0.11837401768E+03 -0.59388993553E+01  0.15462869629E+03  0.19487222661E+03  0.41800000000E+01 0.  1.
        -11    1    1    2    0    0  0.38688842173E+02 -0.91798539491E+01  0.25985346049E+02  0.47500888797E+02  0.00000000000E+00 0. -1.
         11    1    1    2    0    0  0.96997800529E+02 -0.23435852939E+02  0.32140528404E+03  0.33653999631E+03  0.00000000000E+00 0.  1.
</event>
<event>
 7    1  0.2661133E-009  0.7981401E+02  0.7561462E-02  0.1329580E+00
         -2   -1    0    0    0  501 -0.00000000000E+00  0.00000000000E+00  0.23081572895E+02  0.23081572895E+02  0.00000000000E+00 0.  1.
          2   -1    0    0  501    0  0.00000000000E+00 -0.00000000000E+00 -0.86204688150E+03  0.86204688150E+03  0.00000000000E+00 0. -1.
         25    2    1    2    0    0 -0.71589313043E+01  0.20771670470E+02 -0.73605643228E+03  0.74693326637E+03  0.12509004881E+03 0.  0.
          5    1    3    3  502    0 -0.58511211285E+02  0.43096062809E+01 -0.55111237595E+03  0.55424223754E+03  0.41800000000E+01 0. -1.
         -5    1    3    3    0  502  0.51352279980E+02  0.16462064189E+02 -0.18494405633E+03  0.19269102882E+03  0.41800000000E+01 0. -1.
        -11    1    1    2    0    0 -0.13593576901E+02 -0.22078643625E+02 -0.11239006776E+03  0.11534200955E+03  0.00000000000E+00 0. -1.
         11    1    1    2    0    0  0.20752508205E+02  0.13069731557E+01  0.94811914309E+01  0.22853178479E+02  0.00000000000E+00 0.  1.
</event>
<event>
 7    1  0.2661133E-009  0.9721934E+02  0.7561462E-02  0.1286254E+00
          2   -1    0    0  501    0  0.00000000000E+00  0.00000000000E+00  0.14696292619E+03  0.14696292619E+03  0.00000000000E+00 0. -1.
         -2   -1    0    0    0  501 -0.00000000000E+00 -0.00000000000E+00 -0.11193155214E+03  0.11193155214E+03  0.00000000000E+00 0.  1.
         25    2    1    2    0    0  0.13754682967E+02  0.35089158882E+02 -0.32268007732E+02  0.13457314602E+03  0.12509303311E+03 0.  0.
          5    1    3    3  502    0 -0.69296906919E+01 -0.32316049866E+02  0.26596496689E+02  0.42628555314E+02  0.41800000000E+01 0. -1.
         -5    1    3    3    0  502  0.20684373659E+02  0.67405208748E+02 -0.58864504421E+02  0.91944590710E+02  0.41800000000E+01 0. -1.
        -11    1    1    2    0    0 -0.27378046569E+02  0.19897176017E+02  0.57658807448E+02  0.66858007178E+02  0.00000000000E+00 0. -1.
         11    1    1    2    0    0  0.13623363602E+02 -0.54986334900E+02  0.96405743322E+01  0.57463325130E+02  0.00000000000E+00 0.  1.
</event>
<event>
 7    1  0.2661133E-009  0.1985384E+03  0.7561462E-02  0.1150978E+00
          2   -1    0    0  501    0  0.00000000000E+00  0.00000000000E+00  0.47650164464E+03  0.47650164464E+03  0.00000000000E+00 0.  1.
         -2   -1    0    0    0  501 -0.00000000000E+00 -0.00000000000E+00 -0.85654491835E+02  0.85654491835E+02  0.00000000000E+00 0. -1.
         25    2    1    2    0    0  0.10618961777E+03 -0.13063589771E+03  0.19922243254E+03  0.28927368675E+03  0.12509082910E+03 0.  0.
          5    1    3    3  502    0 -0.16474723762E+02 -0.59414064779E+02  0.94500181714E+02  0.11291237470E+03  0.41800000000E+01 0.  1.
         -5    1    3    3    0  502  0.12266434153E+03 -0.71221832933E+02  0.10472225083E+03  0.17636131205E+03  0.41800000000E+01 0.  1.
        -11    1    1    2    0    0 -0.61555997655E+02  0.13515656597E+03  0.15781250148E+03  0.21670538479E+03  0.00000000000E+00 0. -1.
         11    1    1    2    0    0 -0.44633620114E+02 -0.45206682552E+01  0.33812218776E+02  0.56177064934E+02  0.00000000000E+00 0.  1.
</event>
<event>
 7    1  0.2661133E-009  0.4070498E+02  0.7561462E-02  0.1503087E+00
          1   -1    0    0  501    0  0.00000000000E+00  0.00000000000E+00  0.18956438956E+03  0.18956438956E+03  0.00000000000E+00 0. -1.
         -1   -1    0    0    0  501 -0.00000000000E+00 -0.00000000000E+00 -0.61724340141E+02  0.61724340141E+02  0.00000000000E+00 0.  1.
         25    2    1    2    0    0  0.27461679895E+02 -0.74234478498E+01  0.67494089039E+02  0.14495474279E+03  0.12508866440E+03 0.  0.
          5    1    3    3  502    0  0.97193518246E+01 -0.12671976732E+01  0.10354465238E+03  0.10409149354E+03  0.41800000000E+01 0. -1.
         -5    1    3    3    0  502  0.17742328071E+02 -0.61562501766E+01 -0.36050563346E+02  0.40863249249E+02  0.41800000000E+01 0. -1.
        -11    1    1    2    0    0  0.11318888272E+02  0.57557373184E+01 -0.16155296539E+02  0.20548463448E+02  0.00000000000E+00 0.  1.
         11    1    1    2    0    0 -0.38780568167E+02  0.16677105314E+01  0.76501256918E+02  0.85785523463E+02  0.00000000000E+00 0. -1.
</event>
<event>
 7    1  0.2661133E-009  0.1162918E+03  0.7561462E-02  0.1249343E+00
          2   -1    0    0  501    0  0.00000000000E+00  0.00000000000E+00  0.69720807919E+03  0.69720807919E+03  0.00000000000E+00 0. -1.
         -2   -1    0    0    0  501 -0.00000000000E+00 -0.00000000000E+00 -0.20216619576E+02  0.20216619576E+02  0.00000000000E+00 0.  1.
         25    2    1    2    0    0 -0.50886510851E+02 -0.17804407180E+01  0.37108150077E+03  0.39489501473E+03  0.12509190818E+03 0.  0.
          5    1    3    3  502    0 -0.12545172839E+02 -0.61856364965E+02  0.15899580406E+03  0.17111612828E+03  0.41800000000E+01 0.  1.
         -5    1    3    3    0  502 -0.38341338013E+02  0.60075924247E+02  0.21208569671E+03  0.22377888646E+03  0.41800000000E+01 0.  1.
        -11    1    1    2    0    0  0.23011383011E+02  0.42653710539E+02  0.10543813795E+03  0.11604336993E+03  0.00000000000E+00 0. -1.
         11    1    1    2    0    0  0.27875127840E+02 -0.40873269821E+02  0.20047182090E+03  0.20648631410E+03  0.00000000000E+00 0.  1.
</event>
<event>
 7    1  0.2661133E-009  0.9089381E+02  0.7561462E-02  0.1300702E+00
          2   -1    0    0  501    0  0.00000000000E+00  0.00000000000E+00  0.43048254793E+02  0.43048254793E+02  0.00000000000E+00 0.  1.
         -2   -1    0    0    0  501 -0.00000000000E+00 -0.00000000000E+00 -0.28800907260E+03  0.28800907260E+03  0.00000000000E+00 0. -1.
         25    2    1    2    0    0 -0.23645961077E+02  0.21195572733E+01 -0.16975747735E+03  0.21219970041E+03  0.12508991862E+03 0.  0.
          5    1    3    3  502    0 -0.57645445139E+01 -0.49329336014E+02 -0.21651563794E+02  0.54340371546E+02  0.41800000000E+01 0. -1.
         -5    1    3    3    0  502 -0.17881416563E+02  0.51448893288E+02 -0.14810591356E+03  0.15785932887E+03  0.41800000000E+01 0. -1.
        -11    1    1    2    0    0  0.40454919374E+02 -0.26019582424E+02 -0.75636509499E+02  0.89635376612E+02  0.00000000000E+00 0. -1.
         11    1    1    2    0    0 -0.16808958297E+02  0.23900025151E+02  0.43316904373E+00  0.29222250370E+02  0.00000000000E+00 0.  1.
</event>
<event>
 7    1  0.2661133E-009  0.1057980E+03  0.7561462E-02  0.1268555E+00
          4   -1    0    0  501    0  0.00000000000E+00  0.00000000000E+00  0.13384182617E+03  0.13384182617E+03  0.00000000000E+00 0. -1.
         -4   -1    0    0    0  501 -0.00000000000E+00 -0.00000000000E+00 -0.26672113091E+03  0.26672113091E+03  0.00000000000E+00 0.  1.
         25    2    1    2    0    0  0.54452375056E+02 -0.22840520029E+02 -0.22135911841E+03  0.26102537068E+03  0.12509050455E+03 0.  0.
          5    1    3    3  502    0  0.51186867315E+02  0.37534180237E+02 -0.55427866263E+02  0.84371978938E+02  0.41800000000E+01 0. -1.
         -5    1    3    3    0  502  0.32655077414E+01 -0.60374700266E+02 -0.16593125215E+03  0.17665339174E+03  0.41800000000E+01 0. -1.
        -11    1    1    2    0    0 -0.52261419654E+02  0.42644766897E+02  0.96768284466E+02  0.11795733553E+03  0.00000000000E+00 0. -1.
         11    1    1    2    0    0 -0.21909554020E+01 -0.19804246868E+02 -0.82884707889E+01  0.21580250870E+02  0.00000000000E+00 0.  1.
</event>
<event>
 7    1  0.2661133E-009  0.1550030E+03  0.7561462E-02  0.1194457E+00
         -2   -1    0    0    0  501 -0.00000000000E+00  0.00000000000E+00  0.24399055000E+02  0.24399055000E+02  0.00000000000E+00 0.  1.
          2   -1    0    0  501    0  0.00000000000E+00 -0.00000000000E+00 -0.12744197665E+04  0.12744197665E+04  0.00000000000E+00 0. -1.
         25    2    1    2    0    0 -0.13375147253E+03 -0.34578930912E+02 -0.62141364661E+03  0.64875566489E+03  0.12507531198E+03 0.  0.
          5    1    3    3  502    0 -0.14446492349E+03 -0.18145514557E+02 -0.38731255971E+03  0.41379688874E+03  0.41800000000E+01 0. -1.
         -5    1    3    3    0  502  0.10713450960E+02 -0.16433416355E+02 -0.23410108690E+03  0.23495877615E+03  0.41800000000E+01 0. -1.
        -11    1    1    2    0    0  0.33957938811E+02 -0.93983831720E+01 -0.49394096977E+02  0.60673289269E+02  0.00000000000E+00 0.  1.
         11    1    1    2    0    0  0.99793533719E+02  0.43977314085E+02 -0.57921296795E+03  0.58938986738E+03  0.00000000000E+00 0. -1.
</event>
<event>
 7    1  0.2661133E-009  0.1226378E+03  0.7561462E-02  0.1238808E+00
          1   -1    0    0  501    0  0.00000000000E+00  0.00000000000E+00  0.43391999079E+03  0.43391999079E+03  0.00000000000E+00 0. -1.
         -1   -1    0    0    0  501 -0.00000000000E+00 -0.00000000000E+00 -0.59688936410E+02  0.59688936410E+02  0.00000000000E+00 0.  1.
         25    2    1    2    0    0 -0.60449681097E+02  0.68737631832E+02  0.10782544301E+03  0.18881593136E+03  0.12508438671E+03 0.  0.
          5    1    3    3  502    0 -0.44061570370E+02  0.13019979146E+02  0.12066964269E+03  0.12918814539E+03  0.41800000000E+01 0. -1.
         -5    1    3    3    0  502 -0.16388110727E+02  0.55717652686E+02 -0.12844199687E+02  0.59627785970E+02  0.41800000000E+01 0. -1.
        -11    1    1    2    0    0 -0.29191598920E+02 -0.33908631951E+02  0.45266113166E+02  0.63647197656E+02  0.00000000000E+00 0.  1.
         11    1    1    2    0    0  0.89641280017E+02 -0.34828999880E+02  0.22113949821E+03  0.24114579819E+03  0.00000000000E+00 0. -1.
</event>
<event>
 7    1  0.2661133E-009  0.9647272E+02  0.7561462E-02  0.1287893E+00
         -1   -1    0    0    0  501 -0.00000000000E+00  0.00000000000E+00  0.19399587676E+02  0.19399587676E+02  0.00000000000E+00 0.  1.
          1   -1    0    0  501    0  0.00000000000E+00 -0.00000000000E+00 -0.97517316897E+03  0.97517316897E+03  0.00000000000E+00 0. -1.
         25    2    1    2    0    0 -0.25112366121E+02  0.70055753098E+02 -0.37242777273E+03  0.39986006976E+03  0.12508872856E+03 0.  0.
          5    1    3    3  502    0 -0.19136278338E+02  0.70894234058E+02 -0.38130895940E+03  0.38833771964E+03  0.41800000000E+01 0.  1.
         -5    1    3    3    0  502 -0.59760877829E+01 -0.83848096024E+00  0.88811866762E+01  0.11522350120E+02  0.41800000000E+01 0.  1.
        -11    1    1    2    0    0 -0.29568722223E+02 -0.10942931796E+02 -0.10482832626E+03  0.10946705018E+03  0.00000000000E+00 0.  1.
         11    1    1    2    0    0  0.54681088343E+02 -0.59112821301E+02 -0.47851748231E+03  0.48524563671E+03  0.00000000000E+00 0. -1.
</event>
<event>
 7    1  0.2661133E-009  0.1833557E+03  0.7561462E-02  0.1164594E+00
         -2   -1    0    0    0  501 -0.00000000000E+00  0.00000000000E+00  0.49735609287E+02  0.49735609287E+02  0.00000000000E+00 0.  1.
          2   -1    0    0  501    0  0.00000000000E+00 -0.00000000000E+00 -0.89654001952E+03  0.89654001952E+03  0.00000000000E+00 0. -1.
         25    2    1    2    0    0  0.14418353772E+03  0.99001118012E+02 -0.54661737283E+03  0.58739147063E+03  0.12509226022E+03 0.  0.
          5    1    3    3  502    0  0.15629074005E+02 -0.12292101261E+02 -0.20267304382E+03  0.20368897564E+03  0.41800000000E+01 0.  1.
         -5    1    3    3    0  502  0.12855446371E+03  0.11129321927E+03 -0.34394432902E+03  0.38370249499E+03  0.41800000000E+01 0.  1.
        -11    1    1    2    0    0 -0.12255845246E+03 -0.73658515340E+02 -0.29114586885E+03  0.32436409804E+03  0.00000000000E+00 0. -1.
         11    1    1    2    0    0 -0.21625085263E+02 -0.25342602673E+02 -0.90411685467E+01  0.34520060132E+02  0.00000000000E+00 0.  1.
</event>
<event>
 7    1  0.2661133E-009  0.1238421E+03  0.7561462E-02  0.1236890E+00
         -2   -1    0    0    0  501 -0.00000000000E+00  0.00000000000E+00  0.47749658029E+02  0.47749658029E+02  0.00000000000E+00 0.  1.
          2   -1    0    0  501    0  0.00000000000E+00 -0.00000000000E+00 -0.52539244589E+03  0.52539244589E+03  0.00000000000E+00 0. -1.
         25    2    1    2    0    0 -0.68347005547E+02  0.76624861588E+02 -0.15989539017E+03  0.22749098838E+03  0.12507170510E+03 0.  0.
          5    1    3    3  502    0 -0.18597133081E+02  0.53139853899E+02 -0.16273049105E+03  0.17224512344E+03  0.41800000000E+01 0.  1.
         -5    1    3    3    0  502 -0.49749872466E+02  0.23485007689E+02  0.28351008762E+01  0.55245864945E+02  0.41800000000E+01 0.  1.
        -11    1    1    2    0    0  0.90264709833E+02 -0.65115122124E+02 -0.25973687970E+03  0.28257909273E+03  0.00000000000E+00 0. -1.
         11    1    1    2    0    0 -0.21917704287E+02 -0.11509739464E+02 -0.58010517988E+02  0.63072022807E+02  0.00000000000E+00 0.  1.
</event>
<event>
 7    1  0.2661133E-009  0.1410809E+03  0.7561462E-02  0.1211882E+00
          1   -1    0    0  501    0  0.00000000000E+00  0.00000000000E+00  0.45110569527E+02  0.45110569527E+02  0.00000000000E+00 0. -1.
         -1   -1    0    0    0  501 -0.00000000000E+00 -0.00000000000E+00 -0.48034372396E+03  0.48034372396E+03  0.00000000000E+00 0.  1.
         25    2    1    2    0    0  0.63010024130E+02  0.76581489570E+02 -0.22474909293E+03  0.27567091707E+03  0.12508921639E+03 0.  0.
          5    1    3    3  502    0  0.36821184247E+00 -0.27134896255E+02 -0.91455869327E+02  0.95488672674E+02  0.41800000000E+01 0.  1.
         -5    1    3    3    0  502  0.62641812287E+02  0.10371638582E+03 -0.13329322361E+03  0.18018224439E+03  0.41800000000E+01 0.  1.
        -11    1    1    2    0    0 -0.71280803909E+02 -0.91752768985E+02 -0.17161722897E+03  0.20724863546E+03  0.00000000000E+00 0.  1.
         11    1    1    2    0    0  0.82707797794E+01  0.15171279415E+02 -0.38866832524E+02  0.42534740950E+02  0.00000000000E+00 0. -1.
</event>
<event>
 7    1  0.2661133E-009  0.1784471E+03  0.7561462E-02  0.1169314E+00
          1   -1    0    0  501    0  0.00000000000E+00  0.00000000000E+00  0.51349184457E+03  0.51349184457E+03  0.00000000000E+00 0. -1.
         -1   -1    0    0    0  501 -0.00000000000E+00 -0.00000000000E+00 -0.69965805169E+02  0.69965805169E+02  0.00000000000E+00 0.  1.
         25    2    1    2    0    0 -0.13013366327E+03 -0.85072498739E+02  0.20616889803E+03  0.28692368035E+03  0.12508990158E+03 0.  0.
          5    1    3    3  502    0  0.58254399394E+01 -0.60271116476E+02  0.53004194854E+02  0.80582009803E+02  0.41800000000E+01 0.  1.
         -5    1    3    3    0  502 -0.13595910321E+03 -0.24801382263E+02  0.15316470317E+03  0.20634167055E+03  0.41800000000E+01 0.  1.
        -11    1    1    2    0    0  0.61162998930E+02  0.23650896608E+02  0.35538483360E+02  0.74587272024E+02  0.00000000000E+00 0. -1.
         11    1    1    2    0    0  0.68970664339E+02  0.61421602130E+02  0.20181865802E+03  0.22194669737E+03  0.00000000000E+00 0.  1.
</event>
<event>
 7    1  0.2661133E-009  0.9427353E+02  0.7561462E-02  0.1292821E+00
          2   -1    0    0  501    0  0.00000000000E+00  0.00000000000E+00  0.38877291505E+03  0.38877291505E+03  0.00000000000E+00 0. -1.
         -2   -1    0    0    0  501 -0.00000000000E+00 -0.00000000000E+00 -0.31813838399E+02  0.31813838399E+02  0.00000000000E+00 0.  1.
         25    2    1    2    0    0  0.21791685492E+02  0.16669476905E+02  0.21383354093E+03  0.24924854648E+03  0.12508919089E+03 0.  0.
          5    1    3    3  502    0 -0.18559796904E+02  0.50884617703E+02  0.17567941869E+03  0.18388703307E+03  0.41800000000E+01 0.  1.
         -5    1    3    3    0  502  0.40351482396E+02 -0.34215140797E+02  0.38154122247E+02  0.65361513414E+02  0.41800000000E+01 0.  1.
        -11    1    1    2    0    0  0.27179512593E+02  0.49412486207E+01  0.12796055470E+02  0.30444718398E+02  0.00000000000E+00 0.  1.
         11    1    1    2    0    0 -0.48971198086E+02 -0.21610725526E+02  0.13032948025E+03  0.14089348857E+03  0.00000000000E+00 0. -1.
</event>
<event>
 7    1  0.2661133E-009  0.1120047E+03  0.7561462E-02  0.1256902E+00
          1   -1    0    0  501    0  0.00000000000E+00  0.00000000000E+00  0.86074994053E+03  0.86074994053E+03  0.00000000000E+00 0. -1.
         -1   -1    0    0    0  501 -0.00000000000E+00 -0.00000000000E+00 -0.34855008834E+02  0.34855008834E+02  0.00000000000E+00 0.  1.
         25    2    1    2    0    0  0.65719438361E+02  0.36255608585E+02  0.72556112893E+03  0.74008098640E+03  0.12508957145E+03 0.  0.
          5    1    3    3  502    0  0.94546832200E+02  0.17131319339E+02  0.64738881364E+03  0.65449395261E+03  0.41800000000E+01 0.  1.
         -5    1    3    3    0  502 -0.28827393839E+02  0.19124289245E+02  0.78172315296E+02  0.85587033792E+02  0.41800000000E+01 0.  1.
        -11    1    1    2    0    0 -0.27312281701E+02 -0.45877811247E+02  0.10281528145E+03  0.11585213160E+03  0.00000000000E+00 0. -1.
         11    1    1    2    0    0 -0.38407156661E+02  0.96222026622E+01 -0.24814786911E+01  0.39671831358E+02  0.00000000000E+00 0.  1.
</event>
<event>
 7    1  0.2661133E-009  0.1060580E+03  0.7561462E-02  0.1268049E+00
         -1   -1    0    0    0  501 -0.00000000000E+00  0.00000000000E+00  0.45211224514E+02  0.45211224514E+02  0.00000000000E+00 0.  1.
          1   -1    0    0  501    0  0.00000000000E+00 -0.00000000000E+00 -0.29825048217E+03  0.29825048217E+03  0.00000000000E+00 0. -1.
         25    2    1    2    0    0 -0.18000474447E+02 -0.34677284782E+02 -0.11813811708E+03  0.17643650668E+03  0.12508674998E+03 0.  0.
          5    1    3    3  502    0  0.48332441399E+02 -0.41906232400E+02 -0.60984072743E+02  0.88479866263E+02  0.41800000000E+01 0. -1.
         -5    1    3    3    0  502 -0.66332915846E+02  0.72289476176E+01 -0.57154044340E+02  0.87956640413E+02  0.41800000000E+01 0. -1.
        -11    1    1    2    0    0  0.11376787364E+02 -0.21639622105E+02 -0.93950484470E+02  0.97079339036E+02  0.00000000000E+00 0. -1.
         11    1    1    2    0    0  0.66236870831E+01  0.56316906887E+02 -0.40950656101E+02  0.69945860971E+02  0.00000000000E+00 0.  1.
</event>
<event>
 6    1  0.2661133E-009  0.1131645E+03  0.7561462E-02  0.1254819E+00
          1   -1    0    0  501    0  0.00000000000E+00  0.00000000000E+00  0.20884615237E+03  0.20884615237E+03  0.00000000000E+00 0. -1.
         -1   -1    0    0    0  501 -0.00000000000E+00 -0.00000000000E+00 -0.10074876393E+03  0.10074876393E+03  0.00000000000E+00 0.  1.
          5    1    1    2  502    0 -0.59835848221E+01  0.15087723178E+02  0.74978960077E+02  0.76829418404E+02  0.41800000000E+01 0. -1.
         -5    1    1    2    0  502  0.74003535185E+02  0.52203448293E+02 -0.14506097113E+02  0.91812975592E+02  0.41800000000E+01 0. -1.
        -11    1    1    2    0    0 -0.12733715831E+02  0.15059212406E+02 -0.13995569471E+02  0.24182707912E+02  0.00000000000E+00 0.  1.
         11    1    1    2    0    0 -0.55286234532E+02 -0.82350383877E+02  0.61620094944E+02  0.11676981440E+03  0.00000000000E+00 0. -1.
</event>
<event>
 7    1  0.2661133E-009  0.1761338E+03  0.7561462E-02  0.1171598E+00
          1   -1    0    0  501    0  0.00000000000E+00  0.00000000000E+00  0.12416307476E+03  0.12416307476E+03  0.00000000000E+00 0.  1.
         -1   -1    0    0    0  501 -0.00000000000E+00 -0.00000000000E+00 -0.34583729089E+03  0.34583729089E+03  0.00000000000E+00 0. -1.
         25    2    1    2    0    0  0.11351172125E+03 -0.10421639216E+03 -0.21232706761E+03  0.29065136929E+03  0.12509783202E+03 0.  0.
          5    1    3    3  502    0  0.16924578890E+01  0.11406822798E+02 -0.83865927063E+02  0.84758162688E+02  0.41800000000E+01 0.  1.
         -5    1    3    3    0  502  0.11181926336E+03 -0.11562321496E+03 -0.12846114055E+03  0.20589320660E+03  0.41800000000E+01 0.  1.
        -11    1    1    2    0    0 -0.88403857175E+02  0.19216668018E+02 -0.39604895231E+01  0.90554998594E+02  0.00000000000E+00 0. -1.
         11    1    1    2    0    0 -0.25107864077E+02  0.84999724140E+02 -0.53866590000E+01  0.88793997756E+02  0.00000000000E+00 0.  1.
</event>
<event>
 7    1  0.2661133E-009  0.3134172E+03  0.7561462E-02  0.1078719E+00
          2   -1    0    0  501    0  0.00000000000E+00  0.00000000000E+00  0.13105030060E+03  0.13105030060E+03  0.00000000000E+00 0. -1.
         -2   -1    0    0    0  501 -0.00000000000E+00 -0.00000000000E+00 -0.82794530146E+03  0.82794530146E+03  0.00000000000E+00 0.  1.
         25    2    1    2    0    0  0.30363363157E+03  0.48579496548E+02 -0.28600844871E+03  0.43818022959E+03  0.12509089159E+03 0.  0.
          5    1    3    3  502    0  0.22615079554E+03  0.35059912390E+02 -0.12953818411E+03  0.26300378956E+03  0.41800000000E+01 0.  1.
         -5    1    3    3    0  502  0.77482836033E+02  0.13519584158E+02 -0.15647026461E+03  0.17517644003E+03  0.41800000000E+01 0.  1.
        -11    1    1    2    0    0 -0.18268401129E+03 -0.71317071208E+02 -0.23370675016E+03  0.30508755743E+03  0.00000000000E+00 0. -1.
         11    1    1    2    0    0 -0.12094962028E+03  0.22737574661E+02 -0.17717980199E+03  0.21572781504E+03  0.00000000000E+00 0.  1.
</event>
<event>
 7    1  0.2661133E-009  0.6513886E+02  0.7561462E-02  0.1377450E+00
          2   -1    0    0  501    0  0.00000000000E+00  0.00000000000E+00  0.32892791683E+03  0.32892791683E+03  0.00000000000E+00 0. -1.
         -2   -1    0    0    0  501 -0.00000000000E+00 -0.00000000000E+00 -0.72703996010E+02  0.72703996010E+02  0.00000000000E+00 0.  1.
         25    2    1    2    0    0  0.24310706527E+02  0.16762918064E+02  0.27310691433E+03  0.30184063386E+03  0.12509346795E+03 0.  0.
          5    1    3    3  502    0  0.14621595564E+02 -0.71967478602E+00  0.27990475345E+03  0.28031848386E+03  0.41800000000E+01 0. -1.
         -5    1    3    3    0  502  0.96891109635E+01  0.17482592850E+02 -0.67978391229E+01  0.21522150003E+02  0.41800000000E+01 0. -1.
        -11    1    1    2    0    0 -0.50299082924E+02 -0.36376027917E+02  0.20869736260E+01  0.62109327874E+02  0.00000000000E+00 0. -1.
         11    1    1    2    0    0  0.25988376397E+02  0.19613109853E+02 -0.18969967135E+02  0.37681951103E+02  0.00000000000E+00 0.  1.
</event>
<event>
 7    1  0.2661133E-009  0.1054877E+03  0.7561462E-02  0.1269162E+00
          1   -1    0    0  501    0  0.00000000000E+00  0.00000000000E+00  0.15799495606E+03  0.15799495606E+03  0.00000000000E+00 0. -1.
         -1   -1    0    0    0  501 -0.00000000000E+00 -0.00000000000E+00 -0.76517425167E+02  0.76517425167E+02  0.00000000000E+00 0.  1.
         25    2    1    2    0    0  0.10698568295E+02 -0.69584266377E+01  0.55769205315E+02  0.13755087076E+03  0.12508860348E+03 0.  0.
          5    1    3    3  502    0  0.56536987412E+02  0.31273127058E+02  0.38266830511E+02  0.75208125485E+02  0.41800000000E+01 0.  1.
         -5    1    3    3    0  502 -0.45838419117E+02 -0.38231553696E+02  0.17502374804E+02  0.62342745279E+02  0.41800000000E+01 0.  1.
        -11    1    1    2    0    0 -0.39094555386E+01  0.46303570826E+02  0.32167330876E+02  0.56515853436E+02  0.00000000000E+00 0. -1.
         11    1    1    2    0    0 -0.67891127567E+01 -0.39345144188E+02 -0.64590052950E+01  0.40445657030E+02  0.00000000000E+00 0.  1.
</event>
<event>
 7    1  0.2661133E-009  0.1786710E+03  0.7561462E-02  0.1169096E+00
          2   -1    0    0  501    0  0.00000000000E+00  0.00000000000E+00  0.44810582506E+03  0.44810582506E+03  0.00000000000E+00 0. -1.
         -2   -1    0    0    0  501 -0.00000000000E+00 -0.00000000000E+00 -0.78157249009E+02  0.78157249009E+02  0.00000000000E+00 0.  1.
         25    2    1    2    0    0 -0.94440960718E+02  0.11240185205E+03  0.25143037551E+03  0.31688834643E+03  0.12509084287E+03 0.  0.
          5    1    3    3  502    0 -0.60912122364E+02  0.13756293639E+03  0.20286069429E+03  0.25259410485E+03  0.41800000000E+01 0. -1.
         -5    1    3    3    0  502 -0.33528838354E+02 -0.25161084340E+02  0.48569681222E+02  0.64294241582E+02  0.41800000000E+01 0. -1.
        -11    1    1    2    0    0  0.71489445042E+02 -0.27228516634E+02  0.86640710093E+02  0.11558003944E+03  0.00000000000E+00 0. -1.
         11    1    1    2    0    0  0.22951515676E+02 -0.85173335414E+02  0.31877490446E+02  0.93794688200E+02  0.00000000000E+00 0.  1.
</event>
<event>
 7    1  0.2661133E-009  0.1297612E+03  0.7561462E-02  0.1227810E+00
          2   -1    0    0  501    0  0.00000000000E+00  0.00000000000E+00  0.10973089534E+04  0.10973089534E+04  0.00000000000E+00 0. -1.
         -2   -1    0    0    0  501 -0.00000000000E+00 -0.00000000000E+00 -0.22506886315E+02  0.22506886315E+02  0.00000000000E+00 0.  1.
         25    2    1    2    0    0  0.76068064728E+02 -0.64527482833E+02  0.76393085427E+03  0.78050497954E+03  0.12509007346E+03 0.  0.
          5    1    3    3  502    0 -0.33665906676E+02 -0.27757168593E+02  0.18735711950E+03  0.19241625791E+03  0.41800000000E+01 0. -1.
         -5    1    3    3    0  502  0.10973397140E+03 -0.36770314240E+02  0.57657373477E+03  0.58808872163E+03  0.41800000000E+01 0. -1.
        -11    1    1    2    0    0 -0.39888216290E+02  0.30458691432E+02  0.27097077647E+03  0.27557932322E+03  0.00000000000E+00 0. -1.
         11    1    1    2    0    0 -0.36179848439E+02  0.34068791401E+02  0.39900436315E+02  0.63731536924E+02  0.00000000000E+00 0.  1.
</event>
<event>
 7    1  0.2661133E-009  0.1150202E+03  0.7561462E-02  0.1251546E+00
         -1   -1    0    0    0  501 -0.00000000000E+00  0.00000000000E+00  0.12615791315E+02  0.12615791315E+02  0.00000000000E+00 0.  1.
          1   -1    0    0  501    0  0.00000000000E+00 -0.00000000000E+00 -0.11857728490E+04  0.11857728490E+04  0.00000000000E+00 0. -1.
         25    2    1    2    0    0 -0.65659007765E+02  0.76480114384E+01 -0.62457243590E+03  0.64039674811E+03  0.12509064685E+03 0.  0.
          5    1    3    3  502    0 -0.87389553750E+02 -0.22865469228E+02 -0.29164848071E+03  0.30534582442E+03  0.41800000000E+01 0.  1.
         -5    1    3    3    0  502  0.21730545985E+02  0.30513480667E+02 -0.33292395518E+03  0.33505092369E+03  0.41800000000E+01 0.  1.
        -11    1    1    2    0    0 -0.69393171040E+01 -0.26104914175E+02 -0.13425789355E+03  0.13694817504E+03  0.00000000000E+00 0. -1.
         11    1    1    2    0    0  0.72598324869E+02  0.18456902737E+02 -0.41432672823E+03  0.42104371716E+03  0.00000000000E+00 0.  1.
</event>
<event>
 7    1  0.2661133E-009  0.7442130E+02  0.7561462E-02  0.1345672E+00
         -1   -1    0    0    0  501 -0.00000000000E+00  0.00000000000E+00  0.12646953870E+03  0.12646953870E+03  0.00000000000E+00 0.  1.
          1   -1    0    0  501    0  0.00000000000E+00 -0.00000000000E+00 -0.10463443561E+03  0.10463443561E+03  0.00000000000E+00 0. -1.
         25    2    1    2    0    0  0.24864567290E+02  0.22078004076E+02  0.31053371310E+02  0.13310693972E+03  0.12508980998E+03 0.  0.
          5    1    3    3  502    0 -0.14888192362E+02  0.37900374400E+02  0.66028282127E+02  0.77687213183E+02  0.41800000000E+01 0.  1.
         -5    1    3    3    0  502  0.39752759652E+02 -0.15822370324E+02 -0.34974910817E+02  0.55419726536E+02  0.41800000000E+01 0.  1.
        -11    1    1    2    0    0 -0.13560317105E+01  0.18217369798E+02 -0.38710940492E+02  0.42804769572E+02  0.00000000000E+00 0. -1.
         11    1    1    2    0    0 -0.23508535580E+02 -0.40295373874E+02  0.29492672268E+02  0.55192265022E+02  0.00000000000E+00 0.  1.
</event>
<event>
 7    1  0.2661133E-009  0.2065141E+03  0.7561462E-02  0.1144357E+00
         -1   -1    0    0    0  501 -0.00000000000E+00  0.00000000000E+00  0.28330417805E+02  0.28330417805E+02  0.00000000000E+00 0.  1.
          1   -1    0    0  501    0  0.00000000000E+00 -0.00000000000E+00 -0.20454826887E+04  0.20454826887E+04  0.00000000000E+00 0. -1.
         25    2    1    2    0    0  0.15341667780E+03  0.13324835037E+03 -0.13353800438E+04  0.13565324646E+04  0.12509462960E+03 0.  0.
          5    1    3    3  502    0  0.96378246908E+02  0.11086337362E+03 -0.56816636129E+03  0.58686449934E+03  0.41800000000E+01 0. -1.
         -5    1    3    3    0  502  0.57038430894E+02  0.22384976749E+02 -0.76721368250E+03  0.76966796529E+03  0.41800000000E+01 0. -1.
        -11    1    1    2    0    0 -0.36311939815E+02 -0.18718416375E+02 -0.49732362234E+02  0.64360266765E+02  0.00000000000E+00 0.  1.
         11    1    1    2    0    0 -0.11710473799E+03 -0.11452993399E+03 -0.63203986488E+03  0.65292037511E+03  0.00000000000E+00 0. -1.
</event>
<event>
 7    1  0.2661133E-009  0.9576060E+02  0.7561462E-02  0.1289472E+00
         -2   -1    0    0    0  501 -0.00000000000E+00  0.00000000000E+00  0.30023826295E+02  0.30023826295E+02  0.00000000000E+00 0. -1.
          2   -1    0    0  501    0  0.00000000000E+00 -0.00000000000E+00 -0.34412893535E+03  0.34412893535E+03  0.00000000000E+00 0.  1.
         25    2    1    2    0    0  0.19655544167E+02  0.24378187596E+01 -0.18928722918E+03  0.22776846356E+03  0.12512607437E+03 0.  0.
          5    1    3    3  502    0 -0.45594611332E+02  0.29695404109E+02 -0.66640862361E+02  0.86134560682E+02  0.41800000000E+01 0.  1.
         -5    1    3    3    0  502  0.65250155499E+02 -0.27257585349E+02 -0.12264636682E+03  0.14163390288E+03  0.41800000000E+01 0.  1.
        -11    1    1    2    0    0  0.34057718615E+01  0.27841676446E+02 -0.91825553207E+02  0.96014011743E+02  0.00000000000E+00 0.  1.
         11    1    1    2    0    0 -0.23061316028E+02 -0.30279495206E+02 -0.32992326674E+02  0.50370286342E+02  0.00000000000E+00 0. -1.
</event>
<event>
 7    1  0.2661133E-009  0.1112322E+03  0.7561462E-02  0.1258305E+00
         -2   -1    0    0    0  501 -0.00000000000E+00  0.00000000000E+00  0.17292055249E+02  0.17292055249E+02  0.00000000000E+00 0.  1.
          2   -1    0    0  501    0  0.00000000000E+00 -0.00000000000E+00 -0.15100894118E+04  0.15100894118E+04  0.00000000000E+00 0. -1.
         25    2    1    2    0    0 -0.46006659926E+02 -0.18349944520E+02 -0.13144249055E+04  0.13212924207E+04  0.12508994934E+03 0.  0.
          5    1    3    3  502    0 -0.77794427243E+02 -0.34724730025E+02 -0.60835972042E+03  0.61431002076E+03  0.41800000000E+01 0. -1.
         -5    1    3    3    0  502  0.31787767317E+02  0.16374785505E+02 -0.70606518510E+03  0.70698239990E+03  0.41800000000E+01 0. -1.
        -11    1    1    2    0    0  0.71211867222E+02  0.24348055263E+02 -0.14896116031E+03  0.16689333452E+03  0.00000000000E+00 0. -1.
         11    1    1    2    0    0 -0.25205207297E+02 -0.59981107431E+01 -0.29411290769E+02  0.39195711909E+02  0.00000000000E+00 0.  1.
</event>
<event>
 7    1  0.2661133E-009  0.1912448E+03  0.7561462E-02  0.1157343E+00
         -2   -1    0    0    0  501 -0.00000000000E+00  0.00000000000E+00  0.42492662013E+03  0.42492662013E+03  0.00000000000E+00 0.  1.
          2   -1    0    0  501    0  0.00000000000E+00 -0.00000000000E+00 -0.10322464851E+03  0.10322464851E+03  0.00000000000E+00 0. -1.
         25    2    1    2    0    0  0.12495075336E+03  0.10980390555E+03  0.87700697359E+02  0.22584692331E+03  0.12508330030E+03 0.  0.
          5    1    3    3  502    0 -0.46301809349E+01  0.54004186758E+02 -0.85150160294E+01  0.55026072555E+02  0.41800000000E+01 0. -1.
         -5    1    3    3    0  502  0.12958093430E+03  0.55799718790E+02  0.96215713388E+02  0.17082085076E+03  0.41800000000E+01 0. -1.
        -11    1    1    2    0    0 -0.18216691024E+02  0.14396164547E+02  0.11159893132E+02  0.25761222801E+02  0.00000000000E+00 0. -1.
         11    1    1    2    0    0 -0.10673406234E+03 -0.12420007009E+03  0.22284138113E+03  0.27654312253E+03  0.00000000000E+00 0.  1.
</event>
<event>
 7    1  0.2661133E-009  0.1454818E+03  0.7561462E-02  0.1206137E+00
         -2   -1    0    0    0  501 -0.00000000000E+00  0.00000000000E+00  0.20177547016E+02  0.20177547016E+02  0.00000000000E+00 0.  1.
          2   -1    0    0  501    0  0.00000000000E+00 -0.00000000000E+00 -0.11625138845E+04  0.11625138845E+04  0.00000000000E+00 0. -1.
         25    2    1    2    0    0 -0.93191895810E+02  0.53152193549E+02 -0.64262768426E+03  0.66342106657E+03  0.12508911174E+03 0.  0.
          5    1    3    3  502    0 -0.23370547109E+02  0.82132919039E+02 -0.27126791284E+03  0.28442178503E+03  0.41800000000E+01 0. -1.
         -5    1    3    3    0  502 -0.69821348700E+02 -0.28980725490E+02 -0.37135977142E+03  0.37899928155E+03  0.41800000000E+01 0. -1.
        -11    1    1    2    0    0  0.55655785824E+02  0.97518069613E+01 -0.12100545415E+03  0.13354768500E+03  0.00000000000E+00 0.  1.
         11    1    1    2    0    0  0.37536109986E+02 -0.62904000510E+02 -0.37870319909E+03  0.38572267996E+03  0.00000000000E+00 0. -1.
</event>
<event>
 7    1  0.2661133E-009  0.1366839E+03  0.7561462E-02  0.1217862E+00
          1   -1    0    0  501    0  0.00000000000E+00  0.00000000000E+00  0.35637224232E+03  0.35637224232E+03  0.00000000000E+00 0. -1.
         -1   -1    0    0    0  501 -0.00000000000E+00 -0.00000000000E+00 -0.79108747237E+02  0.79108747237E+02  0.00000000000E+00 0.  1.
         25    2    1    2    0    0  0.87422955093E+02  0.26061183826E+02  0.30891074418E+02  0.15787839020E+03  0.12509743896E+03 0.  0.
          5    1    3    3  502    0  0.69062284340E+02 -0.41006324718E+02  0.35819647983E+02  0.88043383436E+02  0.41800000000E+01 0. -1.
         -5    1    3    3    0  502  0.18360670753E+02  0.67067508544E+02 -0.49285735655E+01  0.69835006767E+02  0.41800000000E+01 0. -1.
        -11    1    1    2    0    0 -0.74306037213E+01  0.26527703133E+02  0.91260102122E+02  0.95327536130E+02  0.00000000000E+00 0. -1.
         11    1    1    2    0    0 -0.79992351372E+02 -0.52588886959E+02  0.15511231854E+03  0.18227506322E+03  0.00000000000E+00 0.  1.
</event>
<event>
 7    1  0.2661133E-009  0.1444813E+03  0.7561462E-02  0.1207423E+00
          2   -1    0    0  501    0  0.00000000000E+00  0.00000000000E+00  0.80930264680E+02  0.80930264680E+02  0.00000000000E+00 0.  1.
         -2   -1    0    0    0  501 -0.00000000000E+00 -0.00000000000E+00 -0.35241408293E+03  0.35241408293E+03  0.00000000000E+00 0. -1.
         25    2    1    2    0    0  0.11986280382E+03  0.72280358126E+01 -0.81173866807E+02  0.19146061939E+03  0.12509450780E+03 0.  0.
          5    1    3    3  502    0 -0.11822799702E+02  0.91758922269E+01  0.20004135780E+02  0.25330089602E+02  0.41800000000E+01 0. -1.
         -5    1    3    3    0  502  0.13168560352E+03 -0.19478564143E+01 -0.10117800259E+03  0.16613052979E+03  0.41800000000E+01 0. -1.
        -11    1    1    2    0    0 -0.12097466060E+03  0.12753720981E+02 -0.18459326451E+03  0.22107057518E+03  0.00000000000E+00 0. -1.
         11    1    1    2    0    0  0.11118567843E+01 -0.19981756793E+02 -0.57166869303E+01  0.20813153041E+02  0.00000000000E+00 0.  1.
</event>
<event>
 7    1  0.2661133E-009  0.1535491E+03  0.7561462E-02  0.1196179E+00
          2   -1    0    0  501    0  0.00000000000E+00  0.00000000000E+00  0.47331852780E+03  0.47331852780E+03  0.00000000000E+00 0. -1.
         -2   -1    0    0    0  501 -0.00000000000E+00 -0.00000000000E+00 -0.81331902522E+02  0.81331902522E+02  0.00000000000E+00 0.  1.
         25    2    1    2    0    0 -0.11752663543E+03 -0.21060816410E+02  0.48419591396E+02  0.17957910122E+03  0.12509248075E+03 0.  0.
          5    1    3    3  502    0 -0.82752980659E+02 -0.64542374848E+02  0.62206290563E+02  0.12206911544E+03  0.41800000000E+01 0.  1.
         -5    1    3    3    0  502 -0.34773654772E+02  0.43481558439E+02 -0.13786699167E+02  0.57509985779E+02  0.41800000000E+01 0.  1.
        -11    1    1    2    0    0  0.12860033349E+03  0.29942258119E+02  0.32999829388E+03  0.35543418316E+03  0.00000000000E+00 0. -1.
         11    1    1    2    0    0 -0.11073698055E+02 -0.88814417098E+01  0.13568739995E+02  0.19637145936E+02  0.00000000000E+00 0.  1.
</event>
<event>
 7    1  0.2661133E-009  0.1922769E+03  0.7561462E-02  0.1156424E+00
         -4   -1    0    0    0  501 -0.00000000000E+00  0.00000000000E+00  0.40051129404E+02  0.40051129404E+02  0.00000000000E+00 0.  1.
          4   -1    0    0  501    0  0.00000000000E+00 -0.00000000000E+00 -0.11831501011E+04  0.11831501011E+04  0.00000000000E+00 0. -1.
         25    2    1    2    0    0  0.16653078781E+03 -0.19812476480E+02 -0.83406761949E+03  0.85990854247E+03  0.12509544363E+03 0.  0.
          5    1    3    3  502    0  0.13146415154E+03  0.36684075239E+02 -0.45567120916E+03  0.47569135768E+03  0.41800000000E+01 0.  1.
         -5    1    3    3    0  502  0.35066636276E+02 -0.56496551719E+02 -0.37839641033E+03  0.38421718479E+03  0.41800000000E+01 0.  1.
        -11    1    1    2    0    0 -0.76691431861E+02 -0.25419100509E+02 -0.82689929249E+02  0.11560852387E+03  0.00000000000E+00 0.  1.
         11    1    1    2    0    0 -0.89839355952E+02  0.45231576989E+02 -0.22634142300E+03  0.24768416421E+03  0.00000000000E+00 0. -1.
</event>
<event>
 7    1  0.2661133E-009  0.1398507E+03  0.7561462E-02  0.1213530E+00
          4   -1    0    0  501    0  0.00000000000E+00  0.00000000000E+00  0.28864339265E+03  0.28864339265E+03  0.00000000000E+00 0. -1.
         -4   -1    0    0    0  501 -0.00000000000E+00 -0.00000000000E+00 -0.93357013082E+02  0.93357013082E+02  0.00000000000E+00 0.  1.
         25    2    1    2    0    0 -0.10906784941E+03  0.15668345950E+02  0.16433299248E+03  0.23408060243E+03  0.12508838145E+03 0.  0.
          5    1    3    3  502    0  0.21355297244E+02 -0.26148217408E+01  0.66354149664E+02  0.69880123001E+02  0.41800000000E+01 0. -1.
         -5    1    3    3    0  502 -0.13042314665E+03  0.18283167690E+02  0.97978842820E+02  0.16420047943E+03  0.41800000000E+01 0. -1.
        -11    1    1    2    0    0  0.20669417489E+02  0.21770623311E+02 -0.22981501243E+02  0.37806537240E+02  0.00000000000E+00 0.  1.
         11    1    1    2    0    0  0.88398431919E+02 -0.37438969261E+02  0.53934888331E+02  0.11011326607E+03  0.00000000000E+00 0. -1.
</event>
<event>
 7    1  0.2661133E-009  0.8347576E+02  0.7561462E-02  0.1319467E+00
          2   -1    0    0  501    0  0.00000000000E+00  0.00000000000E+00  0.62843404108E+02  0.62843404108E+02  0.00000000000E+00 0. -1.
         -2   -1    0    0    0  501 -0.00000000000E+00 -0.00000000000E+00 -0.22050072683E+03  0.22050072683E+03  0.00000000000E+00 0.  1.
         25    2    1    2    0    0 -0.26573115767E+02 -0.22968558278E+02 -0.60372559504E+02  0.14327231043E+03  0.12509366028E+03 0.  0.
          5    1    3    3  502    0  0.78209803000E+01 -0.59189915626E+02  0.59430322046E+01  0.60144874066E+02  0.41800000000E+01 0.  1.
         -5    1    3    3    0  502 -0.34394096067E+02  0.36221357348E+02 -0.66315591709E+02  0.83127436362E+02  0.41800000000E+01 0.  1.
        -11    1    1    2    0    0  0.26016021323E+02  0.35732982454E+02 -0.11210530108E+03  0.12050426520E+03  0.00000000000E+00 0.  1.
         11    1    1    2    0    0  0.55709444443E+00 -0.12764424176E+02  0.14820537857E+02  0.19567555318E+02  0.00000000000E+00 0. -1.
</event>
<event>
 7    1  0.2661133E-009  0.1098309E+03  0.7561462E-02  0.1260883E+00
         -1   -1    0    0    0  501 -0.00000000000E+00  0.00000000000E+00  0.14932776184E+03  0.14932776184E+03  0.00000000000E+00 0.  1.
          1   -1    0    0  501    0  0.00000000000E+00 -0.00000000000E+00 -0.95031123081E+02  0.95031123081E+02  0.00000000000E+00 0. -1.
         25    2    1    2    0    0 -0.21416169073E+02 -0.23145836926E+00 -0.15556237549E+02  0.12786633983E+03  0.12509635672E+03 0.  0.
          5    1    3    3  502    0  0.33549871609E+02  0.44525291476E+02 -0.63897574752E+01  0.56270746099E+02  0.41800000000E+01 0. -1.
         -5    1    3    3    0  502 -0.54966040682E+02 -0.44756749845E+02 -0.91664800733E+01  0.71595593732E+02  0.41800000000E+01 0. -1.
        -11    1    1    2    0    0 -0.16779152664E+02 -0.36240760329E+02  0.24296704305E+02  0.46746791478E+02  0.00000000000E+00 0. -1.
         11    1    1    2    0    0  0.38195321737E+02  0.36472218699E+02  0.45556172006E+02  0.69745753614E+02  0.00000000000E+00 0.  1.
</event>
<event>
 7    1  0.2661133E-009  0.8274788E+02  0.7561462E-02  0.1321429E+00
          1   -1    0    0  501    0  0.00000000000E+00  0.00000000000E+00  0.11590873127E+04  0.11590873127E+04  0.00000000000E+00 0. -1.
         -1   -1    0    0    0  501 -0.00000000000E+00 -0.00000000000E+00 -0.17593242853E+02  0.17593242853E+02  0.00000000000E+00 0.  1.
         25    2    1    2    0    0 -0.40104170181E+02  0.84795786930E+01  0.97937922386E+03  0.98818871146E+03  0.12511202021E+03 0.  0.
          5    1    3    3  502    0 -0.56415945275E+02  0.13286622555E+02  0.96117183773E+03  0.96292682343E+03  0.41800000000E+01 0. -1.
         -5    1    3    3    0  502  0.16311775094E+02 -0.48070438616E+01  0.18207386128E+02  0.25261888034E+02  0.41800000000E+01 0. -1.
        -11    1    1    2    0    0  0.64785429723E+02 -0.66302603353E+01  0.82428867725E+02  0.10505060919E+03  0.00000000000E+00 0.  1.
         11    1    1    2    0    0 -0.24681259542E+02 -0.18493183577E+01  0.79685978250E+02  0.83441234894E+02  0.00000000000E+00 0. -1.
</event>
<event>
 7    1  0.2661133E-009  0.5735369E+02  0.7561462E-02  0.1409285E+00
         -2   -1    0    0    0  501 -0.00000000000E+00  0.00000000000E+00  0.68210513481E+02  0.68210513481E+02  0.00000000000E+00 0.  1.
          2   -1    0    0  501    0  0.00000000000E+00 -0.00000000000E+00 -0.18026344550E+03  0.18026344550E+03  0.00000000000E+00 0. -1.
         25    2    1    2    0    0 -0.58500110391E+01  0.87852599729E+00 -0.41788968707E+02  0.13201867400E+03  0.12509043905E+03 0.  0.
          5    1    3    3  502    0 -0.18741431919E+02  0.26621065518E+02 -0.78553907275E+02  0.85135839386E+02  0.41800000000E+01 0.  1.
         -5    1    3    3    0  502  0.12891420880E+02 -0.25742539520E+02  0.36764938569E+02  0.46882834612E+02  0.41800000000E+01 0.  1.
        -11    1    1    2    0    0  0.92225950043E+00  0.25722071224E+02 -0.82749451017E+02  0.86659951271E+02  0.00000000000E+00 0. -1.
         11    1    1    2    0    0  0.49277515387E+01 -0.26600597221E+02  0.12485487706E+02  0.29795333712E+02  0.00000000000E+00 0.  1.
</event>
<event>
 7    1  0.2661133E-009  0.8167178E+02  0.7561462E-02  0.1324373E+00
         -1   -1    0    0    0  501 -0.00000000000E+00  0.00000000000E+00  0.18020400623E+03  0.18020400623E+03  0.00000000000E+00 0.  1.
          1   -1    0    0  501    0  0.00000000000E+00 -0.00000000000E+00 -0.74859978909E+02  0.74859978909E+02  0.00000000000E+00 0. -1.
         25    2    1    2    0    0 -0.39760365825E+02  0.19490235814E+02  0.70170886910E+02  0.15011711489E+03  0.12510171395E+03 0.  0.
          5    1    3    3  502    0 -0.31951335025E+02  0.37623653334E+02 -0.23121281991E+02  0.54667112426E+02  0.41800000000E+01 0. -1.
         -5    1    3    3    0  502 -0.78090307997E+01 -0.18133417520E+02  0.93292168901E+02  0.95450002469E+02  0.41800000000E+01 0. -1.
        -11    1    1    2    0    0  0.30750491291E+02  0.30214799609E+02  0.33165629526E+02  0.54391964590E+02  0.00000000000E+00 0.  1.
         11    1    1    2    0    0  0.90098745332E+01 -0.49705035423E+02  0.20075108817E+01  0.50554905652E+02  0.00000000000E+00 0. -1.
</event>
<event>
 7    1  0.2661133E-009  0.1663053E+03  0.7561462E-02  0.1181757E+00
          1   -1    0    0  501    0  0.00000000000E+00  0.00000000000E+00  0.70634258273E+02  0.70634258273E+02  0.00000000000E+00 0. -1.
         -1   -1    0    0    0  501 -0.00000000000E+00 -0.00000000000E+00 -0.50567623824E+03  0.50567623824E+03  0.00000000000E+00 0.  1.
         25    2    1    2    0    0  0.65842159016E+02 -0.11795080307E+03 -0.11478896824E+03  0.21696925904E+03  0.12510623602E+03 0.  0.
          5    1    3    3  502    0  0.82207901221E+02 -0.28605632679E+02 -0.28685761085E+02  0.91742937239E+02  0.41800000000E+01 0.  1.
         -5    1    3    3    0  502 -0.16365742205E+02 -0.89345170390E+02 -0.86103207158E+02  0.12522632180E+03  0.41800000000E+01 0.  1.
        -11    1    1    2    0    0 -0.48622473842E+02  0.16062972527E+02 -0.16565595903E+03  0.17338990978E+03  0.00000000000E+00 0.  1.
         11    1    1    2    0    0 -0.17219685175E+02  0.10188783054E+03 -0.15459705269E+03  0.18595132770E+03  0.00000000000E+00 0. -1.
</event>
<event>
 7    1  0.2661133E-009  0.1080567E+03  0.7561462E-02  0.1264211E+00
         -1   -1    0    0    0  501 -0.00000000000E+00  0.00000000000E+00  0.30935382159E+02  0.30935382159E+02  0.00000000000E+00 0.  1.
          1   -1    0    0  501    0  0.00000000000E+00 -0.00000000000E+00 -0.64700029663E+03  0.64700029663E+03  0.00000000000E+00 0. -1.
         25    2    1    2    0    0  0.51082678593E+02  0.61234161826E+02 -0.43744902772E+03  0.46191877119E+03  0.12509291229E+03 0.  0.
          5    1    3    3  502    0 -0.21756692879E+02  0.47661143048E+00 -0.10465848980E+02  0.24506881449E+02  0.41800000000E+01 0.  1.
         -5    1    3    3    0  502  0.72839371472E+02  0.60757550395E+02 -0.42698317874E+03  0.43741188975E+03  0.41800000000E+01 0.  1.
        -11    1    1    2    0    0 -0.51994282609E+01 -0.51932572176E+02 -0.29996684366E+02  0.60198232366E+02  0.00000000000E+00 0.  1.
         11    1    1    2    0    0 -0.45883250332E+02 -0.93015896500E+01 -0.14861920239E+03  0.15581867523E+03  0.00000000000E+00 0. -1.
</event>
<event>
 7    1  0.2661133E-009  0.2736380E+03  0.7561462E-02  0.1099215E+00
         -2   -1    0    0    0  501 -0.00000000000E+00  0.00000000000E+00  0.15475626974E+03  0.15475626974E+03  0.00000000000E+00 0.  1.
          2   -1    0    0  501    0  0.00000000000E+00 -0.00000000000E+00 -0.58519791247E+03  0.58519791247E+03  0.00000000000E+00 0. -1.
         25    2    1    2    0    0 -0.26096056063E+03  0.48008299364E+02 -0.11238370995E+03  0.31413981335E+03  0.12509401689E+03 0.  0.
          5    1    3    3  502    0 -0.24081518095E+03  0.60215292336E+02 -0.58324433353E+02  0.25502361603E+03  0.41800000000E+01 0. -1.
         -5    1    3    3    0  502 -0.20145379679E+02 -0.12206992972E+02 -0.54059276598E+02  0.59116197325E+02  0.41800000000E+01 0. -1.
        -11    1    1    2    0    0  0.25059148946E+02  0.17135149872E+02 -0.91402100801E+01  0.31703592026E+02  0.00000000000E+00 0. -1.
         11    1    1    2    0    0  0.23590141168E+03 -0.65143449236E+02 -0.30891772270E+03  0.39411077683E+03  0.00000000000E+00 0.  1.
</event>
<event>
 7    1  0.2661133E-009  0.1440120E+03  0.7561462E-02  0.1208030E+00
          1   -1    0    0  501    0  0.00000000000E+00  0.00000000000E+00  0.93369171993E+03  0.93369171993E+03  0.00000000000E+00 0. -1.
         -1   -1    0    0    0  501 -0.00000000000E+00 -0.00000000000E+00 -0.24202426372E+02  0.24202426372E+02  0.00000000000E+00 0.  1.
         25    2    1    2    0    0 -0.49669932917E+02  0.90266992019E+02  0.50731091942E+03  0.53256641541E+03  0.12508951103E+03 0.  0.
          5    1    3    3  502    0 -0.43744983847E+02 -0.13212790266E+02  0.74501500042E+02  0.87499413409E+02  0.41800000000E+01 0.  1.
         -5    1    3    3    0  502 -0.59249490702E+01  0.10347978228E+03  0.43280941938E+03  0.44506700200E+03  0.41800000000E+01 0.  1.
        -11    1    1    2    0    0 -0.27368527898E+02 -0.29862752048E+02  0.11640320238E+03  0.12324985113E+03  0.00000000000E+00 0.  1.
         11    1    1    2    0    0  0.77038460815E+02 -0.60404239972E+02  0.28577517175E+03  0.30207787976E+03  0.00000000000E+00 0. -1.
</event>
<event>
 7    1  0.2661133E-009  0.1099514E+03  0.7561462E-02  0.1260660E+00
         -2   -1    0    0    0  501 -0.00000000000E+00  0.00000000000E+00  0.20121376515E+03  0.20121376515E+03  0.00000000000E+00 0.  1.
          2   -1    0    0  501    0  0.00000000000E+00 -0.00000000000E+00 -0.98971599316E+02  0.98971599316E+02  0.00000000000E+00 0. -1.
         25    2    1    2    0    0 -0.49103893829E+02 -0.61163449104E+02  0.81652004080E+01  0.14787354871E+03  0.12509099095E+03 0.  0.
          5    1    3    3  502    0 -0.19022751224E+02 -0.94011060237E+02  0.26389022659E+02  0.99568054254E+02  0.41800000000E+01 0. -1.
         -5    1    3    3    0  502 -0.30081142605E+02  0.32847611133E+02 -0.18223822251E+02  0.48305494460E+02  0.41800000000E+01 0. -1.
        -11    1    1    2    0    0  0.35408485191E+02  0.51079070141E+02  0.11169589566E+03  0.12782333643E+03  0.00000000000E+00 0.  1.
         11    1    1    2    0    0  0.13695408638E+02  0.10084378963E+02 -0.17618930232E+02  0.24488479319E+02  0.00000000000E+00 0. -1.
</event>
<event>
 7    1  0.2661133E-009  0.1314760E+03  0.7561462E-02  0.1225282E+00
          2   -1    0    0  501    0  0.00000000000E+00  0.00000000000E+00  0.10060534087E+04  0.10060534087E+04  0.00000000000E+00 0.  1.
         -2   -1    0    0    0  501 -0.00000000000E+00 -0.00000000000E+00 -0.25943683054E+02  0.25943683054E+02  0.00000000000E+00 0. -1.
         25    2    1    2    0    0  0.61062255728E+02  0.68836207440E+02  0.45767058752E+03  0.48329794592E+03  0.12509002884E+03 0.  0.
          5    1    3    3  502    0  0.53428797908E+02  0.38910446742E+02  0.77886109832E+02  0.10223687112E+03  0.41800000000E+01 0. -1.
         -5    1    3    3    0  502  0.76334578197E+01  0.29925760698E+02  0.37978447769E+03  0.38106107480E+03  0.41800000000E+01 0. -1.
        -11    1    1    2    0    0 -0.88887231873E+02  0.25680111925E+01  0.32384551817E+03  0.33583247954E+03  0.00000000000E+00 0.  1.
         11    1    1    2    0    0  0.27824976145E+02 -0.71404218633E+02  0.19859361994E+03  0.21286666629E+03  0.00000000000E+00 0. -1.
</event>
<event>
 7    1  0.2661133E-009  0.1200048E+03  0.7561462E-02  0.1243089E+00
          3   -1    0    0  501    0  0.00000000000E+00  0.00000000000E+00  0.61980718491E+02  0.61980718491E+02  0.00000000000E+00 0. -1.
         -3   -1    0    0    0  501 -0.00000000000E+00 -0.00000000000E+00 -0.23496148446E+03  0.23496148446E+03  0.00000000000E+00 0.  1.
         25    2    1    2    0    0 -0.20171189802E+02 -0.49047830895E+02 -0.82581777723E+02  0.15899734496E+03  0.12509132295E+03 0.  0.
          5    1    3    3  502    0 -0.96063756252E+01 -0.91409273743E+02 -0.55447582999E+02  0.10742366890E+03  0.41800000000E+01 0. -1.
         -5    1    3    3    0  502 -0.10564814177E+02  0.42361442849E+02 -0.27134194724E+02  0.51573676058E+02  0.41800000000E+01 0. -1.
        -11    1    1    2    0    0  0.34038676169E+02  0.70679176783E+02 -0.66181655595E+02  0.10263619753E+03  0.00000000000E+00 0. -1.
         11    1    1    2    0    0 -0.13867486367E+02 -0.21631345889E+02 -0.24217332648E+02  0.35308660463E+02  0.00000000000E+00 0.  1.
</event>
<event>
 7    1  0.2661133E-009  0.1231954E+03  0.7561462E-02  0.1237917E+00
         -2   -1    0    0    0  501 -0.00000000000E+00  0.00000000000E+00  0.41290448686E+02  0.41290448686E+02  0.00000000000E+00 0.  1.
          2   -1    0    0  501    0  0.00000000000E+00 -0.00000000000E+00 -0.49369393592E+03  0.49369393592E+03  0.00000000000E+00 0. -1.
         25    2    1    2    0    0 -0.25355034686E+02 -0.74362734311E+02 -0.15754070725E+03  0.21596671438E+03  0.12509937346E+03 0.  0.
          5    1    3    3  502    0  0.49040957238E+02 -0.12944564804E+02 -0.60656113561E+02  0.79178366724E+02  0.41800000000E+01 0.  1.
         -5    1    3    3    0  502 -0.74395991924E+02 -0.61418169507E+02 -0.96884593687E+02  0.13678834765E+03  0.41800000000E+01 0.  1.
        -11    1    1    2    0    0  0.27060255900E+01  0.76166456377E+02 -0.28359273749E+03  0.29365539737E+03  0.00000000000E+00 0. -1.
         11    1    1    2    0    0  0.22649009096E+02 -0.18037220662E+01 -0.11270042496E+02  0.25362272851E+02  0.00000000000E+00 0.  1.
</event>
<event>
 7    1  0.2661133E-009  0.1785789E+03  0.7561462E-02  0.1169186E+00
         -4   -1    0    0    0  501 -0.00000000000E+00  0.00000000000E+00  0.15085159784E+04  0.15085159784E+04  0.00000000000E+00 0.  1.
          4   -1    0    0  501    0  0.00000000000E+00 -0.00000000000E+00 -0.26478367307E+02  0.26478367307E+02  0.00000000000E+00 0. -1.
         25    2    1    2    0    0  0.13786400866E+03  0.43986476841E+02  0.10985745853E+04  0.11151029693E+04  0.12508883903E+03 0.  0.
          5    1    3    3  502    0 -0.48940014566E+01 -0.26223402876E+02  0.27279937266E+03  0.27413242828E+03  0.41800000000E+01 0.  1.
         -5    1    3    3    0  502  0.14275801011E+03  0.70209879717E+02  0.82577521262E+03  0.84097054100E+03  0.41800000000E+01 0.  1.
        -11    1    1    2    0    0 -0.61208542028E+01 -0.38681031492E+02  0.92460528013E+02  0.10041233138E+03  0.00000000000E+00 0.  1.
         11    1    1    2    0    0 -0.13174315445E+03 -0.53054453493E+01  0.29100249780E+03  0.31947904504E+03  0.00000000000E+00 0. -1.
</event>
<event>
 7    1  0.2661133E-009  0.1056299E+03  0.7561462E-02  0.1268884E+00
          1   -1    0    0  501    0  0.00000000000E+00  0.00000000000E+00  0.34584113365E+03  0.34584113365E+03  0.00000000000E+00 0. -1.
         -1   -1    0    0    0  501 -0.00000000000E+00 -0.00000000000E+00 -0.58777906981E+02  0.58777906981E+02  0.00000000000E+00 0.  1.
         25    2    1    2    0    0 -0.54409682696E+02 -0.74405941215E+02  0.15043394698E+03  0.21627004895E+03  0.12508278863E+03 0.  0.
          5    1    3    3  502    0  0.65531190158E+00  0.45343740694E+01 -0.19754960136E+02  0.20705574898E+02  0.41800000000E+01 0.  1.
         -5    1    3    3    0  502 -0.55064994597E+02 -0.78940315284E+02  0.17018890712E+03  0.19556447406E+03  0.41800000000E+01 0.  1.
        -11    1    1    2    0    0 -0.26627696858E+01  0.43946536488E+02  0.85365030780E+01  0.44847076789E+02  0.00000000000E+00 0.  1.
         11    1    1    2    0    0  0.57072452381E+02  0.30459404726E+02  0.12809277661E+03  0.14350191489E+03  0.00000000000E+00 0. -1.
</event>
<event>
 7    1  0.2661133E-009  0.1224254E+03  0.7561462E-02  0.1239149E+00
         -1   -1    0    0    0  501 -0.00000000000E+00  0.00000000000E+00  0.19543122489E+03  0.19543122489E+03  0.00000000000E+00 0.  1.
          1   -1    0    0  501    0  0.00000000000E+00 -0.00000000000E+00 -0.14096912874E+03  0.14096912874E+03  0.00000000000E+00 0. -1.
         25    2    1    2    0    0  0.85479711723E+02  0.55774879627E+02  0.10181187549E+03  0.19086185140E+03  0.12507985455E+03 0.  0.
          5    1    3    3  502    0  0.41879227973E+02 -0.16410752356E+02  0.96155103160E+02  0.10623774655E+03  0.41800000000E+01 0.  1.
         -5    1    3    3    0  502  0.43600483750E+02  0.72185631982E+02  0.56567723333E+01  0.84624104847E+02  0.41800000000E+01 0.  1.
        -11    1    1    2    0    0 -0.31453448645E+02 -0.52394309958E+02 -0.64404990415E+02  0.88783365210E+02  0.00000000000E+00 0. -1.
         11    1    1    2    0    0 -0.54026263079E+02 -0.33805696691E+01  0.17055211080E+02  0.56755137023E+02  0.00000000000E+00 0.  1.
</event>
<event>
 7    1  0.2661133E-009  0.2260077E+03  0.7561462E-02  0.1129482E+00
          2   -1    0    0  501    0  0.00000000000E+00  0.00000000000E+00  0.13226489501E+04  0.13226489501E+04  0.00000000000E+00 0. -1.
         -2   -1    0    0    0  501 -0.00000000000E+00 -0.00000000000E+00 -0.46269175505E+02  0.46269175505E+02  0.00000000000E+00 0.  1.
         25    2    1    2    0    0 -0.15098298099E+03 -0.16009062890E+03  0.73429775144E+03  0.77670216635E+03  0.12509275532E+03 0.  0.
          5    1    3    3  502    0 -0.10216961075E+03 -0.60692086779E+02  0.54080020872E+03  0.55371878866E+03  0.41800000000E+01 0. -1.
         -5    1    3    3    0  502 -0.48813370239E+02 -0.99398542121E+02  0.19349754272E+03  0.22298337770E+03  0.41800000000E+01 0. -1.
        -11    1    1    2    0    0  0.61048631072E+02  0.43121529682E+02  0.91815758490E+02  0.11839144895E+03  0.00000000000E+00 0. -1.
         11    1    1    2    0    0  0.89934349920E+02  0.11696909922E+03  0.45026626468E+03  0.47382451031E+03  0.00000000000E+00 0.  1.
</event>
<event>
 7    1  0.2661133E-009  0.1086005E+03  0.7561462E-02  0.1263184E+00
         -1   -1    0    0    0  501 -0.00000000000E+00  0.00000000000E+00  0.21720530735E+02  0.21720530735E+02  0.00000000000E+00 0. -1.
          1   -1    0    0  501    0  0.00000000000E+00 -0.00000000000E+00 -0.85222492109E+03  0.85222492109E+03  0.00000000000E+00 0.  1.
         25    2    1    2    0    0  0.75636249304E+02  0.35018225096E+02 -0.48097746051E+03  0.50391896590E+03  0.12509152000E+03 0.  0.
          5    1    3    3  502    0 -0.18443304448E+02  0.21067852175E+02 -0.28116273523E+03  0.28258444040E+03  0.41800000000E+01 0.  1.
         -5    1    3    3    0  502  0.94079553751E+02  0.13950372921E+02 -0.19981472528E+03  0.22133452550E+03  0.41800000000E+01 0.  1.
        -11    1    1    2    0    0 -0.37300014339E+02 -0.40391334399E+02 -0.30948973469E+03  0.31433524594E+03  0.00000000000E+00 0.  1.
         11    1    1    2    0    0 -0.38336234964E+02  0.53731093025E+01 -0.40037195154E+02  0.55691239981E+02  0.00000000000E+00 0. -1.
</event>
<event>
 7    1  0.2661133E-009  0.1107557E+03  0.7561462E-02  0.1259177E+00
          2   -1    0    0  501    0  0.00000000000E+00  0.00000000000E+00  0.41980989801E+03  0.41980989801E+03  0.00000000000E+00 0. -1.
         -2   -1    0    0    0  501 -0.00000000000E+00 -0.00000000000E+00 -0.31523344294E+02  0.31523344294E+02  0.00000000000E+00 0.  1.
         25    2    1    2    0    0  0.11489528681E+02 -0.33936844367E+02  0.24778274848E+03  0.27987215991E+03  0.12509363202E+03 0.  0.
          5    1    3    3  502    0  0.60856680415E+02  0.36813979527E+01  0.78241809863E+02  0.99279108842E+02  0.41800000000E+01 0.  1.
         -5    1    3    3    0  502 -0.49367151733E+02 -0.37618242319E+02  0.16954093862E+03  0.18059305107E+03  0.41800000000E+01 0.  1.
        -11    1    1    2    0    0 -0.50248320932E+02  0.31611521254E+02  0.88296519092E+02  0.10639763774E+03  0.00000000000E+00 0.  1.
         11    1    1    2    0    0  0.38758792251E+02  0.23253231130E+01  0.52207286144E+02  0.65063444659E+02  0.00000000000E+00 0. -1.
</event>
<event>
 7    1  0.2661133E-009  0.1110258E+03  0.7561462E-02  0.1258682E+00
          3   -1    0    0  501    0  0.00000000000E+00  0.00000000000E+00  0.65709933740E+03  0.65709933740E+03  0.00000000000E+00 0. -1.
         -3   -1    0    0    0  501 -0.00000000000E+00 -0.00000000000E+00 -0.34220871122E+02  0.34220871122E+02  0.00000000000E+00 0.  1.
         25    2    1    2    0    0 -0.72819492451E+02 -0.35745847962E+02  0.19003151517E+03  0.24153678063E+03  0.12509034939E+03 0.  0.
          5    1    3    3  502    0  0.53424960795E+01 -0.21625394380E+02  0.15144925911E+03  0.15313572553E+03  0.41800000000E+01 0.  1.
         -5    1    3    3    0  502 -0.78161988531E+02 -0.14120453582E+02  0.38582256057E+02  0.88401055101E+02  0.41800000000E+01 0.  1.
        -11    1    1    2    0    0  0.83974444837E+02  0.53002197282E+02  0.38709381078E+03  0.39962802535E+03  0.00000000000E+00 0. -1.
         11    1    1    2    0    0 -0.11154952386E+02 -0.17256349320E+02  0.45753140329E+02  0.50155402546E+02  0.00000000000E+00 0.  1.
</event>
<event>
 7    1  0.2661133E-009  0.1099176E+03  0.7561462E-02  0.1260723E+00
         -2   -1    0    0    0  501 -0.00000000000E+00  0.00000000000E+00  0.60381372752E+02  0.60381372752E+02  0.00000000000E+00 0.  1.
          2   -1    0    0  501    0  0.00000000000E+00 -0.00000000000E+00 -0.25781693029E+03  0.25781693029E+03  0.00000000000E+00 0. -1.
         25    2    1    2    0    0  0.66857296854E+01  0.43966257523E+02 -0.16460795033E+03  0.21147517836E+03  0.12509293732E+03 0.  0.
          5    1    3    3  502    0 -0.46835905582E+02 -0.63338637980E+01 -0.24905285756E+02  0.53586057337E+02  0.41800000000E+01 0.  1.
         -5    1    3    3    0  502  0.53521635268E+02  0.50300121321E+02 -0.13970266458E+03  0.15788912102E+03  0.41800000000E+01 0.  1.
        -11    1    1    2    0    0  0.40804015266E+02 -0.16949271963E+02 -0.25500601257E+01  0.44257748345E+02  0.00000000000E+00 0.  1.
         11    1    1    2    0    0 -0.47489744952E+02 -0.27016985560E+02 -0.30277547082E+02  0.62465376343E+02  0.00000000000E+00 0. -1.
</event>
<event>
 7    1  0.3141280E-009  0.1129786E+03  0.7561462E-02  0.1255151E+00
          2   -1    0    0  501    0  0.00000000000E+00  0.00000000000E+00  0.11017437414E+03  0.11017437414E+03  0.00000000000E+00 0. -1.
         -2   -1    0    0    0  501 -0.00000000000E+00 -0.00000000000E+00 -0.16411177506E+03  0.16411177506E+03  0.00000000000E+00 0.  1.
         25    2    1    2    0    0 -0.62882622066E+02  0.47674462547E+02 -0.19646681075E+02  0.14919917164E+03  0.12508925695E+03 0.  0.
          5    1    3    3  502    0 -0.75780355303E+02  0.70707457129E+02 -0.44342462531E+02  0.11280927766E+03  0.41800000000E+01 0. -1.
         -5    1    3    3    0  502  0.12897733237E+02 -0.23032994582E+02  0.24695781455E+02  0.36389893979E+02  0.41800000000E+01 0. -1.
        -11    1    1    2    0    0  0.64380139491E+01 -0.37621470603E+02  0.22567581457E+02  0.44340938271E+02  0.00000000000E+00 0. -1.
         11    1    1    2    0    0  0.56444608117E+02 -0.10052991944E+02 -0.56858301305E+02  0.80746039283E+02  0.00000000000E+00 0.  1.
</event>
<event>
 7    1  0.2661133E-009  0.1218120E+03  0.7561462E-02  0.1240137E+00
          3   -1    0    0  501    0  0.00000000000E+00  0.00000000000E+00  0.43926920818E+02  0.43926920818E+02  0.00000000000E+00 0. -1.
         -3   -1    0    0    0  501 -0.00000000000E+00 -0.00000000000E+00 -0.35495808467E+03  0.35495808467E+03  0.00000000000E+00 0.  1.
         25    2    1    2    0    0 -0.30803604849E+02  0.51379875481E+02 -0.18056219777E+03  0.22768091052E+03  0.12508851296E+03 0.  0.
          5    1    3    3  502    0  0.47313141566E+02  0.14882131890E+02 -0.88080519063E+02  0.10117144584E+03  0.41800000000E+01 0.  1.
         -5    1    3    3    0  502 -0.78116746415E+02  0.36497743591E+02 -0.92481678710E+02  0.12650946468E+03  0.41800000000E+01 0.  1.
        -11    1    1    2    0    0  0.15532946784E+02  0.25110330813E+02 -0.56288933650E+02  0.63562923161E+02  0.00000000000E+00 0.  1.
         11    1    1    2    0    0  0.15270658064E+02 -0.76490206294E+02 -0.74180032430E+02  0.10764117181E+03  0.00000000000E+00 0. -1.
</event>
<event>
 7    1  0.2661133E-009  0.9124033E+02  0.7561462E-02  0.1299876E+00
          1   -1    0    0  501    0  0.00000000000E+00  0.00000000000E+00  0.13265635308E+03  0.13265635308E+03  0.00000000000E+00 0. -1.
         -1   -1    0    0    0  501 -0.00000000000E+00 -0.00000000000E+00 -0.16252123191E+03  0.16252123191E+03  0.00000000000E+00 0.  1.
         25    2    1    2    0    0 -0.49878016243E+02 -0.13309717562E+02  0.69817216322E+02  0.15227248261E+03  0.12508996834E+03 0.  0.
          5    1    3    3  502    0 -0.19346509307E+02  0.27134226239E+02 -0.26882429590E+02  0.43019659187E+02  0.41800000000E+01 0.  1.
         -5    1    3    3    0  502 -0.30531506936E+02 -0.40443943801E+02  0.96699645911E+02  0.10925282342E+03  0.41800000000E+01 0.  1.
        -11    1    1    2    0    0  0.41448397159E+02 -0.31747040445E+02 -0.32245781990E+02  0.61364767254E+02  0.00000000000E+00 0. -1.
         11    1    1    2    0    0  0.84296190845E+01  0.45056758006E+02 -0.67436313156E+02  0.81540335124E+02  0.00000000000E+00 0.  1.
</event>
<event>
 7    1  0.2661133E-009  0.1557320E+03  0.7561462E-02  0.1193601E+00
         -2   -1    0    0    0  501 -0.00000000000E+00  0.00000000000E+00  0.24952962702E+03  0.24952962702E+03  0.00000000000E+00 0.  1.
          2   -1    0    0  501    0  0.00000000000E+00 -0.00000000000E+00 -0.15292431295E+03  0.15292431295E+03  0.00000000000E+00 0. -1.
         25    2    1    2    0    0 -0.14624387998E+03  0.31688818229E+02  0.11493600304E+03  0.22639673120E+03  0.12511491307E+03 0.  0.
          5    1    3    3  502    0 -0.10317644022E+03  0.43612397841E+02  0.13647966700E+03  0.17661141233E+03  0.41800000000E+01 0.  1.
         -5    1    3    3    0  502 -0.43067439757E+02 -0.11923579612E+02 -0.21543663959E+02  0.49785318868E+02  0.41800000000E+01 0.  1.
        -11    1    1    2    0    0  0.97562337650E+02 -0.39366092477E+02  0.27518652695E+02  0.10874454106E+03  0.00000000000E+00 0.  1.
         11    1    1    2    0    0  0.48681542329E+02  0.76772742481E+01 -0.45849341662E+02  0.67312667709E+02  0.00000000000E+00 0. -1.
</event>
<event>
 7    1  0.2661133E-009  0.1043459E+03  0.7561462E-02  0.1271414E+00
         -1   -1    0    0    0  501 -0.00000000000E+00  0.00000000000E+00  0.72078196299E+02  0.72078196299E+02  0.00000000000E+00 0.  1.
          1   -1    0    0  501    0  0.00000000000E+00 -0.00000000000E+00 -0.25524067191E+03  0.25524067191E+03  0.00000000000E+00 0. -1.
         25    2    1    2    0    0  0.35770271106E+02  0.28790356764E+01 -0.11543998376E+02  0.13064611927E+03  0.12508934184E+03 0.  0.
          5    1    3    3  502    0  0.64756844200E+02  0.38231916971E+02 -0.30128640329E+02  0.81119268452E+02  0.41800000000E+01 0.  1.
         -5    1    3    3    0  502 -0.28986573095E+02 -0.35352881294E+02  0.18584641953E+02  0.49526850820E+02  0.41800000000E+01 0.  1.
        -11    1    1    2    0    0 -0.61329133486E+02  0.23710967319E+01 -0.76700139038E+02  0.98233375399E+02  0.00000000000E+00 0.  1.
         11    1    1    2    0    0  0.25558862381E+02 -0.52501324083E+01 -0.94918338199E+02  0.98439373540E+02  0.00000000000E+00 0. -1.
</event>
<event>
 7    1  0.2661133E-009  0.7832603E+02  0.7561462E-02  0.1333870E+00
         -1   -1    0    0    0  501 -0.00000000000E+00  0.00000000000E+00  0.15686954182E+03  0.15686954182E+03  0.00000000000E+00 0.  1.
          1   -1    0    0  501    0  0.00000000000E+00 -0.00000000000E+00 -0.16780251710E+03  0.16780251710E+03  0.00000000000E+00 0. -1.
         25    2    1    2    0    0 -0.26122931425E+02 -0.63735106224E+02 -0.95580963318E+02  0.17183772313E+03  0.12509161136E+03 0.  0.
          5    1    3    3  502    0 -0.35584231730E+02 -0.26250630506E+02 -0.11860382312E+03  0.12664782828E+03  0.41800000000E+01 0.  1.
         -5    1    3    3    0  502  0.94613003053E+01 -0.37484475718E+02  0.23022859802E+02  0.45189894852E+02  0.41800000000E+01 0.  1.
        -11    1    1    2    0    0 -0.50907047920E+01  0.91726087344E+01 -0.24627596173E+02  0.26768834855E+02  0.00000000000E+00 0. -1.
         11    1    1    2    0    0  0.31213636217E+02  0.54562497489E+02  0.10927558422E+03  0.12606550093E+03  0.00000000000E+00 0.  1.
</event>
<event>
 7    1  0.2661133E-009  0.1039519E+03  0.7561462E-02  0.1272199E+00
         -2   -1    0    0    0  501 -0.00000000000E+00  0.00000000000E+00  0.66267170093E+03  0.66267170093E+03  0.00000000000E+00 0.  1.
          2   -1    0    0  501    0  0.00000000000E+00 -0.00000000000E+00 -0.32776338521E+02  0.32776338521E+02  0.00000000000E+00 0. -1.
         25    2    1    2    0    0 -0.30711664086E+02 -0.91242005085E+02  0.27710749187E+03  0.31891104524E+03  0.12508949965E+03 0.  0.
          5    1    3    3  502    0 -0.36546816842E+02 -0.60681008283E+02  0.27858832059E+03  0.28748352885E+03  0.41800000000E+01 0.  1.
         -5    1    3    3    0  502  0.58351527566E+01 -0.30560996801E+02 -0.14808287203E+01  0.31427516397E+02  0.41800000000E+01 0.  1.
        -11    1    1    2    0    0  0.34905671889E+02  0.35977565256E+02  0.28306587649E+03  0.28747014030E+03  0.00000000000E+00 0. -1.
         11    1    1    2    0    0 -0.41940078031E+01  0.55264439828E+02  0.69721994051E+02  0.89066853910E+02  0.00000000000E+00 0.  1.
</event>
<event>
 7    1  0.2661133E-009  0.1135579E+03  0.7561462E-02  0.1254120E+00
          3   -1    0    0  501    0  0.00000000000E+00  0.00000000000E+00  0.11387524870E+03  0.11387524870E+03  0.00000000000E+00 0. -1.
         -3   -1    0    0    0  501 -0.00000000000E+00 -0.00000000000E+00 -0.13498197836E+03  0.13498197836E+03  0.00000000000E+00 0.  1.
         25    2    1    2    0    0  0.10367720747E+02 -0.55527552719E+02 -0.13250617057E+02  0.13787512014E+03  0.12507266351E+03 0.  0.
          5    1    3    3  502    0 -0.49408942959E+02 -0.51793013803E+02  0.12077406003E+02  0.72712420252E+02  0.41800000000E+01 0.  1.
         -5    1    3    3    0  502  0.59776663705E+02 -0.37345389156E+01 -0.25328023060E+02  0.65162699889E+02  0.41800000000E+01 0.  1.
        -11    1    1    2    0    0  0.14542557584E+02 -0.14809979224E+02 -0.26895237625E+02  0.33973155175E+02  0.00000000000E+00 0.  1.
         11    1    1    2    0    0 -0.24910278330E+02  0.70337531943E+02  0.19039125018E+02  0.77008951738E+02  0.00000000000E+00 0. -1.
</event>
<event>
 7    1  0.2661133E-009  0.1170808E+03  0.7561462E-02  0.1247992E+00
          2   -1    0    0  501    0  0.00000000000E+00  0.00000000000E+00  0.57606527166E+03  0.57606527166E+03  0.00000000000E+00 0. -1.
         -2   -1    0    0    0  501 -0.00000000000E+00 -0.00000000000E+00 -0.34665306018E+02  0.34665306018E+02  0.00000000000E+00 0.  1.
         25    2    1    2    0    0  0.15745618955E+02  0.81070257906E+02  0.37757001047E+03  0.40623869484E+03  0.12510177116E+03 0.  0.
          5    1    3    3  502    0 -0.32233833636E+02  0.66676980317E+02  0.10199125420E+03  0.12611315581E+03  0.41800000000E+01 0. -1.
         -5    1    3    3    0  502  0.47979452591E+02  0.14393277589E+02  0.27557875627E+03  0.28012553903E+03  0.41800000000E+01 0. -1.
        -11    1    1    2    0    0  0.16105691615E+02 -0.75728035673E+02  0.66895414438E+02  0.10231874297E+03  0.00000000000E+00 0.  1.
         11    1    1    2    0    0 -0.31851310570E+02 -0.53422222337E+01  0.96934540741E+02  0.10217313988E+03  0.00000000000E+00 0. -1.
</event>
<event>
 7    1  0.2661133E-009  0.2818018E+03  0.7561462E-02  0.1094709E+00
          2   -1    0    0  501    0  0.00000000000E+00  0.00000000000E+00  0.14343669634E+04  0.14343669634E+04  0.00000000000E+00 0. -1.
         -2   -1    0    0    0  501 -0.00000000000E+00 -0.00000000000E+00 -0.67073591861E+02  0.67073591861E+02  0.00000000000E+00 0.  1.
         25    2    1    2    0    0  0.51017610664E+01 -0.26014817399E+03  0.99751533610E+03  0.10384549699E+04  0.12509507733E+03 0.  0.
          5    1    3    3  502    0 -0.53717402196E+02 -0.85677561239E+02  0.43242014572E+03  0.44410680993E+03  0.41800000000E+01 0. -1.
         -5    1    3    3    0  502  0.58819163263E+02 -0.17447061275E+03  0.56509519037E+03  0.59434815997E+03  0.41800000000E+01 0. -1.
        -11    1    1    2    0    0  0.43450403971E+02  0.17395376050E+03  0.22662580989E+03  0.28897596112E+03  0.00000000000E+00 0.  1.
         11    1    1    2    0    0 -0.48552165037E+02  0.86194413487E+02  0.14315222555E+03  0.17400962424E+03  0.00000000000E+00 0. -1.
</event>
<event>
 7    1  0.2661133E-009  0.1609409E+03  0.7561462E-02  0.1187639E+00
         -2   -1    0    0    0  501 -0.00000000000E+00  0.00000000000E+00  0.90760754656E+02  0.90760754656E+02  0.00000000000E+00 0.  1.
          2   -1    0    0  501    0  0.00000000000E+00 -0.00000000000E+00 -0.36881925654E+03  0.36881925654E+03  0.00000000000E+00 0. -1.
         25    2    1    2    0    0 -0.88776312893E+02  0.10789715105E+03 -0.90057841245E+02  0.20803824469E+03  0.12508584072E+03 0.  0.
          5    1    3    3  502    0  0.90058385068E+01  0.78962799323E+02 -0.14119869740E+02  0.80827420630E+02  0.41800000000E+01 0. -1.
         -5    1    3    3    0  502 -0.97782151399E+02  0.28934351730E+02 -0.75937971505E+02  0.12721082406E+03  0.41800000000E+01 0. -1.
        -11    1    1    2    0    0  0.81995295037E+02 -0.93739133881E+02 -0.93463841819E+02  0.15571044717E+03  0.00000000000E+00 0.  1.
         11    1    1    2    0    0  0.67810178560E+01 -0.14158017173E+02 -0.94536818819E+02  0.95831319337E+02  0.00000000000E+00 0. -1.
</event>
<event>
 7    1  0.2661133E-009  0.1113533E+03  0.7561462E-02  0.1258084E+00
          1   -1    0    0  501    0  0.00000000000E+00  0.00000000000E+00  0.48610287006E+03  0.48610287006E+03  0.00000000000E+00 0. -1.
         -1   -1    0    0    0  501 -0.00000000000E+00 -0.00000000000E+00 -0.32685957236E+02  0.32685957236E+02  0.00000000000E+00 0.  1.
         25    2    1    2    0    0 -0.27787609322E+02 -0.56394886618E+02  0.21398025807E+03  0.25571004245E+03  0.12509012949E+03 0.  0.
          5    1    3    3  502    0  0.10168871964E+02 -0.72141783417E+02  0.54805059676E+02  0.91262861218E+02  0.41800000000E+01 0. -1.
         -5    1    3    3    0  502 -0.37956481286E+02  0.15746896798E+02  0.15917519839E+03  0.16444718123E+03  0.41800000000E+01 0. -1.
        -11    1    1    2    0    0  0.55934295619E+02  0.57553317287E+02  0.18844214319E+03  0.20482058268E+03  0.00000000000E+00 0. -1.
         11    1    1    2    0    0 -0.28146686297E+02 -0.11584306690E+01  0.50994511562E+02  0.58258202174E+02  0.00000000000E+00 0.  1.
</event>
<event>
 7    1  0.2661133E-009  0.6840006E+02  0.7561462E-02  0.1365620E+00
         -1   -1    0    0    0  501 -0.00000000000E+00  0.00000000000E+00  0.80282062603E+02  0.80282062603E+02  0.00000000000E+00 0.  1.
          1   -1    0    0  501    0  0.00000000000E+00 -0.00000000000E+00 -0.21241627428E+03  0.21241627428E+03  0.00000000000E+00 0. -1.
         25    2    1    2    0    0  0.19496830061E+02 -0.52565181308E+02 -0.21836737004E+02  0.13881038147E+03  0.12509298243E+03 0.  0.
          5    1    3    3  502    0  0.35559376296E+02 -0.15754269083E+02  0.45680087912E+02  0.60139912442E+02  0.41800000000E+01 0.  1.
         -5    1    3    3    0  502 -0.16062546235E+02 -0.36810912225E+02 -0.67516824916E+02  0.78670469028E+02  0.41800000000E+01 0.  1.
        -11    1    1    2    0    0 -0.22561365846E+01  0.22755846273E+02 -0.11665056141E+03  0.11887082135E+03  0.00000000000E+00 0. -1.
         11    1    1    2    0    0 -0.17240693476E+02  0.29809335035E+02  0.63530867349E+01  0.35017134061E+02  0.00000000000E+00 0.  1.
</event>
<event>
 7    1  0.2765990E-009  0.1063042E+03  0.7561462E-02  0.1267571E+00
          1   -1    0    0  501    0  0.00000000000E+00  0.00000000000E+00  0.11980580883E+03  0.11980580883E+03  0.00000000000E+00 0. -1.
         -1   -1    0    0    0  501 -0.00000000000E+00 -0.00000000000E+00 -0.14529416921E+03  0.14529416921E+03  0.00000000000E+00 0.  1.
         25    2    1    2    0    0 -0.45890278482E+02  0.28802187095E+02 -0.66165937953E+02  0.15152935817E+03  0.12509089256E+03 0.  0.
          5    1    3    3  502    0 -0.55131898120E+02  0.55315708434E+02  0.14208113821E+01  0.78223045804E+02  0.41800000000E+01 0. -1.
         -5    1    3    3    0  502  0.92416196378E+01 -0.26513521339E+02 -0.67586749335E+02  0.73306312368E+02  0.41800000000E+01 0. -1.
        -11    1    1    2    0    0  0.42307780939E+02  0.26937948640E+02  0.18014011343E+02  0.53292644986E+02  0.00000000000E+00 0.  1.
         11    1    1    2    0    0  0.35824975435E+01 -0.55740135735E+02  0.22663566231E+02  0.60277974873E+02  0.00000000000E+00 0. -1.
</event>
<event>
 7    1  0.2661133E-009  0.1079666E+03  0.7561462E-02  0.1264382E+00
          2   -1    0    0  501    0  0.00000000000E+00  0.00000000000E+00  0.14059093384E+04  0.14059093384E+04  0.00000000000E+00 0. -1.
         -2   -1    0    0    0  501 -0.00000000000E+00 -0.00000000000E+00 -0.10850973117E+02  0.10850973117E+02  0.00000000000E+00 0.  1.
         25    2    1    2    0    0 -0.19319756010E+02  0.48005089363E+02  0.96850817398E+03  0.97792435498E+03  0.12510083701E+03 0.  0.
          5    1    3    3  502    0 -0.54505341779E+02  0.54071079726E+02  0.34879222820E+03  0.35716663450E+03  0.41800000000E+01 0.  1.
         -5    1    3    3    0  502  0.35185585769E+02 -0.60659903633E+01  0.61971594578E+03  0.62075772048E+03  0.41800000000E+01 0.  1.
        -11    1    1    2    0    0  0.37122612776E+02  0.13164463928E+02  0.16673199714E+03  0.17132119064E+03  0.00000000000E+00 0.  1.
         11    1    1    2    0    0 -0.17802856765E+02 -0.61169553291E+02  0.25981819420E+03  0.26751476594E+03  0.00000000000E+00 0. -1.
</event>
<event>
 7    1  0.2661133E-009  0.8595383E+02  0.7561462E-02  0.1312957E+00
         -2   -1    0    0    0  501 -0.00000000000E+00  0.00000000000E+00  0.16383620157E+03  0.16383620157E+03  0.00000000000E+00 0.  1.
          2   -1    0    0  501    0  0.00000000000E+00 -0.00000000000E+00 -0.16266260887E+03  0.16266260887E+03  0.00000000000E+00 0. -1.
         25    2    1    2    0    0  0.35322886571E+02 -0.58770908593E+02  0.10056769255E+03  0.17450763427E+03  0.12504930076E+03 0.  0.
          5    1    3    3  502    0  0.96799871622E+01 -0.99828890607E+01 -0.29666259220E+02  0.33029071461E+02  0.41800000000E+01 0.  1.
         -5    1    3    3    0  502  0.25642899409E+02 -0.48788019532E+02  0.13023395177E+03  0.14147856280E+03  0.41800000000E+01 0.  1.
        -11    1    1    2    0    0  0.19551933925E+02  0.39283988264E+02 -0.95209711661E+01  0.44901656384E+02  0.00000000000E+00 0.  1.
         11    1    1    2    0    0 -0.54874820496E+02  0.19486920329E+02 -0.89873128682E+02  0.10708951978E+03  0.00000000000E+00 0. -1.
</event>
<event>
 7    1  0.2661133E-009  0.1557552E+03  0.7561462E-02  0.1193574E+00
         -2   -1    0    0    0  501 -0.00000000000E+00  0.00000000000E+00  0.12956321512E+03  0.12956321512E+03  0.00000000000E+00 0.  1.
          2   -1    0    0  501    0  0.00000000000E+00 -0.00000000000E+00 -0.22726547806E+03  0.22726547806E+03  0.00000000000E+00 0. -1.
         25    2    1    2    0    0 -0.54398522097E+02 -0.11618649405E+03 -0.87275149962E+02  0.19930609297E+03  0.12508983288E+03 0.  0.
          5    1    3    3  502    0  0.37185107088E+02 -0.21728181327E+02 -0.38020104980E+01  0.43437008838E+02  0.41800000000E+01 0.  1.
         -5    1    3    3    0  502 -0.91583629185E+02 -0.94458312726E+02 -0.83473139464E+02  0.15586908414E+03  0.41800000000E+01 0.  1.
        -11    1    1    2    0    0 -0.18133679534E+01  0.48882592241E+02 -0.41846591159E+02  0.64373389838E+02  0.00000000000E+00 0.  1.
         11    1    1    2    0    0  0.56211890050E+02  0.67303901811E+02  0.31419478178E+02  0.93149210362E+02  0.00000000000E+00 0. -1.
</event>
<event>
 7    1  0.2661133E-009  0.1260522E+03  0.7561462E-02  0.1233434E+00
         -4   -1    0    0    0  501 -0.00000000000E+00  0.00000000000E+00  0.33521586559E+03  0.33521586559E+03  0.00000000000E+00 0.  1.
          4   -1    0    0  501    0  0.00000000000E+00 -0.00000000000E+00 -0.10341384922E+03  0.10341384922E+03  0.00000000000E+00 0. -1.
         25    2    1    2    0    0 -0.26920818571E+02 -0.10066069301E+03 -0.51054258335E+01  0.16288073265E+03  0.12508701814E+03 0.  0.
          5    1    3    3  502    0 -0.44680089246E+02 -0.11338243762E+03 -0.33835493425E+02  0.12654722657E+03  0.41800000000E+01 0. -1.
         -5    1    3    3    0  502  0.17759270675E+02  0.12721744612E+02  0.28730067591E+02  0.36333506088E+02  0.41800000000E+01 0. -1.
        -11    1    1    2    0    0  0.80480746367E+01  0.78078373987E+02  0.66665767904E+02  0.10298217613E+03  0.00000000000E+00 0. -1.
         11    1    1    2    0    0  0.18872743935E+02  0.22582319024E+02  0.17024167430E+03  0.17276680603E+03  0.00000000000E+00 0.  1.
</event>
<event>
 7    1  0.2661133E-009  0.1308980E+03  0.7561462E-02  0.1226129E+00
         -2   -1    0    0    0  501 -0.00000000000E+00  0.00000000000E+00  0.45492283448E+02  0.45492283448E+02  0.00000000000E+00 0.  1.
          2   -1    0    0  501    0  0.00000000000E+00 -0.00000000000E+00 -0.48415311220E+03  0.48415311220E+03  0.00000000000E+00 0. -1.
         25    2    1    2    0    0 -0.55791220708E+02  0.82617950350E+02 -0.28047011862E+03  0.32287949199E+03  0.12509713381E+03 0.  0.
          5    1    3    3  502    0  0.37222177368E+02  0.11790046968E+02 -0.43474378346E+02  0.58583185882E+02  0.41800000000E+01 0. -1.
         -5    1    3    3    0  502 -0.93013398075E+02  0.70827903382E+02 -0.23699574027E+03  0.26429630611E+03  0.41800000000E+01 0. -1.
        -11    1    1    2    0    0  0.25990385425E+02 -0.67070229110E+02 -0.15749794906E+03  0.17314594920E+03  0.00000000000E+00 0. -1.
         11    1    1    2    0    0  0.29800835283E+02 -0.15547721241E+02 -0.69276107578E+00  0.33619954450E+02  0.00000000000E+00 0.  1.
</event>
<event>
 7    1  0.2661133E-009  0.1184980E+03  0.7561462E-02  0.1245596E+00
         -1   -1    0    0    0  501 -0.00000000000E+00  0.00000000000E+00  0.92217456339E+02  0.92217456339E+02  0.00000000000E+00 0.  1.
          1   -1    0    0  501    0  0.00000000000E+00 -0.00000000000E+00 -0.16723079058E+03  0.16723079058E+03  0.00000000000E+00 0. -1.
         25    2    1    2    0    0 -0.87627468342E+01  0.54822869370E+02 -0.32069250109E+02  0.14056977145E+03  0.12509632730E+03 0.  0.
          5    1    3    3  502    0  0.19446505412E+02 -0.36293819074E+02 -0.99163141008E+01  0.42558354774E+02  0.41800000000E+01 0.  1.
         -5    1    3    3    0  502 -0.28209252246E+02  0.91116688444E+02 -0.22152936008E+02  0.98011416677E+02  0.41800000000E+01 0.  1.
        -11    1    1    2    0    0  0.25465120910E+02 -0.71882117975E+02 -0.81675896414E+01  0.76695637347E+02  0.00000000000E+00 0.  1.
         11    1    1    2    0    0 -0.16702374076E+02  0.17059248605E+02 -0.34776494486E+02  0.42182838116E+02  0.00000000000E+00 0. -1.
</event>
<event>
 7    1  0.3676973E-009  0.1118780E+03  0.7561462E-02  0.1257131E+00
          2   -1    0    0  501    0  0.00000000000E+00  0.00000000000E+00  0.77317375741E+03  0.77317375741E+03  0.00000000000E+00 0. -1.
         -2   -1    0    0    0  501 -0.00000000000E+00 -0.00000000000E+00 -0.24755429065E+02  0.24755429065E+02  0.00000000000E+00 0.  1.
         25    2    1    2    0    0 -0.47042237385E+02  0.31186067130E+02  0.59581322714E+03  0.61141278119E+03  0.12508654798E+03 0.  0.
          5    1    3    3  502    0  0.32128084656E+02 -0.13678204641E+02  0.76840661699E+02  0.84506016332E+02  0.41800000000E+01 0.  1.
         -5    1    3    3    0  502 -0.79170322041E+02  0.44864271771E+02  0.51897256544E+03  0.52690676486E+03  0.41800000000E+01 0.  1.
        -11    1    1    2    0    0  0.65037239778E+02 -0.43499117258E+01  0.60592676669E+02  0.88995712009E+02  0.00000000000E+00 0.  1.
         11    1    1    2    0    0 -0.17995002393E+02 -0.26836155404E+02  0.92012424538E+02  0.97520693277E+02  0.00000000000E+00 0. -1.
</event>
<event>
 7    1  0.2661133E-009  0.1353373E+03  0.7561462E-02  0.1219744E+00
         -3   -1    0    0    0  501 -0.00000000000E+00  0.00000000000E+00  0.19237921884E+03  0.19237921884E+03  0.00000000000E+00 0.  1.
          3   -1    0    0  501    0  0.00000000000E+00 -0.00000000000E+00 -0.10924599236E+03  0.10924599236E+03  0.00000000000E+00 0. -1.
         25    2    1    2    0    0 -0.92684773852E+02 -0.19878152685E+02  0.23461829122E+02  0.15868403991E+03  0.12507821089E+03 0.  0.
          5    1    3    3  502    0  0.21093122017E+02  0.26389983211E+02  0.53954476283E+01  0.34466422289E+02  0.41800000000E+01 0.  1.
         -5    1    3    3    0  502 -0.11377789587E+03 -0.46268135895E+02  0.18066381493E+02  0.12421761762E+03  0.41800000000E+01 0.  1.
        -11    1    1    2    0    0  0.17340125415E+02  0.32980175722E+02  0.54856420393E+02  0.66314393599E+02  0.00000000000E+00 0. -1.
         11    1    1    2    0    0  0.75344648436E+02 -0.13102023038E+02  0.48149769687E+01  0.76626777688E+02  0.00000000000E+00 0.  1.
</event>
<event>
 7    1  0.2661133E-009  0.1075572E+03  0.7561462E-02  0.1265162E+00
         -2   -1    0    0    0  501 -0.00000000000E+00  0.00000000000E+00  0.25395192259E+03  0.25395192259E+03  0.00000000000E+00 0.  1.
          2   -1    0    0  501    0  0.00000000000E+00 -0.00000000000E+00 -0.48146529079E+02  0.48146529079E+02  0.00000000000E+00 0. -1.
         25    2    1    2    0    0  0.22177468090E+02  0.16590716970E+02  0.92442846497E+02  0.15798886673E+03  0.12509080766E+03 0.  0.
          5    1    3    3  502    0  0.27932444759E+02  0.68989344870E+02  0.45901632439E+02  0.87545322184E+02  0.41800000000E+01 0. -1.
         -5    1    3    3    0  502 -0.57549766688E+01 -0.52398627899E+02  0.46541214058E+02  0.70443544546E+02  0.41800000000E+01 0. -1.
        -11    1    1    2    0    0 -0.18490566736E+02  0.33071479586E+02  0.37106368793E+02  0.53033069166E+02  0.00000000000E+00 0.  1.
         11    1    1    2    0    0 -0.36869013540E+01 -0.49662196556E+02  0.76256178222E+02  0.91076515773E+02  0.00000000000E+00 0. -1.
</event>
<event>
 7    1  0.2661133E-009  0.9914052E+02  0.7561462E-02  0.1282114E+00
         -1   -1    0    0    0  501 -0.00000000000E+00  0.00000000000E+00  0.53697769797E+03  0.53697769797E+03  0.00000000000E+00 0.  1.
          1   -1    0    0  501    0  0.00000000000E+00 -0.00000000000E+00 -0.35169598887E+02  0.35169598887E+02  0.00000000000E+00 0. -1.
         25    2    1    2    0    0  0.14302013493E+02 -0.60446535392E+02  0.16041662064E+03  0.21269350011E+03  0.12508677619E+03 0.  0.
          5    1    3    3  502    0 -0.39579169974E+02 -0.32675354107E+02  0.12800555122E+02  0.53061436782E+02  0.41800000000E+01 0. -1.
         -5    1    3    3    0  502  0.53881183467E+02 -0.27771181285E+02  0.14761606552E+03  0.15963206333E+03  0.41800000000E+01 0. -1.
        -11    1    1    2    0    0  0.23453470913E+02  0.22924406007E+02  0.33083342018E+02  0.46584345093E+02  0.00000000000E+00 0. -1.
         11    1    1    2    0    0 -0.37755484406E+02  0.37522129386E+02  0.30830813642E+03  0.31286945166E+03  0.00000000000E+00 0.  1.
</event>
<event>
 7    1  0.2661133E-009  0.1093211E+03  0.7561462E-02  0.1261832E+00
         -3   -1    0    0    0  501 -0.00000000000E+00  0.00000000000E+00  0.65960952578E+02  0.65960952578E+02  0.00000000000E+00 0.  1.
          3   -1    0    0  501    0  0.00000000000E+00 -0.00000000000E+00 -0.25239709447E+03  0.25239709447E+03  0.00000000000E+00 0. -1.
         25    2    1    2    0    0 -0.11310862979E+02 -0.61999963850E+02 -0.13691760493E+03  0.19586332897E+03  0.12507630454E+03 0.  0.
          5    1    3    3  502    0 -0.51119566936E+02 -0.64159057149E+02 -0.13200907448E+03  0.15547817494E+03  0.41800000000E+01 0.  1.
         -5    1    3    3    0  502  0.39808703957E+02  0.21590932991E+01 -0.49085304472E+01  0.40385154026E+02  0.41800000000E+01 0.  1.
        -11    1    1    2    0    0 -0.27232643432E+02  0.51244227277E+01 -0.45996977424E+02  0.53699148119E+02  0.00000000000E+00 0. -1.
         11    1    1    2    0    0  0.38543506411E+02  0.56875541122E+02 -0.35215595378E+01  0.68795569959E+02  0.00000000000E+00 0.  1.
</event>
<event>
 7    1  0.2661133E-009  0.1091574E+03  0.7561462E-02  0.1262138E+00
          2   -1    0    0  501    0  0.00000000000E+00  0.00000000000E+00  0.25061054514E+03  0.25061054514E+03  0.00000000000E+00 0. -1.
         -2   -1    0    0    0  501 -0.00000000000E+00 -0.00000000000E+00 -0.71272282169E+02  0.71272282169E+02  0.00000000000E+00 0.  1.
         25    2    1    2    0    0  0.27188946441E+02  0.38178274771E+02  0.18367893904E+02  0.13484467517E+03  0.12509551320E+03 0.  0.
          5    1    3    3  502    0 -0.41605727364E+02  0.39134925496E+02  0.30453496151E+02  0.64864988790E+02  0.41800000000E+01 0. -1.
         -5    1    3    3    0  502  0.68794673805E+02 -0.95665072476E+00 -0.12085602246E+02  0.69979686382E+02  0.41800000000E+01 0. -1.
        -11    1    1    2    0    0  0.87290108282E+01  0.21082902252E+02  0.63259611606E+02  0.67249259163E+02  0.00000000000E+00 0.  1.
         11    1    1    2    0    0 -0.35917957269E+02 -0.59261177022E+02  0.97710757462E+02  0.11978889298E+03  0.00000000000E+00 0. -1.
</event>
<event>
 7    1  0.2813697E-009  0.1116582E+03  0.7561462E-02  0.1257530E+00
         -2   -1    0    0    0  501 -0.00000000000E+00  0.00000000000E+00  0.23230340386E+02  0.23230340386E+02  0.00000000000E+00 0.  1.
          2   -1    0    0  501    0  0.00000000000E+00 -0.00000000000E+00 -0.69166117971E+03  0.69166117971E+03  0.00000000000E+00 0. -1.
         25    2    1    2    0    0 -0.38739567908E+02  0.16404349980E+02 -0.51433892515E+03  0.53100185260E+03  0.12509428732E+03 0.  0.
          5    1    3    3  502    0 -0.73165125466E+02  0.40374701677E+02 -0.41034064032E+03  0.41878415158E+03  0.41800000000E+01 0.  1.
         -5    1    3    3    0  502  0.34425557558E+02 -0.23970351697E+02 -0.10399828483E+03  0.11221770101E+03  0.41800000000E+01 0.  1.
        -11    1    1    2    0    0  0.22353666762E+00 -0.47798960772E+02 -0.97445853773E+02  0.10853794285E+03  0.00000000000E+00 0. -1.
         11    1    1    2    0    0  0.38516031241E+02  0.31394610791E+02 -0.56646060408E+02  0.75351724658E+02  0.00000000000E+00 0.  1.
</event>
<event>
 7    1  0.2661133E-009  0.2422764E+03  0.7561462E-02  0.1118286E+00
         -2   -1    0    0    0  501 -0.00000000000E+00  0.00000000000E+00  0.87554253047E+02  0.87554253047E+02  0.00000000000E+00 0.  1.
          2   -1    0    0  501    0  0.00000000000E+00 -0.00000000000E+00 -0.69567831206E+03  0.69567831206E+03  0.00000000000E+00 0. -1.
         25    2    1    2    0    0 -0.19705764971E+03  0.10013130847E+03 -0.33129592465E+03  0.41744683257E+03  0.12508745777E+03 0.  0.
          5    1    3    3  502    0 -0.19883655455E+03  0.11824191926E+03 -0.28223944473E+03  0.36495712551E+03  0.41800000000E+01 0.  1.
         -5    1    3    3    0  502  0.17789048453E+01 -0.18110610791E+02 -0.49056479918E+02  0.52489707063E+02  0.41800000000E+01 0.  1.
        -11    1    1    2    0    0  0.11311191366E+02 -0.36420614211E+02 -0.75297585887E+02  0.84404565220E+02  0.00000000000E+00 0. -1.
         11    1    1    2    0    0  0.18574645834E+03 -0.63710694257E+02 -0.20153054847E+03  0.28138116731E+03  0.00000000000E+00 0.  1.
</event>
<event>
 7    1  0.2661133E-009  0.3241355E+03  0.7561462E-02  0.1073762E+00
         -1   -1    0    0    0  501 -0.00000000000E+00  0.00000000000E+00  0.26198056882E+03  0.26198056882E+03  0.00000000000E+00 0.  1.
          1   -1    0    0  501    0  0.00000000000E+00 -0.00000000000E+00 -0.85506548797E+03  0.85506548797E+03  0.00000000000E+00 0. -1.
         25    2    1    2    0    0  0.37423874640E+01  0.31138352108E+03  0.10058746857E+03  0.35034132231E+03  0.12508997012E+03 0.  0.
          5    1    3    3  502    0  0.62773585015E+02  0.12905408928E+03  0.50726018089E+02  0.15226976800E+03  0.41800000000E+01 0.  1.
         -5    1    3    3    0  502 -0.59031197550E+02  0.18232943180E+03  0.49861450477E+02  0.19807155431E+03  0.41800000000E+01 0.  1.
        -11    1    1    2    0    0 -0.13891275779E+02 -0.27137122442E+03 -0.50390318452E+03  0.57249779769E+03  0.00000000000E+00 0.  1.
         11    1    1    2    0    0  0.10148888315E+02 -0.40012296654E+02 -0.18976920319E+03  0.19420693679E+03  0.00000000000E+00 0. -1.
</event>
<event>
 7    1  0.2661133E-009  0.1244786E+03  0.7561462E-02  0.1235886E+00
          2   -1    0    0  501    0  0.00000000000E+00  0.00000000000E+00  0.88261498565E+03  0.88261498565E+03  0.00000000000E+00 0. -1.
         -2   -1    0    0    0  501 -0.00000000000E+00 -0.00000000000E+00 -0.27138587422E+02  0.27138587422E+02  0.00000000000E+00 0.  1.
         25    2    1    2    0    0 -0.37622329083E+02  0.92582519538E+02  0.58611064331E+03  0.60758565763E+03  0.12509069745E+03 0.  0.
          5    1    3    3  502    0 -0.80913883650E+00  0.84743197520E+02  0.54549235110E+03  0.55205202811E+03  0.41800000000E+01 0. -1.
         -5    1    3    3    0  502 -0.36813190247E+02  0.78393220184E+01  0.40618292210E+02  0.55533629522E+02  0.41800000000E+01 0. -1.
        -11    1    1    2    0    0  0.55525880744E+02 -0.93015675077E+02  0.17274619660E+03  0.20390264266E+03  0.00000000000E+00 0.  1.
         11    1    1    2    0    0 -0.17903551660E+02  0.43315553861E+00  0.96619558318E+02  0.98265272784E+02  0.00000000000E+00 0. -1.
</event>
<event>
 7    1  0.2661133E-009  0.8777254E+02  0.7561462E-02  0.1308337E+00
          1   -1    0    0  501    0  0.00000000000E+00  0.00000000000E+00  0.59052391220E+03  0.59052391220E+03  0.00000000000E+00 0. -1.
         -1   -1    0    0    0  501 -0.00000000000E+00 -0.00000000000E+00 -0.17615684939E+02  0.17615684939E+02  0.00000000000E+00 0.  1.
         25    2    1    2    0    0  0.47676250138E+01  0.73132420215E+01  0.41945059142E+03  0.43779671329E+03  0.12510375600E+03 0.  0.
          5    1    3    3  502    0  0.41698934254E+02 -0.33920163425E+02  0.31431586302E+03  0.31890643260E+03  0.41800000000E+01 0.  1.
         -5    1    3    3    0  502 -0.36931309240E+02  0.41233405447E+02  0.10513472840E+03  0.11889028069E+03  0.41800000000E+01 0.  1.
        -11    1    1    2    0    0 -0.12986539224E+02 -0.34950037115E+02  0.46689400438E+02  0.59749940658E+02  0.00000000000E+00 0.  1.
         11    1    1    2    0    0  0.82189142101E+01  0.27636795093E+02  0.10676823540E+03  0.11059294320E+03  0.00000000000E+00 0. -1.
</event>
<event>
 7    1  0.2661133E-009  0.9805543E+02  0.7561462E-02  0.1284439E+00
         -1   -1    0    0    0  501 -0.00000000000E+00  0.00000000000E+00  0.44181474964E+02  0.44181474964E+02  0.00000000000E+00 0.  1.
          1   -1    0    0  501    0  0.00000000000E+00 -0.00000000000E+00 -0.40018673960E+03  0.40018673960E+03  0.00000000000E+00 0. -1.
         25    2    1    2    0    0 -0.47467693218E+02  0.55004092628E+02 -0.15413661002E+03  0.21138596193E+03  0.12508916120E+03 0.  0.
          5    1    3    3  502    0  0.12626697095E+01  0.51207302965E+02 -0.18865095422E+01  0.51427750582E+02  0.41800000000E+01 0.  1.
         -5    1    3    3    0  502 -0.48730362928E+02  0.37967896632E+01 -0.15225010048E+03  0.15995821135E+03  0.41800000000E+01 0.  1.
        -11    1    1    2    0    0  0.54675382106E+02 -0.17406900967E+02 -0.49192123245E+02  0.75579511767E+02  0.00000000000E+00 0.  1.
         11    1    1    2    0    0 -0.72076888873E+01 -0.37597191660E+02 -0.15267653137E+03  0.15740274087E+03  0.00000000000E+00 0. -1.
</event>
<event>
 7    1  0.2661133E-009  0.6599382E+02  0.7561462E-02  0.1374272E+00
          1   -1    0    0  501    0  0.00000000000E+00  0.00000000000E+00  0.52530044998E+02  0.52530044998E+02  0.00000000000E+00 0. -1.
         -1   -1    0    0    0  501 -0.00000000000E+00 -0.00000000000E+00 -0.22675135895E+03  0.22675135895E+03  0.00000000000E+00 0.  1.
         25    2    1    2    0    0  0.45265831699E+02 -0.71516152270E+01 -0.78205534776E+02  0.15447465242E+03  0.12508465714E+03 0.  0.
          5    1    3    3  502    0  0.15709919963E+02 -0.19795456172E+02 -0.10766556642E+03  0.11067071999E+03  0.41800000000E+01 0.  1.
         -5    1    3    3    0  502  0.29555911736E+02  0.12643840945E+02  0.29460031644E+02  0.43803932436E+02  0.41800000000E+01 0.  1.
        -11    1    1    2    0    0 -0.59436821921E+02  0.56517679027E+01 -0.54227024633E+02  0.80655120613E+02  0.00000000000E+00 0. -1.
         11    1    1    2    0    0  0.14170990221E+02  0.14998473243E+01 -0.41788754540E+02  0.44151630908E+02  0.00000000000E+00 0.  1.
</event>
<event>
 7    1  0.2661133E-009  0.1268098E+03  0.7561462E-02  0.1232268E+00
         -1   -1    0    0    0  501 -0.00000000000E+00  0.00000000000E+00  0.23045173641E+03  0.23045173641E+03  0.00000000000E+00 0.  1.
          1   -1    0    0  501    0  0.00000000000E+00 -0.00000000000E+00 -0.86738178421E+02  0.86738178421E+02  0.00000000000E+00 0. -1.
         25    2    1    2    0    0 -0.32296734127E+02 -0.66787818344E+02  0.19928983454E+02  0.14679363085E+03  0.12509002343E+03 0.  0.
          5    1    3    3  502    0  0.36811523987E+02  0.12791131956E+02 -0.12214677929E+01  0.39213081217E+02  0.41800000000E+01 0. -1.
         -5    1    3    3    0  502 -0.69108258114E+02 -0.79578950301E+02  0.21150451247E+02  0.10758054963E+03  0.41800000000E+01 0. -1.
        -11    1    1    2    0    0 -0.15660699645E+02  0.58141882587E+02  0.36452125954E+02  0.70388163143E+02  0.00000000000E+00 0. -1.
         11    1    1    2    0    0  0.47957433772E+02  0.86459357576E+01  0.87332448581E+02  0.10000812084E+03  0.00000000000E+00 0.  1.
</event>
<event>
 7    1  0.2661133E-009  0.1428317E+03  0.7561462E-02  0.1209569E+00
         -3   -1    0    0    0  501 -0.00000000000E+00  0.00000000000E+00  0.98592862357E+02  0.98592862357E+02  0.00000000000E+00 0.  1.
          3   -1    0    0  501    0  0.00000000000E+00 -0.00000000000E+00 -0.21829965236E+03  0.21829965236E+03  0.00000000000E+00 0. -1.
         25    2    1    2    0    0 -0.70765575780E+02  0.66350120245E+02 -0.48184762132E+02  0.16546585290E+03  0.12508825685E+03 0.  0.
          5    1    3    3  502    0 -0.10084119030E+03  0.20733046819E+02 -0.25408043689E+02  0.10612184495E+03  0.41800000000E+01 0.  1.
         -5    1    3    3    0  502  0.30075614519E+02  0.45617073426E+02 -0.22776718443E+02  0.59344007951E+02  0.41800000000E+01 0.  1.
        -11    1    1    2    0    0 -0.62791999499E+01 -0.48289211149E+02 -0.49157944916E+02  0.69193784502E+02  0.00000000000E+00 0.  1.
         11    1    1    2    0    0  0.77044775730E+02 -0.18060909096E+02 -0.22364082952E+02  0.82232877311E+02  0.00000000000E+00 0. -1.
</event>
<event>
 7    1  0.2661133E-009  0.1023792E+03  0.7561462E-02  0.1275371E+00
         -2   -1    0    0    0  501 -0.00000000000E+00  0.00000000000E+00  0.20235365414E+03  0.20235365414E+03  0.00000000000E+00 0.  1.
          2   -1    0    0  501    0  0.00000000000E+00 -0.00000000000E+00 -0.75728099627E+02  0.75728099627E+02  0.00000000000E+00 0. -1.
         25    2    1    2    0    0  0.24990392880E+02  0.14077949762E+02  0.11149654776E+02  0.12881829563E+03  0.12508848900E+03 0.  0.
          5    1    3    3  502    0 -0.41811970990E+02 -0.51181958499E+01  0.35299769162E+02  0.55117900447E+02  0.41800000000E+01 0. -1.
         -5    1    3    3    0  502  0.66802363870E+02  0.19196145612E+02 -0.24150114386E+02  0.73700395181E+02  0.41800000000E+01 0. -1.
        -11    1    1    2    0    0  0.29604601326E+02  0.12427397084E+02  0.54360401802E+02  0.63134189644E+02  0.00000000000E+00 0.  1.
         11    1    1    2    0    0 -0.54594994206E+02 -0.26505346847E+02  0.61115497938E+02  0.86129268498E+02  0.00000000000E+00 0. -1.
</event>
<event>
 7    1  0.2661133E-009  0.1109628E+03  0.7561462E-02  0.1258797E+00
         -2   -1    0    0    0  501 -0.00000000000E+00  0.00000000000E+00  0.14230694689E+03  0.14230694689E+03  0.00000000000E+00 0.  1.
          2   -1    0    0  501    0  0.00000000000E+00 -0.00000000000E+00 -0.99041000839E+02  0.99041000839E+02  0.00000000000E+00 0. -1.
         25    2    1    2    0    0 -0.46600952843E+02  0.75454819773E+01  0.73069130749E+01  0.13390151696E+03  0.12509053585E+03 0.  0.
          5    1    3    3  502    0 -0.44782635556E+02  0.60139052204E+02 -0.15017457173E+02  0.76584505399E+02  0.41800000000E+01 0. -1.
         -5    1    3    3    0  502 -0.18183172872E+01 -0.52593570226E+02  0.22324370248E+02  0.57317011557E+02  0.41800000000E+01 0. -1.
        -11    1    1    2    0    0  0.66248968149E+02 -0.21821567632E+02  0.76833208075E+01  0.70172216820E+02  0.00000000000E+00 0. -1.
         11    1    1    2    0    0 -0.19648015306E+02  0.14276085655E+02  0.28275712166E+02  0.37274213950E+02  0.00000000000E+00 0.  1.
</event>
<event>
 7    1  0.2661133E-009  0.1507555E+03  0.7561462E-02  0.1199548E+00
          1   -1    0    0  501    0  0.00000000000E+00  0.00000000000E+00  0.32229657873E+03  0.32229657873E+03  0.00000000000E+00 0. -1.
         -1   -1    0    0    0  501 -0.00000000000E+00 -0.00000000000E+00 -0.16412514688E+03  0.16412514688E+03  0.00000000000E+00 0.  1.
         25    2    1    2    0    0 -0.10282400028E+03 -0.11677756462E+02 -0.10123368440E+03  0.19132139711E+03  0.12508586294E+03 0.  0.
          5    1    3    3  502    0  0.28743931640E+02  0.50128546286E+01 -0.21950554008E+02  0.36751075344E+02  0.41800000000E+01 0.  1.
         -5    1    3    3    0  502 -0.13156793192E+03 -0.16690611091E+02 -0.79283130387E+02  0.15457032177E+03  0.41800000000E+01 0.  1.
        -11    1    1    2    0    0  0.11230660589E+03 -0.12860338204E+02  0.19289882625E+03  0.22358022988E+03  0.00000000000E+00 0.  1.
         11    1    1    2    0    0 -0.94826056092E+01  0.24538094666E+02  0.66506289990E+02  0.71520098624E+02  0.00000000000E+00 0. -1.
</event>
<event>
 7    1  0.2661133E-009  0.1543798E+03  0.7561462E-02  0.1195192E+00
          2   -1    0    0  501    0  0.00000000000E+00  0.00000000000E+00  0.48301704575E+03  0.48301704575E+03  0.00000000000E+00 0. -1.
         -2   -1    0    0    0  501 -0.00000000000E+00 -0.00000000000E+00 -0.11166477013E+03  0.11166477013E+03  0.00000000000E+00 0.  1.
         25    2    1    2    0    0  0.47967740330E+02 -0.12415018393E+03 -0.79320581414E+01  0.18282716732E+03  0.12509469725E+03 0.  0.
          5    1    3    3  502    0 -0.19928707362E+02 -0.12970113358E+02  0.37668328814E+02  0.44740950071E+02  0.41800000000E+01 0. -1.
         -5    1    3    3    0  502  0.67896447692E+02 -0.11118007058E+03 -0.45600386955E+02  0.13808621724E+03  0.41800000000E+01 0. -1.
        -11    1    1    2    0    0 -0.64758106927E+02  0.61109308663E+02  0.16041295935E+03  0.18346737460E+03  0.00000000000E+00 0.  1.
         11    1    1    2    0    0  0.16790366597E+02  0.63040875272E+02  0.21887137442E+03  0.22838727396E+03  0.00000000000E+00 0. -1.
</event>
<event>
 7    1  0.2661133E-009  0.1139317E+03  0.7561462E-02  0.1253457E+00
          2   -1    0    0  501    0  0.00000000000E+00  0.00000000000E+00  0.31054371545E+03  0.31054371545E+03  0.00000000000E+00 0.  1.
         -2   -1    0    0    0  501 -0.00000000000E+00 -0.00000000000E+00 -0.75855540538E+02  0.75855540538E+02  0.00000000000E+00 0. -1.
         25    2    1    2    0    0 -0.30267670106E+02  0.96001169218E+02  0.79512266913E+02  0.17917257521E+03  0.12509298451E+03 0.  0.
          5    1    3    3  502    0 -0.27824640718E+02  0.70503782054E+02  0.11341593074E+03  0.13647578416E+03  0.41800000000E+01 0.  1.
         -5    1    3    3    0  502 -0.24430293879E+01  0.25497387164E+02 -0.33903663832E+02  0.42696791051E+02  0.41800000000E+01 0.  1.
        -11    1    1    2    0    0 -0.23467112038E+02 -0.50119756565E+02  0.28673172712E+02  0.62328534228E+02  0.00000000000E+00 0.  1.
         11    1    1    2    0    0  0.53734782144E+02 -0.45881412653E+02  0.12650273528E+03  0.14489814655E+03  0.00000000000E+00 0. -1.
</event>
<event>
 7    1  0.2661133E-009  0.1080160E+03  0.7561462E-02  0.1264289E+00
         -1   -1    0    0    0  501 -0.00000000000E+00  0.00000000000E+00  0.25938737415E+02  0.25938737415E+02  0.00000000000E+00 0.  1.
          1   -1    0    0  501    0  0.00000000000E+00 -0.00000000000E+00 -0.64533917632E+03  0.64533917632E+03  0.00000000000E+00 0. -1.
         25    2    1    2    0    0 -0.33616684775E+02 -0.25603508909E+02 -0.49562136001E+03  0.51290650733E+03  0.12508769564E+03 0.  0.
          5    1    3    3  502    0  0.45722985850E+02  0.45795876797E+01 -0.14680802755E+03  0.15388837972E+03  0.41800000000E+01 0.  1.
         -5    1    3    3    0  502 -0.79339670625E+02 -0.30183096589E+02 -0.34881333246E+03  0.35901812762E+03  0.41800000000E+01 0.  1.
        -11    1    1    2    0    0  0.31481549658E+01  0.47358268634E+02 -0.10756911948E+03  0.11757479302E+03  0.00000000000E+00 0.  1.
         11    1    1    2    0    0  0.30468529809E+02 -0.21754759725E+02 -0.16209959414E+02  0.40796613384E+02  0.00000000000E+00 0. -1.
</event>
<event>
 7    1  0.2661133E-009  0.1006943E+03  0.7561462E-02  0.1278843E+00
         -1   -1    0    0    0  501 -0.00000000000E+00  0.00000000000E+00  0.14868115675E+03  0.14868115675E+03  0.00000000000E+00 0.  1.
          1   -1    0    0  501    0  0.00000000000E+00 -0.00000000000E+00 -0.85486537148E+02  0.85486537148E+02  0.00000000000E+00 0. -1.
         25    2    1    2    0    0  0.16080225735E+02 -0.13493936337E+02  0.59607643886E+02  0.14014480702E+03  0.12508731250E+03 0.  0.
          5    1    3    3  502    0  0.11212920162E+02 -0.68721080466E+02  0.43707766802E+02  0.82317420743E+02  0.41800000000E+01 0. -1.
         -5    1    3    3    0  502  0.48673055732E+01  0.55227144130E+02  0.15899877084E+02  0.57827386276E+02  0.41800000000E+01 0. -1.
        -11    1    1    2    0    0  0.29507756438E+01  0.41811991690E+02 -0.25606875170E+02  0.49118853630E+02  0.00000000000E+00 0. -1.
         11    1    1    2    0    0 -0.19031001379E+02 -0.28318055353E+02  0.29193850889E+02  0.44904033251E+02  0.00000000000E+00 0.  1.
</event>
<event>
 7    1  0.2661133E-009  0.1221980E+03  0.7561462E-02  0.1239514E+00
         -3   -1    0    0    0  501 -0.00000000000E+00  0.00000000000E+00  0.14561746184E+03  0.14561746184E+03  0.00000000000E+00 0.  1.
          3   -1    0    0  501    0  0.00000000000E+00 -0.00000000000E+00 -0.11713800214E+03  0.11713800214E+03  0.00000000000E+00 0. -1.
         25    2    1    2    0    0 -0.15279724263E+02 -0.60673888259E+02 -0.20634548572E+02  0.14137914526E+03  0.12508991738E+03 0.  0.
          5    1    3    3  502    0 -0.43588417039E+02  0.23743096724E+02  0.32748518934E+00  0.49812291541E+02  0.41800000000E+01 0.  1.
         -5    1    3    3    0  502  0.28308692776E+02 -0.84416984984E+02 -0.20962033761E+02  0.91566853718E+02  0.41800000000E+01 0.  1.
        -11    1    1    2    0    0  0.38260541895E+02 -0.23839998715E+01  0.36803309557E+02  0.53141660830E+02  0.00000000000E+00 0. -1.
         11    1    1    2    0    0 -0.22980817632E+02  0.63057888131E+02  0.12310698714E+02  0.68234657890E+02  0.00000000000E+00 0.  1.
</event>
<event>
 7    1  0.2661133E-009  0.6666048E+02  0.7561462E-02  0.1371832E+00
          2   -1    0    0  501    0  0.00000000000E+00  0.00000000000E+00  0.47876519223E+02  0.47876519223E+02  0.00000000000E+00 0. -1.
         -2   -1    0    0    0  501 -0.00000000000E+00 -0.00000000000E+00 -0.27500682379E+03  0.27500682379E+03  0.00000000000E+00 0.  1.
         25    2    1    2    0    0 -0.83297113987E+01  0.31473028959E+02 -0.14515881345E+03  0.19437195003E+03  0.12509771458E+03 0.  0.
          5    1    3    3  502    0 -0.30191583666E+02  0.16533066856E+02 -0.16001137356E+03  0.16372533735E+03  0.41800000000E+01 0. -1.
         -5    1    3    3    0  502  0.21861872267E+02  0.14939962104E+02  0.14852560108E+02  0.30646612675E+02  0.41800000000E+01 0. -1.
        -11    1    1    2    0    0 -0.24777210327E+01  0.19538647371E+02 -0.72988836841E+02  0.75599392498E+02  0.00000000000E+00 0.  1.
         11    1    1    2    0    0  0.10807432431E+02 -0.51011676330E+02 -0.89826542777E+01  0.52912000488E+02  0.00000000000E+00 0. -1.
</event>
<event>
 7    1  0.2661133E-009  0.2219247E+03  0.7561462E-02  0.1132456E+00
         -1   -1    0    0    0  501 -0.00000000000E+00  0.00000000000E+00  0.22708039927E+04  0.22708039927E+04  0.00000000000E+00 0.  1.
          1   -1    0    0  501    0  0.00000000000E+00 -0.00000000000E+00 -0.30681578291E+02  0.30681578291E+02  0.00000000000E+00 0. -1.
         25    2    1    2    0    0  0.96545015177E+02  0.18209500634E+03  0.16907923925E+04  0.17078950309E+04  0.12508793274E+03 0.  0.
          5    1    3    3  502    0 -0.12246907668E+02  0.21003955879E+02  0.55745526619E+03  0.55800089526E+03  0.41800000000E+01 0.  1.
         -5    1    3    3    0  502  0.10879192285E+03  0.16109105047E+03  0.11333371263E+04  0.11498941356E+04  0.41800000000E+01 0.  1.
        -11    1    1    2    0    0  0.16099494886E+02 -0.42020312714E+02  0.10110167792E+03  0.11066367830E+03  0.00000000000E+00 0. -1.
         11    1    1    2    0    0 -0.11264451006E+03 -0.14007469363E+03  0.44822834408E+03  0.48292686183E+03  0.00000000000E+00 0.  1.
</event>
<event>
 7    1  0.2661133E-009  0.8740109E+02  0.7561462E-02  0.1309270E+00
         -1   -1    0    0    0  501 -0.00000000000E+00  0.00000000000E+00  0.85418583520E+02  0.85418583520E+02  0.00000000000E+00 0.  1.
          1   -1    0    0  501    0  0.00000000000E+00 -0.00000000000E+00 -0.17096410422E+03  0.17096410422E+03  0.00000000000E+00 0. -1.
         25    2    1    2    0    0  0.24952521509E+02  0.28350845488E+02 -0.90594194359E+02  0.15900088215E+03  0.12509026222E+03 0.  0.
          5    1    3    3  502    0  0.68804781232E+02  0.80542656940E+01 -0.18003662524E+02  0.71697792020E+02  0.41800000000E+01 0.  1.
         -5    1    3    3    0  502 -0.43852259723E+02  0.20296579794E+02 -0.72590531835E+02  0.87303090130E+02  0.41800000000E+01 0.  1.
        -11    1    1    2    0    0  0.94411359052E+01  0.34552622258E+01 -0.34586558102E+02  0.36018104969E+02  0.00000000000E+00 0. -1.
         11    1    1    2    0    0 -0.34393657414E+02 -0.31806107713E+02  0.39635231757E+02  0.61363700627E+02  0.00000000000E+00 0.  1.
</event>
<event>
 7    1  0.2661133E-009  0.8250976E+02  0.7561462E-02  0.1322076E+00
         -2   -1    0    0    0  501 -0.00000000000E+00  0.00000000000E+00  0.19564427053E+03  0.19564427053E+03  0.00000000000E+00 0. -1.
          2   -1    0    0  501    0  0.00000000000E+00 -0.00000000000E+00 -0.58876482078E+02  0.58876482078E+02  0.00000000000E+00 0.  1.
         25    2    1    2    0    0  0.27779888457E+02 -0.40362051912E+01  0.14127938560E+03  0.19077424971E+03  0.12508771483E+03 0.  0.
          5    1    3    3  502    0  0.12883084511E+02  0.47665541016E+02  0.12442098390E+02  0.51090663327E+02  0.41800000000E+01 0.  1.
         -5    1    3    3    0  502  0.14896803946E+02 -0.51701746207E+02  0.12883728721E+03  0.13968358638E+03  0.41800000000E+01 0.  1.
        -11    1    1    2    0    0  0.83142675620E+01 -0.17566563394E+02 -0.90476243149E+01  0.21437600153E+02  0.00000000000E+00 0.  1.
         11    1    1    2    0    0 -0.36094156019E+02  0.21602768585E+02  0.45360271685E+01  0.42308902748E+02  0.00000000000E+00 0. -1.
</event>
<event>
 7    1  0.2661133E-009  0.1283923E+03  0.7561462E-02  0.1229861E+00
         -2   -1    0    0    0  501 -0.00000000000E+00  0.00000000000E+00  0.12158519432E+03  0.12158519432E+03  0.00000000000E+00 0.  1.
          2   -1    0    0  501    0  0.00000000000E+00 -0.00000000000E+00 -0.17974266268E+03  0.17974266268E+03  0.00000000000E+00 0. -1.
         25    2    1    2    0    0  0.79500930911E+02 -0.56060372840E+02 -0.63360865686E+02  0.17067070291E+03  0.12510286213E+03 0.  0.
          5    1    3    3  502    0 -0.25948640652E+02  0.15875809945E+02 -0.13984108313E+02  0.33740198257E+02  0.41800000000E+01 0. -1.
         -5    1    3    3    0  502  0.10544957156E+03 -0.71936182785E+02 -0.49376757373E+02  0.13693050466E+03  0.41800000000E+01 0. -1.
        -11    1    1    2    0    0 -0.41780086337E+02  0.38257135964E+02 -0.39848475918E+02  0.69260992626E+02  0.00000000000E+00 0. -1.
         11    1    1    2    0    0 -0.37720844574E+02  0.17803236876E+02  0.45051873253E+02  0.61396161462E+02  0.00000000000E+00 0.  1.
</event>
<event>
 7    1  0.2661133E-009  0.1163047E+03  0.7561462E-02  0.1249321E+00
         -1   -1    0    0    0  501 -0.00000000000E+00  0.00000000000E+00  0.25823920376E+03  0.25823920376E+03  0.00000000000E+00 0.  1.
          1   -1    0    0  501    0  0.00000000000E+00 -0.00000000000E+00 -0.75489929167E+02  0.75489929167E+02  0.00000000000E+00 0. -1.
         25    2    1    2    0    0 -0.53733870272E+01  0.77651394003E+02  0.76607790624E+02  0.16605707945E+03  0.12509031845E+03 0.  0.
          5    1    3    3  502    0 -0.52116596911E+02  0.24702014577E+02  0.75749633140E+02  0.95298523171E+02  0.41800000000E+01 0.  1.
         -5    1    3    3    0  502  0.46743209884E+02  0.52949379426E+02  0.85815748428E+00  0.70758556275E+02  0.41800000000E+01 0.  1.
        -11    1    1    2    0    0 -0.30159632803E+02 -0.19604395805E+02  0.91136345069E+02  0.97978411797E+02  0.00000000000E+00 0.  1.
         11    1    1    2    0    0  0.35533019830E+02 -0.58046998197E+02  0.15005138902E+02  0.69693641686E+02  0.00000000000E+00 0. -1.
</event>
<event>
 7    1  0.2681195E-009  0.1564534E+03  0.7561462E-02  0.1192760E+00
         -1   -1    0    0    0  501 -0.00000000000E+00  0.00000000000E+00  0.31873981006E+02  0.31873981006E+02  0.00000000000E+00 0.  1.
          1   -1    0    0  501    0  0.00000000000E+00 -0.00000000000E+00 -0.85057861236E+03  0.85057861236E+03  0.00000000000E+00 0. -1.
         25    2    1    2    0    0  0.49663845459E+02  0.11060650476E+03 -0.49645074467E+03  0.52612811153E+03  0.12508857428E+03 0.  0.
          5    1    3    3  502    0  0.50564535656E+02  0.13761668275E+03 -0.40919345740E+03  0.43468595746E+03  0.41800000000E+01 0.  1.
         -5    1    3    3    0  502 -0.90069019685E+00 -0.27010177994E+02 -0.87257287269E+02  0.91442154063E+02  0.41800000000E+01 0.  1.
        -11    1    1    2    0    0  0.13994758837E+02 -0.46436026319E+02 -0.50874866408E+02  0.70288049107E+02  0.00000000000E+00 0.  1.
         11    1    1    2    0    0 -0.63658604297E+02 -0.64170478437E+02 -0.27137902028E+03  0.28603643274E+03  0.00000000000E+00 0. -1.
</event>
<event>
 7    1  0.2661133E-009  0.7769515E+02  0.7561462E-02  0.1335722E+00
          2   -1    0    0  501    0  0.00000000000E+00  0.00000000000E+00  0.42931760710E+03  0.42931760710E+03  0.00000000000E+00 0. -1.
         -2   -1    0    0    0  501 -0.00000000000E+00 -0.00000000000E+00 -0.42135724378E+02  0.42135724378E+02  0.00000000000E+00 0.  1.
         25    2    1    2    0    0 -0.71818427307E+02 -0.50374032816E+01  0.26512557545E+03  0.30187467090E+03  0.12511388508E+03 0.  0.
          5    1    3    3  502    0 -0.70730165302E+02 -0.14490397808E+02  0.53410986530E+02  0.89905137753E+02  0.41800000000E+01 0. -1.
         -5    1    3    3    0  502 -0.10882620049E+01  0.94529945265E+01  0.21171458892E+03  0.21196953315E+03  0.41800000000E+01 0. -1.
        -11    1    1    2    0    0  0.35897401029E+02 -0.24614813353E+01  0.12750156142E+03  0.13248143438E+03  0.00000000000E+00 0. -1.
         11    1    1    2    0    0  0.35921026278E+02  0.74988846169E+01 -0.54452541429E+01  0.37097226205E+02  0.00000000000E+00 0.  1.
</event>
<event>
 7    1  0.2661133E-009  0.1364848E+03  0.7561462E-02  0.1218139E+00
          2   -1    0    0  501    0  0.00000000000E+00  0.00000000000E+00  0.47640533516E+02  0.47640533516E+02  0.00000000000E+00 0. -1.
         -2   -1    0    0    0  501 -0.00000000000E+00 -0.00000000000E+00 -0.49587891996E+03  0.49587891996E+03  0.00000000000E+00 0.  1.
         25    2    1    2    0    0 -0.41443066947E+02  0.97276785853E+02 -0.15443710475E+03  0.22512170616E+03  0.12509461378E+03 0.  0.
          5    1    3    3  502    0  0.10810649198E+02 -0.24216588081E+02 -0.49227365527E+02  0.56072445917E+02  0.41800000000E+01 0.  1.
         -5    1    3    3    0  502 -0.52253716145E+02  0.12149337393E+03 -0.10520973922E+03  0.16904926024E+03  0.41800000000E+01 0.  1.
        -11    1    1    2    0    0  0.49608397565E+02 -0.73607824758E+02 -0.26854214307E+03  0.28283208372E+03  0.00000000000E+00 0.  1.
         11    1    1    2    0    0 -0.81653306178E+01 -0.23668961095E+02 -0.25259138625E+02  0.35565663603E+02  0.00000000000E+00 0. -1.
</event>
<event>
 7    1  0.2661133E-009  0.2192071E+03  0.7561462E-02  0.1134476E+00
          2   -1    0    0  501    0  0.00000000000E+00  0.00000000000E+00  0.32900280291E+03  0.32900280291E+03  0.00000000000E+00 0. -1.
         -2   -1    0    0    0  501 -0.00000000000E+00 -0.00000000000E+00 -0.22281473026E+03  0.22281473026E+03  0.00000000000E+00 0.  1.
         25    2    1    2    0    0  0.89198082357E+01  0.21338258889E+03  0.18298404664E+03  0.30780246406E+03  0.12508998095E+03 0.  0.
          5    1    3    3  502    0  0.31281669260E+02  0.13217982608E+03  0.39753385429E+02  0.14159044214E+03  0.41800000000E+01 0.  1.
         -5    1    3    3    0  502 -0.22361861024E+02  0.81202762817E+02  0.14323066121E+03  0.16621202191E+03  0.41800000000E+01 0.  1.
        -11    1    1    2    0    0  0.17309396242E+02 -0.55291220098E+02 -0.59143910796E+02  0.82793335495E+02  0.00000000000E+00 0.  1.
         11    1    1    2    0    0 -0.26229204477E+02 -0.15809136880E+03 -0.17652063191E+02  0.16122173362E+03  0.00000000000E+00 0. -1.
</event>
<event>
 7    1  0.3975940E-009  0.6208311E+02  0.7561462E-02  0.1389292E+00
         -3   -1    0    0    0  501 -0.00000000000E+00  0.00000000000E+00  0.49574909262E+02  0.49574909262E+02  0.00000000000E+00 0.  1.
          3   -1    0    0  501    0  0.00000000000E+00 -0.00000000000E+00 -0.27025858376E+03  0.27025858376E+03  0.00000000000E+00 0. -1.
         25    2    1    2    0    0 -0.14389815718E+02 -0.33105653512E+02 -0.10123868831E+03  0.16492699643E+03  0.12509432861E+03 0.  0.
          5    1    3    3  502    0  0.95726320068E+00 -0.18648438215E+02  0.27999526293E+02  0.33913514612E+02  0.41800000000E+01 0. -1.
         -5    1    3    3    0  502 -0.15347078918E+02 -0.14457215297E+02 -0.12923821460E+03  0.13101348182E+03  0.41800000000E+01 0. -1.
        -11    1    1    2    0    0 -0.31036572814E+02  0.10256822845E+02 -0.99302988505E+01  0.34162583366E+02  0.00000000000E+00 0.  1.
         11    1    1    2    0    0  0.45426388532E+02  0.22848830667E+02 -0.10951468734E+03  0.12074391323E+03  0.00000000000E+00 0. -1.
</event>
<event>
 7    1  0.2661133E-009  0.2432757E+03  0.7561462E-02  0.1117630E+00
          1   -1    0    0  501    0  0.00000000000E+00  0.00000000000E+00  0.46714776137E+03  0.46714776137E+03  0.00000000000E+00 0. -1.
         -1   -1    0    0    0  501 -0.00000000000E+00 -0.00000000000E+00 -0.14226422899E+03  0.14226422899E+03  0.00000000000E+00 0.  1.
         25    2    1    2    0    0  0.20986656088E+03  0.68061760385E+02  0.82201212250E+02  0.26660415499E+03  0.12507741427E+03 0.  0.
          5    1    3    3  502    0  0.71997644978E+02  0.79242004802E+02  0.69333088704E+02  0.12762251289E+03  0.41800000000E+01 0. -1.
         -5    1    3    3    0  502  0.13786891590E+03 -0.11180244417E+02  0.12868123546E+02  0.13898164210E+03  0.41800000000E+01 0. -1.
        -11    1    1    2    0    0 -0.80870186872E+02 -0.77065583922E+02  0.12884325248E+03  0.17052763723E+03  0.00000000000E+00 0. -1.
         11    1    1    2    0    0 -0.12899637401E+03  0.90038235371E+01  0.11383906765E+03  0.17228019813E+03  0.00000000000E+00 0.  1.
</event>
<event>
 7    1  0.2661133E-009  0.1207630E+03  0.7561462E-02  0.1241844E+00
         -2   -1    0    0    0  501 -0.00000000000E+00  0.00000000000E+00  0.17863086097E+03  0.17863086097E+03  0.00000000000E+00 0.  1.
          2   -1    0    0  501    0  0.00000000000E+00 -0.00000000000E+00 -0.13294285230E+03  0.13294285230E+03  0.00000000000E+00 0. -1.
         25    2    1    2    0    0 -0.41938821703E+02 -0.90881398103E+02 -0.18173554869E+02  0.16123231136E+03  0.12508911560E+03 0.  0.
          5    1    3    3  502    0  0.46702025208E+01 -0.26629591387E+02 -0.63915078720E+02  0.69523777349E+02  0.41800000000E+01 0.  1.
         -5    1    3    3    0  502 -0.46609024224E+02 -0.64251806716E+02  0.45741523851E+02  0.91708534006E+02  0.41800000000E+01 0.  1.
        -11    1    1    2    0    0  0.70659050880E+02  0.63456968723E+02  0.54663824657E+02  0.10957929584E+03  0.00000000000E+00 0.  1.
         11    1    1    2    0    0 -0.28720229177E+02  0.27424429380E+02  0.91977388904E+01  0.40762106073E+02  0.00000000000E+00 0. -1.
</event>
<event>
 7    1  0.2661133E-009  0.4239605E+03  0.7561462E-02  0.1035785E+00
         -4   -1    0    0    0  501 -0.00000000000E+00  0.00000000000E+00  0.20794683819E+04  0.20794683819E+04  0.00000000000E+00 0. -1.
          4   -1    0    0  501    0  0.00000000000E+00 -0.00000000000E+00 -0.11058808375E+03  0.11058808375E+03  0.00000000000E+00 0.  1.
         25    2    1    2    0    0  0.42243799600E+03  0.13047329529E+02  0.14470446612E+04  0.15126830757E+04  0.12509093753E+03 0.  0.
          5    1    3    3  502    0  0.33649530829E+03  0.28934165065E+02  0.95622580441E+03  0.10141259980E+04  0.41800000000E+01 0.  1.
         -5    1    3    3    0  502  0.85942687712E+02 -0.15886835537E+02  0.49081885680E+03  0.49855707768E+03  0.41800000000E+01 0.  1.
        -11    1    1    2    0    0 -0.12995458978E+03 -0.59207644281E+01  0.10034853119E+03  0.16429570466E+03  0.00000000000E+00 0.  1.
         11    1    1    2    0    0 -0.29248340622E+03 -0.71265651007E+01  0.42148710570E+03  0.51307768526E+03  0.00000000000E+00 0. -1.
</event>
<event>
 7    1  0.2661133E-009  0.9972202E+02  0.7561462E-02  0.1280882E+00
         -1   -1    0    0    0  501 -0.00000000000E+00  0.00000000000E+00  0.22426101261E+03  0.22426101261E+03  0.00000000000E+00 0.  1.
          1   -1    0    0  501    0  0.00000000000E+00 -0.00000000000E+00 -0.56883025777E+02  0.56883025777E+02  0.00000000000E+00 0. -1.
         25    2    1    2    0    0  0.13639857864E+02  0.12046858351E+02  0.61408598253E+02  0.14053230810E+03  0.12508853329E+03 0.  0.
          5    1    3    3  502    0 -0.22951697078E+02  0.50945373575E+02  0.66224013698E+02  0.86748509369E+02  0.41800000000E+01 0. -1.
         -5    1    3    3    0  502  0.36591554942E+02 -0.38898515224E+02 -0.48154154452E+01  0.53783798728E+02  0.41800000000E+01 0. -1.
        -11    1    1    2    0    0  0.33351812582E+02  0.13936512186E+02  0.59401116177E+02  0.69534612802E+02  0.00000000000E+00 0.  1.
         11    1    1    2    0    0 -0.46991670446E+02 -0.25983370537E+02  0.46568272405E+02  0.71077117489E+02  0.00000000000E+00 0. -1.
</event>
<event>
 7    1  0.2661133E-009  0.1261370E+03  0.7561462E-02  0.1233303E+00
         -1   -1    0    0    0  501 -0.00000000000E+00  0.00000000000E+00  0.40267370106E+02  0.40267370106E+02  0.00000000000E+00 0.  1.
          1   -1    0    0  501    0  0.00000000000E+00 -0.00000000000E+00 -0.48877378957E+03  0.48877378957E+03  0.00000000000E+00 0. -1.
         25    2    1    2    0    0  0.76005070039E+01 -0.86813646433E+02 -0.21419635032E+03  0.26291092328E+03  0.12509076775E+03 0.  0.
          5    1    3    3  502    0  0.41137505751E+02 -0.82378571785E+02 -0.20901048840E+03  0.22843244107E+03  0.41800000000E+01 0. -1.
         -5    1    3    3    0  502 -0.33536998747E+02 -0.44350746483E+01 -0.51858619167E+01  0.34478482216E+02  0.41800000000E+01 0. -1.
        -11    1    1    2    0    0 -0.48944386148E+02  0.37477524534E+02 -0.10759395926E+03  0.12400233002E+03  0.00000000000E+00 0.  1.
         11    1    1    2    0    0  0.41343879144E+02  0.49336121899E+02 -0.12671610988E+03  0.14212790637E+03  0.00000000000E+00 0. -1.
</event>
<event>
 7    1  0.2661133E-009  0.8267197E+02  0.7561462E-02  0.1321635E+00
          3   -1    0    0  501    0  0.00000000000E+00  0.00000000000E+00  0.11647951617E+03  0.11647951617E+03  0.00000000000E+00 0. -1.
         -3   -1    0    0    0  501 -0.00000000000E+00 -0.00000000000E+00 -0.12927390146E+03  0.12927390146E+03  0.00000000000E+00 0.  1.
         25    2    1    2    0    0 -0.34861367461E+02 -0.37831331629E+02 -0.35767208053E+02  0.13990378285E+03  0.12508897110E+03 0.  0.
          5    1    3    3  502    0  0.21222522698E+00  0.29477458812E+02  0.27859810059E+02  0.40775078591E+02  0.41800000000E+01 0. -1.
         -5    1    3    3    0  502 -0.35073592688E+02 -0.67308790441E+02 -0.63627018112E+02  0.99128704261E+02  0.41800000000E+01 0. -1.
        -11    1    1    2    0    0  0.21060456024E+02  0.19946038751E+01 -0.32260582450E+02  0.38578056360E+02  0.00000000000E+00 0.  1.
         11    1    1    2    0    0  0.13800911437E+02  0.35836727754E+02  0.55233405210E+02  0.67271578424E+02  0.00000000000E+00 0. -1.
</event>
<event>
 7    1  0.2661133E-009  0.2165577E+03  0.7561462E-02  0.1136476E+00
         -1   -1    0    0    0  501 -0.00000000000E+00  0.00000000000E+00  0.19241796603E+03  0.19241796603E+03  0.00000000000E+00 0.  1.
          1   -1    0    0  501    0  0.00000000000E+00 -0.00000000000E+00 -0.30300561976E+03  0.30300561976E+03  0.00000000000E+00 0. -1.
         25    2    1    2    0    0  0.35982610661E+02  0.20990975083E+03 -0.24528718986E+02  0.24820886948E+03  0.12509649504E+03 0.  0.
          5    1    3    3  502    0 -0.56137246229E+01  0.12689181508E+03  0.42064844069E+02  0.13386549274E+03  0.41800000000E+01 0.  1.
         -5    1    3    3    0  502  0.41596335284E+02  0.83017935749E+02 -0.66593563056E+02  0.11434337675E+03  0.41800000000E+01 0.  1.
        -11    1    1    2    0    0 -0.85310984383E+01 -0.68666611710E+02  0.15735471619E+02  0.70961174394E+02  0.00000000000E+00 0.  1.
         11    1    1    2    0    0 -0.27451512222E+02 -0.14124313912E+03 -0.10179440636E+03  0.17625354192E+03  0.00000000000E+00 0. -1.
</event>
<event>
 7    1  0.2661133E-009  0.1032288E+03  0.7561462E-02  0.1273649E+00
          2   -1    0    0  501    0  0.00000000000E+00  0.00000000000E+00  0.76387703902E+03  0.76387703902E+03  0.00000000000E+00 0. -1.
         -2   -1    0    0    0  501 -0.00000000000E+00 -0.00000000000E+00 -0.27244830708E+02  0.27244830708E+02  0.00000000000E+00 0.  1.
         25    2    1    2    0    0  0.34838373245E+02 -0.62205499702E+02  0.56647777821E+03  0.58448570944E+03  0.12507291833E+03 0.  0.
          5    1    3    3  502    0  0.53826370261E+02 -0.22760460055E+02  0.99701719060E+02  0.11564264724E+03  0.41800000000E+01 0.  1.
         -5    1    3    3    0  502 -0.18987997016E+02 -0.39445039647E+02  0.46677605915E+03  0.46884306220E+03  0.41800000000E+01 0.  1.
        -11    1    1    2    0    0 -0.79722237608E+01 -0.17795473981E+02  0.83231755555E+02  0.85485439571E+02  0.00000000000E+00 0. -1.
         11    1    1    2    0    0 -0.26866149484E+02  0.80000973682E+02  0.86922674546E+02  0.12115072071E+03  0.00000000000E+00 0.  1.
</event>
<event>
 7    1  0.2661133E-009  0.2136922E+03  0.7561462E-02  0.1138675E+00
         -1   -1    0    0    0  501 -0.00000000000E+00  0.00000000000E+00  0.16028283162E+03  0.16028283162E+03  0.00000000000E+00 0.  1.
          1   -1    0    0  501    0  0.00000000000E+00 -0.00000000000E+00 -0.43529979679E+03  0.43529979679E+03  0.00000000000E+00 0. -1.
         25    2    1    2    0    0 -0.14691915665E+03  0.90963356448E+02  0.31691212315E+02  0.21567265385E+03  0.12510311696E+03 0.  0.
          5    1    3    3  502    0 -0.13749735031E+03  0.24387371502E+02  0.45449660429E+02  0.14691293090E+03  0.41800000000E+01 0. -1.
         -5    1    3    3    0  502 -0.94218063427E+01  0.66575984947E+02 -0.13758448114E+02  0.68759722955E+02  0.41800000000E+01 0. -1.
        -11    1    1    2    0    0  0.71490218994E+02 -0.11983844938E+03 -0.22682650529E+03  0.26631253982E+03  0.00000000000E+00 0. -1.
         11    1    1    2    0    0  0.75428937661E+02  0.28875092933E+02 -0.79881672192E+02  0.11359743475E+03  0.00000000000E+00 0.  1.
</event>
<event>
 7    1  0.2661133E-009  0.9990697E+02  0.7561462E-02  0.1280492E+00
         -3   -1    0    0    0  501 -0.00000000000E+00  0.00000000000E+00  0.55702406862E+02  0.55702406862E+02  0.00000000000E+00 0.  1.
          3   -1    0    0  501    0  0.00000000000E+00 -0.00000000000E+00 -0.24229155540E+03  0.24229155540E+03  0.00000000000E+00 0. -1.
         25    2    1    2    0    0  0.13614517409E+02 -0.17006008865E+02 -0.14822515618E+03  0.19517387657E+03  0.12509031038E+03 0.  0.
          5    1    3    3  502    0 -0.37793477518E+01  0.44656051966E+02 -0.15273271479E+02  0.47530954843E+02  0.41800000000E+01 0.  1.
         -5    1    3    3    0  502  0.17393865161E+02 -0.61662060831E+02 -0.13295188470E+03  0.14764292173E+03  0.41800000000E+01 0.  1.
        -11    1    1    2    0    0  0.10741054101E+02  0.49127538467E+02 -0.37094291211E+02  0.62488972783E+02  0.00000000000E+00 0. -1.
         11    1    1    2    0    0 -0.24355571510E+02 -0.32121529602E+02 -0.12697011496E+01  0.40331112910E+02  0.00000000000E+00 0.  1.
</event>
<event>
 7    1  0.2661133E-009  0.5680192E+02  0.7561462E-02  0.1411765E+00
          2   -1    0    0  501    0  0.00000000000E+00  0.00000000000E+00  0.30539112262E+03  0.30539112262E+03  0.00000000000E+00 0. -1.
         -2   -1    0    0    0  501 -0.00000000000E+00 -0.00000000000E+00 -0.43084103108E+02  0.43084103108E+02  0.00000000000E+00 0.  1.
         25    2    1    2    0    0  0.29876433025E+02  0.92975946240E+01  0.12361701444E+03  0.17862708079E+03  0.12508965272E+03 0.  0.
          5    1    3    3  502    0  0.24554627081E+02 -0.11379944493E+02 -0.19657934142E+02  0.33709636938E+02  0.41800000000E+01 0. -1.
         -5    1    3    3    0  502  0.53218059436E+01  0.20677539117E+02  0.14327494858E+03  0.14491744385E+03  0.41800000000E+01 0. -1.
        -11    1    1    2    0    0 -0.28207682419E+02 -0.31450543530E+02  0.14129919438E+03  0.14747973545E+03  0.00000000000E+00 0. -1.
         11    1    1    2    0    0 -0.16687506061E+01  0.22152948906E+02 -0.26091893123E+01  0.22368409481E+02  0.00000000000E+00 0.  1.
</event>
<event>
 7    1  0.2661133E-009  0.7756060E+02  0.7561462E-02  0.1336120E+00
          2   -1    0    0  501    0  0.00000000000E+00  0.00000000000E+00  0.63481885064E+02  0.63481885064E+02  0.00000000000E+00 0. -1.
         -2   -1    0    0    0  501 -0.00000000000E+00 -0.00000000000E+00 -0.20353204232E+03  0.20353204232E+03  0.00000000000E+00 0.  1.
         25    2    1    2    0    0 -0.11507074298E+02  0.16207040855E+02 -0.13260667907E+03  0.18337556586E+03  0.12508791264E+03 0.  0.
          5    1    3    3  502    0  0.16630086234E+02  0.57989727803E+02 -0.11485600014E+03  0.12980270208E+03  0.41800000000E+01 0.  1.
         -5    1    3    3    0  502 -0.28137160532E+02 -0.41782686948E+02 -0.17750678932E+02  0.53572863783E+02  0.41800000000E+01 0.  1.
        -11    1    1    2    0    0  0.14951060271E+02  0.97947986517E+01  0.31775137712E+02  0.36457257995E+02  0.00000000000E+00 0. -1.
         11    1    1    2    0    0 -0.34439859732E+01 -0.26001839507E+02 -0.39218615894E+02  0.47181103524E+02  0.00000000000E+00 0.  1.
</event>
<event>
 7    1  0.2661133E-009  0.1535865E+03  0.7561462E-02  0.1196134E+00
          2   -1    0    0  501    0  0.00000000000E+00  0.00000000000E+00  0.12277250509E+03  0.12277250509E+03  0.00000000000E+00 0. -1.
         -2   -1    0    0    0  501 -0.00000000000E+00 -0.00000000000E+00 -0.24789493128E+03  0.24789493128E+03  0.00000000000E+00 0.  1.
         25    2    1    2    0    0 -0.12602842144E+03  0.26206033784E+02 -0.10920214977E+03  0.21010241534E+03  0.12509195098E+03 0.  0.
          5    1    3    3  502    0 -0.12440735196E+03  0.59728166370E+02 -0.10960078146E+03  0.17627945648E+03  0.41800000000E+01 0.  1.
         -5    1    3    3    0  502 -0.16210694814E+01 -0.33522132586E+02  0.39863168485E+00  0.33822958868E+02  0.41800000000E+01 0.  1.
        -11    1    1    2    0    0  0.96062225789E+02 -0.90254881094E+00  0.29557877217E+02  0.10051086470E+03  0.00000000000E+00 0. -1.
         11    1    1    2    0    0  0.29966195652E+02 -0.25303484973E+02 -0.45478153632E+02  0.60054156321E+02  0.00000000000E+00 0.  1.
</event>
<event>
 7    1  0.2661133E-009  0.1054044E+03  0.7561462E-02  0.1269325E+00
          1   -1    0    0  501    0  0.00000000000E+00  0.00000000000E+00  0.98855697485E+03  0.98855697485E+03  0.00000000000E+00 0. -1.
         -1   -1    0    0    0  501 -0.00000000000E+00 -0.00000000000E+00 -0.20176419836E+02  0.20176419836E+02  0.00000000000E+00 0.  1.
         25    2    1    2    0    0  0.14381387688E+02  0.21230687011E+02  0.83446348140E+03  0.84417695789E+03  0.12509143880E+03 0.  0.
          5    1    3    3  502    0  0.92353341712E+01  0.67877829989E+02  0.30524479526E+03  0.31286506458E+03  0.41800000000E+01 0.  1.
         -5    1    3    3    0  502  0.51460535165E+01 -0.46647142978E+02  0.52921868614E+03  0.53131189331E+03  0.41800000000E+01 0.  1.
        -11    1    1    2    0    0 -0.16049749447E+02 -0.57019180842E+02  0.91928049092E+02  0.10935971677E+03  0.00000000000E+00 0. -1.
         11    1    1    2    0    0  0.16683617589E+01  0.35788493832E+02  0.41989024526E+02  0.55196720033E+02  0.00000000000E+00 0.  1.
</event>
<event>
 7    1  0.3333940E-009  0.6169370E+02  0.7561462E-02  0.1390858E+00
         -1   -1    0    0    0  501 -0.00000000000E+00  0.00000000000E+00  0.32430427483E+03  0.32430427483E+03  0.00000000000E+00 0.  1.
          1   -1    0    0  501    0  0.00000000000E+00 -0.00000000000E+00 -0.61720201874E+02  0.61720201874E+02  0.00000000000E+00 0. -1.
         25    2    1    2    0    0  0.31390725261E+02 -0.20847994690E+00  0.25917029291E+03  0.28948641757E+03  0.12509086352E+03 0.  0.
          5    1    3    3  502    0  0.13124192615E+01  0.22195888431E+01  0.25897494360E+03  0.25902151036E+03  0.41800000000E+01 0. -1.
         -5    1    3    3    0  502  0.30078305999E+02 -0.24280687900E+01  0.19534931020E+00  0.30464907208E+02  0.41800000000E+01 0. -1.
        -11    1    1    2    0    0  0.19194506665E+02  0.25129044516E+02  0.20416994099E+02  0.37639761058E+02  0.00000000000E+00 0.  1.
         11    1    1    2    0    0 -0.50585231926E+02 -0.24920564570E+02 -0.17003214056E+02  0.58898298071E+02  0.00000000000E+00 0. -1.
</event>
<event>
 7    1  0.3071995E-009  0.1385653E+03  0.7561462E-02  0.1215273E+00
         -2   -1    0    0    0  501 -0.00000000000E+00  0.00000000000E+00  0.22306685299E+02  0.22306685299E+02  0.00000000000E+00 0.  1.
          2   -1    0    0  501    0  0.00000000000E+00 -0.00000000000E+00 -0.11378817412E+04  0.11378817412E+04  0.00000000000E+00 0. -1.
         25    2    1    2    0    0  0.96171540194E+02  0.51574859243E+02 -0.74660444037E+03  0.76483575996E+03  0.12508644242E+03 0.  0.
          5    1    3    3  502    0 -0.56891086560E+01  0.62268788095E+02 -0.32112992576E+03  0.32718751435E+03  0.41800000000E+01 0.  1.
         -5    1    3    3    0  502  0.10186064885E+03 -0.10693928853E+02 -0.42547451461E+03  0.43764824561E+03  0.41800000000E+01 0.  1.
        -11    1    1    2    0    0 -0.40334266433E+02 -0.35809787961E+02 -0.58755608811E+02  0.79758482491E+02  0.00000000000E+00 0.  1.
         11    1    1    2    0    0 -0.55837273761E+02 -0.15765071282E+02 -0.31021500671E+03  0.31559418405E+03  0.00000000000E+00 0. -1.
</event>
<event>
 7    1  0.2661133E-009  0.1118384E+03  0.7561462E-02  0.1257203E+00
          2   -1    0    0  501    0  0.00000000000E+00  0.00000000000E+00  0.11362255362E+03  0.11362255362E+03  0.00000000000E+00 0.  1.
         -2   -1    0    0    0  501 -0.00000000000E+00 -0.00000000000E+00 -0.13465101936E+03  0.13465101936E+03  0.00000000000E+00 0. -1.
         25    2    1    2    0    0 -0.40407625493E+02  0.85308666325E+01 -0.55512401485E+02  0.14294985856E+03  0.12508990151E+03 0.  0.
          5    1    3    3  502    0 -0.84207690204E+02 -0.10692117223E+01 -0.48789926494E+02  0.97416670187E+02  0.41800000000E+01 0. -1.
         -5    1    3    3    0  502  0.43800064711E+02  0.96000783548E+01 -0.67224749914E+01  0.45533188369E+02  0.41800000000E+01 0. -1.
        -11    1    1    2    0    0 -0.11055777557E+02 -0.34821471212E+02  0.30155075573E+02  0.47371865676E+02  0.00000000000E+00 0.  1.
         11    1    1    2    0    0  0.51463403050E+02  0.26290604579E+02  0.43288601754E+01  0.57951848746E+02  0.00000000000E+00 0. -1.
</event>
<event>
 7    1  0.2661133E-009  0.1464333E+03  0.7561462E-02  0.1204925E+00
         -1   -1    0    0    0  501 -0.00000000000E+00  0.00000000000E+00  0.13669504595E+03  0.13669504595E+03  0.00000000000E+00 0.  1.
          1   -1    0    0  501    0  0.00000000000E+00 -0.00000000000E+00 -0.21946140110E+03  0.21946140110E+03  0.00000000000E+00 0. -1.
         25    2    1    2    0    0 -0.12230533523E+03  0.95538876056E+01 -0.23387867731E+02  0.17674946851E+03  0.12507401996E+03 0.  0.
          5    1    3    3  502    0 -0.11312001928E+03  0.23590374182E+02  0.30973198408E+02  0.11970570552E+03  0.41800000000E+01 0.  1.
         -5    1    3    3    0  502 -0.91853159510E+01 -0.14036486577E+02 -0.54361066138E+02  0.57043762992E+02  0.41800000000E+01 0.  1.
        -11    1    1    2    0    0  0.65421670135E+02  0.46363364243E+02 -0.36627832221E+00  0.80185351698E+02  0.00000000000E+00 0.  1.
         11    1    1    2    0    0  0.56883665092E+02 -0.55917251849E+02 -0.59012209105E+02  0.99221626836E+02  0.00000000000E+00 0. -1.
</event>
<event>
 7    1  0.2661133E-009  0.1207676E+03  0.7561462E-02  0.1241836E+00
          4   -1    0    0  501    0  0.00000000000E+00  0.00000000000E+00  0.18183718496E+03  0.18183718496E+03  0.00000000000E+00 0. -1.
         -4   -1    0    0    0  501 -0.00000000000E+00 -0.00000000000E+00 -0.81920539449E+02  0.81920539449E+02  0.00000000000E+00 0.  1.
         25    2    1    2    0    0 -0.57218901903E+02  0.26132885572E+02  0.55002191637E+02  0.15043511120E+03  0.12509416914E+03 0.  0.
          5    1    3    3  502    0  0.11432152858E+02  0.60568326403E+02  0.34811560725E+02  0.70912152995E+02  0.41800000000E+01 0. -1.
         -5    1    3    3    0  502 -0.68651054761E+02 -0.34435440831E+02  0.20190630912E+02  0.79522958205E+02  0.41800000000E+01 0. -1.
        -11    1    1    2    0    0  0.74501281618E+02 -0.37976557109E+01  0.24655945666E+02  0.78567033852E+02  0.00000000000E+00 0. -1.
         11    1    1    2    0    0 -0.17282379716E+02 -0.22335229861E+02  0.20258508204E+02  0.34755579354E+02  0.00000000000E+00 0.  1.
</event>
<event>
 7    1  0.2661133E-009  0.8107406E+02  0.7561462E-02  0.1326031E+00
         -4   -1    0    0    0  501 -0.00000000000E+00  0.00000000000E+00  0.11152816121E+03  0.11152816121E+03  0.00000000000E+00 0.  1.
          4   -1    0    0  501    0  0.00000000000E+00 -0.00000000000E+00 -0.15987843435E+03  0.15987843435E+03  0.00000000000E+00 0. -1.
         25    2    1    2    0    0  0.39676010604E+02 -0.63907232330E+02 -0.29104272209E+02  0.14884088393E+03  0.12509288512E+03 0.  0.
          5    1    3    3  502    0  0.16640048320E+02 -0.19324506956E+02 -0.75850441449E+02  0.80131701874E+02  0.41800000000E+01 0. -1.
         -5    1    3    3    0  502  0.23035962284E+02 -0.44582725374E+02  0.46746169240E+02  0.68709182055E+02  0.41800000000E+01 0. -1.
        -11    1    1    2    0    0 -0.61099876668E+01  0.48731203846E+02  0.32613004269E+02  0.58954815113E+02  0.00000000000E+00 0.  1.
         11    1    1    2    0    0 -0.33566022937E+02  0.15176028484E+02 -0.51859005194E+02  0.63610896520E+02  0.00000000000E+00 0. -1.
</event>
<event>
 7    1  0.2661133E-009  0.1318704E+03  0.7561462E-02  0.1224706E+00
          2   -1    0    0  501    0  0.00000000000E+00  0.00000000000E+00  0.27133011234E+03  0.27133011234E+03  0.00000000000E+00 0. -1.
         -2   -1    0    0    0  501 -0.00000000000E+00 -0.00000000000E+00 -0.89910475835E+02  0.89910475835E+02  0.00000000000E+00 0.  1.
         25    2    1    2    0    0  0.60505955675E+02 -0.79570362693E+02  0.15839183143E+03  0.22520476430E+03  0.12504719233E+03 0.  0.
          5    1    3    3  502    0  0.81622901036E+02 -0.67686200189E+02  0.56171310195E+02  0.12006834786E+03  0.41800000000E+01 0.  1.
         -5    1    3    3    0  502 -0.21116945361E+02 -0.11884162503E+02  0.10222052124E+03  0.10513641644E+03  0.41800000000E+01 0.  1.
        -11    1    1    2    0    0 -0.22941883432E+01  0.74571568953E+02  0.21285469595E+02  0.77583847624E+02  0.00000000000E+00 0.  1.
         11    1    1    2    0    0 -0.58211767331E+02  0.49987937399E+01  0.17423354807E+01  0.58451976251E+02  0.00000000000E+00 0. -1.
</event>
<event>
 7    1  0.2661133E-009  0.1457331E+03  0.7561462E-02  0.1205816E+00
         -1   -1    0    0    0  501 -0.00000000000E+00  0.00000000000E+00  0.70101355225E+02  0.70101355225E+02  0.00000000000E+00 0.  1.
          1   -1    0    0  501    0  0.00000000000E+00 -0.00000000000E+00 -0.42616036058E+03  0.42616036058E+03  0.00000000000E+00 0. -1.
         25    2    1    2    0    0 -0.93838801601E+02 -0.68936501490E+02 -0.90090761229E+02  0.19319048789E+03  0.12509299513E+03 0.  0.
          5    1    3    3  502    0  0.23973569067E+01  0.22003013283E+02 -0.49912277666E+02  0.54759362445E+02  0.41800000000E+01 0. -1.
         -5    1    3    3    0  502 -0.96236158508E+02 -0.90939514773E+02 -0.40178483564E+02  0.13843112545E+03  0.41800000000E+01 0. -1.
        -11    1    1    2    0    0  0.22843973787E+02  0.60873122842E+02 -0.17943437822E+03  0.19085093741E+03  0.00000000000E+00 0. -1.
         11    1    1    2    0    0  0.70994827815E+02  0.80633786480E+01 -0.86533865909E+02  0.11222029050E+03  0.00000000000E+00 0.  1.
</event>
<event>
 7    1  0.2661133E-009  0.1070554E+03  0.7561462E-02  0.1266122E+00
          1   -1    0    0  501    0  0.00000000000E+00  0.00000000000E+00  0.16602169395E+03  0.16602169395E+03  0.00000000000E+00 0. -1.
         -1   -1    0    0    0  501 -0.00000000000E+00 -0.00000000000E+00 -0.79376023341E+02  0.79376023341E+02  0.00000000000E+00 0.  1.
         25    2    1    2    0    0  0.28477317610E+02  0.18059617068E+02  0.65851056393E+02  0.14532468037E+03  0.12508314718E+03 0.  0.
          5    1    3    3  502    0 -0.39274296025E+02  0.32801757612E+02  0.26445788728E+01  0.51409063676E+02  0.41800000000E+01 0. -1.
         -5    1    3    3    0  502  0.67751613634E+02 -0.14742140544E+02  0.63206477520E+02  0.93915616691E+02  0.41800000000E+01 0. -1.
        -11    1    1    2    0    0  0.29056346894E+02 -0.20759017270E+02 -0.65644614147E+01  0.36308404626E+02  0.00000000000E+00 0.  1.
         11    1    1    2    0    0 -0.57533664504E+02  0.26994002019E+01  0.27359075630E+02  0.63764632297E+02  0.00000000000E+00 0. -1.
</event>
<event>
 7    1  0.2661133E-009  0.8809266E+02  0.7561462E-02  0.1307537E+00
         -1   -1    0    0    0  501 -0.00000000000E+00  0.00000000000E+00  0.15148797109E+02  0.15148797109E+02  0.00000000000E+00 0.  1.
          1   -1    0    0  501    0  0.00000000000E+00 -0.00000000000E+00 -0.10440538277E+04  0.10440538277E+04  0.00000000000E+00 0. -1.
         25    2    1    2    0    0 -0.59550851557E+01 -0.60581731417E+02 -0.63558553041E+03  0.65062805392E+03  0.12506913629E+03 0.  0.
          5    1    3    3  502    0 -0.11646989983E+02 -0.46701483144E+01 -0.53630174423E+03  0.53646481332E+03  0.41800000000E+01 0. -1.
         -5    1    3    3    0  502  0.56919048269E+01 -0.55911583103E+02 -0.99283786179E+02  0.11416324060E+03  0.41800000000E+01 0. -1.
        -11    1    1    2    0    0 -0.40880318320E+02  0.28092120452E+02 -0.12966226466E+03  0.13882604415E+03  0.00000000000E+00 0.  1.
         11    1    1    2    0    0  0.46835403476E+02  0.32489610966E+02 -0.26365723551E+03  0.26974852673E+03  0.00000000000E+00 0. -1.
</event>
<event>
 7    1  0.2661133E-009  0.1317074E+03  0.7561462E-02  0.1224944E+00
         -2   -1    0    0    0  501 -0.00000000000E+00  0.00000000000E+00  0.62973484485E+02  0.62973484485E+02  0.00000000000E+00 0.  1.
          2   -1    0    0  501    0  0.00000000000E+00 -0.00000000000E+00 -0.36849089089E+03  0.36849089089E+03  0.00000000000E+00 0. -1.
         25    2    1    2    0    0 -0.98518705816E+02  0.20588543603E+02 -0.21609639826E+03  0.26921431052E+03  0.12509543608E+03 0.  0.
          5    1    3    3  502    0 -0.56633063298E+02  0.71878474883E+02 -0.14860085819E+03  0.17456662471E+03  0.41800000000E+01 0. -1.
         -5    1    3    3    0  502 -0.41885642518E+02 -0.51289931279E+02 -0.67495540070E+02  0.94647685810E+02  0.41800000000E+01 0. -1.
        -11    1    1    2    0    0  0.88587604295E+02 -0.28176920098E+02 -0.10632147995E+03  0.14123016519E+03  0.00000000000E+00 0. -1.
         11    1    1    2    0    0  0.99311015204E+01  0.75883764943E+01  0.16900471794E+02  0.21019899668E+02  0.00000000000E+00 0.  1.
</event>
<event>
 7    1  0.2661133E-009  0.1152702E+03  0.7561462E-02  0.1251110E+00
         -2   -1    0    0    0  501 -0.00000000000E+00  0.00000000000E+00  0.28022295660E+02  0.28022295660E+02  0.00000000000E+00 0.  1.
          2   -1    0    0  501    0  0.00000000000E+00 -0.00000000000E+00 -0.77670515893E+03  0.77670515893E+03  0.00000000000E+00 0. -1.
         25    2    1    2    0    0 -0.32449889950E+02 -0.70283143839E+02 -0.57426889985E+03  0.59281190912E+03  0.12509386315E+03 0.  0.
          5    1    3    3  502    0  0.49899658249E+01  0.19623103552E+02 -0.16124585371E+02  0.26219088568E+02  0.41800000000E+01 0. -1.
         -5    1    3    3    0  502 -0.37439855775E+02 -0.89906247391E+02 -0.55814431448E+03  0.56659282056E+03  0.41800000000E+01 0. -1.
        -11    1    1    2    0    0  0.58031945535E+02  0.63283890337E+02 -0.94342828172E+02  0.12756616599E+03  0.00000000000E+00 0.  1.
         11    1    1    2    0    0 -0.25582055584E+02  0.69992535029E+01 -0.80071135246E+02  0.84349379471E+02  0.00000000000E+00 0. -1.
</event>
<event>
 7    1  0.2661133E-009  0.1440589E+03  0.7561462E-02  0.1207969E+00
          1   -1    0    0  501    0  0.00000000000E+00  0.00000000000E+00  0.23623282857E+03  0.23623282857E+03  0.00000000000E+00 0. -1.
         -1   -1    0    0    0  501 -0.00000000000E+00 -0.00000000000E+00 -0.10329167792E+03  0.10329167792E+03  0.00000000000E+00 0.  1.
         25    2    1    2    0    0 -0.21570408547E+02  0.10789552299E+03  0.50898723988E+02  0.17419709160E+03  0.12508884927E+03 0.  0.
          5    1    3    3  502    0 -0.48939307914E+02  0.18853822483E+02  0.60826915195E+02  0.80423308148E+02  0.41800000000E+01 0.  1.
         -5    1    3    3    0  502  0.27368899367E+02  0.89041700512E+02 -0.99281912070E+01  0.93773783454E+02  0.41800000000E+01 0.  1.
        -11    1    1    2    0    0 -0.27952934612E+02 -0.54609179206E+01  0.25703854952E+02  0.38365040563E+02  0.00000000000E+00 0. -1.
         11    1    1    2    0    0  0.49523343160E+02 -0.10243460507E+03  0.56338571709E+02  0.12696237433E+03  0.00000000000E+00 0.  1.
</event>
<event>
 7    1  0.2661133E-009  0.1104476E+03  0.7561462E-02  0.1259743E+00
          1   -1    0    0  501    0  0.00000000000E+00  0.00000000000E+00  0.43544150811E+03  0.43544150811E+03  0.00000000000E+00 0. -1.
         -1   -1    0    0    0  501 -0.00000000000E+00 -0.00000000000E+00 -0.32595512497E+02  0.32595512497E+02  0.00000000000E+00 0.  1.
         25    2    1    2    0    0  0.45782196044E+02 -0.10870599115E+02  0.23621173550E+03  0.27140163088E+03  0.12509469155E+03 0.  0.
          5    1    3    3  502    0 -0.41146589391E+02  0.16557617013E-01  0.45497413928E+02  0.61486007895E+02  0.41800000000E+01 0.  1.
         -5    1    3    3    0  502  0.86928785434E+02 -0.10887156732E+02  0.19071432157E+03  0.20991562298E+03  0.41800000000E+01 0.  1.
        -11    1    1    2    0    0 -0.68482833595E+02  0.81966826307E+01  0.73733280053E+02  0.10096375929E+03  0.00000000000E+00 0.  1.
         11    1    1    2    0    0  0.22700637552E+02  0.26739164847E+01  0.92900980060E+02  0.95671630438E+02  0.00000000000E+00 0. -1.
</event>
<event>
 7    1  0.2661133E-009  0.5247620E+02  0.7561462E-02  0.1432426E+00
         -2   -1    0    0    0  501 -0.00000000000E+00  0.00000000000E+00  0.33497638473E+02  0.33497638473E+02  0.00000000000E+00 0.  1.
          2   -1    0    0  501    0  0.00000000000E+00 -0.00000000000E+00 -0.36683507510E+03  0.36683507510E+03  0.00000000000E+00 0. -1.
         25    2    1    2    0    0 -0.19456877934E+02  0.12663957860E+01 -0.18575151106E+03  0.22479139606E+03  0.12508946407E+03 0.  0.
          5    1    3    3  502    0 -0.17210733942E+02  0.22483187162E+01 -0.20457583137E+03  0.20535337222E+03  0.41800000000E+01 0.  1.
         -5    1    3    3    0  502 -0.22461439915E+01 -0.98192293020E+00  0.18824320311E+02  0.19438023836E+02  0.41800000000E+01 0.  1.
        -11    1    1    2    0    0  0.25161843024E+02 -0.37727622457E+02 -0.35665499450E+02  0.57693324498E+02  0.00000000000E+00 0.  1.
         11    1    1    2    0    0 -0.57049650905E+01  0.36461226671E+02 -0.11192042611E+03  0.11784799302E+03  0.00000000000E+00 0. -1.
</event>
<event>
 7    1  0.2661133E-009  0.1154089E+03  0.7561462E-02  0.1250869E+00
          4   -1    0    0  501    0  0.00000000000E+00  0.00000000000E+00  0.12883616617E+03  0.12883616617E+03  0.00000000000E+00 0. -1.
         -4   -1    0    0    0  501 -0.00000000000E+00 -0.00000000000E+00 -0.13291089989E+03  0.13291089989E+03  0.00000000000E+00 0.  1.
         25    2    1    2    0    0  0.49364284896E+02 -0.43437616630E+01 -0.56571973577E+02  0.14595670580E+03  0.12508905182E+03 0.  0.
          5    1    3    3  502    0  0.16692902439E+02  0.59571083212E+02 -0.19137193643E+02  0.64892769455E+02  0.41800000000E+01 0. -1.
         -5    1    3    3    0  502  0.32671382457E+02 -0.63914844876E+02 -0.37434779934E+02  0.81063936345E+02  0.41800000000E+01 0. -1.
        -11    1    1    2    0    0  0.62944382009E+01 -0.30566174644E+02  0.36780113195E+02  0.48235751381E+02  0.00000000000E+00 0. -1.
         11    1    1    2    0    0 -0.55658723097E+02  0.34909936307E+02  0.15717126668E+02  0.67554608877E+02  0.00000000000E+00 0.  1.
</event>
<event>
 7    1  0.2661133E-009  0.9975055E+02  0.7561462E-02  0.1280821E+00
         -2   -1    0    0    0  501 -0.00000000000E+00  0.00000000000E+00  0.51344386395E+02  0.51344386395E+02  0.00000000000E+00 0.  1.
          2   -1    0    0  501    0  0.00000000000E+00 -0.00000000000E+00 -0.23519635480E+03  0.23519635480E+03  0.00000000000E+00 0. -1.
         25    2    1    2    0    0  0.65449733541E+00 -0.18514860247E+02 -0.10015316444E+03  0.16131285553E+03  0.12509177670E+03 0.  0.
          5    1    3    3  502    0  0.50154292188E+02 -0.32277452466E+02 -0.14786881297E+02  0.61590674790E+02  0.41800000000E+01 0.  1.
         -5    1    3    3    0  502 -0.49499794853E+02  0.13762592219E+02 -0.85366283139E+02  0.99722180742E+02  0.41800000000E+01 0.  1.
        -11    1    1    2    0    0  0.16114047187E+02  0.49978218503E+02 -0.29146722641E+02  0.60058440558E+02  0.00000000000E+00 0. -1.
         11    1    1    2    0    0 -0.16768544522E+02 -0.31463358257E+02 -0.54552081329E+02  0.65169445106E+02  0.00000000000E+00 0.  1.
</event>
<event>
 6    1  0.2661133E-009  0.8565163E+02  0.7561462E-02  0.1313737E+00
         -1   -1    0    0    0  501 -0.00000000000E+00  0.00000000000E+00  0.70646763978E+02  0.70646763978E+02  0.00000000000E+00 0.  1.
          1   -1    0    0  501    0  0.00000000000E+00 -0.00000000000E+00 -0.23189448193E+03  0.23189448193E+03  0.00000000000E+00 0. -1.
          5    1    1    2  502    0 -0.73662804084E+02 -0.92845500767E+01 -0.11803560676E+03  0.13950730604E+03  0.41800000000E+01 0. -1.
         -5    1    1    2    0  502  0.50011731697E+02  0.63736325376E+01 -0.47476475762E+02  0.69377839761E+02  0.41800000000E+01 0. -1.
        -11    1    1    2    0    0 -0.33209644430E+01  0.16020907284E+02 -0.38265228223E+02  0.41616414622E+02  0.00000000000E+00 0. -1.
         11    1    1    2    0    0  0.26972036830E+02 -0.13109989745E+02  0.42529592794E+02  0.52039685482E+02  0.00000000000E+00 0.  1.
</event>
<event>
 7    1  0.2661133E-009  0.1693858E+03  0.7561462E-02  0.1178490E+00
         -2   -1    0    0    0  501 -0.00000000000E+00  0.00000000000E+00  0.47038934249E+03  0.47038934249E+03  0.00000000000E+00 0.  1.
          2   -1    0    0  501    0  0.00000000000E+00 -0.00000000000E+00 -0.72085728180E+02  0.72085728180E+02  0.00000000000E+00 0. -1.
         25    2    1    2    0    0 -0.79697637428E+02  0.11368376838E+03  0.13553514758E+03  0.23085272513E+03  0.12508993512E+03 0.  0.
          5    1    3    3  502    0  0.28901889049E+02  0.56964760667E+02  0.52483540587E+02  0.82778605817E+02  0.41800000000E+01 0.  1.
         -5    1    3    3    0  502 -0.10859952648E+03  0.56719007708E+02  0.83051606997E+02  0.14807411932E+03  0.41800000000E+01 0.  1.
        -11    1    1    2    0    0  0.22503908324E+02 -0.85489879180E+02  0.21337942540E+03  0.23096693382E+03  0.00000000000E+00 0.  1.
         11    1    1    2    0    0  0.57193729103E+02 -0.28193889195E+02  0.49389041323E+02  0.80655411719E+02  0.00000000000E+00 0. -1.
</event>
<event>
 7    1  0.2661133E-009  0.1273488E+03  0.7561462E-02  0.1231444E+00
          2   -1    0    0  501    0  0.00000000000E+00  0.00000000000E+00  0.11674516057E+04  0.11674516057E+04  0.00000000000E+00 0. -1.
         -2   -1    0    0    0  501 -0.00000000000E+00 -0.00000000000E+00 -0.25210947161E+02  0.25210947161E+02  0.00000000000E+00 0.  1.
         25    2    1    2    0    0 -0.89192426027E+02  0.62453348755E+02  0.87280410350E+03  0.88841863301E+03  0.12507979355E+03 0.  0.
          5    1    3    3  502    0  0.47097853367E+01  0.20969152936E+02  0.20660041012E+02  0.30103108600E+02  0.41800000000E+01 0.  1.
         -5    1    3    3    0  502 -0.93902211363E+02  0.41484195819E+02  0.85214406249E+03  0.85831552441E+03  0.41800000000E+01 0.  1.
        -11    1    1    2    0    0  0.50546397939E+02 -0.74099792030E+02  0.12227374601E+03  0.15164625444E+03  0.00000000000E+00 0.  1.
         11    1    1    2    0    0  0.38646028088E+02  0.11646443275E+02  0.14716280906E+03  0.15259766544E+03  0.00000000000E+00 0. -1.
</event>
<event>
 7    1  0.2661133E-009  0.2313753E+03  0.7561462E-02  0.1125676E+00
         -2   -1    0    0    0  501 -0.00000000000E+00  0.00000000000E+00  0.42258769607E+03  0.42258769607E+03  0.00000000000E+00 0.  1.
          2   -1    0    0  501    0  0.00000000000E+00 -0.00000000000E+00 -0.17420764418E+03  0.17420764418E+03  0.00000000000E+00 0. -1.
         25    2    1    2    0    0  0.13362562104E+03 -0.16832755046E+03 -0.21001579557E+02  0.24955572356E+03  0.12508805688E+03 0.  0.
          5    1    3    3  502    0 -0.22298065849E+02 -0.15947129284E+02  0.96326442649E+01  0.29356002939E+02  0.41800000000E+01 0.  1.
         -5    1    3    3    0  502  0.15592368689E+03 -0.15238042118E+03 -0.30634223822E+02  0.22019972062E+03  0.41800000000E+01 0.  1.
        -11    1    1    2    0    0 -0.52355228483E+02  0.43800150390E+02  0.10828377971E+03  0.12800351585E+03  0.00000000000E+00 0.  1.
         11    1    1    2    0    0 -0.81270392553E+02  0.12452740007E+03  0.16109785174E+03  0.21923610083E+03  0.00000000000E+00 0. -1.
</event>
<event>
 7    1  0.2661133E-009  0.9328738E+02  0.7561462E-02  0.1295081E+00
          2   -1    0    0  501    0  0.00000000000E+00  0.00000000000E+00  0.11692819981E+04  0.11692819981E+04  0.00000000000E+00 0. -1.
         -2   -1    0    0    0  501 -0.00000000000E+00 -0.00000000000E+00 -0.19381526601E+02  0.19381526601E+02  0.00000000000E+00 0.  1.
         25    2    1    2    0    0  0.29888405498E+01 -0.79191251713E+02  0.87896286132E+03  0.89134990174E+03  0.12509495689E+03 0.  0.
          5    1    3    3  502    0  0.37250543093E+02 -0.35315671502E+02  0.12323825818E+03  0.13356623935E+03  0.41800000000E+01 0.  1.
         -5    1    3    3    0  502 -0.34261702543E+02 -0.43875580212E+02  0.75572460314E+03  0.75778366239E+03  0.41800000000E+01 0.  1.
        -11    1    1    2    0    0 -0.85588527734E+00  0.30194832716E+02  0.10017860592E+02  0.31824801542E+02  0.00000000000E+00 0.  1.
         11    1    1    2    0    0 -0.21329552724E+01  0.48996418997E+02  0.26091974962E+03  0.26548882145E+03  0.00000000000E+00 0. -1.
</event>
<event>
 7    1  0.2661133E-009  0.9824449E+02  0.7561462E-02  0.1284031E+00
         -2   -1    0    0    0  501 -0.00000000000E+00  0.00000000000E+00  0.39439760929E+03  0.39439760929E+03  0.00000000000E+00 0.  1.
          2   -1    0    0  501    0  0.00000000000E+00 -0.00000000000E+00 -0.45496088862E+02  0.45496088862E+02  0.00000000000E+00 0. -1.
         25    2    1    2    0    0  0.23187861795E+02 -0.76050486630E+02  0.22328546609E+03  0.26800212933E+03  0.12508952198E+03 0.  0.
          5    1    3    3  502    0  0.20114569496E+02 -0.93618131549E+02  0.83785011343E+02  0.12730416720E+03  0.41800000000E+01 0. -1.
         -5    1    3    3    0  502  0.30732922989E+01  0.17567644919E+02  0.13950045475E+03  0.14069796213E+03  0.41800000000E+01 0. -1.
        -11    1    1    2    0    0 -0.55820933901E+01  0.53135984854E+02  0.13190786204E+03  0.14231752078E+03  0.00000000000E+00 0.  1.
         11    1    1    2    0    0 -0.17605768404E+02  0.22914501777E+02 -0.62918077090E+01  0.29574048032E+02  0.00000000000E+00 0. -1.
</event>
<event>
 7    1  0.2661133E-009  0.1497095E+03  0.7561462E-02  0.1200830E+00
          2   -1    0    0  501    0  0.00000000000E+00  0.00000000000E+00  0.19810529343E+03  0.19810529343E+03  0.00000000000E+00 0. -1.
         -2   -1    0    0    0  501 -0.00000000000E+00 -0.00000000000E+00 -0.18985202882E+03  0.18985202882E+03  0.00000000000E+00 0.  1.
         25    2    1    2    0    0 -0.31260678118E+01 -0.14526996135E+03  0.71655205508E+02  0.20468444861E+03  0.12509245003E+03 0.  0.
          5    1    3    3  502    0  0.97807554597E+01 -0.97471435084E+02  0.10591432931E+03  0.14433177539E+03  0.41800000000E+01 0. -1.
         -5    1    3    3    0  502 -0.12906823272E+02 -0.47798526269E+02 -0.34259123804E+02  0.60352673216E+02  0.41800000000E+01 0. -1.
        -11    1    1    2    0    0  0.23048482603E+02  0.90925468225E+02  0.46726268983E+01  0.93917553015E+02  0.00000000000E+00 0. -1.
         11    1    1    2    0    0 -0.19922414791E+02  0.54344493128E+02 -0.68074567796E+02  0.89355320631E+02  0.00000000000E+00 0.  1.
</event>
<event>
 7    1  0.2661133E-009  0.2107021E+03  0.7561462E-02  0.1141011E+00
         -2   -1    0    0    0  501 -0.00000000000E+00  0.00000000000E+00  0.38931333336E+02  0.38931333336E+02  0.00000000000E+00 0. -1.
          2   -1    0    0  501    0  0.00000000000E+00 -0.00000000000E+00 -0.13684543135E+04  0.13684543135E+04  0.00000000000E+00 0.  1.
         25    2    1    2    0    0  0.10531264149E+03 -0.16677822595E+03 -0.53342563535E+03  0.58231844749E+03  0.12508451837E+03 0.  0.
          5    1    3    3  502    0  0.82856926501E+02 -0.16320837758E+03 -0.32834659980E+03  0.37594042983E+03  0.41800000000E+01 0.  1.
         -5    1    3    3    0  502  0.22455714991E+02 -0.35698483687E+01 -0.20507903555E+03  0.20637801766E+03  0.41800000000E+01 0.  1.
        -11    1    1    2    0    0 -0.40867368801E+02  0.13924995234E+03 -0.48928328907E+03  0.51035167093E+03  0.00000000000E+00 0. -1.
         11    1    1    2    0    0 -0.64445272692E+02  0.27528273610E+02 -0.30681405578E+03  0.31471552845E+03  0.00000000000E+00 0.  1.
</event>
<event>
 7    1  0.2661133E-009  0.1169965E+03  0.7561462E-02  0.1248136E+00
          2   -1    0    0  501    0  0.00000000000E+00  0.00000000000E+00  0.11197992596E+04  0.11197992596E+04  0.00000000000E+00 0. -1.
         -2   -1    0    0    0  501 -0.00000000000E+00 -0.00000000000E+00 -0.19609441051E+02  0.19609441051E+02  0.00000000000E+00 0.  1.
         25    2    1    2    0    0  0.83800707100E+02  0.54614444618E+02  0.59812614125E+03  0.61919913116E+03  0.12508951636E+03 0.  0.
          5    1    3    3  502    0  0.73744453025E+02  0.16207800225E+02  0.13813677232E+03  0.15748072075E+03  0.41800000000E+01 0. -1.
         -5    1    3    3    0  502  0.10056254075E+02  0.38406644393E+02  0.45998936893E+03  0.46171841041E+03  0.41800000000E+01 0. -1.
        -11    1    1    2    0    0 -0.82142151628E+02 -0.20983211089E+02  0.45195721687E+03  0.45984013972E+03  0.00000000000E+00 0.  1.
         11    1    1    2    0    0 -0.16585554722E+01 -0.33631233528E+02  0.50106460464E+02  0.60369429806E+02  0.00000000000E+00 0. -1.
</event>
<event>
 7    1  0.2661133E-009  0.1050945E+03  0.7561462E-02  0.1269934E+00
         -1   -1    0    0    0  501 -0.00000000000E+00  0.00000000000E+00  0.79751604757E+03  0.79751604757E+03  0.00000000000E+00 0.  1.
          1   -1    0    0  501    0  0.00000000000E+00 -0.00000000000E+00 -0.16341502101E+02  0.16341502101E+02  0.00000000000E+00 0. -1.
         25    2    1    2    0    0 -0.24552895433E+02 -0.13020113628E+02  0.45724585935E+03  0.47486158812E+03  0.12508950375E+03 0.  0.
          5    1    3    3  502    0  0.29313350683E+02 -0.44068477682E+02  0.11088724931E+03  0.12294209089E+03  0.41800000000E+01 0.  1.
         -5    1    3    3    0  502 -0.53866246116E+02  0.31048364055E+02  0.34635861004E+03  0.35191949723E+03  0.41800000000E+01 0.  1.
        -11    1    1    2    0    0 -0.34254244076E+02  0.10865233045E+02  0.17907814070E+03  0.18264826033E+03  0.00000000000E+00 0.  1.
         11    1    1    2    0    0  0.58807139509E+02  0.21548805825E+01  0.14485054543E+03  0.15634770123E+03  0.00000000000E+00 0. -1.
</event>
<event>
 7    1  0.2661133E-009  0.1288659E+03  0.7561462E-02  0.1229148E+00
         -2   -1    0    0    0  501 -0.00000000000E+00  0.00000000000E+00  0.31665008535E+02  0.31665008535E+02  0.00000000000E+00 0.  1.
          2   -1    0    0  501    0  0.00000000000E+00 -0.00000000000E+00 -0.80134765659E+03  0.80134765659E+03  0.00000000000E+00 0. -1.
         25    2    1    2    0    0  0.25865282858E+02 -0.95531915102E+02 -0.58129133297E+03  0.60277982587E+03  0.12509414469E+03 0.  0.
          5    1    3    3  502    0  0.55430607751E+02 -0.23681559491E+02 -0.11368653738E+03  0.12874575611E+03  0.41800000000E+01 0. -1.
         -5    1    3    3    0  502 -0.29565324893E+02 -0.71850355612E+02 -0.46760479559E+03  0.47403406976E+03  0.41800000000E+01 0. -1.
        -11    1    1    2    0    0 -0.28003470886E+02  0.10557905921E+03 -0.19064213233E+03  0.21971698784E+03  0.00000000000E+00 0. -1.
         11    1    1    2    0    0  0.21381880282E+01 -0.10047144107E+02  0.22508172413E+01  0.10515851416E+02  0.00000000000E+00 0.  1.
</event>
<event>
 7    1  0.2661133E-009  0.8738058E+02  0.7561462E-02  0.1309322E+00
          1   -1    0    0  501    0  0.00000000000E+00  0.00000000000E+00  0.44013151494E+03  0.44013151494E+03  0.00000000000E+00 0. -1.
         -1   -1    0    0    0  501 -0.00000000000E+00 -0.00000000000E+00 -0.35716421369E+02  0.35716421369E+02  0.00000000000E+00 0.  1.
         25    2    1    2    0    0  0.52893541115E+01  0.61678075981E+02  0.25509227258E+03  0.29077675027E+03  0.12508752394E+03 0.  0.
          5    1    3    3  502    0  0.28606541325E+02  0.26605277176E+02  0.80120687342E+01  0.40097888044E+02  0.41800000000E+01 0. -1.
         -5    1    3    3    0  502 -0.23317187214E+02  0.35072798805E+02  0.24708020385E+03  0.25067886223E+03  0.41800000000E+01 0. -1.
        -11    1    1    2    0    0  0.28327089494E+02 -0.73566781728E+01  0.85631414468E+01  0.30493804360E+02  0.00000000000E+00 0.  1.
         11    1    1    2    0    0 -0.33616443605E+02 -0.54321397808E+02  0.14075967955E+03  0.15457738168E+03  0.00000000000E+00 0. -1.
</event>
<event>
 7    1  0.2661133E-009  0.2366492E+03  0.7561462E-02  0.1122045E+00
          1   -1    0    0  501    0  0.00000000000E+00  0.00000000000E+00  0.51250188607E+03  0.51250188607E+03  0.00000000000E+00 0. -1.
         -1   -1    0    0    0  501 -0.00000000000E+00 -0.00000000000E+00 -0.11859867049E+03  0.11859867049E+03  0.00000000000E+00 0.  1.
         25    2    1    2    0    0  0.17314748681E+03 -0.13730093530E+03  0.18741665120E+03  0.31560416034E+03  0.12509750539E+03 0.  0.
          5    1    3    3  502    0  0.18311878531E+02 -0.87679932822E+02  0.83971877898E+02  0.12284886728E+03  0.41800000000E+01 0.  1.
         -5    1    3    3    0  502  0.15483560828E+03 -0.49621002474E+02  0.10344477330E+03  0.19275529305E+03  0.41800000000E+01 0.  1.
        -11    1    1    2    0    0 -0.16478554149E+03  0.13028650680E+03  0.21579012973E+03  0.30115482501E+03  0.00000000000E+00 0. -1.
         11    1    1    2    0    0 -0.83619453228E+01  0.70144284945E+01 -0.93035653464E+01  0.14341571212E+02  0.00000000000E+00 0.  1.
</event>
<event>
 7    1  0.2661133E-009  0.1316186E+03  0.7561462E-02  0.1225074E+00
         -2   -1    0    0    0  501 -0.00000000000E+00  0.00000000000E+00  0.26103187655E+02  0.26103187655E+02  0.00000000000E+00 0.  1.
          2   -1    0    0  501    0  0.00000000000E+00 -0.00000000000E+00 -0.73668587619E+03  0.73668587619E+03  0.00000000000E+00 0. -1.
         25    2    1    2    0    0  0.64069275492E+02 -0.51032467865E+02 -0.36254679783E+03  0.39217026100E+03  0.12509255838E+03 0.  0.
          5    1    3    3  502    0  0.58996529225E+02 -0.91264370753E+02 -0.26223606955E+03  0.28389259308E+03  0.41800000000E+01 0. -1.
         -5    1    3    3    0  502  0.50727462666E+01  0.40231902888E+02 -0.10031072827E+03  0.10827766793E+03  0.41800000000E+01 0. -1.
        -11    1    1    2    0    0 -0.43203026095E+02 -0.14004719115E+02 -0.22828044299E+03  0.23275436467E+03  0.00000000000E+00 0. -1.
         11    1    1    2    0    0 -0.20866249397E+02  0.65037186979E+02 -0.11975544772E+03  0.13786443818E+03  0.00000000000E+00 0.  1.
</event>
<event>
 7    1  0.2661133E-009  0.1096287E+03  0.7561462E-02  0.1261259E+00
         -2   -1    0    0    0  501 -0.00000000000E+00  0.00000000000E+00  0.24891220084E+02  0.24891220084E+02  0.00000000000E+00 0.  1.
          2   -1    0    0  501    0  0.00000000000E+00 -0.00000000000E+00 -0.50799647490E+03  0.50799647490E+03  0.00000000000E+00 0. -1.
         25    2    1    2    0    0 -0.18917250070E+02  0.17985420979E+02 -0.25692316305E+03  0.28694234665E+03  0.12508021774E+03 0.  0.
          5    1    3    3  502    0  0.23609907048E+02 -0.42385592688E+02 -0.14346286352E+03  0.15150258014E+03  0.41800000000E+01 0. -1.
         -5    1    3    3    0  502 -0.42527157118E+02  0.60371013668E+02 -0.11346029953E+03  0.13543976651E+03  0.41800000000E+01 0. -1.
        -11    1    1    2    0    0 -0.33574932309E+02 -0.27313132752E+02 -0.10131822740E+03  0.11017561664E+03  0.00000000000E+00 0.  1.
         11    1    1    2    0    0  0.52492182379E+02  0.93277117724E+01 -0.12486386437E+03  0.13576973169E+03  0.00000000000E+00 0. -1.
</event>
<event>
 7    1  0.2661133E-009  0.9253977E+02  0.7561462E-02  0.1296815E+00
         -2   -1    0    0    0  501 -0.00000000000E+00  0.00000000000E+00  0.13799934567E+02  0.13799934567E+02  0.00000000000E+00 0.  1.
          2   -1    0    0  501    0  0.00000000000E+00 -0.00000000000E+00 -0.95704958094E+03  0.95704958094E+03  0.00000000000E+00 0. -1.
         25    2    1    2    0    0  0.24413440426E+02 -0.17937164490E+02 -0.66209585679E+03  0.67448993874E+03  0.12509194995E+03 0.  0.
          5    1    3    3  502    0  0.59400884888E+02 -0.88769510372E+01 -0.59607687973E+03  0.59910965969E+03  0.41800000000E+01 0. -1.
         -5    1    3    3    0  502 -0.34987444462E+02 -0.90602134526E+01 -0.66018977059E+02  0.75380279050E+02  0.41800000000E+01 0. -1.
        -11    1    1    2    0    0 -0.52465867540E+02 -0.43745119147E+01 -0.11641333235E+03  0.12776489174E+03  0.00000000000E+00 0.  1.
         11    1    1    2    0    0  0.28052427114E+02  0.22311676405E+02 -0.16474045723E+03  0.16859468503E+03  0.00000000000E+00 0. -1.
</event>
<event>
 7    1  0.2661133E-009  0.1624082E+03  0.7561462E-02  0.1186004E+00
          4   -1    0    0  501    0  0.00000000000E+00  0.00000000000E+00  0.33367815260E+03  0.33367815260E+03  0.00000000000E+00 0. -1.
         -4   -1    0    0    0  501 -0.00000000000E+00 -0.00000000000E+00 -0.10935159649E+03  0.10935159649E+03  0.00000000000E+00 0.  1.
         25    2    1    2    0    0 -0.12652093181E+03 -0.20961887942E+02  0.22195305490E+03  0.28523414827E+03  0.12509362026E+03 0.  0.
          5    1    3    3  502    0 -0.14557066422E+03 -0.25509115478E+02  0.15027735434E+03  0.21081339825E+03  0.41800000000E+01 0.  1.
         -5    1    3    3    0  502  0.19049732412E+02  0.45472275362E+01  0.71675700555E+02  0.74420750019E+02  0.41800000000E+01 0.  1.
        -11    1    1    2    0    0  0.50317141227E+02  0.54066977224E+02  0.92118330852E+01  0.74430575680E+02  0.00000000000E+00 0. -1.
         11    1    1    2    0    0  0.76203790578E+02 -0.33105089281E+02 -0.68383318740E+01  0.83365025146E+02  0.00000000000E+00 0.  1.
</event>
<event>
 7    1  0.3608606E-009  0.1259958E+03  0.7561462E-02  0.1233521E+00
          2   -1    0    0  501    0  0.00000000000E+00  0.00000000000E+00  0.10086745479E+04  0.10086745479E+04  0.00000000000E+00 0.  1.
         -2   -1    0    0    0  501 -0.00000000000E+00 -0.00000000000E+00 -0.30518024966E+02  0.30518024966E+02  0.00000000000E+00 0. -1.
         25    2    1    2    0    0 -0.50664199319E+02 -0.89401528723E+02  0.78819225161E+03  0.80464581346E+03  0.12509342582E+03 0.  0.
          5    1    3    3  502    0 -0.55503011111E+02 -0.11040736643E+03  0.75358135594E+03  0.76365745150E+03  0.41800000000E+01 0. -1.
         -5    1    3    3    0  502  0.48388117920E+01  0.21005837703E+02  0.34610895669E+02  0.40988361961E+02  0.41800000000E+01 0. -1.
        -11    1    1    2    0    0  0.20026685979E+02  0.62458811044E+02  0.18135148504E+03  0.19284846993E+03  0.00000000000E+00 0.  1.
         11    1    1    2    0    0  0.30637513339E+02  0.26942717679E+02  0.86127863096E+01  0.41698289504E+02  0.00000000000E+00 0. -1.
</event>
<event>
 7    1  0.2661133E-009  0.1136976E+03  0.7561462E-02  0.1253872E+00
         -2   -1    0    0    0  501 -0.00000000000E+00  0.00000000000E+00  0.59004532447E+02  0.59004532447E+02  0.00000000000E+00 0.  1.
          2   -1    0    0  501    0  0.00000000000E+00 -0.00000000000E+00 -0.31620316833E+03  0.31620316833E+03  0.00000000000E+00 0. -1.
         25    2    1    2    0    0 -0.48355870829E+02  0.57361518751E+02 -0.18426372596E+03  0.23500672675E+03  0.12508559804E+03 0.  0.
          5    1    3    3  502    0  0.15145614219E+01  0.57636318653E+02 -0.17475155163E+03  0.18406470688E+03  0.41800000000E+01 0.  1.
         -5    1    3    3    0  502 -0.49870432250E+02 -0.27479990250E+00 -0.95121743365E+01  0.50942019870E+02  0.41800000000E+01 0.  1.
        -11    1    1    2    0    0  0.76782406976E+01  0.25824954434E+02 -0.13161052202E+02  0.29984945335E+02  0.00000000000E+00 0.  1.
         11    1    1    2    0    0  0.40677630131E+02 -0.83186473184E+02 -0.59773857724E+02  0.11021602869E+03  0.00000000000E+00 0. -1.
</event>
<event>
 7    1  0.2661133E-009  0.7103647E+02  0.7561462E-02  0.1356604E+00
          2   -1    0    0  501    0  0.00000000000E+00  0.00000000000E+00  0.13640483083E+03  0.13640483083E+03  0.00000000000E+00 0. -1.
         -2   -1    0    0    0  501 -0.00000000000E+00 -0.00000000000E+00 -0.10659388687E+03  0.10659388687E+03  0.00000000000E+00 0.  1.
         25    2    1    2    0    0  0.47106205877E+02 -0.88899353911E+01  0.37562990670E+02  0.13912505937E+03  0.12508708284E+03 0.  0.
          5    1    3    3  502    0  0.37702607394E+02  0.29655325884E+01  0.82863341344E+02  0.91181613972E+02  0.41800000000E+01 0. -1.
         -5    1    3    3    0  502  0.94035984835E+01 -0.11855467980E+02 -0.45300350674E+02  0.47943445398E+02  0.41800000000E+01 0. -1.
        -11    1    1    2    0    0  0.88411701717E+01  0.27875384474E+02 -0.28906915542E+02  0.41119498000E+02  0.00000000000E+00 0.  1.
         11    1    1    2    0    0 -0.55947376049E+02 -0.18985449083E+02  0.21154868825E+02  0.62754160329E+02  0.00000000000E+00 0. -1.
</event>
<event>
 7    1  0.2661133E-009  0.1389244E+03  0.7561462E-02  0.1214784E+00
         -2   -1    0    0    0  501 -0.00000000000E+00  0.00000000000E+00  0.25420160162E+02  0.25420160162E+02  0.00000000000E+00 0.  1.
          2   -1    0    0  501    0  0.00000000000E+00 -0.00000000000E+00 -0.88702148138E+03  0.88702148138E+03  0.00000000000E+00 0. -1.
         25    2    1    2    0    0 -0.63527285667E+02 -0.68558240893E+02 -0.54999320934E+03  0.57173080843E+03  0.12509052147E+03 0.  0.
          5    1    3    3  502    0 -0.56172304350E+01  0.28409521341E+02 -0.23999771797E+03  0.24177475305E+03  0.41800000000E+01 0.  1.
         -5    1    3    3    0  502 -0.57910055232E+02 -0.96967762234E+02 -0.30999549137E+03  0.32995605537E+03  0.41800000000E+01 0.  1.
        -11    1    1    2    0    0  0.57172677998E+02 -0.88897140397E+01 -0.16382964220E+03  0.17374663677E+03  0.00000000000E+00 0.  1.
         11    1    1    2    0    0  0.63546076690E+01  0.77447954932E+02 -0.14777846968E+03  0.16696419635E+03  0.00000000000E+00 0. -1.
</event>
<event>
 7    1  0.2661133E-009  0.9494239E+02  0.7561462E-02  0.1291306E+00
         -2   -1    0    0    0  501 -0.00000000000E+00  0.00000000000E+00  0.23004527099E+03  0.23004527099E+03  0.00000000000E+00 0.  1.
          2   -1    0    0  501    0  0.00000000000E+00 -0.00000000000E+00 -0.91055972220E+02  0.91055972220E+02  0.00000000000E+00 0. -1.
         25    2    1    2    0    0  0.60187179051E+01 -0.45599553601E+02  0.16977527342E+03  0.21583944330E+03  0.12508987795E+03 0.  0.
          5    1    3    3  502    0  0.40054567150E+02 -0.41349015503E+02  0.18416717368E+02  0.60586775052E+02  0.41800000000E+01 0. -1.
         -5    1    3    3    0  502 -0.34035849245E+02 -0.42505380986E+01  0.15135855606E+03  0.15525266825E+03  0.41800000000E+01 0. -1.
        -11    1    1    2    0    0  0.38591533726E+02  0.83285410249E+01  0.43017585256E-02  0.39480008731E+02  0.00000000000E+00 0.  1.
         11    1    1    2    0    0 -0.44610251631E+02  0.37271012576E+02 -0.30790276410E+02  0.65781791177E+02  0.00000000000E+00 0. -1.
</event>
<event>
 7    1  0.2661133E-009  0.1369258E+03  0.7561462E-02  0.1217526E+00
          2   -1    0    0  501    0  0.00000000000E+00  0.00000000000E+00  0.21438603733E+03  0.21438603733E+03  0.00000000000E+00 0. -1.
         -2   -1    0    0    0  501 -0.00000000000E+00 -0.00000000000E+00 -0.11068021559E+03  0.11068021559E+03  0.00000000000E+00 0.  1.
         25    2    1    2    0    0  0.82387299848E+02 -0.68278621854E+02  0.73420241188E+02  0.18024078271E+03  0.12508625248E+03 0.  0.
          5    1    3    3  502    0 -0.15806768058E+02 -0.44185450065E+02  0.62776838845E+02  0.78489564970E+02  0.41800000000E+01 0.  1.
         -5    1    3    3    0  502  0.98194067905E+02 -0.24093171788E+02  0.10643402343E+02  0.10175121774E+03  0.41800000000E+01 0.  1.
        -11    1    1    2    0    0  0.75050463614E+00  0.36551506916E+02  0.41304218797E+02  0.55159898526E+02  0.00000000000E+00 0. -1.
         11    1    1    2    0    0 -0.83137804484E+02  0.31727114938E+02 -0.11018638237E+02  0.89665571683E+02  0.00000000000E+00 0.  1.
</event>
<event>
 7    1  0.2661133E-009  0.2029608E+03  0.7561462E-02  0.1147265E+00
         -4   -1    0    0    0  501 -0.00000000000E+00  0.00000000000E+00  0.10512531780E+03  0.10512531780E+03  0.00000000000E+00 0.  1.
          4   -1    0    0  501    0  0.00000000000E+00 -0.00000000000E+00 -0.45581479177E+03  0.45581479177E+03  0.00000000000E+00 0. -1.
         25    2    1    2    0    0  0.17352596860E+03 -0.70970900056E+02 -0.22573666959E+03  0.31898697123E+03  0.12509002111E+03 0.  0.
          5    1    3    3  502    0  0.16715258652E+03 -0.82226005438E+02 -0.14230515817E+03  0.23445539787E+03  0.41800000000E+01 0.  1.
         -5    1    3    3    0  502  0.63733820864E+01  0.11255105381E+02 -0.83431511423E+02  0.84531573359E+02  0.41800000000E+01 0.  1.
        -11    1    1    2    0    0 -0.26042719562E+02  0.50875042465E+02 -0.23367659560E+02  0.61745774765E+02  0.00000000000E+00 0.  1.
         11    1    1    2    0    0 -0.14748324904E+03  0.20095857592E+02 -0.10158514481E+03  0.18020736357E+03  0.00000000000E+00 0. -1.
</event>
<event>
 7    1  0.2661133E-009  0.3734198E+03  0.7561462E-02  0.1053393E+00
         -2   -1    0    0    0  501 -0.00000000000E+00  0.00000000000E+00  0.13381995276E+03  0.13381995276E+03  0.00000000000E+00 0.  1.
          2   -1    0    0  501    0  0.00000000000E+00 -0.00000000000E+00 -0.17685089075E+04  0.17685089075E+04  0.00000000000E+00 0. -1.
         25    2    1    2    0    0  0.23947189203E+03 -0.27340471156E+03 -0.22849657493E+03  0.44716327389E+03  0.12508950951E+03 0.  0.
          5    1    3    3  502    0  0.14695936428E+03 -0.24627007173E+03 -0.18506783970E+03  0.34134085701E+03  0.41800000000E+01 0. -1.
         -5    1    3    3    0  502  0.92512527754E+02 -0.27134639831E+02 -0.43428735230E+02  0.10582241688E+03  0.41800000000E+01 0. -1.
        -11    1    1    2    0    0 -0.17543614244E+02  0.22995028485E+02 -0.45323858655E+02  0.53766178022E+02  0.00000000000E+00 0.  1.
         11    1    1    2    0    0 -0.22192827779E+03  0.25040968307E+03 -0.13608685212E+04  0.14013994084E+04  0.00000000000E+00 0. -1.
</event>
<event>
 7    1  0.2661133E-009  0.1026290E+03  0.7561462E-02  0.1274863E+00
         -1   -1    0    0    0  501 -0.00000000000E+00  0.00000000000E+00  0.13620316089E+03  0.13620316089E+03  0.00000000000E+00 0.  1.
          1   -1    0    0  501    0  0.00000000000E+00 -0.00000000000E+00 -0.94508637319E+02  0.94508637319E+02  0.00000000000E+00 0. -1.
         25    2    1    2    0    0 -0.15609587646E+02 -0.32249224693E+02  0.28378120489E+02  0.13317614037E+03  0.12508754902E+03 0.  0.
          5    1    3    3  502    0  0.12583267627E+02 -0.76290262385E+02  0.13068092820E+02  0.78528913203E+02  0.41800000000E+01 0. -1.
         -5    1    3    3    0  502 -0.28192855273E+02  0.44041037692E+02  0.15310027669E+02  0.54647227163E+02  0.41800000000E+01 0. -1.
        -11    1    1    2    0    0 -0.25589297257E+02  0.19711287222E+02  0.36407678520E+02  0.48670997866E+02  0.00000000000E+00 0.  1.
         11    1    1    2    0    0  0.41198884903E+02  0.12537937471E+02 -0.23091275437E+02  0.48864659976E+02  0.00000000000E+00 0. -1.
</event>
<event>
 7    1  0.2661133E-009  0.1404336E+03  0.7561462E-02  0.1212747E+00
          2   -1    0    0  501    0  0.00000000000E+00  0.00000000000E+00  0.61919343628E+03  0.61919343628E+03  0.00000000000E+00 0. -1.
         -2   -1    0    0    0  501 -0.00000000000E+00 -0.00000000000E+00 -0.43800943272E+02  0.43800943272E+02  0.00000000000E+00 0.  1.
         25    2    1    2    0    0  0.11330949584E+03 -0.33922193617E+02  0.24482623903E+03  0.29929430189E+03  0.12508970684E+03 0.  0.
          5    1    3    3  502    0  0.64420155091E+01  0.28235269267E+02  0.53349959827E+01  0.29743311459E+02  0.41800000000E+01 0.  1.
         -5    1    3    3    0  502  0.10686748034E+03 -0.62157462884E+02  0.23949124305E+03  0.26955099043E+03  0.41800000000E+01 0.  1.
        -11    1    1    2    0    0 -0.49420671193E+02 -0.99394017031E+01  0.23654811570E+03  0.24185988813E+03  0.00000000000E+00 0. -1.
         11    1    1    2    0    0 -0.63888824651E+02  0.43861595320E+02  0.94018138276E+02  0.12184018953E+03  0.00000000000E+00 0.  1.
</event>
<event>
 7    1  0.2661133E-009  0.1025139E+03  0.7561462E-02  0.1275097E+00
          2   -1    0    0  501    0  0.00000000000E+00  0.00000000000E+00  0.14599746243E+03  0.14599746243E+03  0.00000000000E+00 0. -1.
         -2   -1    0    0    0  501 -0.00000000000E+00 -0.00000000000E+00 -0.77741688724E+02  0.77741688724E+02  0.00000000000E+00 0.  1.
         25    2    1    2    0    0  0.53921981574E+02  0.73101944321E+01  0.39782492080E+02  0.14210145549E+03  0.12509659442E+03 0.  0.
          5    1    3    3  502    0 -0.12346843447E+02  0.48935623942E+02 -0.65452027034E+01  0.51063214863E+02  0.41800000000E+01 0. -1.
         -5    1    3    3    0  502  0.66268825021E+02 -0.41625429510E+02  0.46327694784E+02  0.91038240622E+02  0.41800000000E+01 0. -1.
        -11    1    1    2    0    0 -0.49322191369E+02 -0.26702429542E+02  0.25004247664E+02  0.61407741418E+02  0.00000000000E+00 0. -1.
         11    1    1    2    0    0 -0.45997902054E+01  0.19392235110E+02  0.34690339653E+01  0.20229954254E+02  0.00000000000E+00 0.  1.
</event>
<event>
 7    1  0.2661133E-009  0.2551397E+03  0.7561462E-02  0.1110099E+00
         -2   -1    0    0    0  501 -0.00000000000E+00  0.00000000000E+00  0.65898200431E+02  0.65898200431E+02  0.00000000000E+00 0.  1.
          2   -1    0    0  501    0  0.00000000000E+00 -0.00000000000E+00 -0.14761600417E+04  0.14761600417E+04  0.00000000000E+00 0. -1.
         25    2    1    2    0    0  0.53248451731E+02  0.22633421573E+03 -0.11550663866E+04  0.11848579299E+04  0.12508949540E+03 0.  0.
          5    1    3    3  502    0 -0.40723045502E+02  0.55006810785E+02 -0.29619996927E+03  0.30403290918E+03  0.41800000000E+01 0.  1.
         -5    1    3    3    0  502  0.93971497232E+02  0.17132740494E+03 -0.85886641732E+03  0.88082502075E+03  0.41800000000E+01 0.  1.
        -11    1    1    2    0    0 -0.75067630569E+02 -0.16938315482E+03 -0.21658867319E+03  0.28502009692E+03  0.00000000000E+00 0. -1.
         11    1    1    2    0    0  0.21819178838E+02 -0.56951060908E+02 -0.38606781528E+02  0.72180215320E+02  0.00000000000E+00 0.  1.
</event>
<event>
 7    1  0.2661133E-009  0.1133688E+03  0.7561462E-02  0.1254456E+00
          2   -1    0    0  501    0  0.00000000000E+00  0.00000000000E+00  0.30727725537E+03  0.30727725537E+03  0.00000000000E+00 0. -1.
         -2   -1    0    0    0  501 -0.00000000000E+00 -0.00000000000E+00 -0.58457994525E+02  0.58457994525E+02  0.00000000000E+00 0.  1.
         25    2    1    2    0    0  0.43688558205E+02  0.47026955678E+02  0.78007168272E+02  0.16078828841E+03  0.12509009038E+03 0.  0.
          5    1    3    3  502    0  0.53880295029E+02 -0.30081656513E+02  0.25780556335E+02  0.67008221405E+02  0.41800000000E+01 0. -1.
         -5    1    3    3    0  502 -0.10191736824E+02  0.77108612191E+02  0.52226611938E+02  0.93780067008E+02  0.41800000000E+01 0. -1.
        -11    1    1    2    0    0  0.67449755686E+01 -0.34332977856E+02  0.14041466728E+03  0.14470842011E+03  0.00000000000E+00 0. -1.
         11    1    1    2    0    0 -0.50433533773E+02 -0.12693977822E+02  0.30397425290E+02  0.60238541367E+02  0.00000000000E+00 0.  1.
</event>
<event>
 7    1  0.2661133E-009  0.1153975E+03  0.7561462E-02  0.1250889E+00
          1   -1    0    0  501    0  0.00000000000E+00  0.00000000000E+00  0.71639920402E+03  0.71639920402E+03  0.00000000000E+00 0. -1.
         -1   -1    0    0    0  501 -0.00000000000E+00 -0.00000000000E+00 -0.35287241169E+02  0.35287241169E+02  0.00000000000E+00 0.  1.
         25    2    1    2    0    0 -0.59430184944E+02 -0.29008713670E+02  0.14080951903E+03  0.19964173838E+03  0.12512414117E+03 0.  0.
          5    1    3    3  502    0  0.24189424560E+01 -0.53414364033E+02  0.12503513057E+02  0.55070462195E+02  0.41800000000E+01 0.  1.
         -5    1    3    3    0  502 -0.61849127400E+02  0.24405650363E+02  0.12830600597E+03  0.14457127619E+03  0.41800000000E+01 0.  1.
        -11    1    1    2    0    0  0.39752128471E+02  0.61102250814E+02  0.40929392374E+03  0.41573457011E+03  0.00000000000E+00 0.  1.
         11    1    1    2    0    0  0.19678056472E+02 -0.32093537144E+02  0.13100852008E+03  0.13631013670E+03  0.00000000000E+00 0. -1.
</event>
<event>
 7    1  0.2661133E-009  0.2997935E+03  0.7561462E-02  0.1085344E+00
         -2   -1    0    0    0  501 -0.00000000000E+00  0.00000000000E+00  0.21426460681E+03  0.21426460681E+03  0.00000000000E+00 0.  1.
          2   -1    0    0  501    0  0.00000000000E+00 -0.00000000000E+00 -0.44429078725E+03  0.44429078725E+03  0.00000000000E+00 0. -1.
         25    2    1    2    0    0 -0.18082549299E+03 -0.22208797593E+03 -0.80375653267E+02  0.32269429254E+03  0.12510168995E+03 0.  0.
          5    1    3    3  502    0 -0.24237893473E+02 -0.12643883043E+03 -0.27792191500E+02  0.13177303073E+03  0.41800000000E+01 0.  1.
         -5    1    3    3    0  502 -0.15658759951E+03 -0.95649145507E+02 -0.52583461767E+02  0.19092126181E+03  0.41800000000E+01 0.  1.
        -11    1    1    2    0    0  0.64451563832E+02  0.62959462002E+02 -0.29886910036E+01  0.90148933493E+02  0.00000000000E+00 0.  1.
         11    1    1    2    0    0  0.11637392916E+03  0.15912851393E+03 -0.14666183617E+03  0.24571216804E+03  0.00000000000E+00 0. -1.
</event>
<event>
 7    1  0.2661133E-009  0.2372848E+03  0.7561462E-02  0.1121615E+00
          2   -1    0    0  501    0  0.00000000000E+00  0.00000000000E+00  0.13938035711E+04  0.13938035711E+04  0.00000000000E+00 0.  1.
         -2   -1    0    0    0  501 -0.00000000000E+00 -0.00000000000E+00 -0.44374694703E+02  0.44374694703E+02  0.00000000000E+00 0. -1.
         25    2    1    2    0    0  0.84928581701E+02  0.20642545063E+03  0.70221526698E+03  0.74738040349E+03  0.12508739217E+03 0.  0.
          5    1    3    3  502    0  0.54435682092E+02  0.20161702059E+02  0.94190031760E+02  0.11072024294E+03  0.41800000000E+01 0. -1.
         -5    1    3    3    0  502  0.30492899609E+02  0.18626374857E+03  0.60802523522E+03  0.63666016055E+03  0.41800000000E+01 0. -1.
        -11    1    1    2    0    0 -0.61711136372E+02 -0.91713989034E+02  0.43088497274E+03  0.44483882460E+03  0.00000000000E+00 0.  1.
         11    1    1    2    0    0 -0.23217445329E+02 -0.11471146160E+03  0.21632863672E+03  0.24595903776E+03  0.00000000000E+00 0. -1.
</event>
<event>
 7    1  0.2661133E-009  0.1160377E+03  0.7561462E-02  0.1249780E+00
         -1   -1    0    0    0  501 -0.00000000000E+00  0.00000000000E+00  0.11365228538E+03  0.11365228538E+03  0.00000000000E+00 0.  1.
          1   -1    0    0  501    0  0.00000000000E+00 -0.00000000000E+00 -0.15639906240E+03  0.15639906240E+03  0.00000000000E+00 0. -1.
         25    2    1    2    0    0  0.69188879602E+02 -0.15414207788E+02  0.96004483974E+01  0.14409986531E+03  0.12509158130E+03 0.  0.
          5    1    3    3  502    0  0.73895915291E+02 -0.59287982062E+02  0.23403255147E+02  0.97677304760E+02  0.41800000000E+01 0. -1.
         -5    1    3    3    0  502 -0.47070356895E+01  0.43873774275E+02 -0.13802806750E+02  0.46422560552E+02  0.41800000000E+01 0. -1.
        -11    1    1    2    0    0  0.67847845921E+01 -0.10626296658E+02  0.16085630650E+02  0.20437685682E+02  0.00000000000E+00 0.  1.
         11    1    1    2    0    0 -0.75973664194E+02  0.26040504446E+02 -0.68432856070E+02  0.10551379679E+03  0.00000000000E+00 0. -1.
</event>
<event>
 7    1  0.2661133E-009  0.1043492E+03  0.7561462E-02  0.1271407E+00
          1   -1    0    0  501    0  0.00000000000E+00  0.00000000000E+00  0.73861405761E+03  0.73861405761E+03  0.00000000000E+00 0. -1.
         -1   -1    0    0    0  501 -0.00000000000E+00 -0.00000000000E+00 -0.18894254121E+02  0.18894254121E+02  0.00000000000E+00 0.  1.
         25    2    1    2    0    0 -0.44677672863E+02 -0.41569994808E+02  0.43128619909E+03  0.45318692799E+03  0.12508575961E+03 0.  0.
          5    1    3    3  502    0 -0.34594014672E+02  0.40518653716E+02  0.12591797113E+03  0.13678930881E+03  0.41800000000E+01 0. -1.
         -5    1    3    3    0  502 -0.10083658192E+02 -0.82088648525E+02  0.30536822795E+03  0.31639761918E+03  0.41800000000E+01 0. -1.
        -11    1    1    2    0    0  0.24792561965E+02 -0.16739130289E+01  0.20559635494E+02  0.32251693370E+02  0.00000000000E+00 0.  1.
         11    1    1    2    0    0  0.19885110899E+02  0.43243907837E+02  0.26787396890E+03  0.27206969037E+03  0.00000000000E+00 0. -1.
</event>
<event>
 7    1  0.2661133E-009  0.1369492E+03  0.7561462E-02  0.1217494E+00
          1   -1    0    0  501    0  0.00000000000E+00  0.00000000000E+00  0.13486301794E+04  0.13486301794E+04  0.00000000000E+00 0. -1.
         -1   -1    0    0    0  501 -0.00000000000E+00 -0.00000000000E+00 -0.14488316075E+02  0.14488316075E+02  0.00000000000E+00 0.  1.
         25    2    1    2    0    0  0.64127290350E+02 -0.35251672921E+02  0.83746621994E+03  0.84991302894E+03  0.12508995727E+03 0.  0.
          5    1    3    3  502    0  0.10168287905E+03 -0.32695678811E+02  0.60057130464E+03  0.61000965539E+03  0.41800000000E+01 0.  1.
         -5    1    3    3    0  502 -0.37555588702E+02 -0.25559941094E+01  0.23689491530E+03  0.23990337355E+03  0.41800000000E+01 0.  1.
        -11    1    1    2    0    0 -0.94106334510E+02  0.29361028951E+02  0.38617372147E+03  0.39855766881E+03  0.00000000000E+00 0. -1.
         11    1    1    2    0    0  0.29979044160E+02  0.58906439702E+01  0.11050192187E+03  0.11464779768E+03  0.00000000000E+00 0.  1.
</event>
<event>
 7    1  0.2661133E-009  0.1278018E+03  0.7561462E-02  0.1230754E+00
          1   -1    0    0  501    0  0.00000000000E+00  0.00000000000E+00  0.84996428461E+03  0.84996428461E+03  0.00000000000E+00 0. -1.
         -1   -1    0    0    0  501 -0.00000000000E+00 -0.00000000000E+00 -0.21909688315E+02  0.21909688315E+02  0.00000000000E+00 0.  1.
         25    2    1    2    0    0  0.62697729473E+02 -0.38020127282E+02  0.56990164644E+03  0.58805694974E+03  0.12508618695E+03 0.  0.
          5    1    3    3  502    0  0.25373406994E+02  0.45101009468E+02  0.16348218499E+03  0.17152786376E+03  0.41800000000E+01 0. -1.
         -5    1    3    3    0  502  0.37324322479E+02 -0.83121136750E+02  0.40641946145E+03  0.41652908598E+03  0.41800000000E+01 0. -1.
        -11    1    1    2    0    0  0.14051740901E+02  0.32640162938E+02  0.45890599983E+02  0.58041182153E+02  0.00000000000E+00 0.  1.
         11    1    1    2    0    0 -0.76749470373E+02  0.53799643440E+01  0.21226234987E+03  0.22577584103E+03  0.00000000000E+00 0. -1.
</event>
<event>
 7    1  0.2661133E-009  0.2163261E+03  0.7561462E-02  0.1136652E+00
         -2   -1    0    0    0  501 -0.00000000000E+00  0.00000000000E+00  0.67495774345E+03  0.67495774345E+03  0.00000000000E+00 0.  1.
          2   -1    0    0  501    0  0.00000000000E+00 -0.00000000000E+00 -0.75081981616E+02  0.75081981616E+02  0.00000000000E+00 0. -1.
         25    2    1    2    0    0 -0.18603757141E+03  0.46589013030E+02  0.38637417999E+03  0.44912390242E+03  0.12508700432E+03 0.  0.
          5    1    3    3  502    0 -0.82882136416E+02 -0.34702517101E+02  0.21586190512E+03  0.23385368869E+03  0.41800000000E+01 0. -1.
         -5    1    3    3    0  502 -0.10315543499E+03  0.81291530131E+02  0.17051227487E+03  0.21527021374E+03  0.41800000000E+01 0. -1.
        -11    1    1    2    0    0  0.11876531834E+03 -0.72571131718E+02  0.15244487256E+03  0.20642482692E+03  0.00000000000E+00 0. -1.
         11    1    1    2    0    0  0.67272253071E+02  0.25982118688E+02  0.61056709277E+02  0.94490995722E+02  0.00000000000E+00 0.  1.
</event>
<event>
 7    1  0.2661133E-009  0.1218203E+03  0.7561462E-02  0.1240124E+00
          2   -1    0    0  501    0  0.00000000000E+00  0.00000000000E+00  0.23069405556E+03  0.23069405556E+03  0.00000000000E+00 0. -1.
         -2   -1    0    0    0  501 -0.00000000000E+00 -0.00000000000E+00 -0.81340601246E+02  0.81340601246E+02  0.00000000000E+00 0.  1.
         25    2    1    2    0    0  0.15971928102E+01 -0.76540413625E+02  0.45195718969E+02  0.15346584366E+03  0.12509247065E+03 0.  0.
          5    1    3    3  502    0  0.48864941070E+02 -0.56217176308E+02  0.64233734283E+02  0.98445916105E+02  0.41800000000E+01 0.  1.
         -5    1    3    3    0  502 -0.47267748260E+02 -0.20323237317E+02 -0.19038015314E+02  0.55019927551E+02  0.41800000000E+01 0.  1.
        -11    1    1    2    0    0  0.35100212347E+02  0.29999990330E+01  0.18237798050E+02  0.39669159037E+02  0.00000000000E+00 0.  1.
         11    1    1    2    0    0 -0.36697405157E+02  0.73540414592E+02  0.85919937298E+02  0.11889965412E+03  0.00000000000E+00 0. -1.
</event>
<event>
 7    1  0.2661133E-009  0.1129279E+03  0.7561462E-02  0.1255242E+00
         -1   -1    0    0    0  501 -0.00000000000E+00  0.00000000000E+00  0.46203352888E+02  0.46203352888E+02  0.00000000000E+00 0.  1.
          1   -1    0    0  501    0  0.00000000000E+00 -0.00000000000E+00 -0.56681899382E+03  0.56681899382E+03  0.00000000000E+00 0. -1.
         25    2    1    2    0    0  0.35237133155E+01 -0.10466888849E+03 -0.38995435662E+03  0.42270052623E+03  0.12507334591E+03 0.  0.
          5    1    3    3  502    0 -0.73354254769E+01 -0.30349035646E+02 -0.67943224172E+01  0.32225884762E+02  0.41800000000E+01 0.  1.
         -5    1    3    3    0  502  0.10859138792E+02 -0.74319852846E+02 -0.38316003420E+03  0.39047464147E+03  0.41800000000E+01 0.  1.
        -11    1    1    2    0    0 -0.16351075138E+02  0.10503137377E+03 -0.13902421370E+03  0.17500479744E+03  0.00000000000E+00 0. -1.
         11    1    1    2    0    0  0.12827361823E+02 -0.36248528028E+00  0.83629293777E+01  0.15317023036E+02  0.00000000000E+00 0.  1.
</event>
<event>
 7    1  0.2661133E-009  0.8585908E+02  0.7561462E-02  0.1313201E+00
          2   -1    0    0  501    0  0.00000000000E+00  0.00000000000E+00  0.42001518424E+03  0.42001518424E+03  0.00000000000E+00 0. -1.
         -2   -1    0    0    0  501 -0.00000000000E+00 -0.00000000000E+00 -0.29447586635E+02  0.29447586635E+02  0.00000000000E+00 0.  1.
         25    2    1    2    0    0 -0.18734616467E+02 -0.31284337766E+01  0.19137605102E+03  0.22941849901E+03  0.12508909558E+03 0.  0.
          5    1    3    3  502    0 -0.30572136094E+02  0.45353444743E+02  0.34642132299E+02  0.64877886723E+02  0.41800000000E+01 0.  1.
         -5    1    3    3    0  502  0.11837519627E+02 -0.48481878520E+02  0.15673391872E+03  0.16454061229E+03  0.41800000000E+01 0.  1.
        -11    1    1    2    0    0 -0.23959993954E+02  0.24200261851E+01  0.99692560074E+01  0.26063842816E+02  0.00000000000E+00 0.  1.
         11    1    1    2    0    0  0.42694610421E+02  0.70840759147E+00  0.18922229057E+03  0.19398042904E+03  0.00000000000E+00 0. -1.
</event>
<event>
 7    1  0.2661133E-009  0.1452735E+03  0.7561462E-02  0.1206404E+00
         -2   -1    0    0    0  501 -0.00000000000E+00  0.00000000000E+00  0.10208147320E+03  0.10208147320E+03  0.00000000000E+00 0.  1.
          2   -1    0    0  501    0  0.00000000000E+00 -0.00000000000E+00 -0.26403939422E+03  0.26403939422E+03  0.00000000000E+00 0. -1.
         25    2    1    2    0    0  0.32986241162E+02  0.11021718325E+03 -0.11413300444E+03  0.20471770030E+03  0.12508826693E+03 0.  0.
          5    1    3    3  502    0 -0.47331489224E+02  0.52773370183E+02 -0.51250116216E+02  0.87574798229E+02  0.41800000000E+01 0.  1.
         -5    1    3    3    0  502  0.80317730386E+02  0.57443813071E+02 -0.62882888227E+02  0.11714290207E+03  0.41800000000E+01 0.  1.
        -11    1    1    2    0    0 -0.38438818273E+02 -0.67834157564E+02  0.20679108019E+02  0.80663753887E+02  0.00000000000E+00 0.  1.
         11    1    1    2    0    0  0.54525771111E+01 -0.42383025690E+02 -0.68504024593E+02  0.80739413233E+02  0.00000000000E+00 0. -1.
</event>
<event>
 7    1  0.2661133E-009  0.9711496E+02  0.7561462E-02  0.1286482E+00
         -3   -1    0    0    0  501 -0.00000000000E+00  0.00000000000E+00  0.30951741807E+03  0.30951741807E+03  0.00000000000E+00 0.  1.
          3   -1    0    0  501    0  0.00000000000E+00 -0.00000000000E+00 -0.54212218405E+02  0.54212218405E+02  0.00000000000E+00 0. -1.
         25    2    1    2    0    0 -0.43748112453E+02 -0.47449868269E+02  0.17869057702E+03  0.22747299475E+03  0.12509298015E+03 0.  0.
          5    1    3    3  502    0 -0.62527592415E+02  0.14767595236E+02  0.13347298868E+03  0.14819005631E+03  0.41800000000E+01 0. -1.
         -5    1    3    3    0  502  0.18779479962E+02 -0.62217463506E+02  0.45217588345E+02  0.79282938445E+02  0.41800000000E+01 0. -1.
        -11    1    1    2    0    0  0.31434847327E+02  0.30753817372E+02 -0.11725743720E+02  0.45513074772E+02  0.00000000000E+00 0. -1.
         11    1    1    2    0    0  0.12313265126E+02  0.16696050897E+02  0.88340366367E+02  0.90743566953E+02  0.00000000000E+00 0.  1.
</event>
<event>
 7    1  0.2872025E-009  0.1772026E+03  0.7561462E-02  0.1170538E+00
          1   -1    0    0  501    0  0.00000000000E+00  0.00000000000E+00  0.22801203741E+04  0.22801203741E+04  0.00000000000E+00 0. -1.
         -1   -1    0    0    0  501 -0.00000000000E+00 -0.00000000000E+00 -0.19455775438E+02  0.19455775438E+02  0.00000000000E+00 0.  1.
         25    2    1    2    0    0 -0.13007439560E+03 -0.92567716351E+02  0.16329325584E+04  0.16454802915E+04  0.12509403943E+03 0.  0.
          5    1    3    3  502    0 -0.11121217367E+03 -0.19048725291E+02  0.66049357628E+03  0.67007480047E+03  0.41800000000E+01 0. -1.
         -5    1    3    3    0  502 -0.18862221933E+02 -0.73518991060E+02  0.97243898216E+03  0.97540549100E+03  0.41800000000E+01 0. -1.
        -11    1    1    2    0    0  0.34938465226E+02  0.34226888443E+01  0.45627585134E+02  0.57569850411E+02  0.00000000000E+00 0.  1.
         11    1    1    2    0    0  0.95135930379E+02  0.89145027506E+02  0.58210445513E+03  0.59652600769E+03  0.00000000000E+00 0. -1.
</event>
<event>
 7    1  0.2661133E-009  0.9774044E+02  0.7561462E-02  0.1285121E+00
         -1   -1    0    0    0  501 -0.00000000000E+00  0.00000000000E+00  0.39126153512E+03  0.39126153512E+03  0.00000000000E+00 0.  1.
          1   -1    0    0  501    0  0.00000000000E+00 -0.00000000000E+00 -0.67830002491E+02  0.67830002491E+02  0.00000000000E+00 0. -1.
         25    2    1    2    0    0  0.11582244746E+02 -0.32348514840E+02  0.33634070390E+03  0.36049022189E+03  0.12509019216E+03 0.  0.
          5    1    3    3  502    0 -0.26287100632E+02 -0.50291104918E+02  0.29849674523E+03  0.30387166075E+03  0.41800000000E+01 0.  1.
         -5    1    3    3    0  502  0.37869345378E+02  0.17942590078E+02  0.37843958669E+02  0.56618561142E+02  0.41800000000E+01 0.  1.
        -11    1    1    2    0    0  0.39600988254E+02  0.16333194852E+02 -0.13670786811E+02  0.44965563899E+02  0.00000000000E+00 0.  1.
         11    1    1    2    0    0 -0.51183233000E+02  0.16015319988E+02  0.76161553552E+00  0.53635751816E+02  0.00000000000E+00 0. -1.
</event>
<event>
 7    1  0.2661133E-009  0.1309022E+03  0.7561462E-02  0.1226123E+00
          1   -1    0    0  501    0  0.00000000000E+00  0.00000000000E+00  0.14644617055E+03  0.14644617055E+03  0.00000000000E+00 0. -1.
         -1   -1    0    0    0  501 -0.00000000000E+00 -0.00000000000E+00 -0.12451726075E+03  0.12451726075E+03  0.00000000000E+00 0.  1.
         25    2    1    2    0    0  0.75948251251E+02  0.27396962180E+02  0.15593112739E+02  0.14969727451E+03  0.12508956163E+03 0.  0.
          5    1    3    3  502    0  0.16907028621E+02 -0.46435679131E+02 -0.12197369301E+02  0.51072185493E+02  0.41800000000E+01 0. -1.
         -5    1    3    3    0  502  0.59041222630E+02  0.73832641311E+02  0.27790482040E+02  0.98625089022E+02  0.41800000000E+01 0. -1.
        -11    1    1    2    0    0  0.16013265183E+02 -0.19571242046E+02  0.13553106567E+02  0.28690501471E+02  0.00000000000E+00 0. -1.
         11    1    1    2    0    0 -0.91961516434E+02 -0.78257201335E+01 -0.72173095037E+01  0.92575655314E+02  0.00000000000E+00 0.  1.
</event>
<event>
 7    1  0.2661133E-009  0.1048982E+03  0.7561462E-02  0.1270320E+00
         -1   -1    0    0    0  501 -0.00000000000E+00  0.00000000000E+00  0.15850361646E+02  0.15850361646E+02  0.00000000000E+00 0.  1.
          1   -1    0    0  501    0  0.00000000000E+00 -0.00000000000E+00 -0.77515997747E+03  0.77515997747E+03  0.00000000000E+00 0. -1.
         25    2    1    2    0    0  0.13454190489E+02  0.27079285886E+02 -0.41025038072E+03  0.42996090296E+03  0.12508677080E+03 0.  0.
          5    1    3    3  502    0 -0.47083928760E+02 -0.16912431858E+02 -0.11765317496E+03  0.12791664738E+03  0.41800000000E+01 0. -1.
         -5    1    3    3    0  502  0.60538119249E+02  0.43991717743E+02 -0.29259720576E+03  0.30204425558E+03  0.41800000000E+01 0. -1.
        -11    1    1    2    0    0 -0.26265494586E+02 -0.51079372817E+02 -0.29489877642E+03  0.30044012193E+03  0.00000000000E+00 0. -1.
         11    1    1    2    0    0  0.12811304097E+02  0.24000086932E+02 -0.54160458692E+02  0.60609314228E+02  0.00000000000E+00 0.  1.
</event>
<event>
 7    1  0.2661133E-009  0.9132587E+02  0.7561462E-02  0.1299672E+00
         -3   -1    0    0    0  501 -0.00000000000E+00  0.00000000000E+00  0.56621268861E+03  0.56621268861E+03  0.00000000000E+00 0.  1.
          3   -1    0    0  501    0  0.00000000000E+00 -0.00000000000E+00 -0.19575546353E+02  0.19575546353E+02  0.00000000000E+00 0. -1.
         25    2    1    2    0    0  0.50645746047E+01  0.11539071560E+02  0.32700035567E+03  0.35033728863E+03  0.12509269805E+03 0.  0.
          5    1    3    3  502    0  0.16184756616E+01 -0.43972462606E+02  0.25729537835E+03  0.26106432359E+03  0.41800000000E+01 0.  1.
         -5    1    3    3    0  502  0.34460989432E+01  0.55511534166E+02  0.69704977324E+02  0.89272965041E+02  0.41800000000E+01 0.  1.
        -11    1    1    2    0    0  0.14107438345E+02  0.32071664697E+02  0.12001196107E+03  0.12502192725E+03  0.00000000000E+00 0.  1.
         11    1    1    2    0    0 -0.19172012950E+02 -0.43610736257E+02  0.99624825512E+02  0.11042901908E+03  0.00000000000E+00 0. -1.
</event>
<event>
 7    1  0.2661133E-009  0.2119511E+03  0.7561462E-02  0.1140030E+00
         -2   -1    0    0    0  501 -0.00000000000E+00  0.00000000000E+00  0.62308877574E+02  0.62308877574E+02  0.00000000000E+00 0.  1.
          2   -1    0    0  501    0  0.00000000000E+00 -0.00000000000E+00 -0.94151680453E+03  0.94151680453E+03  0.00000000000E+00 0. -1.
         25    2    1    2    0    0  0.10685572535E+03 -0.15927269627E+03 -0.23971175806E+03  0.33150107957E+03  0.12508117760E+03 0.  0.
          5    1    3    3  502    0  0.13391520548E+03 -0.12341912578E+03 -0.20722674601E+03  0.27590933208E+03  0.41800000000E+01 0. -1.
         -5    1    3    3    0  502 -0.27059480130E+02 -0.35853570487E+02 -0.32485012051E+02  0.55591747495E+02  0.41800000000E+01 0. -1.
        -11    1    1    2    0    0 -0.58008674795E+02  0.48682657464E+02 -0.35871551686E+03  0.36662218908E+03  0.00000000000E+00 0. -1.
         11    1    1    2    0    0 -0.48847050554E+02  0.11059003880E+03 -0.28078065203E+03  0.30570241345E+03  0.00000000000E+00 0.  1.
</event>
<event>
 7    1  0.2661133E-009  0.7893814E+02  0.7561462E-02  0.1332092E+00
          1   -1    0    0  501    0  0.00000000000E+00  0.00000000000E+00  0.96392408822E+03  0.96392408822E+03  0.00000000000E+00 0. -1.
         -1   -1    0    0    0  501 -0.00000000000E+00 -0.00000000000E+00 -0.17426309386E+02  0.17426309386E+02  0.00000000000E+00 0.  1.
         25    2    1    2    0    0 -0.34266653730E+02 -0.40279208315E+02  0.70129293720E+03  0.71432207213E+03  0.12509045040E+03 0.  0.
          5    1    3    3  502    0 -0.57997776746E+00 -0.27067257035E+01  0.60924799019E+03  0.60926861785E+03  0.41800000000E+01 0. -1.
         -5    1    3    3    0  502 -0.33686675963E+02 -0.37572482611E+02  0.92044947012E+02  0.10505345429E+03  0.41800000000E+01 0. -1.
        -11    1    1    2    0    0 -0.26633215989E+02 -0.39995118232E+01  0.98682951131E+02  0.10229197981E+03  0.00000000000E+00 0.  1.
         11    1    1    2    0    0  0.60899869719E+02  0.44278720138E+02  0.14652189050E+03  0.16473634567E+03  0.00000000000E+00 0. -1.
</event>
<event>
 7    1  0.2661133E-009  0.1319259E+03  0.7561462E-02  0.1224626E+00
         -1   -1    0    0    0  501 -0.00000000000E+00  0.00000000000E+00  0.22206476821E+02  0.22206476821E+02  0.00000000000E+00 0.  1.
          1   -1    0    0  501    0  0.00000000000E+00 -0.00000000000E+00 -0.80305811294E+03  0.80305811294E+03  0.00000000000E+00 0. -1.
         25    2    1    2    0    0  0.11940563526E+02  0.73056497868E+02 -0.48950597630E+03  0.51063082820E+03  0.12509161819E+03 0.  0.
          5    1    3    3  502    0 -0.20181435318E+02  0.10052005489E+03 -0.33155268410E+03  0.34706804304E+03  0.41800000000E+01 0. -1.
         -5    1    3    3    0  502  0.32121998845E+02 -0.27463557018E+02 -0.15795329219E+03  0.16356278516E+03  0.41800000000E+01 0. -1.
        -11    1    1    2    0    0 -0.27849236640E+02  0.13371148186E+02 -0.78459451043E+02  0.84322316401E+02  0.00000000000E+00 0.  1.
         11    1    1    2    0    0  0.15908673114E+02 -0.86427646054E+02 -0.21288620878E+03  0.23031144516E+03  0.00000000000E+00 0. -1.
</event>
<event>
 7    1  0.2661133E-009  0.1492916E+03  0.7561462E-02  0.1201346E+00
          1   -1    0    0  501    0  0.00000000000E+00  0.00000000000E+00  0.79639690870E+02  0.79639690870E+02  0.00000000000E+00 0.  1.
         -1   -1    0    0    0  501 -0.00000000000E+00 -0.00000000000E+00 -0.78516732225E+03  0.78516732225E+03  0.00000000000E+00 0. -1.
         25    2    1    2    0    0  0.92432431212E+02  0.59937200932E+02 -0.23831640707E+02  0.16838031416E+03  0.12509100968E+03 0.  0.
          5    1    3    3  502    0  0.19723209417E+02 -0.36245289059E+02 -0.23631808960E+02  0.47735319873E+02  0.41800000000E+01 0.  1.
         -5    1    3    3    0  502  0.72709221795E+02  0.96182489990E+02 -0.19983174652E+00  0.12064499429E+03  0.41800000000E+01 0.  1.
        -11    1    1    2    0    0  0.89003795217E+01 -0.29267267393E+02 -0.83351586585E+02  0.88787818323E+02  0.00000000000E+00 0.  1.
         11    1    1    2    0    0 -0.10133281073E+03 -0.30669933539E+02 -0.59834440409E+03  0.60763888063E+03  0.00000000000E+00 0. -1.
</event>
<event>
 7    1  0.2661133E-009  0.6787328E+02  0.7561462E-02  0.1367478E+00
         -2   -1    0    0    0  501 -0.00000000000E+00  0.00000000000E+00  0.15833726221E+02  0.15833726221E+02  0.00000000000E+00 0.  1.
          2   -1    0    0  501    0  0.00000000000E+00 -0.00000000000E+00 -0.77407439543E+03  0.77407439543E+03  0.00000000000E+00 0. -1.
         25    2    1    2    0    0  0.21946548028E+02 -0.27285263998E+01 -0.38979678372E+03  0.40997310624E+03  0.12508924582E+03 0.  0.
          5    1    3    3  502    0 -0.67837319666E+01 -0.11323982763E+02  0.44664006138E+01  0.14548977265E+02  0.41800000000E+01 0. -1.
         -5    1    3    3    0  502  0.28730279994E+02  0.85954563630E+01 -0.39426318433E+03  0.39542412898E+03  0.41800000000E+01 0. -1.
        -11    1    1    2    0    0 -0.37025922321E+02 -0.35025456211E+02 -0.17530318700E+03  0.18256206857E+03  0.00000000000E+00 0. -1.
         11    1    1    2    0    0  0.15079374293E+02  0.37753982611E+02 -0.19314069849E+03  0.19737294684E+03  0.00000000000E+00 0.  1.
</event>
<event>
 7    1  0.2661133E-009  0.6307213E+02  0.7561462E-02  0.1385374E+00
         -1   -1    0    0    0  501 -0.00000000000E+00  0.00000000000E+00  0.28507525252E+02  0.28507525252E+02  0.00000000000E+00 0.  1.
          1   -1    0    0  501    0  0.00000000000E+00 -0.00000000000E+00 -0.41062399217E+03  0.41062399217E+03  0.00000000000E+00 0. -1.
         25    2    1    2    0    0 -0.93628394634E+01 -0.32936250059E+01 -0.27213293496E+03  0.29966889752E+03  0.12508638263E+03 0.  0.
          5    1    3    3  502    0 -0.30159975800E+02 -0.16168105710E+02 -0.93542781360E+01  0.35721236008E+02  0.41800000000E+01 0. -1.
         -5    1    3    3    0  502  0.20797136337E+02  0.12874480704E+02 -0.26277865683E+03  0.26394766151E+03  0.41800000000E+01 0. -1.
        -11    1    1    2    0    0  0.14884291863E+02 -0.29796745012E+02 -0.98539642108E+02  0.10401658149E+03  0.00000000000E+00 0. -1.
         11    1    1    2    0    0 -0.55214523997E+01  0.33090370018E+02 -0.11443889846E+02  0.35446038415E+02  0.00000000000E+00 0.  1.
</event>
<event>
 7    1  0.2661133E-009  0.1041249E+03  0.7561462E-02  0.1271853E+00
          1   -1    0    0  501    0  0.00000000000E+00  0.00000000000E+00  0.16975952213E+03  0.16975952213E+03  0.00000000000E+00 0. -1.
         -1   -1    0    0    0  501 -0.00000000000E+00 -0.00000000000E+00 -0.95051278953E+02  0.95051278953E+02  0.00000000000E+00 0.  1.
         25    2    1    2    0    0  0.32889160750E+02 -0.57610040747E+02  0.45963549894E+02  0.14886629233E+03  0.12509161197E+03 0.  0.
          5    1    3    3  502    0  0.70935560113E+02 -0.63173703690E+02  0.92338718200E+01  0.95527521245E+02  0.41800000000E+01 0.  1.
         -5    1    3    3    0  502 -0.38046399362E+02  0.55636629424E+01  0.36729678074E+02  0.53338771088E+02  0.41800000000E+01 0.  1.
        -11    1    1    2    0    0 -0.25240734365E+02  0.11474021923E+02 -0.30005131836E+02  0.40854079195E+02  0.00000000000E+00 0.  1.
         11    1    1    2    0    0 -0.76484263858E+01  0.46136018824E+02  0.58749825117E+02  0.75090429552E+02  0.00000000000E+00 0. -1.
</event>
<event>
 7    1  0.2661133E-009  0.1365756E+03  0.7561462E-02  0.1218012E+00
         -4   -1    0    0    0  501 -0.00000000000E+00  0.00000000000E+00  0.85496471510E+02  0.85496471510E+02  0.00000000000E+00 0.  1.
          4   -1    0    0  501    0  0.00000000000E+00 -0.00000000000E+00 -0.22663952362E+03  0.22663952362E+03  0.00000000000E+00 0. -1.
         25    2    1    2    0    0  0.84209615121E+02 -0.19453191538E+02 -0.76728708342E+02  0.17031017357E+03  0.12509426286E+03 0.  0.
          5    1    3    3  502    0  0.58326124239E+02 -0.69854797916E+02 -0.65994642607E+02  0.11249175442E+03  0.41800000000E+01 0.  1.
         -5    1    3    3    0  502  0.25883490882E+02  0.50401606379E+02 -0.10734065735E+02  0.57818419150E+02  0.41800000000E+01 0.  1.
        -11    1    1    2    0    0 -0.21409554129E+02  0.50743379043E+02 -0.19060382581E+02  0.58279994070E+02  0.00000000000E+00 0. -1.
         11    1    1    2    0    0 -0.62800060992E+02 -0.31290187505E+02 -0.45353961184E+02  0.83545827483E+02  0.00000000000E+00 0.  1.
</event>
<event>
 7    1  0.2661133E-009  0.1059543E+03  0.7561462E-02  0.1268251E+00
          2   -1    0    0  501    0  0.00000000000E+00  0.00000000000E+00  0.33772486409E+03  0.33772486409E+03  0.00000000000E+00 0. -1.
         -2   -1    0    0    0  501 -0.00000000000E+00 -0.00000000000E+00 -0.42026271675E+02  0.42026271675E+02  0.00000000000E+00 0.  1.
         25    2    1    2    0    0 -0.44290818530E+02 -0.74390945037E+01  0.13909451391E+03  0.19238208681E+03  0.12508623742E+03 0.  0.
          5    1    3    3  502    0 -0.78018435271E+02  0.19539218802E+01  0.13616572275E+03  0.15700086148E+03  0.41800000000E+01 0.  1.
         -5    1    3    3    0  502  0.33727616742E+02 -0.93930163839E+01  0.29287911566E+01  0.35381225325E+02  0.41800000000E+01 0.  1.
        -11    1    1    2    0    0  0.63654772105E+02 -0.18347695935E+02  0.77564063276E+02  0.10200368557E+03  0.00000000000E+00 0. -1.
         11    1    1    2    0    0 -0.19363953575E+02  0.25786790439E+02  0.79040015231E+02  0.85365363392E+02  0.00000000000E+00 0.  1.
</event>
<event>
 7    1  0.2661133E-009  0.7067833E+02  0.7561462E-02  0.1357801E+00
          2   -1    0    0  501    0  0.00000000000E+00  0.00000000000E+00  0.18154204594E+03  0.18154204594E+03  0.00000000000E+00 0. -1.
         -2   -1    0    0    0  501 -0.00000000000E+00 -0.00000000000E+00 -0.76214700659E+02  0.76214700659E+02  0.00000000000E+00 0.  1.
         25    2    1    2    0    0  0.29405137386E+02 -0.36224819959E+02  0.78365093992E+02  0.15478854897E+03  0.12506601158E+03 0.  0.
          5    1    3    3  502    0  0.38145619443E+02 -0.24695382249E+02 -0.23836065231E+02  0.51483789612E+02  0.41800000000E+01 0. -1.
         -5    1    3    3    0  502 -0.87404820565E+01 -0.11529437710E+02  0.10220115922E+03  0.10330475936E+03  0.41800000000E+01 0. -1.
        -11    1    1    2    0    0  0.21332804439E+02  0.10528968607E+02  0.38193113909E+02  0.44996240679E+02  0.00000000000E+00 0. -1.
         11    1    1    2    0    0 -0.50737941825E+02  0.25695851352E+02 -0.11230862617E+02  0.57971956949E+02  0.00000000000E+00 0.  1.
</event>
<event>
 7    1  0.2661133E-009  0.1172228E+03  0.7561462E-02  0.1247750E+00
          1   -1    0    0  501    0  0.00000000000E+00  0.00000000000E+00  0.78522865641E+02  0.78522865641E+02  0.00000000000E+00 0. -1.
         -1   -1    0    0    0  501 -0.00000000000E+00 -0.00000000000E+00 -0.29168119900E+03  0.29168119900E+03  0.00000000000E+00 0.  1.
         25    2    1    2    0    0  0.79686039156E+02 -0.43570971560E+02 -0.17760837940E+03  0.23546018104E+03  0.12509382888E+03 0.  0.
          5    1    3    3  502    0  0.10071989306E+03 -0.38334068566E+02 -0.18328975541E+03  0.21266547559E+03  0.41800000000E+01 0. -1.
         -5    1    3    3    0  502 -0.21033853905E+02 -0.52369029938E+01  0.56813760090E+01  0.22794705447E+02  0.41800000000E+01 0. -1.
        -11    1    1    2    0    0 -0.36268945592E+02  0.48787279079E+02 -0.59348492832E+02  0.84958099177E+02  0.00000000000E+00 0.  1.
         11    1    1    2    0    0 -0.43417093564E+02 -0.52163075191E+01  0.23798538877E+02  0.49785784420E+02  0.00000000000E+00 0. -1.
</event>
<event>
 7    1  0.2661133E-009  0.1793894E+03  0.7561462E-02  0.1168395E+00
          2   -1    0    0  501    0  0.00000000000E+00  0.00000000000E+00  0.63230972137E+03  0.63230972137E+03  0.00000000000E+00 0. -1.
         -2   -1    0    0    0  501 -0.00000000000E+00 -0.00000000000E+00 -0.55262929881E+02  0.55262929881E+02  0.00000000000E+00 0.  1.
         25    2    1    2    0    0  0.94204915961E+02 -0.10778173209E+03  0.39599586607E+03  0.43926250271E+03  0.12508937757E+03 0.  0.
          5    1    3    3  502    0  0.67112641376E+02  0.10256163314E+02  0.12237042063E+03  0.14000459908E+03  0.41800000000E+01 0.  1.
         -5    1    3    3    0  502  0.27092274585E+02 -0.11803789540E+03  0.27362544543E+03  0.29925790363E+03  0.41800000000E+01 0.  1.
        -11    1    1    2    0    0 -0.85235627048E+01  0.78605807573E+02  0.92472454340E+02  0.12166626039E+03  0.00000000000E+00 0.  1.
         11    1    1    2    0    0 -0.85681353256E+02  0.29175924516E+02  0.88578471084E+02  0.12664388815E+03  0.00000000000E+00 0. -1.
</event>
<event>
 7    1  0.2661133E-009  0.2507366E+03  0.7561462E-02  0.1112840E+00
         -1   -1    0    0    0  501 -0.00000000000E+00  0.00000000000E+00  0.78989776929E+02  0.78989776929E+02  0.00000000000E+00 0.  1.
          1   -1    0    0  501    0  0.00000000000E+00 -0.00000000000E+00 -0.91727708809E+03  0.91727708809E+03  0.00000000000E+00 0. -1.
         25    2    1    2    0    0  0.96367100698E+02  0.21389613154E+03 -0.56475081415E+03  0.62420269230E+03  0.12508935131E+03 0.  0.
          5    1    3    3  502    0  0.11261830537E+03  0.20399280987E+03 -0.55595224303E+03  0.60282362106E+03  0.41800000000E+01 0. -1.
         -5    1    3    3    0  502 -0.16251204667E+02  0.99033216705E+01 -0.87985711170E+01  0.21379071237E+02  0.41800000000E+01 0. -1.
        -11    1    1    2    0    0 -0.16425671048E+02 -0.13711089870E+03 -0.18105034490E+03  0.22770250020E+03  0.00000000000E+00 0. -1.
         11    1    1    2    0    0 -0.79941429651E+02 -0.76785232841E+02 -0.92486152119E+02  0.14436167251E+03  0.00000000000E+00 0.  1.
</event>
<event>
 7    1  0.2661133E-009  0.2339214E+03  0.7561462E-02  0.1123910E+00
          1   -1    0    0  501    0  0.00000000000E+00  0.00000000000E+00  0.16948844373E+04  0.16948844373E+04  0.00000000000E+00 0. -1.
         -1   -1    0    0    0  501 -0.00000000000E+00 -0.00000000000E+00 -0.40427855309E+02  0.40427855309E+02  0.00000000000E+00 0.  1.
         25    2    1    2    0    0  0.35706655938E+02  0.21211299116E+03  0.11813851363E+04  0.12073045648E+04  0.12508631241E+03 0.  0.
          5    1    3    3  502    0 -0.33847310218E+02  0.56500774449E+02  0.18459738851E+03  0.19603990963E+03  0.41800000000E+01 0.  1.
         -5    1    3    3    0  502  0.69553966156E+02  0.15561221671E+03  0.99678774783E+03  0.10112646552E+04  0.41800000000E+01 0.  1.
        -11    1    1    2    0    0  0.24892174943E+02 -0.10845480764E+03  0.18458670819E+03  0.21553263910E+03  0.00000000000E+00 0.  1.
         11    1    1    2    0    0 -0.60598830881E+02 -0.10365818352E+03  0.28848473743E+03  0.31247508868E+03  0.00000000000E+00 0. -1.
</event>
<event>
 7    1  0.2661133E-009  0.1492984E+03  0.7561462E-02  0.1201338E+00
          2   -1    0    0  501    0  0.00000000000E+00  0.00000000000E+00  0.35416798774E+03  0.35416798774E+03  0.00000000000E+00 0. -1.
         -2   -1    0    0    0  501 -0.00000000000E+00 -0.00000000000E+00 -0.81032945328E+02  0.81032945328E+02  0.00000000000E+00 0.  1.
         25    2    1    2    0    0 -0.12127786795E+03 -0.83195290653E+01  0.87732997235E+02  0.19524961803E+03  0.12509116163E+03 0.  0.
          5    1    3    3  502    0 -0.54118706208E+01  0.33008574208E+02  0.60391345094E+02  0.69162426773E+02  0.41800000000E+01 0.  1.
         -5    1    3    3    0  502 -0.11586599733E+03 -0.41328103274E+02  0.27341652141E+02  0.12608719126E+03  0.41800000000E+01 0.  1.
        -11    1    1    2    0    0  0.63964802331E+02  0.40852619687E+02  0.54636986942E+02  0.93518088168E+02  0.00000000000E+00 0.  1.
         11    1    1    2    0    0  0.57313065619E+02 -0.32533090622E+02  0.13076505823E+03  0.14643322687E+03  0.00000000000E+00 0. -1.
</event>
<event>
 7    1  0.2661133E-009  0.1560400E+03  0.7561462E-02  0.1193242E+00
         -2   -1    0    0    0  501 -0.00000000000E+00  0.00000000000E+00  0.25481807528E+02  0.25481807528E+02  0.00000000000E+00 0.  1.
          2   -1    0    0  501    0  0.00000000000E+00 -0.00000000000E+00 -0.14147748284E+04  0.14147748284E+04  0.00000000000E+00 0. -1.
         25    2    1    2    0    0  0.14891734946E+03  0.42639463852E+02 -0.71327442678E+03  0.74054237604E+03  0.12509237372E+03 0.  0.
          5    1    3    3  502    0  0.19595154926E+02  0.44564737617E+01 -0.38610878465E+03  0.38665397481E+03  0.41800000000E+01 0.  1.
         -5    1    3    3    0  502  0.12932219453E+03  0.38182990091E+02 -0.32716564213E+03  0.35388840123E+03  0.41800000000E+01 0.  1.
        -11    1    1    2    0    0 -0.18757720257E+02 -0.13918271747E+02 -0.21449809373E+02  0.31712216570E+02  0.00000000000E+00 0.  1.
         11    1    1    2    0    0 -0.13015962920E+03 -0.28721192105E+02 -0.65456878472E+03  0.66800204332E+03  0.00000000000E+00 0. -1.
</event>
<event>
 7    1  0.2661133E-009  0.1395374E+03  0.7561462E-02  0.1213953E+00
          2   -1    0    0  501    0  0.00000000000E+00  0.00000000000E+00  0.10835461722E+03  0.10835461722E+03  0.00000000000E+00 0.  1.
         -2   -1    0    0    0  501 -0.00000000000E+00 -0.00000000000E+00 -0.29982223471E+03  0.29982223471E+03  0.00000000000E+00 0. -1.
         25    2    1    2    0    0  0.93031242058E+02 -0.80479118473E+02 -0.16028871660E+02  0.17616967324E+03  0.12508848282E+03 0.  0.
          5    1    3    3  502    0  0.34427312778E+02 -0.52492930935E+02  0.52296355957E+02  0.81811545088E+02  0.41800000000E+01 0. -1.
         -5    1    3    3    0  502  0.58603929281E+02 -0.27986187537E+02 -0.68325227617E+02  0.94358128155E+02  0.41800000000E+01 0. -1.
        -11    1    1    2    0    0 -0.88279719143E+01 -0.18880435339E+02 -0.32721024095E+02  0.38795223218E+02  0.00000000000E+00 0.  1.
         11    1    1    2    0    0 -0.84203270144E+02  0.99359553812E+02 -0.14271772174E+03  0.19321195547E+03  0.00000000000E+00 0. -1.
</event>
<event>
 7    1  0.2661133E-009  0.7720007E+02  0.7561462E-02  0.1337190E+00
         -2   -1    0    0    0  501 -0.00000000000E+00  0.00000000000E+00  0.16173131157E+03  0.16173131157E+03  0.00000000000E+00 0.  1.
          2   -1    0    0  501    0  0.00000000000E+00 -0.00000000000E+00 -0.12619196349E+03  0.12619196349E+03  0.00000000000E+00 0. -1.
         25    2    1    2    0    0 -0.41543039454E+02  0.15137804372E+02  0.10212865606E+03  0.16742970467E+03  0.12508983320E+03 0.  0.
          5    1    3    3  502    0  0.18201064695E+02 -0.27073019425E+01  0.10321726711E+03  0.10492799850E+03  0.41800000000E+01 0. -1.
         -5    1    3    3    0  502 -0.59744104149E+02  0.17845106314E+02 -0.10886110527E+01  0.62501706168E+02  0.41800000000E+01 0. -1.
        -11    1    1    2    0    0  0.32641641928E+02  0.18993093058E+02 -0.75230957648E+02  0.84177855523E+02  0.00000000000E+00 0. -1.
         11    1    1    2    0    0  0.89013975258E+01 -0.34130897430E+02  0.86416496760E+01  0.36315714869E+02  0.00000000000E+00 0.  1.
</event>
<event>
 7    1  0.2661133E-009  0.1306580E+03  0.7561462E-02  0.1226483E+00
         -1   -1    0    0    0  501 -0.00000000000E+00  0.00000000000E+00  0.92962751764E+03  0.92962751764E+03  0.00000000000E+00 0.  1.
          1   -1    0    0  501    0  0.00000000000E+00 -0.00000000000E+00 -0.24035834624E+02  0.24035834624E+02  0.00000000000E+00 0. -1.
         25    2    1    2    0    0  0.34855659936E+02  0.94154215008E+02  0.41550497117E+03  0.44538984516E+03  0.12509116623E+03 0.  0.
          5    1    3    3  502    0 -0.24451424258E+02  0.21483758674E+02  0.18999982629E+02  0.37919596186E+02  0.41800000000E+01 0. -1.
         -5    1    3    3    0  502  0.59307084194E+02  0.72670456334E+02  0.39650498854E+03  0.40747024897E+03  0.41800000000E+01 0. -1.
        -11    1    1    2    0    0 -0.32688732535E+02  0.70001907959E+01  0.11194678924E+03  0.11683167176E+03  0.00000000000E+00 0. -1.
         11    1    1    2    0    0 -0.21669274013E+01 -0.10115440580E+03  0.37813992260E+03  0.39144183534E+03  0.00000000000E+00 0.  1.
</event>
<event>
 7    1  0.2661133E-009  0.7574565E+02  0.7561462E-02  0.1341577E+00
         -2   -1    0    0    0  501 -0.00000000000E+00  0.00000000000E+00  0.11560395653E+03  0.11560395653E+03  0.00000000000E+00 0.  1.
          2   -1    0    0  501    0  0.00000000000E+00 -0.00000000000E+00 -0.18851869996E+03  0.18851869996E+03  0.00000000000E+00 0. -1.
         25    2    1    2    0    0  0.69456771142E+01 -0.10360700323E+02  0.62590767191E+02  0.14042616999E+03  0.12508524509E+03 0.  0.
          5    1    3    3  502    0 -0.17290277674E+02 -0.46561865113E+02  0.79230129183E+02  0.93604736820E+02  0.41800000000E+01 0. -1.
         -5    1    3    3    0  502  0.24235954789E+02  0.36201164790E+02 -0.16639361992E+02  0.46821433171E+02  0.41800000000E+01 0. -1.
        -11    1    1    2    0    0 -0.23313845464E+02  0.26223556847E+02 -0.10494378332E+02  0.36624340276E+02  0.00000000000E+00 0.  1.
         11    1    1    2    0    0  0.16368168350E+02 -0.15862856524E+02 -0.12501113228E+03  0.12707214623E+03  0.00000000000E+00 0. -1.
</event>
<event>
 7    1  0.2661133E-009  0.1168081E+03  0.7561462E-02  0.1248458E+00
          3   -1    0    0  501    0  0.00000000000E+00  0.00000000000E+00  0.14113413839E+03  0.14113413839E+03  0.00000000000E+00 0. -1.
         -3   -1    0    0    0  501 -0.00000000000E+00 -0.00000000000E+00 -0.18358718699E+03  0.18358718699E+03  0.00000000000E+00 0.  1.
         25    2    1    2    0    0 -0.51699433749E+02 -0.56989831436E+02 -0.11349286569E+03  0.18559668418E+03  0.12507927998E+03 0.  0.
          5    1    3    3  502    0 -0.23565652664E+02  0.28335810496E+02 -0.82518536619E+02  0.90471207727E+02  0.41800000000E+01 0. -1.
         -5    1    3    3    0  502 -0.28133781085E+02 -0.85325641932E+02 -0.30974329074E+02  0.95125476455E+02  0.41800000000E+01 0. -1.
        -11    1    1    2    0    0  0.15875301805E+02  0.67426745517E+02  0.13543830847E+02  0.70582055598E+02  0.00000000000E+00 0.  1.
         11    1    1    2    0    0  0.35824131944E+02 -0.10436914081E+02  0.57495986246E+02  0.68542585591E+02  0.00000000000E+00 0. -1.
</event>
<event>
 7    1  0.2661133E-009  0.9081610E+02  0.7561462E-02  0.1300887E+00
         -2   -1    0    0    0  501 -0.00000000000E+00  0.00000000000E+00  0.21710808518E+03  0.21710808518E+03  0.00000000000E+00 0.  1.
          2   -1    0    0  501    0  0.00000000000E+00 -0.00000000000E+00 -0.10526089068E+03  0.10526089068E+03  0.00000000000E+00 0. -1.
         25    2    1    2    0    0 -0.67242199973E+01  0.24377615321E+02 -0.47209503350E+02  0.13606922766E+03  0.12508642710E+03 0.  0.
          5    1    3    3  502    0 -0.47620440970E+02  0.36170140714E+02  0.13847410031E+02  0.61524049298E+02  0.41800000000E+01 0. -1.
         -5    1    3    3    0  502  0.40896220973E+02 -0.11792525394E+02 -0.61056913381E+02  0.74545178359E+02  0.41800000000E+01 0. -1.
        -11    1    1    2    0    0  0.56929039970E+01  0.26968608569E+02  0.11153758331E+02  0.29734177792E+02  0.00000000000E+00 0. -1.
         11    1    1    2    0    0  0.10313160004E+01 -0.51346223890E+02  0.14790293952E+03  0.15656557042E+03  0.00000000000E+00 0.  1.
</event>
<event>
 6    1  0.2661133E-009  0.1125060E+03  0.7561462E-02  0.1255998E+00
         -1   -1    0    0    0  501 -0.00000000000E+00  0.00000000000E+00  0.28814242597E+03  0.28814242597E+03  0.00000000000E+00 0.  1.
          1   -1    0    0  501    0  0.00000000000E+00 -0.00000000000E+00 -0.11285829109E+03  0.11285829109E+03  0.00000000000E+00 0. -1.
          5    1    1    2  502    0 -0.37202534869E+02  0.73440562988E+02  0.17541071865E+03  0.19381418295E+03  0.41800000000E+01 0.  1.
         -5    1    1    2    0  502 -0.13258566374E+02 -0.50112505672E+02  0.66357723828E+02  0.84308200779E+02  0.41800000000E+01 0.  1.
        -11    1    1    2    0    0  0.27781265792E+02  0.24883102128E+02 -0.57958142881E+02  0.68921069542E+02  0.00000000000E+00 0. -1.
         11    1    1    2    0    0  0.22679835451E+02 -0.48211159444E+02 -0.85261647276E+01  0.53957263793E+02  0.00000000000E+00 0.  1.
</event>
<event>
 6    1  0.3889049E-009  0.1963916E+03  0.7561462E-02  0.1152820E+00
         -2   -1    0    0    0  501 -0.00000000000E+00  0.00000000000E+00  0.44319336950E+02  0.44319336950E+02  0.00000000000E+00 0. -1.
          2   -1    0    0  501    0  0.00000000000E+00 -0.00000000000E+00 -0.10251552582E+04  0.10251552582E+04  0.00000000000E+00 0.  1.
          5    1    1    2  502    0  0.40577316846E+02 -0.14646553116E+03 -0.54624324754E+03  0.56700778508E+03  0.41800000000E+01 0.  1.
         -5    1    1    2    0  502  0.54509276762E+02 -0.37394945119E+00 -0.98953448751E+02  0.11305157456E+03  0.41800000000E+01 0.  1.
        -11    1    1    2    0    0 -0.37247404406E+02  0.11318200379E+03 -0.27249694913E+03  0.29740901533E+03  0.00000000000E+00 0.  1.
         11    1    1    2    0    0 -0.57839189203E+02  0.33657476822E+02 -0.63142275840E+02  0.92006220180E+02  0.00000000000E+00 0. -1.
</event>
<event>
 7    1  0.2661133E-009  0.1456350E+03  0.7561462E-02  0.1205942E+00
          2   -1    0    0  501    0  0.00000000000E+00  0.00000000000E+00  0.25464907872E+03  0.25464907872E+03  0.00000000000E+00 0. -1.
         -2   -1    0    0    0  501 -0.00000000000E+00 -0.00000000000E+00 -0.11130368339E+03  0.11130368339E+03  0.00000000000E+00 0.  1.
         25    2    1    2    0    0  0.12241951662E+03 -0.72416003063E+01  0.31743996028E+02  0.17802870519E+03  0.12509020650E+03 0.  0.
          5    1    3    3  502    0  0.68321786266E+02 -0.38857931116E+02  0.69288812360E+02  0.10486284951E+03  0.41800000000E+01 0. -1.
         -5    1    3    3    0  502  0.54097730354E+02  0.31616330809E+02 -0.37544816332E+02  0.73165855675E+02  0.41800000000E+01 0. -1.
        -11    1    1    2    0    0 -0.65382742142E+02 -0.39178408686E+02  0.43866091306E+02  0.87943644703E+02  0.00000000000E+00 0.  1.
         11    1    1    2    0    0 -0.57036774479E+02  0.46420008992E+02  0.67735308001E+02  0.99980412220E+02  0.00000000000E+00 0. -1.
</event>
<event>
 7    1  0.2661133E-009  0.1222000E+03  0.7561462E-02  0.1239511E+00
          1   -1    0    0  501    0  0.00000000000E+00  0.00000000000E+00  0.50846678882E+02  0.50846678882E+02  0.00000000000E+00 0. -1.
         -1   -1    0    0    0  501 -0.00000000000E+00 -0.00000000000E+00 -0.40008522011E+03  0.40008522011E+03  0.00000000000E+00 0.  1.
         25    2    1    2    0    0 -0.73669284485E+02 -0.48424024287E+02 -0.14813921892E+03  0.21299208160E+03  0.12509336129E+03 0.  0.
          5    1    3    3  502    0  0.21864670679E-01 -0.46541883887E+02 -0.12829208121E+03  0.13653745982E+03  0.41800000000E+01 0. -1.
         -5    1    3    3    0  502 -0.73691149156E+02 -0.18821404002E+01 -0.19847137710E+02  0.76454621781E+02  0.41800000000E+01 0. -1.
        -11    1    1    2    0    0 -0.18927454124E+02 -0.84970605317E+00 -0.54355831747E+02  0.57563243176E+02  0.00000000000E+00 0.  1.
         11    1    1    2    0    0  0.92596738609E+02  0.49273730340E+02 -0.14674349056E+03  0.18037657422E+03  0.00000000000E+00 0. -1.
</event>
<event>
 7    1  0.2661133E-009  0.1485197E+03  0.7561462E-02  0.1202304E+00
         -1   -1    0    0    0  501 -0.00000000000E+00  0.00000000000E+00  0.22848283957E+02  0.22848283957E+02  0.00000000000E+00 0.  1.
          1   -1    0    0  501    0  0.00000000000E+00 -0.00000000000E+00 -0.10134048325E+04  0.10134048325E+04  0.00000000000E+00 0. -1.
         25    2    1    2    0    0  0.10137995239E+03  0.16980104021E+02 -0.44134193950E+03  0.47010472176E+03  0.12509805428E+03 0.  0.
          5    1    3    3  502    0  0.95846065892E+02 -0.38862003338E+02 -0.32057112343E+03  0.33686798784E+03  0.41800000000E+01 0. -1.
         -5    1    3    3    0  502  0.55338864989E+01  0.55842107359E+02 -0.12077081606E+03  0.13323673392E+03  0.41800000000E+01 0. -1.
        -11    1    1    2    0    0 -0.11600254486E+03 -0.15670364801E+01 -0.45346822428E+03  0.46807315288E+03  0.00000000000E+00 0.  1.
         11    1    1    2    0    0  0.14622592465E+02 -0.15413067541E+02 -0.95746384810E+02  0.98075241859E+02  0.00000000000E+00 0. -1.
</event>
<event>
 7    1  0.2661133E-009  0.1130671E+03  0.7561462E-02  0.1254993E+00
         -1   -1    0    0    0  501 -0.00000000000E+00  0.00000000000E+00  0.45016098181E+03  0.45016098181E+03  0.00000000000E+00 0.  1.
          1   -1    0    0  501    0  0.00000000000E+00 -0.00000000000E+00 -0.36853856383E+02  0.36853856383E+02  0.00000000000E+00 0. -1.
         25    2    1    2    0    0  0.31101371111E+02  0.64330915627E+02  0.22389270401E+03  0.26623478182E+03  0.12508898493E+03 0.  0.
          5    1    3    3  502    0 -0.15617743577E+02  0.64403848739E+02  0.20531194134E+03  0.21578284293E+03  0.41800000000E+01 0.  1.
         -5    1    3    3    0  502  0.46719114688E+02 -0.72933111888E-01  0.18580762676E+02  0.50451938893E+02  0.41800000000E+01 0.  1.
        -11    1    1    2    0    0 -0.60612224264E+02 -0.30241424314E+02  0.10238649900E+03  0.12276555157E+03  0.00000000000E+00 0. -1.
         11    1    1    2    0    0  0.29510853153E+02 -0.34089491313E+02  0.87027922410E+02  0.98014504797E+02  0.00000000000E+00 0.  1.
</event>
<event>
 7    1  0.2661133E-009  0.1664915E+03  0.7561462E-02  0.1181557E+00
         -1   -1    0    0    0  501 -0.00000000000E+00  0.00000000000E+00  0.76028185805E+03  0.76028185805E+03  0.00000000000E+00 0.  1.
          1   -1    0    0  501    0  0.00000000000E+00 -0.00000000000E+00 -0.54355663831E+02  0.54355663831E+02  0.00000000000E+00 0. -1.
         25    2    1    2    0    0  0.67930955797E+02 -0.12801994106E+03  0.55272558717E+03  0.58494179696E+03  0.12509041153E+03 0.  0.
          5    1    3    3  502    0  0.51374458153E+02 -0.14281676803E+03  0.53527478331E+03  0.55639242467E+03  0.41800000000E+01 0.  1.
         -5    1    3    3    0  502  0.16556497644E+02  0.14796826978E+02  0.17450803861E+02  0.28549372292E+02  0.41800000000E+01 0.  1.
        -11    1    1    2    0    0 -0.40062084813E+02  0.12410605838E+03  0.15367136158E+03  0.20154942752E+03  0.00000000000E+00 0.  1.
         11    1    1    2    0    0 -0.27868870983E+02  0.39138826796E+01 -0.47075452782E+00  0.28146297400E+02  0.00000000000E+00 0. -1.
</event>
<event>
 7    1  0.2661133E-009  0.1131169E+03  0.7561462E-02  0.1254904E+00
          1   -1    0    0  501    0  0.00000000000E+00  0.00000000000E+00  0.11866071478E+04  0.11866071478E+04  0.00000000000E+00 0. -1.
         -1   -1    0    0    0  501 -0.00000000000E+00 -0.00000000000E+00 -0.33169362991E+02  0.33169362991E+02  0.00000000000E+00 0.  1.
         25    2    1    2    0    0  0.46499090116E+02  0.20627749834E+02  0.10905682084E+04  0.10988968255E+04  0.12509015336E+03 0.  0.
          5    1    3    3  502    0  0.31541231625E+02 -0.50820772200E+02  0.58579751503E+03  0.58885804842E+03  0.41800000000E+01 0. -1.
         -5    1    3    3    0  502  0.14957858490E+02  0.71448522034E+02  0.50477069336E+03  0.51003877706E+03  0.41800000000E+01 0. -1.
        -11    1    1    2    0    0 -0.67362128255E+02 -0.58997303265E+01  0.19203319062E+02  0.70293887387E+02  0.00000000000E+00 0.  1.
         11    1    1    2    0    0  0.20863038140E+02 -0.14728019508E+02  0.43666257335E+02  0.50585797895E+02  0.00000000000E+00 0. -1.
</event>
<event>
 7    1  0.2661133E-009  0.3089653E+03  0.7561462E-02  0.1080843E+00
          2   -1    0    0  501    0  0.00000000000E+00  0.00000000000E+00  0.58021597694E+03  0.58021597694E+03  0.00000000000E+00 0. -1.
         -2   -1    0    0    0  501 -0.00000000000E+00 -0.00000000000E+00 -0.17129374131E+03  0.17129374131E+03  0.00000000000E+00 0.  1.
         25    2    1    2    0    0  0.28622293566E+03  0.67007527056E+02  0.17119287119E+03  0.36244425599E+03  0.12508102163E+03 0.  0.
          5    1    3    3  502    0  0.75391931950E+02  0.69649229184E+02  0.24656598784E+02  0.10564269399E+03  0.41800000000E+01 0. -1.
         -5    1    3    3    0  502  0.21083100371E+03 -0.26417021282E+01  0.14653627240E+03  0.25680156200E+03  0.41800000000E+01 0. -1.
        -11    1    1    2    0    0 -0.19217416034E+03 -0.61057430994E+01  0.17837157626E+03  0.26226819712E+03  0.00000000000E+00 0. -1.
         11    1    1    2    0    0 -0.94048775323E+02 -0.60901783957E+02  0.59357788193E+02  0.12679726514E+03  0.00000000000E+00 0.  1.
</event>
<event>
 7    1  0.2661133E-009  0.9762998E+02  0.7561462E-02  0.1285360E+00
          1   -1    0    0  501    0  0.00000000000E+00  0.00000000000E+00  0.19786512265E+03  0.19786512265E+03  0.00000000000E+00 0. -1.
         -1   -1    0    0    0  501 -0.00000000000E+00 -0.00000000000E+00 -0.75739671714E+02  0.75739671714E+02  0.00000000000E+00 0.  1.
         25    2    1    2    0    0  0.48625582977E+02 -0.17906552112E+02  0.92586491082E+02  0.16402331185E+03  0.12508515727E+03 0.  0.
          5    1    3    3  502    0 -0.20783195861E+02 -0.16015297175E+02 -0.18907451490E+02  0.32609739277E+02  0.41800000000E+01 0.  1.
         -5    1    3    3    0  502  0.69408778839E+02 -0.18912549367E+01  0.11149394257E+03  0.13141357257E+03  0.41800000000E+01 0.  1.
        -11    1    1    2    0    0 -0.72238675136E+02  0.21209454142E+02  0.51340167238E+01  0.75462740860E+02  0.00000000000E+00 0.  1.
         11    1    1    2    0    0  0.23613092159E+02 -0.33029020298E+01  0.24404943131E+02  0.34118741658E+02  0.00000000000E+00 0. -1.
</event>
<event>
 7    1  0.2661133E-009  0.1878636E+03  0.7561462E-02  0.1160402E+00
         -2   -1    0    0    0  501 -0.00000000000E+00  0.00000000000E+00  0.83827300285E+02  0.83827300285E+02  0.00000000000E+00 0.  1.
          2   -1    0    0  501    0  0.00000000000E+00 -0.00000000000E+00 -0.55336024667E+03  0.55336024667E+03  0.00000000000E+00 0. -1.
         25    2    1    2    0    0  0.13618818531E+03  0.10116980048E+03 -0.35346473837E+03  0.41154223784E+03  0.12508853629E+03 0.  0.
          5    1    3    3  502    0  0.19966476970E+02  0.52638478471E+02 -0.22348011713E+03  0.23050011880E+03  0.41800000000E+01 0. -1.
         -5    1    3    3    0  502  0.11622170834E+03  0.48531322012E+02 -0.12998462124E+03  0.18104211904E+03  0.41800000000E+01 0. -1.
        -11    1    1    2    0    0 -0.13204175121E+03 -0.48872824326E+02 -0.89564634674E+02  0.16686941243E+03  0.00000000000E+00 0. -1.
         11    1    1    2    0    0 -0.41464341047E+01 -0.52296976157E+02 -0.26503573340E+02  0.58775896681E+02  0.00000000000E+00 0.  1.
</event>
<event>
 6    1  0.2661133E-009  0.1127270E+03  0.7561462E-02  0.1255602E+00
         -2   -1    0    0    0  501 -0.00000000000E+00  0.00000000000E+00  0.40148318380E+02  0.40148318380E+02  0.00000000000E+00 0.  1.
          2   -1    0    0  501    0  0.00000000000E+00 -0.00000000000E+00 -0.52523737467E+03  0.52523737467E+03  0.00000000000E+00 0. -1.
          5    1    1    2  502    0  0.86703124934E+02 -0.28364758040E+02 -0.73599018038E+02  0.11728716566E+03  0.41800000000E+01 0.  1.
         -5    1    1    2    0  502  0.70599759360E+01  0.90486035133E+01 -0.18699861296E+03  0.18739710279E+03  0.41800000000E+01 0.  1.
        -11    1    1    2    0    0 -0.24275189521E+02  0.42264331621E+02 -0.14347632630E+03  0.15152892385E+03  0.00000000000E+00 0. -1.
         11    1    1    2    0    0 -0.69487911350E+02 -0.22948177094E+02 -0.81015098990E+02  0.10917250075E+03  0.00000000000E+00 0.  1.
</event>
<event>
 7    1  0.2661133E-009  0.1505166E+03  0.7561462E-02  0.1199840E+00
          1   -1    0    0  501    0  0.00000000000E+00  0.00000000000E+00  0.23180862356E+04  0.23180862356E+04  0.00000000000E+00 0. -1.
         -1   -1    0    0    0  501 -0.00000000000E+00 -0.00000000000E+00 -0.11818090697E+02  0.11818090697E+02  0.00000000000E+00 0.  1.
         25    2    1    2    0    0 -0.27012266254E+02  0.10793047349E+03  0.16304649821E+04  0.16390367037E+04  0.12508640455E+03 0.  0.
          5    1    3    3  502    0 -0.60743999712E+02  0.11290518282E+03  0.10986314464E+04  0.11060949061E+04  0.41800000000E+01 0.  1.
         -5    1    3    3    0  502  0.33731733459E+02 -0.49747093316E+01  0.53183353569E+03  0.53294179762E+03  0.41800000000E+01 0.  1.
        -11    1    1    2    0    0  0.48660582208E+02 -0.29193862821E+02  0.19158426672E+03  0.19981157409E+03  0.00000000000E+00 0.  1.
         11    1    1    2    0    0 -0.21648315954E+02 -0.78736610668E+02  0.48421889610E+03  0.49105604852E+03  0.00000000000E+00 0. -1.
</event>
<event>
 7    1  0.2661133E-009  0.1528556E+03  0.7561462E-02  0.1197007E+00
         -2   -1    0    0    0  501 -0.00000000000E+00  0.00000000000E+00  0.70923918598E+02  0.70923918598E+02  0.00000000000E+00 0. -1.
          2   -1    0    0  501    0  0.00000000000E+00 -0.00000000000E+00 -0.41723821564E+03  0.41723821564E+03  0.00000000000E+00 0.  1.
         25    2    1    2    0    0  0.65267560353E+02  0.92348732996E+02 -0.28536263836E+03  0.33146268718E+03  0.12509010632E+03 0.  0.
          5    1    3    3  502    0  0.24903807388E+01  0.99041686873E+02 -0.12843838642E+03  0.16226320976E+03  0.41800000000E+01 0. -1.
         -5    1    3    3    0  502  0.62777179614E+02 -0.66929538772E+01 -0.15692425195E+03  0.16919947742E+03  0.41800000000E+01 0. -1.
        -11    1    1    2    0    0 -0.28941218482E+02  0.13085609049E+02 -0.57896011676E+01  0.32285395662E+02  0.00000000000E+00 0. -1.
         11    1    1    2    0    0 -0.36326341871E+02 -0.10543434204E+03 -0.55162057515E+02  0.12441405140E+03  0.00000000000E+00 0.  1.
</event>
<event>
 7    1  0.2661133E-009  0.1026106E+03  0.7561462E-02  0.1274900E+00
         -2   -1    0    0    0  501 -0.00000000000E+00  0.00000000000E+00  0.56550647124E+02  0.56550647124E+02  0.00000000000E+00 0.  1.
          2   -1    0    0  501    0  0.00000000000E+00 -0.00000000000E+00 -0.36875493221E+03  0.36875493221E+03  0.00000000000E+00 0. -1.
         25    2    1    2    0    0  0.64238263881E+02 -0.60331178798E+01 -0.27138388443E+03  0.30571095184E+03  0.12508805013E+03 0.  0.
          5    1    3    3  502    0 -0.10898410026E+02  0.12209378866E+02  0.58429296304E+01  0.17873346079E+02  0.41800000000E+01 0.  1.
         -5    1    3    3    0  502  0.75136673907E+02 -0.18242496746E+02 -0.27722681406E+03  0.28783760576E+03  0.41800000000E+01 0.  1.
        -11    1    1    2    0    0  0.19267388779E+02 -0.15422217445E+02 -0.11993091203E+01  0.24708609909E+02  0.00000000000E+00 0.  1.
         11    1    1    2    0    0 -0.83505652660E+02  0.21455335325E+02 -0.39621091539E+02  0.94886017594E+02  0.00000000000E+00 0. -1.
</event>
<event>
 7    1  0.2661133E-009  0.1571572E+03  0.7561462E-02  0.1191944E+00
         -1   -1    0    0    0  501 -0.00000000000E+00  0.00000000000E+00  0.53314963348E+03  0.53314963348E+03  0.00000000000E+00 0.  1.
          1   -1    0    0  501    0  0.00000000000E+00 -0.00000000000E+00 -0.47703831116E+02  0.47703831116E+02  0.00000000000E+00 0. -1.
         25    2    1    2    0    0 -0.11009321076E+02 -0.11610520596E+03  0.23533442214E+03  0.29091379046E+03  0.12508764621E+03 0.  0.
          5    1    3    3  502    0  0.52601492658E+02 -0.82070581313E+02  0.15187809335E+03  0.18051848932E+03  0.41800000000E+01 0. -1.
         -5    1    3    3    0  502 -0.63610813734E+02 -0.34034624647E+02  0.83456328794E+02  0.11039530114E+03  0.41800000000E+01 0. -1.
        -11    1    1    2    0    0 -0.35534350689E+02  0.29599528529E+02  0.10467934199E+03  0.11444031985E+03  0.00000000000E+00 0.  1.
         11    1    1    2    0    0  0.46543671765E+02  0.86505677431E+02  0.14543203822E+03  0.17549935427E+03  0.00000000000E+00 0. -1.
</event>
<event>
 7    1  0.2661133E-009  0.1999437E+03  0.7561462E-02  0.1149787E+00
         -1   -1    0    0    0  501 -0.00000000000E+00  0.00000000000E+00  0.40623472591E+03  0.40623472591E+03  0.00000000000E+00 0.  1.
          1   -1    0    0  501    0  0.00000000000E+00 -0.00000000000E+00 -0.12574954792E+03  0.12574954792E+03  0.00000000000E+00 0. -1.
         25    2    1    2    0    0  0.19147228561E+03 -0.30652665864E+02  0.99204554599E+02  0.25117738284E+03  0.12508921583E+03 0.  0.
          5    1    3    3  502    0  0.13433193358E+03 -0.40696402113E+02  0.12457643008E+03  0.18771793962E+03  0.41800000000E+01 0.  1.
         -5    1    3    3    0  502  0.57140352027E+02  0.10043736249E+02 -0.25371875484E+02  0.63459443215E+02  0.41800000000E+01 0.  1.
        -11    1    1    2    0    0 -0.27668558775E+02  0.25166063775E+02  0.13573482491E+01  0.37426224828E+02  0.00000000000E+00 0.  1.
         11    1    1    2    0    0 -0.16380372683E+03  0.54866020892E+01  0.17992327514E+03  0.24338066617E+03  0.00000000000E+00 0. -1.
</event>
<event>
 7    1  0.2661133E-009  0.1487223E+03  0.7561462E-02  0.1202052E+00
         -1   -1    0    0    0  501 -0.00000000000E+00  0.00000000000E+00  0.10697283556E+04  0.10697283556E+04  0.00000000000E+00 0.  1.
          1   -1    0    0  501    0  0.00000000000E+00 -0.00000000000E+00 -0.29314483670E+02  0.29314483670E+02  0.00000000000E+00 0. -1.
         25    2    1    2    0    0 -0.71425456111E+02 -0.10507041694E+03  0.38097188871E+03  0.42062951803E+03  0.12509285811E+03 0.  0.
          5    1    3    3  502    0 -0.34834518982E+02 -0.74442589829E+00  0.23428124754E+03  0.23689485692E+03  0.41800000000E+01 0. -1.
         -5    1    3    3    0  502 -0.36590937129E+02 -0.10432599105E+03  0.14669064117E+03  0.18373466111E+03  0.41800000000E+01 0. -1.
        -11    1    1    2    0    0  0.63325805267E+02  0.20213183329E+02  0.39550806623E+03  0.40105530897E+03  0.00000000000E+00 0. -1.
         11    1    1    2    0    0  0.80996508435E+01  0.84857233615E+02  0.26393391699E+03  0.27735801228E+03  0.00000000000E+00 0.  1.
</event>
<event>
 7    1  0.2661133E-009  0.9369703E+02  0.7561462E-02  0.1294138E+00
         -1   -1    0    0    0  501 -0.00000000000E+00  0.00000000000E+00  0.21155328282E+03  0.21155328282E+03  0.00000000000E+00 0.  1.
          1   -1    0    0  501    0  0.00000000000E+00 -0.00000000000E+00 -0.72820511225E+02  0.72820511225E+02  0.00000000000E+00 0. -1.
         25    2    1    2    0    0 -0.48716752160E+02 -0.34362651631E+02  0.81701395487E+02  0.16086376659E+03  0.12509164484E+03 0.  0.
          5    1    3    3  502    0  0.46356259551E+01  0.22784482976E+02  0.79073452356E+02  0.82526995341E+02  0.41800000000E+01 0. -1.
         -5    1    3    3    0  502 -0.53352378115E+02 -0.57147134607E+02  0.26279431308E+01  0.78336771247E+02  0.41800000000E+01 0. -1.
        -11    1    1    2    0    0  0.14721833403E+02  0.46967591372E+02 -0.72075213057E+01  0.49745707165E+02  0.00000000000E+00 0. -1.
         11    1    1    2    0    0  0.33994918757E+02 -0.12604939741E+02  0.64238897409E+02  0.73764320287E+02  0.00000000000E+00 0.  1.
</event>
<event>
 7    1  0.2661133E-009  0.1844613E+03  0.7561462E-02  0.1163554E+00
         -1   -1    0    0    0  501 -0.00000000000E+00  0.00000000000E+00  0.13051832295E+03  0.13051832295E+03  0.00000000000E+00 0.  1.
          1   -1    0    0  501    0  0.00000000000E+00 -0.00000000000E+00 -0.39104377124E+03  0.39104377124E+03  0.00000000000E+00 0. -1.
         25    2    1    2    0    0  0.54977956277E+02  0.13573871082E+03 -0.28447429404E+03  0.34354218042E+03  0.12509209593E+03 0.  0.
          5    1    3    3  502    0  0.43634638378E+02 -0.11138680805E+02 -0.67186116625E+02  0.80990731220E+02  0.41800000000E+01 0.  1.
         -5    1    3    3    0  502  0.11343317899E+02  0.14687739162E+03 -0.21728817741E+03  0.26255144920E+03  0.41800000000E+01 0.  1.
        -11    1    1    2    0    0 -0.16386794128E+02 -0.13673858136E+03  0.16474266431E+02  0.13869883961E+03  0.00000000000E+00 0.  1.
         11    1    1    2    0    0 -0.38591162149E+02  0.99987054608E+00  0.74745793245E+01  0.39321074162E+02  0.00000000000E+00 0. -1.
</event>
<event>
 7    1  0.2661133E-009  0.7381444E+02  0.7561462E-02  0.1347582E+00
          3   -1    0    0  501    0  0.00000000000E+00  0.00000000000E+00  0.98042454133E+02  0.98042454133E+02  0.00000000000E+00 0. -1.
         -3   -1    0    0    0  501 -0.00000000000E+00 -0.00000000000E+00 -0.11669707109E+03  0.11669707109E+03  0.00000000000E+00 0.  1.
         25    2    1    2    0    0 -0.15366615067E+02 -0.22984327899E+02 -0.32469157185E+02  0.13215923849E+03  0.12508959175E+03 0.  0.
          5    1    3    3  502    0 -0.68144109027E+01 -0.57602473913E+02 -0.62486475714E+02  0.85361075696E+02  0.41800000000E+01 0. -1.
         -5    1    3    3    0  502 -0.85522041639E+01  0.34618146015E+02  0.30017318529E+02  0.46798162797E+02  0.41800000000E+01 0. -1.
        -11    1    1    2    0    0 -0.83297753002E+01  0.28117399657E+02 -0.23841211903E+02  0.37793871263E+02  0.00000000000E+00 0.  1.
         11    1    1    2    0    0  0.23696390367E+02 -0.51330717583E+01  0.37655752129E+02  0.44786415469E+02  0.00000000000E+00 0. -1.
</event>
<event>
 7    1  0.2661133E-009  0.2684490E+03  0.7561462E-02  0.1102171E+00
          2   -1    0    0  501    0  0.00000000000E+00  0.00000000000E+00  0.10199396866E+04  0.10199396866E+04  0.00000000000E+00 0. -1.
         -2   -1    0    0    0  501 -0.00000000000E+00 -0.00000000000E+00 -0.77274224991E+02  0.77274224991E+02  0.00000000000E+00 0.  1.
         25    2    1    2    0    0 -0.23195229325E+03 -0.10983956018E+03  0.54542168549E+03  0.61563026524E+03  0.12509681513E+03 0.  0.
          5    1    3    3  502    0 -0.84628653339E+02 -0.69694537277E+01  0.80117917055E+02  0.11682009795E+03  0.41800000000E+01 0.  1.
         -5    1    3    3    0  502 -0.14732363991E+03 -0.10287010646E+03  0.46530376844E+03  0.49881016730E+03  0.41800000000E+01 0.  1.
        -11    1    1    2    0    0  0.10351496375E+03  0.56895757988E+00  0.14469537924E+03  0.17791128184E+03  0.00000000000E+00 0. -1.
         11    1    1    2    0    0  0.12843732950E+03  0.10927060260E+03  0.25254839691E+03  0.30367236454E+03  0.00000000000E+00 0.  1.
</event>
<event>
 7    1  0.2661133E-009  0.9878825E+02  0.7561462E-02  0.1282865E+00
         -3   -1    0    0    0  501 -0.00000000000E+00  0.00000000000E+00  0.65988664873E+03  0.65988664873E+03  0.00000000000E+00 0.  1.
          3   -1    0    0  501    0  0.00000000000E+00 -0.00000000000E+00 -0.24108305684E+02  0.24108305684E+02  0.00000000000E+00 0. -1.
         25    2    1    2    0    0  0.44716803093E+02 -0.45136029012E+02  0.36466818507E+03  0.39072940655E+03  0.12509888228E+03 0.  0.
          5    1    3    3  502    0  0.59027265881E+02 -0.41799673203E+01  0.32929643679E+03  0.33459722941E+03  0.41800000000E+01 0. -1.
         -5    1    3    3    0  502 -0.14310462788E+02 -0.40956061691E+02  0.35371748281E+02  0.56132177144E+02  0.41800000000E+01 0. -1.
        -11    1    1    2    0    0 -0.72671283102E+01  0.55370940641E+02  0.75895084019E+02  0.94227469453E+02  0.00000000000E+00 0.  1.
         11    1    1    2    0    0 -0.37449674783E+02 -0.10234911629E+02  0.19521507396E+03  0.19903807841E+03  0.00000000000E+00 0. -1.
</event>
<event>
 7    1  0.2661133E-009  0.1046509E+03  0.7561462E-02  0.1270809E+00
          2   -1    0    0  501    0  0.00000000000E+00  0.00000000000E+00  0.41910770769E+03  0.41910770769E+03  0.00000000000E+00 0. -1.
         -2   -1    0    0    0  501 -0.00000000000E+00 -0.00000000000E+00 -0.52330429805E+02  0.52330429805E+02  0.00000000000E+00 0.  1.
         25    2    1    2    0    0  0.84685110151E+02  0.47665740303E+02  0.17207792443E+03  0.23388350533E+03  0.12508833402E+03 0.  0.
          5    1    3    3  502    0  0.20965433738E+02  0.15998606464E+02  0.15923501527E+03  0.16145825252E+03  0.41800000000E+01 0. -1.
         -5    1    3    3    0  502  0.63719676413E+02  0.31667133839E+02  0.12842909163E+02  0.72425252803E+02  0.41800000000E+01 0. -1.
        -11    1    1    2    0    0 -0.56543411582E+02 -0.58321209517E+02  0.19059646423E+03  0.20718477997E+03  0.00000000000E+00 0.  1.
         11    1    1    2    0    0 -0.28141698569E+02  0.10655469215E+02  0.41028892188E+01  0.30369852197E+02  0.00000000000E+00 0. -1.
</event>
<event>
 7    1  0.2661133E-009  0.1194123E+03  0.7561462E-02  0.1244070E+00
         -1   -1    0    0    0  501 -0.00000000000E+00  0.00000000000E+00  0.28825982948E+02  0.28825982948E+02  0.00000000000E+00 0.  1.
          1   -1    0    0  501    0  0.00000000000E+00 -0.00000000000E+00 -0.72302605070E+03  0.72302605070E+03  0.00000000000E+00 0. -1.
         25    2    1    2    0    0  0.42393100246E+01 -0.92673191824E+02 -0.30868876941E+03  0.34574767295E+03  0.12508558972E+03 0.  0.
          5    1    3    3  502    0  0.32743807601E+02 -0.97544869680E+02 -0.13591817417E+03  0.17052384293E+03  0.41800000000E+01 0. -1.
         -5    1    3    3    0  502 -0.28504497576E+02  0.48716778561E+01 -0.17277059525E+03  0.17522383003E+03  0.41800000000E+01 0. -1.
        -11    1    1    2    0    0 -0.25698070385E+02  0.73456321269E+02 -0.35768694672E+03  0.36605487814E+03  0.00000000000E+00 0. -1.
         11    1    1    2    0    0  0.21458760361E+02  0.19216870554E+02 -0.27824351616E+02  0.40049482555E+02  0.00000000000E+00 0.  1.
</event>
<event>
 7    1  0.2661133E-009  0.2381221E+03  0.7561462E-02  0.1121050E+00
          2   -1    0    0  501    0  0.00000000000E+00  0.00000000000E+00  0.48139794592E+03  0.48139794592E+03  0.00000000000E+00 0. -1.
         -2   -1    0    0    0  501 -0.00000000000E+00 -0.00000000000E+00 -0.20992568422E+03  0.20992568422E+03  0.00000000000E+00 0.  1.
         25    2    1    2    0    0  0.22380957870E+03  0.29721530505E+02 -0.74277976652E+02  0.26858876524E+03  0.12509440477E+03 0.  0.
          5    1    3    3  502    0  0.12619931820E+02 -0.22482415821E+02 -0.40797013262E+02  0.48441618381E+02  0.41800000000E+01 0. -1.
         -5    1    3    3    0  502  0.21118964688E+03  0.52203946325E+02 -0.33480963390E+02  0.22014714686E+03  0.41800000000E+01 0. -1.
        -11    1    1    2    0    0 -0.21020024814E+02  0.13782503154E+02  0.79831450529E+01  0.26372892168E+02  0.00000000000E+00 0.  1.
         11    1    1    2    0    0 -0.20278955389E+03 -0.43504033658E+02  0.33776709330E+03  0.39636197273E+03  0.00000000000E+00 0. -1.
</event>
<event>
 7    1  0.2661133E-009  0.1424977E+03  0.7561462E-02  0.1210007E+00
         -2   -1    0    0    0  501 -0.00000000000E+00  0.00000000000E+00  0.20180325315E+02  0.20180325315E+02  0.00000000000E+00 0.  1.
          2   -1    0    0  501    0  0.00000000000E+00 -0.00000000000E+00 -0.14177945436E+04  0.14177945436E+04  0.00000000000E+00 0. -1.
         25    2    1    2    0    0  0.10945689413E+03 -0.69167037365E+02 -0.74897842174E+03  0.77031201163E+03  0.12508808214E+03 0.  0.
          5    1    3    3  502    0  0.47703589072E+02  0.10141823551E+02 -0.49065243582E+03  0.49308799840E+03  0.41800000000E+01 0.  1.
         -5    1    3    3    0  502  0.61753305055E+02 -0.79308860916E+02 -0.25832598592E+03  0.27722401322E+03  0.41800000000E+01 0.  1.
        -11    1    1    2    0    0 -0.41313083218E+01  0.17776687503E+02 -0.16022401830E+02  0.24285709531E+02  0.00000000000E+00 0.  1.
         11    1    1    2    0    0 -0.10532558581E+03  0.51390349862E+02 -0.63261339474E+03  0.64337714778E+03  0.00000000000E+00 0. -1.
</event>
<event>
 7    1  0.2661133E-009  0.1449949E+03  0.7561462E-02  0.1206762E+00
          1   -1    0    0  501    0  0.00000000000E+00  0.00000000000E+00  0.10531025456E+03  0.10531025456E+03  0.00000000000E+00 0. -1.
         -1   -1    0    0    0  501 -0.00000000000E+00 -0.00000000000E+00 -0.28259819479E+03  0.28259819479E+03  0.00000000000E+00 0.  1.
         25    2    1    2    0    0 -0.36383667692E+02 -0.11602457196E+03 -0.15694019201E+03  0.23465542454E+03  0.12508985500E+03 0.  0.
          5    1    3    3  502    0 -0.42867633719E+02  0.22466558278E+01 -0.72669279515E+01  0.43737422477E+02  0.41800000000E+01 0.  1.
         -5    1    3    3    0  502  0.64839660267E+01 -0.11827122779E+03 -0.14967326406E+03  0.19091800206E+03  0.41800000000E+01 0.  1.
        -11    1    1    2    0    0  0.35265802140E+02  0.44385382399E+02  0.31462252472E+02  0.64835270509E+02  0.00000000000E+00 0. -1.
         11    1    1    2    0    0  0.11178655518E+01  0.71639189559E+02 -0.51810000692E+02  0.88417754301E+02  0.00000000000E+00 0.  1.
</event>
<event>
 7    1  0.3034517E-009  0.1068824E+03  0.7561462E-02  0.1266455E+00
          1   -1    0    0  501    0  0.00000000000E+00  0.00000000000E+00  0.30782721318E+03  0.30782721318E+03  0.00000000000E+00 0. -1.
         -1   -1    0    0    0  501 -0.00000000000E+00 -0.00000000000E+00 -0.67508541403E+02  0.67508541403E+02  0.00000000000E+00 0.  1.
         25    2    1    2    0    0 -0.54040297942E+02  0.69733908207E+02  0.17542966477E+03  0.23282169767E+03  0.12508878395E+03 0.  0.
          5    1    3    3  502    0  0.88460714648E-01  0.31088114850E+02 -0.12240025011E+02  0.33671491243E+02  0.41800000000E+01 0.  1.
         -5    1    3    3    0  502 -0.54128758657E+02  0.38645793357E+02  0.18766968978E+03  0.19915020643E+03  0.41800000000E+01 0.  1.
        -11    1    1    2    0    0  0.60504788487E+02 -0.81991433891E+02  0.31969057967E+02  0.10679627956E+03  0.00000000000E+00 0.  1.
         11    1    1    2    0    0 -0.64644905450E+01  0.12257525684E+02  0.32919949039E+02  0.35717777348E+02  0.00000000000E+00 0. -1.
</event>
<event>
 7    1  0.2661133E-009  0.1108182E+03  0.7561462E-02  0.1259062E+00
          1   -1    0    0  501    0  0.00000000000E+00  0.00000000000E+00  0.18781019992E+03  0.18781019992E+03  0.00000000000E+00 0. -1.
         -1   -1    0    0    0  501 -0.00000000000E+00 -0.00000000000E+00 -0.72641468584E+02  0.72641468584E+02  0.00000000000E+00 0.  1.
         25    2    1    2    0    0 -0.44900015162E+02  0.43777532563E+01  0.57576980552E+02  0.14489738469E+03  0.12507984376E+03 0.  0.
          5    1    3    3  502    0 -0.49621350422E+01 -0.51982116800E+02 -0.36299623775E+01  0.52511068148E+02  0.41800000000E+01 0.  1.
         -5    1    3    3    0  502 -0.39937880119E+02  0.56359870057E+02  0.61206942930E+02  0.92386316541E+02  0.41800000000E+01 0.  1.
        -11    1    1    2    0    0  0.20407462735E+02 -0.46804400736E+02  0.26437390766E+02  0.57498279053E+02  0.00000000000E+00 0. -1.
         11    1    1    2    0    0  0.24492552426E+02  0.42426647480E+02  0.31154360016E+02  0.58056004760E+02  0.00000000000E+00 0.  1.
</event>
<event>
 7    1  0.2661133E-009  0.1256283E+03  0.7561462E-02  0.1234091E+00
         -2   -1    0    0    0  501 -0.00000000000E+00  0.00000000000E+00  0.10761810197E+03  0.10761810197E+03  0.00000000000E+00 0.  1.
          2   -1    0    0  501    0  0.00000000000E+00 -0.00000000000E+00 -0.17587027169E+03  0.17587027169E+03  0.00000000000E+00 0. -1.
         25    2    1    2    0    0 -0.50183317806E+02  0.43304528243E+02  0.16918461254E+02  0.14257672203E+03  0.12509292458E+03 0.  0.
          5    1    3    3  502    0  0.11822818446E+02  0.71039076923E+02  0.18616583545E+02  0.74500866230E+02  0.41800000000E+01 0. -1.
         -5    1    3    3    0  502 -0.62006136251E+02 -0.27734548681E+02 -0.16981222911E+01  0.68075855798E+02  0.41800000000E+01 0. -1.
        -11    1    1    2    0    0 -0.10292317351E+02 -0.49234574762E+02 -0.48862435224E+02  0.70124979319E+02  0.00000000000E+00 0.  1.
         11    1    1    2    0    0  0.60475635157E+02  0.59300465198E+01 -0.36308195750E+02  0.70786672318E+02  0.00000000000E+00 0. -1.
</event>
<event>
 7    1  0.2661133E-009  0.1699336E+03  0.7561462E-02  0.1177917E+00
         -2   -1    0    0    0  501 -0.00000000000E+00  0.00000000000E+00  0.74297283133E+02  0.74297283133E+02  0.00000000000E+00 0. -1.
          2   -1    0    0  501    0  0.00000000000E+00 -0.00000000000E+00 -0.59105896978E+03  0.59105896978E+03  0.00000000000E+00 0.  1.
         25    2    1    2    0    0 -0.10632650990E+03  0.93249740174E+02 -0.95075553751E+02  0.21139297702E+03  0.12508712589E+03 0.  0.
          5    1    3    3  502    0  0.20142347312E+02  0.37120491138E+01  0.10941381772E+02  0.23594060671E+02  0.41800000000E+01 0.  1.
         -5    1    3    3    0  502 -0.12646885721E+03  0.89537691060E+02 -0.10601693552E+03  0.18779891635E+03  0.41800000000E+01 0.  1.
        -11    1    1    2    0    0  0.11094055776E+03 -0.52138268647E+02 -0.26619877090E+03  0.29306653177E+03  0.00000000000E+00 0. -1.
         11    1    1    2    0    0 -0.46140478642E+01 -0.41111471528E+02 -0.15548736199E+03  0.16089674412E+03  0.00000000000E+00 0.  1.
</event>
<event>
 7    1  0.2661133E-009  0.1960348E+03  0.7561462E-02  0.1153128E+00
         -1   -1    0    0    0  501 -0.00000000000E+00  0.00000000000E+00  0.27998852258E+02  0.27998852258E+02  0.00000000000E+00 0.  1.
          1   -1    0    0  501    0  0.00000000000E+00 -0.00000000000E+00 -0.14012866495E+04  0.14012866495E+04  0.00000000000E+00 0. -1.
         25    2    1    2    0    0  0.16297865192E+03 -0.21368682629E+02 -0.75192806296E+03  0.77978323042E+03  0.12508961985E+03 0.  0.
          5    1    3    3  502    0 -0.10936442796E+02  0.21075211821E+02 -0.14498253317E+03  0.14697339099E+03  0.41800000000E+01 0. -1.
         -5    1    3    3    0  502  0.17391509472E+03 -0.42443894449E+02 -0.60694552979E+03  0.63280983943E+03  0.41800000000E+01 0. -1.
        -11    1    1    2    0    0 -0.11827065607E+03  0.57408108969E+02 -0.44673467235E+03  0.46567747051E+03  0.00000000000E+00 0.  1.
         11    1    1    2    0    0 -0.44707995851E+02 -0.36039426340E+02 -0.17462506192E+03  0.18382480082E+03  0.00000000000E+00 0. -1.
</event>
<event>
 7    1  0.2661133E-009  0.1569976E+03  0.7561462E-02  0.1192129E+00
         -1   -1    0    0    0  501 -0.00000000000E+00  0.00000000000E+00  0.99912737168E+02  0.99912737168E+02  0.00000000000E+00 0.  1.
          1   -1    0    0  501    0  0.00000000000E+00 -0.00000000000E+00 -0.27872075262E+03  0.27872075262E+03  0.00000000000E+00 0. -1.
         25    2    1    2    0    0 -0.93119516881E+01  0.12267979826E+03 -0.13076331460E+03  0.21882594571E+03  0.12509478295E+03 0.  0.
          5    1    3    3  502    0  0.42473475089E+02  0.11530928357E+03 -0.89769994836E+02  0.15223781179E+03  0.41800000000E+01 0.  1.
         -5    1    3    3    0  502 -0.51785426777E+02  0.73705146900E+01 -0.40993319768E+02  0.66588133919E+02  0.41800000000E+01 0.  1.
        -11    1    1    2    0    0 -0.22755530390E+02 -0.89802469251E+02 -0.62392450952E+02  0.11169205694E+03  0.00000000000E+00 0. -1.
         11    1    1    2    0    0  0.32067482078E+02 -0.32877329013E+02  0.14347750107E+02  0.48115487143E+02  0.00000000000E+00 0.  1.
</event>
<event>
 7    1  0.2661133E-009  0.8008864E+02  0.7561462E-02  0.1328800E+00
          1   -1    0    0  501    0  0.00000000000E+00  0.00000000000E+00  0.22594923503E+02  0.22594923503E+02  0.00000000000E+00 0. -1.
         -1   -1    0    0    0  501 -0.00000000000E+00 -0.00000000000E+00 -0.59466628872E+03  0.59466628872E+03  0.00000000000E+00 0.  1.
         25    2    1    2    0    0 -0.66872084861E+01  0.38356334569E+02 -0.36490453119E+03  0.38771006732E+03  0.12509137563E+03 0.  0.
          5    1    3    3  502    0  0.27349568841E+02  0.30651500889E+02 -0.30179462543E+02  0.51144753219E+02  0.41800000000E+01 0.  1.
         -5    1    3    3    0  502 -0.34036777327E+02  0.77048336801E+01 -0.33472506865E+03  0.33656531410E+03  0.41800000000E+01 0.  1.
        -11    1    1    2    0    0 -0.33530670403E+02 -0.23130744809E+02 -0.40561687624E+02  0.57485543539E+02  0.00000000000E+00 0. -1.
         11    1    1    2    0    0  0.40217878889E+02 -0.15225589760E+02 -0.16660514640E+03  0.17206560136E+03  0.00000000000E+00 0.  1.
</event>
<event>
 7    1  0.2661133E-009  0.1131560E+03  0.7561462E-02  0.1254835E+00
          4   -1    0    0  501    0  0.00000000000E+00  0.00000000000E+00  0.24083196601E+03  0.24083196601E+03  0.00000000000E+00 0. -1.
         -4   -1    0    0    0  501 -0.00000000000E+00 -0.00000000000E+00 -0.61255117832E+02  0.61255117832E+02  0.00000000000E+00 0.  1.
         25    2    1    2    0    0  0.31012339409E+01 -0.45654107433E+02  0.63120918191E+02  0.14739427198E+03  0.12508759300E+03 0.  0.
          5    1    3    3  502    0 -0.61079317528E+01  0.39653414255E+02 -0.75270007105E+00  0.40345248168E+02  0.41800000000E+01 0.  1.
         -5    1    3    3    0  502  0.92091656937E+01 -0.85307521688E+02  0.63873618262E+02  0.10704902381E+03  0.41800000000E+01 0.  1.
        -11    1    1    2    0    0 -0.45784637398E+02  0.29312543842E+02  0.77337211760E+02  0.94533076598E+02  0.00000000000E+00 0.  1.
         11    1    1    2    0    0  0.42683403457E+02  0.16341563591E+02  0.39118718229E+02  0.60159735265E+02  0.00000000000E+00 0. -1.
</event>
<event>
 7    1  0.2661133E-009  0.1125874E+03  0.7561462E-02  0.1255852E+00
         -1   -1    0    0    0  501 -0.00000000000E+00  0.00000000000E+00  0.10380104746E+03  0.10380104746E+03  0.00000000000E+00 0.  1.
          1   -1    0    0  501    0  0.00000000000E+00 -0.00000000000E+00 -0.23730179993E+03  0.23730179993E+03  0.00000000000E+00 0. -1.
         25    2    1    2    0    0  0.10533172738E+03  0.77985422971E+01 -0.11711117919E+03  0.20128803894E+03  0.12508499620E+03 0.  0.
          5    1    3    3  502    0  0.15861592585E+02  0.14884260417E+02 -0.10882833993E+03  0.11105949441E+03  0.41800000000E+01 0.  1.
         -5    1    3    3    0  502  0.89470134795E+02 -0.70857181203E+01 -0.82828392672E+01  0.90228544529E+02  0.41800000000E+01 0.  1.
        -11    1    1    2    0    0 -0.43551281401E+02 -0.23425269130E+02 -0.47792045407E+02  0.68771628959E+02  0.00000000000E+00 0. -1.
         11    1    1    2    0    0 -0.61780445979E+02  0.15626726833E+02  0.31402472132E+02  0.71043179496E+02  0.00000000000E+00 0.  1.
</event>
<event>
 7    1  0.2661133E-009  0.1130018E+03  0.7561462E-02  0.1255110E+00
         -3   -1    0    0    0  501 -0.00000000000E+00  0.00000000000E+00  0.30283227879E+03  0.30283227879E+03  0.00000000000E+00 0.  1.
          3   -1    0    0  501    0  0.00000000000E+00 -0.00000000000E+00 -0.58913816873E+02  0.58913816873E+02  0.00000000000E+00 0. -1.
         25    2    1    2    0    0 -0.57785883490E+02  0.50495157910E+02  0.93346283232E+02  0.17392808871E+03  0.12509389332E+03 0.  0.
          5    1    3    3  502    0 -0.72654902580E+02 -0.16326547692E+02  0.67633597863E+02  0.10068300248E+03  0.41800000000E+01 0.  1.
         -5    1    3    3    0  502  0.14869019090E+02  0.66821705602E+02  0.25712685369E+02  0.73245086232E+02  0.41800000000E+01 0.  1.
        -11    1    1    2    0    0  0.37280915621E+02 -0.11903521587E+02  0.96947195559E+01  0.40318086301E+02  0.00000000000E+00 0. -1.
         11    1    1    2    0    0  0.20504967869E+02 -0.38591636324E+02  0.14087745913E+03  0.14749992065E+03  0.00000000000E+00 0.  1.
</event>
<event>
 7    1  0.2661133E-009  0.1084975E+03  0.7561462E-02  0.1263378E+00
          1   -1    0    0  501    0  0.00000000000E+00  0.00000000000E+00  0.12932535314E+03  0.12932535314E+03  0.00000000000E+00 0. -1.
         -1   -1    0    0    0  501 -0.00000000000E+00 -0.00000000000E+00 -0.15425446913E+03  0.15425446913E+03  0.00000000000E+00 0.  1.
         25    2    1    2    0    0  0.92563875617E+01 -0.74553640450E+01 -0.10373188995E+03  0.16294028667E+03  0.12509184171E+03 0.  0.
          5    1    3    3  502    0 -0.57798187189E+02 -0.77681853657E+01 -0.47780322114E+02  0.75507660058E+02  0.41800000000E+01 0. -1.
         -5    1    3    3    0  502  0.67054574750E+02  0.31282132068E+00 -0.55951567838E+02  0.87432626609E+02  0.41800000000E+01 0. -1.
        -11    1    1    2    0    0  0.24991393394E+02 -0.31018326840E+02  0.34891639901E+02  0.52954063854E+02  0.00000000000E+00 0.  1.
         11    1    1    2    0    0 -0.34247780956E+02  0.38473690885E+02  0.43911134067E+02  0.67685471748E+02  0.00000000000E+00 0. -1.
</event>
<event>
 7    1  0.3255670E-009  0.9235390E+02  0.7561462E-02  0.1297249E+00
         -1   -1    0    0    0  501 -0.00000000000E+00  0.00000000000E+00  0.24559436637E+03  0.24559436637E+03  0.00000000000E+00 0.  1.
          1   -1    0    0  501    0  0.00000000000E+00 -0.00000000000E+00 -0.57042785551E+02  0.57042785551E+02  0.00000000000E+00 0. -1.
         25    2    1    2    0    0 -0.89630013227E+01 -0.21415561051E+02  0.52365387236E+02  0.13758143298E+03  0.12509018856E+03 0.  0.
          5    1    3    3  502    0  0.51695063821E+02 -0.16601196748E+02  0.53830838530E+02  0.76571606577E+02  0.41800000000E+01 0. -1.
         -5    1    3    3    0  502 -0.60658065144E+02 -0.48143643022E+01 -0.14654512940E+01  0.61009826406E+02  0.41800000000E+01 0. -1.
        -11    1    1    2    0    0 -0.50756622367E+01  0.43116174826E+02  0.13189493121E+03  0.13885618372E+03  0.00000000000E+00 0.  1.
         11    1    1    2    0    0  0.14038663559E+02 -0.21700613775E+02  0.42912623711E+01  0.26199535215E+02  0.00000000000E+00 0. -1.
</event>
<event>
 7    1  0.2661133E-009  0.1033976E+03  0.7561462E-02  0.1273309E+00
          2   -1    0    0  501    0  0.00000000000E+00  0.00000000000E+00  0.33486960864E+03  0.33486960864E+03  0.00000000000E+00 0. -1.
         -2   -1    0    0    0  501 -0.00000000000E+00 -0.00000000000E+00 -0.41278403386E+02  0.41278403386E+02  0.00000000000E+00 0.  1.
         25    2    1    2    0    0  0.42382209403E+02 -0.28787768907E+01  0.14256083545E+03  0.19435773600E+03  0.12508716444E+03 0.  0.
          5    1    3    3  502    0  0.39438491094E+02 -0.56968788548E+02  0.11269958586E+03  0.13236127267E+03  0.41800000000E+01 0. -1.
         -5    1    3    3    0  502  0.29437183094E+01  0.54090011658E+02  0.29861249585E+02  0.61996463329E+02  0.41800000000E+01 0. -1.
        -11    1    1    2    0    0  0.82927458341E+01  0.26043174004E+02  0.82909961505E+01  0.28561462898E+02  0.00000000000E+00 0.  1.
         11    1    1    2    0    0 -0.50674955237E+02 -0.23164397114E+02  0.14273937365E+03  0.15322881313E+03  0.00000000000E+00 0. -1.
</event>
<event>
 7    1  0.2661133E-009  0.1097323E+03  0.7561462E-02  0.1261066E+00
         -1   -1    0    0    0  501 -0.00000000000E+00  0.00000000000E+00  0.35086221675E+02  0.35086221675E+02  0.00000000000E+00 0.  1.
          1   -1    0    0  501    0  0.00000000000E+00 -0.00000000000E+00 -0.38620359438E+03  0.38620359438E+03  0.00000000000E+00 0. -1.
         25    2    1    2    0    0  0.23129795937E+02 -0.36330527024E+02 -0.20812036349E+03  0.24661025947E+03  0.12509052611E+03 0.  0.
          5    1    3    3  502    0 -0.63647122372E+01  0.38517135792E+02 -0.24980340735E+02  0.46535675935E+02  0.41800000000E+01 0.  1.
         -5    1    3    3    0  502  0.29494508174E+02 -0.74847662817E+02 -0.18314002276E+03  0.20007458353E+03  0.41800000000E+01 0.  1.
        -11    1    1    2    0    0 -0.89545629897E+01  0.66083284299E+02 -0.85818829211E+02  0.10868328349E+03  0.00000000000E+00 0.  1.
         11    1    1    2    0    0 -0.14175232947E+02 -0.29752757275E+02 -0.57178180000E+02  0.65996273097E+02  0.00000000000E+00 0. -1.
</event>
<event>
 7    1  0.2661133E-009  0.1066931E+03  0.7561462E-02  0.1266819E+00
          2   -1    0    0  501    0  0.00000000000E+00  0.00000000000E+00  0.15261255551E+03  0.15261255551E+03  0.00000000000E+00 0. -1.
         -2   -1    0    0    0  501 -0.00000000000E+00 -0.00000000000E+00 -0.13276811665E+03  0.13276811665E+03  0.00000000000E+00 0.  1.
         25    2    1    2    0    0  0.70898402551E+02 -0.53373594385E+02 -0.15774033859E+02  0.15417689316E+03  0.12508545150E+03 0.  0.
          5    1    3    3  502    0  0.65575500952E+02 -0.59258347079E+02  0.40415710694E+02  0.97275896781E+02  0.41800000000E+01 0.  1.
         -5    1    3    3    0  502  0.53229015990E+01  0.58847526943E+01 -0.56189744553E+02  0.56900996376E+02  0.41800000000E+01 0.  1.
        -11    1    1    2    0    0 -0.16301803930E+02  0.58848473380E+02 -0.73579095977E+01  0.61506344910E+02  0.00000000000E+00 0.  1.
         11    1    1    2    0    0 -0.54596598621E+02 -0.54748789951E+01  0.42976382322E+02  0.69697434088E+02  0.00000000000E+00 0. -1.
</event>
<event>
 7    1  0.2661133E-009  0.1188711E+03  0.7561462E-02  0.1244971E+00
         -2   -1    0    0    0  501 -0.00000000000E+00  0.00000000000E+00  0.12893937136E+02  0.12893937136E+02  0.00000000000E+00 0.  1.
          2   -1    0    0  501    0  0.00000000000E+00 -0.00000000000E+00 -0.12869659856E+04  0.12869659856E+04  0.00000000000E+00 0. -1.
         25    2    1    2    0    0  0.60577701125E+02 -0.57777578822E+02 -0.94459172287E+03  0.95650827654E+03  0.12508658474E+03 0.  0.
          5    1    3    3  502    0 -0.24471915788E+02  0.22268301457E+02 -0.23567017747E+03  0.23801818598E+03  0.41800000000E+01 0. -1.
         -5    1    3    3    0  502  0.85049616913E+02 -0.80045880279E+02 -0.70892154541E+03  0.71849009056E+03  0.41800000000E+01 0. -1.
        -11    1    1    2    0    0 -0.32343371512E+02  0.47522577824E+02 -0.27682427843E+03  0.28272985377E+03  0.00000000000E+00 0. -1.
         11    1    1    2    0    0 -0.28234329613E+02  0.10255000998E+02 -0.52656047148E+02  0.60621792414E+02  0.00000000000E+00 0.  1.
</event>
<event>
 7    1  0.2661133E-009  0.1157075E+03  0.7561462E-02  0.1250351E+00
          1   -1    0    0  501    0  0.00000000000E+00  0.00000000000E+00  0.33411997237E+03  0.33411997237E+03  0.00000000000E+00 0. -1.
         -1   -1    0    0    0  501 -0.00000000000E+00 -0.00000000000E+00 -0.47385764830E+02  0.47385764830E+02  0.00000000000E+00 0.  1.
         25    2    1    2    0    0  0.57747542945E+01 -0.48006754504E+02  0.21876279038E+03  0.25660001031E+03  0.12509360724E+03 0.  0.
          5    1    3    3  502    0 -0.23076313886E+02 -0.81833441909E+02  0.17215647774E+03  0.19205351782E+03  0.41800000000E+01 0. -1.
         -5    1    3    3    0  502  0.28851068180E+02  0.33826687405E+02  0.46606312636E+02  0.64546492495E+02  0.41800000000E+01 0. -1.
        -11    1    1    2    0    0 -0.24659647150E+02 -0.19560276505E+02  0.35964963319E+02  0.47793108301E+02  0.00000000000E+00 0. -1.
         11    1    1    2    0    0  0.18884892856E+02  0.67567031009E+02  0.32006453838E+02  0.77112618583E+02  0.00000000000E+00 0.  1.
</event>
<event>
 7    1  0.2661133E-009  0.1231795E+03  0.7561462E-02  0.1237942E+00
          2   -1    0    0  501    0  0.00000000000E+00  0.00000000000E+00  0.49225224277E+02  0.49225224277E+02  0.00000000000E+00 0. -1.
         -2   -1    0    0    0  501 -0.00000000000E+00 -0.00000000000E+00 -0.38828464529E+03  0.38828464529E+03  0.00000000000E+00 0.  1.
         25    2    1    2    0    0  0.63479502147E+02  0.15556782105E+02 -0.94504698266E+02  0.16986116863E+03  0.12510003179E+03 0.  0.
          5    1    3    3  502    0  0.57146245817E+02  0.65544186961E+02 -0.77388192330E+02  0.11648235303E+03  0.41800000000E+01 0.  1.
         -5    1    3    3    0  502  0.63332563304E+01 -0.49987404855E+02 -0.17116505937E+02  0.53378815605E+02  0.41800000000E+01 0.  1.
        -11    1    1    2    0    0 -0.17205484501E+02 -0.48812342904E+02 -0.11383086117E+03  0.12504454595E+03  0.00000000000E+00 0.  1.
         11    1    1    2    0    0 -0.46274017646E+02  0.33255560799E+02 -0.13072386157E+03  0.14260415498E+03  0.00000000000E+00 0. -1.
</event>
<event>
 7    1  0.2661133E-009  0.2430925E+03  0.7561462E-02  0.1117750E+00
         -2   -1    0    0    0  501 -0.00000000000E+00  0.00000000000E+00  0.24419743852E+03  0.24419743852E+03  0.00000000000E+00 0.  1.
          2   -1    0    0  501    0  0.00000000000E+00 -0.00000000000E+00 -0.50704125284E+03  0.50704125284E+03  0.00000000000E+00 0. -1.
         25    2    1    2    0    0 -0.13756846112E+03  0.19369088381E+03 -0.38393521863E+03  0.46850309114E+03  0.12509058454E+03 0.  0.
          5    1    3    3  502    0 -0.14571118507E+03  0.18288288512E+03 -0.38863776148E+03  0.45357985093E+03  0.41800000000E+01 0.  1.
         -5    1    3    3    0  502  0.81427239454E+01  0.10807998695E+02  0.47025428552E+01  0.14923240209E+02  0.41800000000E+01 0.  1.
        -11    1    1    2    0    0  0.84863037427E+02 -0.10529899361E+03  0.16904656816E+02  0.13629152798E+03  0.00000000000E+00 0. -1.
         11    1    1    2    0    0  0.52705423693E+02 -0.88391890204E+02  0.10418674750E+03  0.14644407224E+03  0.00000000000E+00 0.  1.
</event>
<event>
 7    1  0.2661133E-009  0.9071731E+02  0.7561462E-02  0.1301124E+00
          2   -1    0    0  501    0  0.00000000000E+00  0.00000000000E+00  0.35290772588E+03  0.35290772588E+03  0.00000000000E+00 0. -1.
         -2   -1    0    0    0  501 -0.00000000000E+00 -0.00000000000E+00 -0.41162792552E+02  0.41162792552E+02  0.00000000000E+00 0.  1.
         25    2    1    2    0    0  0.26681615785E+02  0.23334532761E+02  0.11387740318E+03  0.17283392673E+03  0.12508834572E+03 0.  0.
          5    1    3    3  502    0  0.49129348375E+02 -0.35692874033E+02  0.30292687978E+02  0.67991127902E+02  0.41800000000E+01 0.  1.
         -5    1    3    3    0  502 -0.22447732590E+02  0.59027406794E+02  0.83584715198E+02  0.10484279883E+03  0.41800000000E+01 0.  1.
        -11    1    1    2    0    0  0.93986492351E+01  0.56746125698E+01 -0.57700080319E+01  0.12402775010E+02  0.00000000000E+00 0.  1.
         11    1    1    2    0    0 -0.36080265020E+02 -0.29009145331E+02  0.20363753819E+03  0.20883381670E+03  0.00000000000E+00 0. -1.
</event>
<event>
 7    1  0.2661133E-009  0.1540252E+03  0.7561462E-02  0.1195612E+00
         -3   -1    0    0    0  501 -0.00000000000E+00  0.00000000000E+00  0.36546754361E+03  0.36546754361E+03  0.00000000000E+00 0.  1.
          3   -1    0    0  501    0  0.00000000000E+00 -0.00000000000E+00 -0.86122354508E+02  0.86122354508E+02  0.00000000000E+00 0. -1.
         25    2    1    2    0    0  0.97429797732E+02  0.86386175979E+02  0.21649388843E+03  0.28190760627E+03  0.12508860003E+03 0.  0.
          5    1    3    3  502    0  0.13001402356E+01  0.46528847523E+02  0.15288948368E+03  0.15987273262E+03  0.41800000000E+01 0. -1.
         -5    1    3    3    0  502  0.96129657497E+02  0.39857328456E+02  0.63604404752E+02  0.12203487365E+03  0.41800000000E+01 0. -1.
        -11    1    1    2    0    0 -0.43134606331E+02  0.12018391424E+02  0.23741395863E+02  0.50682244162E+02  0.00000000000E+00 0.  1.
         11    1    1    2    0    0 -0.54295191402E+02 -0.98404567403E+02  0.39109904806E+02  0.11900004769E+03  0.00000000000E+00 0. -1.
</event>
<event>
 7    1  0.2661133E-009  0.1271947E+03  0.7561462E-02  0.1231679E+00
         -2   -1    0    0    0  501 -0.00000000000E+00  0.00000000000E+00  0.63717400981E+03  0.63717400981E+03  0.00000000000E+00 0.  1.
          2   -1    0    0  501    0  0.00000000000E+00 -0.00000000000E+00 -0.27183569857E+02  0.27183569857E+02  0.00000000000E+00 0. -1.
         25    2    1    2    0    0  0.34684113029E+01 -0.73107220174E+02  0.33614041553E+03  0.36605067891E+03  0.12508407195E+03 0.  0.
          5    1    3    3  502    0 -0.17620240421E+02  0.28720483372E+02  0.13944888888E+03  0.14352283459E+03  0.41800000000E+01 0.  1.
         -5    1    3    3    0  502  0.21088651724E+02 -0.10182770355E+03  0.19669152665E+03  0.22252784432E+03  0.41800000000E+01 0.  1.
        -11    1    1    2    0    0  0.61372050398E+01 -0.20943328280E+02  0.32969611698E+02  0.39538381108E+02  0.00000000000E+00 0. -1.
         11    1    1    2    0    0 -0.96056163426E+01  0.94050548454E+02  0.24088041272E+03  0.25876851965E+03  0.00000000000E+00 0.  1.
</event>
<event>
 7    1  0.2661133E-009  0.2520028E+03  0.7561462E-02  0.1112046E+00
          2   -1    0    0  501    0  0.00000000000E+00  0.00000000000E+00  0.12512244453E+04  0.12512244453E+04  0.00000000000E+00 0. -1.
         -2   -1    0    0    0  501 -0.00000000000E+00 -0.00000000000E+00 -0.58141350110E+02  0.58141350110E+02  0.00000000000E+00 0.  1.
         25    2    1    2    0    0 -0.16691044689E+03 -0.17303053968E+03  0.75081681451E+03  0.79823082943E+03  0.12509157910E+03 0.  0.
          5    1    3    3  502    0 -0.14349419251E+02  0.63385476316E+01  0.18010261963E+03  0.18083282063E+03  0.41800000000E+01 0. -1.
         -5    1    3    3    0  502 -0.15256102764E+03 -0.17936908731E+03  0.57071419488E+03  0.61739800880E+03  0.41800000000E+01 0. -1.
        -11    1    1    2    0    0  0.94770685061E+02  0.14830676321E+03  0.26453611188E+03  0.31773531949E+03  0.00000000000E+00 0.  1.
         11    1    1    2    0    0  0.72139761834E+02  0.24723776467E+02  0.17773016877E+03  0.19339964646E+03  0.00000000000E+00 0. -1.
</event>
<event>
 7    1  0.2661133E-009  0.6445048E+02  0.7561462E-02  0.1380051E+00
          1   -1    0    0  501    0  0.00000000000E+00  0.00000000000E+00  0.14949539296E+03  0.14949539296E+03  0.00000000000E+00 0. -1.
         -1   -1    0    0    0  501 -0.00000000000E+00 -0.00000000000E+00 -0.94992532407E+02  0.94992532407E+02  0.00000000000E+00 0.  1.
         25    2    1    2    0    0 -0.28800978271E+02 -0.74262920889E+01  0.70880552699E+02  0.14683590280E+03  0.12510828684E+03 0.  0.
          5    1    3    3  502    0  0.20740440004E+02  0.20886813358E+02 -0.22525346679E+02  0.37299979448E+02  0.41800000000E+01 0. -1.
         -5    1    3    3    0  502 -0.49541418275E+02 -0.28313105447E+02  0.93405899378E+02  0.10953592335E+03  0.41800000000E+01 0. -1.
        -11    1    1    2    0    0  0.70027911541E+01  0.16820589835E+02 -0.51857074209E+02  0.54964783924E+02  0.00000000000E+00 0.  1.
         11    1    1    2    0    0  0.21798187117E+02 -0.93942977456E+01  0.35479382059E+02  0.42687238644E+02  0.00000000000E+00 0. -1.
</event>
<event>
 7    1  0.2661133E-009  0.6632236E+02  0.7561462E-02  0.1373065E+00
         -2   -1    0    0    0  501 -0.00000000000E+00  0.00000000000E+00  0.37732027136E+02  0.37732027136E+02  0.00000000000E+00 0.  1.
          2   -1    0    0  501    0  0.00000000000E+00 -0.00000000000E+00 -0.33187180766E+03  0.33187180766E+03  0.00000000000E+00 0. -1.
         25    2    1    2    0    0 -0.93675824456E+01  0.55528980239E+01 -0.22396328417E+03  0.25676016804E+03  0.12509054704E+03 0.  0.
          5    1    3    3  502    0 -0.49309028064E+01  0.31064514999E+02 -0.47049674537E+00  0.31733447052E+02  0.41800000000E+01 0.  1.
         -5    1    3    3    0  502 -0.44366796392E+01 -0.25511616975E+02 -0.22349278743E+03  0.22502672099E+03  0.41800000000E+01 0.  1.
        -11    1    1    2    0    0 -0.19661084269E+02 -0.30581414862E+02 -0.64577368260E+02  0.74108148411E+02  0.00000000000E+00 0. -1.
         11    1    1    2    0    0  0.29028666715E+02  0.25028516838E+02 -0.55991280967E+01  0.38735518349E+02  0.00000000000E+00 0.  1.
</event>
<event>
 7    1  0.2911848E-009  0.1087969E+03  0.7561462E-02  0.1262814E+00
         -1   -1    0    0    0  501 -0.00000000000E+00  0.00000000000E+00  0.29811030573E+03  0.29811030573E+03  0.00000000000E+00 0.  1.
          1   -1    0    0  501    0  0.00000000000E+00 -0.00000000000E+00 -0.55862461248E+02  0.55862461248E+02  0.00000000000E+00 0. -1.
         25    2    1    2    0    0 -0.66769482660E+02  0.26390883031E+01  0.10959906905E+03  0.17923279042E+03  0.12508920266E+03 0.  0.
          5    1    3    3  502    0  0.10174200028E+02  0.34116120320E+02  0.85291786669E+02  0.92518026811E+02  0.41800000000E+01 0.  1.
         -5    1    3    3    0  502 -0.76943682688E+02 -0.31477032017E+02  0.24307282386E+02  0.86714763606E+02  0.41800000000E+01 0.  1.
        -11    1    1    2    0    0  0.86832605344E+01 -0.32188901434E+02  0.83137341783E+01  0.34360479697E+02  0.00000000000E+00 0. -1.
         11    1    1    2    0    0  0.58086222126E+02  0.29549813131E+02  0.12433504125E+03  0.14037949686E+03  0.00000000000E+00 0.  1.
</event>
<event>
 7    1  0.2661133E-009  0.1641624E+03  0.7561462E-02  0.1184076E+00
          2   -1    0    0  501    0  0.00000000000E+00  0.00000000000E+00  0.56110692731E+03  0.56110692731E+03  0.00000000000E+00 0. -1.
         -2   -1    0    0    0  501 -0.00000000000E+00 -0.00000000000E+00 -0.78860782664E+02  0.78860782664E+02  0.00000000000E+00 0.  1.
         25    2    1    2    0    0  0.44260622608E+01  0.16097281733E+03  0.37396908463E+03  0.42594881444E+03  0.12509068038E+03 0.  0.
          5    1    3    3  502    0 -0.18886978332E+02  0.78121037630E+02  0.30539819172E+03  0.31582454365E+03  0.41800000000E+01 0.  1.
         -5    1    3    3    0  502  0.23313040593E+02  0.82851779698E+02  0.68570892915E+02  0.11012427078E+03  0.41800000000E+01 0.  1.
        -11    1    1    2    0    0 -0.81955566337E+01 -0.52524765345E+02  0.89202372337E+02  0.10384161667E+03  0.00000000000E+00 0. -1.
         11    1    1    2    0    0  0.37694943729E+01 -0.10844805198E+03  0.19074687678E+02  0.11017727886E+03  0.00000000000E+00 0.  1.
</event>
<event>
 7    1  0.2661133E-009  0.1195238E+03  0.7561462E-02  0.1243885E+00
          2   -1    0    0  501    0  0.00000000000E+00  0.00000000000E+00  0.13740229350E+03  0.13740229350E+03  0.00000000000E+00 0.  1.
         -2   -1    0    0    0  501 -0.00000000000E+00 -0.00000000000E+00 -0.14800548532E+03  0.14800548532E+03  0.00000000000E+00 0. -1.
         25    2    1    2    0    0  0.19782967316E+02 -0.91137752053E+02 -0.18114674029E+02  0.15707731376E+03  0.12509070883E+03 0.  0.
          5    1    3    3  502    0 -0.22600870712E+02 -0.40110264112E+02 -0.62068774685E+02  0.77392750533E+02  0.41800000000E+01 0.  1.
         -5    1    3    3    0  502  0.42383838028E+02 -0.51027487941E+02  0.43954100656E+02  0.79684563223E+02  0.41800000000E+01 0.  1.
        -11    1    1    2    0    0  0.33037228957E+02  0.23538348980E+02 -0.74608311639E+01  0.41245319389E+02  0.00000000000E+00 0.  1.
         11    1    1    2    0    0 -0.52820196273E+02  0.67599403073E+02  0.14972313376E+02  0.87085145680E+02  0.00000000000E+00 0. -1.
</event>
<event>
 7    1  0.2661133E-009  0.8758894E+02  0.7561462E-02  0.1308798E+00
         -2   -1    0    0    0  501 -0.00000000000E+00  0.00000000000E+00  0.12727908365E+03  0.12727908365E+03  0.00000000000E+00 0.  1.
          2   -1    0    0  501    0  0.00000000000E+00 -0.00000000000E+00 -0.16066147787E+03  0.16066147787E+03  0.00000000000E+00 0. -1.
         25    2    1    2    0    0 -0.27026203410E+02 -0.31372844893E+02 -0.10171693773E+03  0.16645786075E+03  0.12508882011E+03 0.  0.
          5    1    3    3  502    0 -0.75047550915E+01 -0.59218966109E+02 -0.11505865210E+03  0.12968875479E+03  0.41800000000E+01 0.  1.
         -5    1    3    3    0  502 -0.19521448319E+02  0.27846121216E+02  0.13341714363E+02  0.36769105964E+02  0.41800000000E+01 0.  1.
        -11    1    1    2    0    0 -0.21509089293E+02 -0.28377204579E+01  0.57054672486E+02  0.61040390170E+02  0.00000000000E+00 0.  1.
         11    1    1    2    0    0  0.48535292703E+02  0.34210565350E+02  0.11279871024E+02  0.60442310592E+02  0.00000000000E+00 0. -1.
</event>
<event>
 7    1  0.2661133E-009  0.1527974E+03  0.7561462E-02  0.1197077E+00
         -2   -1    0    0    0  501 -0.00000000000E+00  0.00000000000E+00  0.59876686989E+02  0.59876686989E+02  0.00000000000E+00 0.  1.
          2   -1    0    0  501    0  0.00000000000E+00 -0.00000000000E+00 -0.51729282378E+03  0.51729282378E+03  0.00000000000E+00 0. -1.
         25    2    1    2    0    0  0.63388959695E+02  0.11251879877E+03 -0.16126554693E+03  0.24152028855E+03  0.12508730097E+03 0.  0.
          5    1    3    3  502    0 -0.16059375703E+02  0.16410452879E+02  0.13368861257E+02  0.26896196069E+02  0.41800000000E+01 0.  1.
         -5    1    3    3    0  502  0.79448335398E+02  0.96108345890E+02 -0.17463440819E+03  0.21462409248E+03  0.41800000000E+01 0.  1.
        -11    1    1    2    0    0  0.14951751305E+01 -0.88179754584E+02 -0.17872228258E+03  0.19929766421E+03  0.00000000000E+00 0. -1.
         11    1    1    2    0    0 -0.64884134826E+02 -0.24339044186E+02 -0.11742830727E+03  0.13635155801E+03  0.00000000000E+00 0.  1.
</event>
<event>
 7    1  0.2661133E-009  0.1710670E+03  0.7561462E-02  0.1176740E+00
         -1   -1    0    0    0  501 -0.00000000000E+00  0.00000000000E+00  0.43901454616E+02  0.43901454616E+02  0.00000000000E+00 0.  1.
          1   -1    0    0  501    0  0.00000000000E+00 -0.00000000000E+00 -0.10809285121E+04  0.10809285121E+04  0.00000000000E+00 0. -1.
         25    2    1    2    0    0 -0.97422831401E+02 -0.11757014596E+03 -0.25192976861E+03  0.32004972985E+03  0.12509705819E+03 0.  0.
          5    1    3    3  502    0 -0.30970227473E+02 -0.88364020269E+02 -0.51728485543E+02  0.10705448932E+03  0.41800000000E+01 0. -1.
         -5    1    3    3    0  502 -0.66452603928E+02 -0.29206125695E+02 -0.20020128307E+03  0.21299524053E+03  0.41800000000E+01 0. -1.
        -11    1    1    2    0    0  0.32188792397E+02  0.10426659314E+03 -0.44088779689E+03  0.45419124854E+03  0.00000000000E+00 0. -1.
         11    1    1    2    0    0  0.65234039004E+02  0.13303552823E+02 -0.34420949197E+03  0.35058898831E+03  0.00000000000E+00 0.  1.
</event>
<event>
 7    1  0.2661133E-009  0.2000118E+03  0.7561462E-02  0.1149729E+00
          1   -1    0    0  501    0  0.00000000000E+00  0.00000000000E+00  0.73086497590E+02  0.73086497590E+02  0.00000000000E+00 0. -1.
         -1   -1    0    0    0  501 -0.00000000000E+00 -0.00000000000E+00 -0.12136849972E+04  0.12136849972E+04  0.00000000000E+00 0.  1.
         25    2    1    2    0    0  0.16668111164E+02  0.16645220385E+03 -0.10568137633E+04  0.10772592116E+04  0.12509163250E+03 0.  0.
          5    1    3    3  502    0 -0.20988647522E+02 -0.12696633393E+02 -0.16222715948E+03  0.16412449999E+03  0.41800000000E+01 0. -1.
         -5    1    3    3    0  502  0.37656758686E+02  0.17914883725E+03 -0.89458660383E+03  0.91313471159E+03  0.41800000000E+01 0. -1.
        -11    1    1    2    0    0  0.24937800725E+02 -0.14114335357E+03 -0.62172294652E+02  0.15623294909E+03  0.00000000000E+00 0. -1.
         11    1    1    2    0    0 -0.41605911889E+02 -0.25308850290E+02 -0.21612441610E+02  0.53279334075E+02  0.00000000000E+00 0.  1.
</event>
<event>
 7    1  0.2661133E-009  0.1050159E+03  0.7561462E-02  0.1270088E+00
          2   -1    0    0  501    0  0.00000000000E+00  0.00000000000E+00  0.50960670038E+03  0.50960670038E+03  0.00000000000E+00 0.  1.
         -2   -1    0    0    0  501 -0.00000000000E+00 -0.00000000000E+00 -0.28368045200E+02  0.28368045200E+02  0.00000000000E+00 0. -1.
         25    2    1    2    0    0 -0.40785449478E+02 -0.32321910994E+02  0.29158883563E+03  0.32152209011E+03  0.12507696247E+03 0.  0.
          5    1    3    3  502    0  0.27474770145E+02  0.43883784798E+01  0.10691507714E+02  0.30098199239E+02  0.41800000000E+01 0.  1.
         -5    1    3    3    0  502 -0.68260219624E+02 -0.36710289473E+02  0.28089732792E+03  0.29142389087E+03  0.41800000000E+01 0.  1.
        -11    1    1    2    0    0 -0.18256927138E+02  0.40735459473E+02  0.77839446513E+02  0.89731112110E+02  0.00000000000E+00 0.  1.
         11    1    1    2    0    0  0.59042376616E+02 -0.84135484793E+01  0.11181037303E+03  0.12672154336E+03  0.00000000000E+00 0. -1.
</event>
<event>
 7    1  0.2661133E-009  0.1063241E+03  0.7561462E-02  0.1267533E+00
         -4   -1    0    0    0  501 -0.00000000000E+00  0.00000000000E+00  0.13795193658E+03  0.13795193658E+03  0.00000000000E+00 0.  1.
          4   -1    0    0  501    0  0.00000000000E+00 -0.00000000000E+00 -0.13230597976E+03  0.13230597976E+03  0.00000000000E+00 0. -1.
         25    2    1    2    0    0  0.11550826942E+02  0.77928372725E+02  0.22490112463E+02  0.14953118508E+03  0.12509003667E+03 0.  0.
          5    1    3    3  502    0  0.46774584883E+02  0.44700056652E+02  0.59844484149E+02  0.88231465695E+02  0.41800000000E+01 0.  1.
         -5    1    3    3    0  502 -0.35223757941E+02  0.33228316073E+02 -0.37354371686E+02  0.61299719384E+02  0.41800000000E+01 0.  1.
        -11    1    1    2    0    0  0.10442143342E+02 -0.76458914671E+02  0.18238183775E+02  0.79294611026E+02  0.00000000000E+00 0.  1.
         11    1    1    2    0    0 -0.21992970284E+02 -0.14694580542E+01 -0.35082339409E+02  0.41432120237E+02  0.00000000000E+00 0. -1.
</event>
<event>
 7    1  0.2661133E-009  0.1178420E+03  0.7561462E-02  0.1246700E+00
         -2   -1    0    0    0  501 -0.00000000000E+00  0.00000000000E+00  0.30921328664E+02  0.30921328664E+02  0.00000000000E+00 0.  1.
          2   -1    0    0  501    0  0.00000000000E+00 -0.00000000000E+00 -0.66325012015E+03  0.66325012015E+03  0.00000000000E+00 0. -1.
         25    2    1    2    0    0 -0.87770176399E+02  0.25353643305E+02 -0.29372310600E+03  0.33206999426E+03  0.12510318539E+03 0.  0.
          5    1    3    3  502    0 -0.91525076064E+02  0.46803713465E+02 -0.29226912811E+03  0.30984858042E+03  0.41800000000E+01 0. -1.
         -5    1    3    3    0  502  0.37548996659E+01 -0.21450070160E+02 -0.14539778912E+01  0.22221413841E+02  0.41800000000E+01 0. -1.
        -11    1    1    2    0    0  0.33886533876E+01  0.16212971266E+02 -0.80370741466E+01  0.18410268056E+02  0.00000000000E+00 0.  1.
         11    1    1    2    0    0  0.84381523011E+02 -0.41566614571E+02 -0.33056861134E+03  0.34369118650E+03  0.00000000000E+00 0. -1.
</event>
<event>
 7    1  0.2661133E-009  0.1135627E+03  0.7561462E-02  0.1254111E+00
         -2   -1    0    0    0  501 -0.00000000000E+00  0.00000000000E+00  0.67210738789E+02  0.67210738789E+02  0.00000000000E+00 0.  1.
          2   -1    0    0  501    0  0.00000000000E+00 -0.00000000000E+00 -0.27359578920E+03  0.27359578920E+03  0.00000000000E+00 0. -1.
         25    2    1    2    0    0  0.62208207869E+02 -0.47832576759E+02 -0.13557762904E+03  0.20048933911E+03  0.12512739538E+03 0.  0.
          5    1    3    3  502    0 -0.32893233933E+02 -0.34305573532E+02 -0.24687096134E+02  0.53719291967E+02  0.41800000000E+01 0.  1.
         -5    1    3    3    0  502  0.95101441802E+02 -0.13527003227E+02 -0.11089053291E+03  0.14677004714E+03  0.41800000000E+01 0.  1.
        -11    1    1    2    0    0 -0.26288184100E+02  0.37669023110E+02  0.13697816057E+02  0.47933851192E+02  0.00000000000E+00 0.  1.
         11    1    1    2    0    0 -0.35920023769E+02  0.10163553649E+02 -0.84505237429E+02  0.92383337693E+02  0.00000000000E+00 0. -1.
</event>
<event>
 7    1  0.2661133E-009  0.1128050E+03  0.7561462E-02  0.1255462E+00
          2   -1    0    0  501    0  0.00000000000E+00  0.00000000000E+00  0.57663083627E+03  0.57663083627E+03  0.00000000000E+00 0.  1.
         -2   -1    0    0    0  501 -0.00000000000E+00 -0.00000000000E+00 -0.24156083953E+02  0.24156083953E+02  0.00000000000E+00 0. -1.
         25    2    1    2    0    0  0.17424396760E+02  0.26460106414E+02  0.39997314156E+03  0.42027308626E+03  0.12508879339E+03 0.  0.
          5    1    3    3  502    0 -0.14721180405E+02  0.71735198217E+02  0.22538881575E+03  0.23702371713E+03  0.41800000000E+01 0. -1.
         -5    1    3    3    0  502  0.32145577166E+02 -0.45275091802E+02  0.17458432582E+03  0.18324936914E+03  0.41800000000E+01 0. -1.
        -11    1    1    2    0    0 -0.40052462685E+02  0.20097523554E+02  0.71843332104E+02  0.84673340479E+02  0.00000000000E+00 0.  1.
         11    1    1    2    0    0  0.22628065925E+02 -0.46557629969E+02  0.80658278648E+02  0.95840493479E+02  0.00000000000E+00 0. -1.
</event>
<event>
 7    1  0.2661133E-009  0.1358292E+03  0.7561462E-02  0.1219054E+00
         -2   -1    0    0    0  501 -0.00000000000E+00  0.00000000000E+00  0.32072294167E+03  0.32072294167E+03  0.00000000000E+00 0.  1.
          2   -1    0    0  501    0  0.00000000000E+00 -0.00000000000E+00 -0.17191132381E+03  0.17191132381E+03  0.00000000000E+00 0. -1.
         25    2    1    2    0    0  0.46465022143E-01 -0.92073894917E+01 -0.12677917492E+03  0.17834094081E+03  0.12509098206E+03 0.  0.
          5    1    3    3  502    0  0.46237121194E+02  0.34859702940E+02 -0.81067388139E+02  0.99711905433E+02  0.41800000000E+01 0. -1.
         -5    1    3    3    0  502 -0.46190656172E+02 -0.44067092431E+02 -0.45711786781E+02  0.78629035373E+02  0.41800000000E+01 0. -1.
        -11    1    1    2    0    0  0.62607678711E+02 -0.36133615039E+02  0.15508891911E+03  0.17110795539E+03  0.00000000000E+00 0.  1.
         11    1    1    2    0    0 -0.62654143733E+02  0.45341004531E+02  0.12050187367E+03  0.14318536928E+03  0.00000000000E+00 0. -1.
</event>
<event>
 7    1  0.3303292E-009  0.9505607E+02  0.7561462E-02  0.1291050E+00
          1   -1    0    0  501    0  0.00000000000E+00  0.00000000000E+00  0.58054960372E+03  0.58054960372E+03  0.00000000000E+00 0. -1.
         -1   -1    0    0    0  501 -0.00000000000E+00 -0.00000000000E+00 -0.28739829026E+02  0.28739829026E+02  0.00000000000E+00 0.  1.
         25    2    1    2    0    0  0.47868313128E+02 -0.39844294057E+02  0.38317834538E+03  0.40786253144E+03  0.12508899638E+03 0.  0.
          5    1    3    3  502    0  0.18749239095E+02 -0.48082411425E+02  0.45869825590E+02  0.69173445445E+02  0.41800000000E+01 0.  1.
         -5    1    3    3    0  502  0.29119074033E+02  0.82381173682E+01  0.33730851979E+03  0.33868908600E+03  0.41800000000E+01 0.  1.
        -11    1    1    2    0    0 -0.12945447467E+02 -0.28351684015E+02  0.31316530445E+02  0.44182888947E+02  0.00000000000E+00 0.  1.
         11    1    1    2    0    0 -0.34922865661E+02  0.68195978072E+02  0.13731489887E+03  0.15724401236E+03  0.00000000000E+00 0. -1.
</event>
<event>
 7    1  0.2661133E-009  0.1255136E+03  0.7561462E-02  0.1234269E+00
         -2   -1    0    0    0  501 -0.00000000000E+00  0.00000000000E+00  0.32089898414E+02  0.32089898414E+02  0.00000000000E+00 0.  1.
          2   -1    0    0  501    0  0.00000000000E+00 -0.00000000000E+00 -0.77875592675E+03  0.77875592675E+03  0.00000000000E+00 0. -1.
         25    2    1    2    0    0 -0.10170952493E+03 -0.44027382377E+02 -0.45439350100E+03  0.48415218803E+03  0.12508656828E+03 0.  0.
          5    1    3    3  502    0 -0.59925953632E+02 -0.22426851985E+02 -0.42210302840E+03  0.42694557334E+03  0.41800000000E+01 0.  1.
         -5    1    3    3    0  502 -0.41783571300E+02 -0.21600530392E+02 -0.32290472595E+02  0.57206614689E+02  0.41800000000E+01 0.  1.
        -11    1    1    2    0    0 -0.43476151170E+01  0.32740359682E+02 -0.34666004591E+02  0.47880734994E+02  0.00000000000E+00 0.  1.
         11    1    1    2    0    0  0.10605714005E+03  0.11287022695E+02 -0.25760652275E+03  0.27881290214E+03  0.00000000000E+00 0. -1.
</event>
<event>
 6    1  0.2661133E-009  0.1151669E+03  0.7561462E-02  0.1251290E+00
          2   -1    0    0  501    0  0.00000000000E+00  0.00000000000E+00  0.36287686880E+03  0.36287686880E+03  0.00000000000E+00 0.  1.
         -2   -1    0    0    0  501 -0.00000000000E+00 -0.00000000000E+00 -0.59823404203E+02  0.59823404203E+02  0.00000000000E+00 0. -1.
          5    1    1    2  502    0 -0.97398495702E+01  0.20090974231E+02  0.18066835712E+01  0.22787023077E+02  0.41800000000E+01 0.  1.
         -5    1    1    2    0  502  0.31365996048E+02 -0.10391067765E+03  0.23274089144E+03  0.25684051391E+03  0.41800000000E+01 0.  1.
        -11    1    1    2    0    0  0.59673100543E+01  0.65733995021E+02  0.83829397382E+02  0.10669552360E+03  0.00000000000E+00 0.  1.
         11    1    1    2    0    0 -0.27593456533E+02  0.18085708400E+02 -0.15323507798E+02  0.36377212413E+02  0.00000000000E+00 0. -1.
</event>
<event>
 7    1  0.2661133E-009  0.1062192E+03  0.7561462E-02  0.1267736E+00
         -2   -1    0    0    0  501 -0.00000000000E+00  0.00000000000E+00  0.20902361828E+02  0.20902361828E+02  0.00000000000E+00 0.  1.
          2   -1    0    0  501    0  0.00000000000E+00 -0.00000000000E+00 -0.11356382202E+04  0.11356382202E+04  0.00000000000E+00 0. -1.
         25    2    1    2    0    0 -0.79215040529E+02  0.18690613049E+02 -0.87339343043E+03  0.88605188202E+03  0.12508993424E+03 0.  0.
          5    1    3    3  502    0 -0.67021119962E+02  0.54110942086E+02 -0.32127647956E+03  0.33264977573E+03  0.41800000000E+01 0.  1.
         -5    1    3    3    0  502 -0.12193920567E+02 -0.35420329037E+02 -0.55211695087E+03  0.55340210629E+03  0.41800000000E+01 0.  1.
        -11    1    1    2    0    0  0.43690726598E+01 -0.12688211154E+02  0.39278895139E+01  0.13982410887E+02  0.00000000000E+00 0.  1.
         11    1    1    2    0    0  0.74845967869E+02 -0.60024018948E+01 -0.24527031747E+03  0.25650628913E+03  0.00000000000E+00 0. -1.
</event>
<event>
 7    1  0.2661133E-009  0.1059758E+03  0.7561462E-02  0.1268209E+00
         -2   -1    0    0    0  501 -0.00000000000E+00  0.00000000000E+00  0.33363256681E+03  0.33363256681E+03  0.00000000000E+00 0.  1.
          2   -1    0    0  501    0  0.00000000000E+00 -0.00000000000E+00 -0.42113324413E+02  0.42113324413E+02  0.00000000000E+00 0. -1.
         25    2    1    2    0    0 -0.50829193561E+02 -0.27358543631E+00  0.14765045767E+03  0.20008040460E+03  0.12509128221E+03 0.  0.
          5    1    3    3  502    0 -0.64821049594E+02 -0.42099154597E+02  0.13213980301E+03  0.15314211448E+03  0.41800000000E+01 0.  1.
         -5    1    3    3    0  502  0.13991856033E+02  0.41825569160E+02  0.15510654657E+02  0.46938290113E+02  0.41800000000E+01 0.  1.
        -11    1    1    2    0    0  0.20931310321E+02 -0.36970729195E+02  0.10763507248E+03  0.11571630566E+03  0.00000000000E+00 0.  1.
         11    1    1    2    0    0  0.29897883241E+02  0.37244314632E+02  0.36233712244E+02  0.59949180959E+02  0.00000000000E+00 0. -1.
</event>
<event>
 7    1  0.2661133E-009  0.1068111E+03  0.7561462E-02  0.1266592E+00
          1   -1    0    0  501    0  0.00000000000E+00  0.00000000000E+00  0.15080570730E+03  0.15080570730E+03  0.00000000000E+00 0. -1.
         -1   -1    0    0    0  501 -0.00000000000E+00 -0.00000000000E+00 -0.11009680933E+03  0.11009680933E+03  0.00000000000E+00 0.  1.
         25    2    1    2    0    0 -0.34280189242E+02  0.61886277726E+02  0.15457144688E+02  0.14453775122E+03  0.12508875033E+03 0.  0.
          5    1    3    3  502    0  0.38846554045E+02  0.24046454128E+01 -0.19728004772E+02  0.43834959257E+02  0.41800000000E+01 0.  1.
         -5    1    3    3    0  502 -0.73126743287E+02  0.59481632313E+02  0.35185149460E+02  0.10070279196E+03  0.41800000000E+01 0.  1.
        -11    1    1    2    0    0  0.25906303432E+02 -0.10330626275E+02  0.51002911564E+02  0.58130503049E+02  0.00000000000E+00 0. -1.
         11    1    1    2    0    0  0.83738858099E+01 -0.51555651451E+02 -0.25751158282E+02  0.58234262363E+02  0.00000000000E+00 0.  1.
</event>
<event>
 7    1  0.2661133E-009  0.8468365E+02  0.7561462E-02  0.1316262E+00
          4   -1    0    0  501    0  0.00000000000E+00  0.00000000000E+00  0.12711119107E+03  0.12711119107E+03  0.00000000000E+00 0. -1.
         -4   -1    0    0    0  501 -0.00000000000E+00 -0.00000000000E+00 -0.13017893293E+03  0.13017893293E+03  0.00000000000E+00 0.  1.
         25    2    1    2    0    0  0.30285310682E+01  0.36663239647E+02 -0.52460638165E+02  0.14054357772E+03  0.12508802316E+03 0.  0.
          5    1    3    3  502    0  0.15324055942E+02  0.70842417280E+02  0.46293971826E+01  0.72748735349E+02  0.41800000000E+01 0. -1.
         -5    1    3    3    0  502 -0.12295524873E+02 -0.34179177633E+02 -0.57090035348E+02  0.67794842367E+02  0.41800000000E+01 0. -1.
        -11    1    1    2    0    0 -0.11049502020E+02 -0.46337029357E+02 -0.15927413065E+02  0.50228420954E+02  0.00000000000E+00 0.  1.
         11    1    1    2    0    0  0.80209709520E+01  0.96737897105E+01  0.65320309364E+02  0.66518125332E+02  0.00000000000E+00 0. -1.
</event>
<event>
 7    1  0.2661133E-009  0.1324370E+03  0.7561462E-02  0.1223884E+00
         -1   -1    0    0    0  501 -0.00000000000E+00  0.00000000000E+00  0.76886659931E+02  0.76886659931E+02  0.00000000000E+00 0.  1.
          1   -1    0    0  501    0  0.00000000000E+00 -0.00000000000E+00 -0.29174551856E+03  0.29174551856E+03  0.00000000000E+00 0. -1.
         25    2    1    2    0    0  0.32553758637E+02 -0.82561748769E+02 -0.80125915470E+02  0.17304177919E+03  0.12508839057E+03 0.  0.
          5    1    3    3  502    0 -0.25458948156E+02 -0.47955324267E+00  0.18818555592E+02  0.31937414534E+02  0.41800000000E+01 0.  1.
         -5    1    3    3    0  502  0.58012706793E+02 -0.82082195526E+02 -0.98944471062E+02  0.14110436466E+03  0.41800000000E+01 0.  1.
        -11    1    1    2    0    0  0.22308366938E+02  0.80537456078E+02 -0.60083223180E+02  0.10292686129E+03  0.00000000000E+00 0.  1.
         11    1    1    2    0    0 -0.54862125575E+02  0.20242926912E+01 -0.74649719977E+02  0.92663538008E+02  0.00000000000E+00 0. -1.
</event>
<event>
 6    1  0.2661133E-009  0.8574618E+02  0.7561462E-02  0.1313493E+00
          1   -1    0    0  501    0  0.00000000000E+00  0.00000000000E+00  0.19448525882E+03  0.19448525882E+03  0.00000000000E+00 0. -1.
         -1   -1    0    0    0  501 -0.00000000000E+00 -0.00000000000E+00 -0.89375993310E+02  0.89375993310E+02  0.00000000000E+00 0.  1.
          5    1    1    2  502    0  0.12551387271E+02 -0.31102044633E+01 -0.44072419589E+02  0.46120074400E+02  0.41800000000E+01 0. -1.
         -5    1    1    2    0  502  0.55424287469E+02  0.23703387026E+02  0.83795254242E+02  0.10330933758E+03  0.41800000000E+01 0. -1.
        -11    1    1    2    0    0 -0.83148300274E+01  0.22430350236E+02  0.55217372396E+02  0.60176533835E+02  0.00000000000E+00 0. -1.
         11    1    1    2    0    0 -0.59660844713E+02 -0.43023532799E+02  0.10169058465E+02  0.74255306318E+02  0.00000000000E+00 0.  1.
</event>
<event>
 7    1  0.2661133E-009  0.1244663E+03  0.7561462E-02  0.1235906E+00
          1   -1    0    0  501    0  0.00000000000E+00  0.00000000000E+00  0.85090229221E+03  0.85090229221E+03  0.00000000000E+00 0. -1.
         -1   -1    0    0    0  501 -0.00000000000E+00 -0.00000000000E+00 -0.21116715088E+02  0.21116715088E+02  0.00000000000E+00 0.  1.
         25    2    1    2    0    0 -0.54589889760E+02  0.52406089973E+02  0.39923874538E+03  0.42516470151E+03  0.12508794212E+03 0.  0.
          5    1    3    3  502    0 -0.84630768553E+02  0.19755441743E+02  0.16308359306E+03  0.18484148666E+03  0.41800000000E+01 0.  1.
         -5    1    3    3    0  502  0.30040878793E+02  0.32650648230E+02  0.23615515232E+03  0.24032321485E+03  0.41800000000E+01 0.  1.
        -11    1    1    2    0    0  0.78599127234E+02 -0.28850465592E+02  0.26451197861E+03  0.27744685797E+03  0.00000000000E+00 0. -1.
         11    1    1    2    0    0 -0.24009237474E+02 -0.23555624382E+02  0.16603485313E+03  0.16940744783E+03  0.00000000000E+00 0.  1.
</event>
<event>
 7    1  0.2661133E-009  0.2491944E+03  0.7561462E-02  0.1113815E+00
         -2   -1    0    0    0  501 -0.00000000000E+00  0.00000000000E+00  0.15931814969E+03  0.15931814969E+03  0.00000000000E+00 0.  1.
          2   -1    0    0  501    0  0.00000000000E+00 -0.00000000000E+00 -0.45930651351E+03  0.45930651351E+03  0.00000000000E+00 0. -1.
         25    2    1    2    0    0  0.14657064925E+03  0.19492898210E+03 -0.17796738941E+03  0.32680213231E+03  0.12508788392E+03 0.  0.
          5    1    3    3  502    0  0.11776100767E+03  0.10179803498E+03 -0.16744617983E+03  0.22866173793E+03  0.41800000000E+01 0.  1.
         -5    1    3    3    0  502  0.28809641583E+02  0.93130947112E+02 -0.10521209587E+02  0.98140394381E+02  0.41800000000E+01 0.  1.
        -11    1    1    2    0    0 -0.82048169835E+02 -0.12873415952E+03 -0.12795935265E+03  0.19919332803E+03  0.00000000000E+00 0. -1.
         11    1    1    2    0    0 -0.64522479418E+02 -0.66194822577E+02  0.59383782527E+01  0.92629202860E+02  0.00000000000E+00 0.  1.
</event>
<event>
 7    1  0.2661133E-009  0.1038615E+03  0.7561462E-02  0.1272379E+00
          1   -1    0    0  501    0  0.00000000000E+00  0.00000000000E+00  0.12743987617E+04  0.12743987617E+04  0.00000000000E+00 0. -1.
         -1   -1    0    0    0  501 -0.00000000000E+00 -0.00000000000E+00 -0.12346172603E+02  0.12346172603E+02  0.00000000000E+00 0.  1.
         25    2    1    2    0    0 -0.55834588704E+02  0.24333566295E+02  0.71951555265E+03  0.73284363371E+03  0.12509011637E+03 0.  0.
          5    1    3    3  502    0  0.45571267491E+01  0.40404812060E+02  0.55973689286E+03  0.56122738517E+03  0.41800000000E+01 0. -1.
         -5    1    3    3    0  502 -0.60391715453E+02 -0.16071245766E+02  0.15977865979E+03  0.17161624854E+03  0.41800000000E+01 0. -1.
        -11    1    1    2    0    0 -0.22103479300E+02  0.13738405415E+01  0.51595568784E+02  0.56147608615E+02  0.00000000000E+00 0.  1.
         11    1    1    2    0    0  0.77938068004E+02 -0.25707406836E+02  0.49094146764E+03  0.49775369195E+03  0.00000000000E+00 0. -1.
</event>
<event>
 7    1  0.2661133E-009  0.4322204E+03  0.7561462E-02  0.1033161E+00
         -2   -1    0    0    0  501 -0.00000000000E+00  0.00000000000E+00  0.42092340415E+03  0.42092340415E+03  0.00000000000E+00 0.  1.
          2   -1    0    0  501    0  0.00000000000E+00 -0.00000000000E+00 -0.50205459274E+03  0.50205459274E+03  0.00000000000E+00 0. -1.
         25    2    1    2    0    0 -0.72905432332E+02 -0.42569057483E+03  0.71931962032E+02  0.45535660635E+03  0.12509102375E+03 0.  0.
          5    1    3    3  502    0 -0.71880849572E+02 -0.39477925639E+03  0.99800299758E+02  0.41351552576E+03  0.41800000000E+01 0. -1.
         -5    1    3    3    0  502 -0.10245827605E+01 -0.30911318436E+02 -0.27868337727E+02  0.41841080589E+02  0.41800000000E+01 0. -1.
        -11    1    1    2    0    0  0.17674490056E+02  0.12094961833E+03 -0.89405058620E+02  0.15144128328E+03  0.00000000000E+00 0.  1.
         11    1    1    2    0    0  0.55230942276E+02  0.30474095650E+03 -0.63658092005E+02  0.31618010726E+03  0.00000000000E+00 0. -1.
</event>
<event>
 7    1  0.2661133E-009  0.1240009E+03  0.7561462E-02  0.1236639E+00
          4   -1    0    0  501    0  0.00000000000E+00  0.00000000000E+00  0.30384097813E+02  0.30384097813E+02  0.00000000000E+00 0. -1.
         -4   -1    0    0    0  501 -0.00000000000E+00 -0.00000000000E+00 -0.59278307402E+03  0.59278307402E+03  0.00000000000E+00 0.  1.
         25    2    1    2    0    0  0.70979615908E+02  0.59377825208E+01 -0.23154422561E+03  0.27264133891E+03  0.12508880101E+03 0.  0.
          5    1    3    3  502    0  0.61557560183E+02 -0.54052737615E+02 -0.14891645826E+03  0.17001357475E+03  0.41800000000E+01 0.  1.
         -5    1    3    3    0  502  0.94220557249E+01  0.59990520136E+02 -0.82627767348E+02  0.10262776416E+03  0.41800000000E+01 0.  1.
        -11    1    1    2    0    0 -0.21618960349E+02 -0.39767388226E+02 -0.21942094422E+03  0.22404101271E+03  0.00000000000E+00 0.  1.
         11    1    1    2    0    0 -0.49360655559E+02  0.33829605705E+02 -0.11143380639E+03  0.12648482022E+03  0.00000000000E+00 0. -1.
</event>
<event>
 7    1  0.2661133E-009  0.1066015E+03  0.7561462E-02  0.1266996E+00
         -1   -1    0    0    0  501 -0.00000000000E+00  0.00000000000E+00  0.10410247604E+03  0.10410247604E+03  0.00000000000E+00 0.  1.
          1   -1    0    0  501    0  0.00000000000E+00 -0.00000000000E+00 -0.18365157560E+03  0.18365157560E+03  0.00000000000E+00 0. -1.
         25    2    1    2    0    0 -0.82038441540E+02 -0.11039992060E+01 -0.99056052305E+01  0.14992182542E+03  0.12508760137E+03 0.  0.
          5    1    3    3  502    0 -0.54722045647E+02  0.27108595422E+02  0.49407938037E+02  0.78663809764E+02  0.41800000000E+01 0.  1.
         -5    1    3    3    0  502 -0.27316395893E+02 -0.28212594628E+02 -0.59313543267E+02  0.71258015655E+02  0.41800000000E+01 0.  1.
        -11    1    1    2    0    0  0.40894179601E+01 -0.28742424553E+02 -0.39643035652E+02  0.49136753903E+02  0.00000000000E+00 0.  1.
         11    1    1    2    0    0  0.77949023579E+02  0.29846423759E+02 -0.30000458682E+02  0.88695472316E+02  0.00000000000E+00 0. -1.
</event>
<event>
 7    1  0.2661133E-009  0.1851995E+03  0.7561462E-02  0.1162864E+00
         -2   -1    0    0    0  501 -0.00000000000E+00  0.00000000000E+00  0.48034908312E+02  0.48034908312E+02  0.00000000000E+00 0.  1.
          2   -1    0    0  501    0  0.00000000000E+00 -0.00000000000E+00 -0.96806626749E+03  0.96806626749E+03  0.00000000000E+00 0. -1.
         25    2    1    2    0    0 -0.90008731670E+02  0.13011288350E+03 -0.70274674488E+03  0.73111696553E+03  0.12509234832E+03 0.  0.
          5    1    3    3  502    0 -0.77262021307E+02  0.79179690156E+01 -0.23797846254E+03  0.25036640191E+03  0.41800000000E+01 0. -1.
         -5    1    3    3    0  502 -0.12746710363E+02  0.12219491449E+03 -0.46476828234E+03  0.48075056362E+03  0.41800000000E+01 0. -1.
        -11    1    1    2    0    0 -0.71735717532E+01 -0.27258558008E+02 -0.91200354355E+02  0.95456763778E+02  0.00000000000E+00 0. -1.
         11    1    1    2    0    0  0.97182303423E+02 -0.10285432549E+03 -0.12608425994E+03  0.18952744650E+03  0.00000000000E+00 0.  1.
</event>
<event>
 7    1  0.2661133E-009  0.1134824E+03  0.7561462E-02  0.1254254E+00
          3   -1    0    0  501    0  0.00000000000E+00  0.00000000000E+00  0.47264753632E+02  0.47264753632E+02  0.00000000000E+00 0. -1.
         -3   -1    0    0    0  501 -0.00000000000E+00 -0.00000000000E+00 -0.30011525966E+03  0.30011525966E+03  0.00000000000E+00 0.  1.
         25    2    1    2    0    0  0.42118686941E+02  0.17680495789E+01 -0.95984056459E+02  0.16320893872E+03  0.12508840392E+03 0.  0.
          5    1    3    3  502    0  0.50682023756E+02 -0.53877965985E+02 -0.42348039061E+02  0.85336578107E+02  0.41800000000E+01 0.  1.
         -5    1    3    3    0  502 -0.85633368149E+01  0.55646015564E+02 -0.53636017398E+02  0.77872360616E+02  0.41800000000E+01 0.  1.
        -11    1    1    2    0    0 -0.11447991499E+02  0.41688252299E+02 -0.66688198158E+02  0.79475044276E+02  0.00000000000E+00 0. -1.
         11    1    1    2    0    0 -0.30670695442E+02 -0.43456301878E+02 -0.90178251413E+02  0.10469603030E+03  0.00000000000E+00 0.  1.
</event>
<event>
 7    1  0.2661133E-009  0.9642982E+02  0.7561462E-02  0.1287988E+00
          1   -1    0    0  501    0  0.00000000000E+00  0.00000000000E+00  0.11975151867E+04  0.11975151867E+04  0.00000000000E+00 0. -1.
         -1   -1    0    0    0  501 -0.00000000000E+00 -0.00000000000E+00 -0.16888761661E+02  0.16888761661E+02  0.00000000000E+00 0.  1.
         25    2    1    2    0    0  0.62437555617E+02 -0.26797692559E+02  0.91038311553E+03  0.92144535727E+03  0.12509022629E+03 0.  0.
          5    1    3    3  502    0  0.42758111540E+02 -0.42437023344E+02  0.87876264006E+03  0.88083506233E+03  0.41800000000E+01 0.  1.
         -5    1    3    3    0  502  0.19679444077E+02  0.15639330785E+02  0.31620475465E+02  0.40610294942E+02  0.41800000000E+01 0.  1.
        -11    1    1    2    0    0  0.87296171687E+01  0.34332734537E+02  0.49254339816E+02  0.60670691997E+02  0.00000000000E+00 0.  1.
         11    1    1    2    0    0 -0.71167172785E+02 -0.75350419774E+01  0.22098896970E+03  0.23228789910E+03  0.00000000000E+00 0. -1.
</event>
<event>
 7    1  0.2661133E-009  0.1298210E+03  0.7561462E-02  0.1227722E+00
         -1   -1    0    0    0  501 -0.00000000000E+00  0.00000000000E+00  0.62340466694E+03  0.62340466694E+03  0.00000000000E+00 0.  1.
          1   -1    0    0  501    0  0.00000000000E+00 -0.00000000000E+00 -0.35881106645E+02  0.35881106645E+02  0.00000000000E+00 0. -1.
         25    2    1    2    0    0 -0.92692007522E+02  0.42020066055E+02  0.35338810885E+03  0.38844339670E+03  0.12509045828E+03 0.  0.
          5    1    3    3  502    0 -0.15331891735E+02 -0.33598726935E+02  0.31114152105E+02  0.48471684694E+02  0.41800000000E+01 0. -1.
         -5    1    3    3    0  502 -0.77360115787E+02  0.75618792990E+02  0.32227395674E+03  0.33997171200E+03  0.41800000000E+01 0. -1.
        -11    1    1    2    0    0  0.32533581428E+02  0.10675591071E+02  0.14653763245E+02  0.37244260531E+02  0.00000000000E+00 0. -1.
         11    1    1    2    0    0  0.60158426094E+02 -0.52695657126E+02  0.21948168820E+03  0.23359811636E+03  0.00000000000E+00 0.  1.
</event>
<event>
 7    1  0.2661133E-009  0.1852116E+03  0.7561462E-02  0.1162852E+00
         -1   -1    0    0    0  501 -0.00000000000E+00  0.00000000000E+00  0.12547332338E+03  0.12547332338E+03  0.00000000000E+00 0.  1.
          1   -1    0    0  501    0  0.00000000000E+00 -0.00000000000E+00 -0.69290252639E+03  0.69290252639E+03  0.00000000000E+00 0. -1.
         25    2    1    2    0    0 -0.16659373729E+03 -0.40169564348E+02  0.67987382856E+01  0.21229118779E+03  0.12511697873E+03 0.  0.
          5    1    3    3  502    0 -0.10762678535E+03  0.14354372938E+02 -0.43933724946E+02  0.11720587671E+03  0.41800000000E+01 0.  1.
         -5    1    3    3    0  502 -0.58966951937E+02 -0.54523937286E+02  0.50732463232E+02  0.95085311082E+02  0.41800000000E+01 0.  1.
        -11    1    1    2    0    0  0.10862351712E+03  0.54642538807E+02 -0.47446383656E+03  0.48979670040E+03  0.00000000000E+00 0. -1.
         11    1    1    2    0    0  0.57970220163E+02 -0.14472974459E+02 -0.99764104738E+02  0.11628796159E+03  0.00000000000E+00 0.  1.
</event>
<event>
 7    1  0.2661133E-009  0.1087843E+03  0.7561462E-02  0.1262838E+00
         -3   -1    0    0    0  501 -0.00000000000E+00  0.00000000000E+00  0.60107475905E+02  0.60107475905E+02  0.00000000000E+00 0.  1.
          3   -1    0    0  501    0  0.00000000000E+00 -0.00000000000E+00 -0.25726334161E+03  0.25726334161E+03  0.00000000000E+00 0. -1.
         25    2    1    2    0    0  0.14790250865E+00 -0.52038846017E+02 -0.14664292785E+03  0.19964915048E+03  0.12509025393E+03 0.  0.
          5    1    3    3  502    0  0.39189953289E+02  0.13547279420E+02 -0.96591916600E+01  0.42780294553E+02  0.41800000000E+01 0. -1.
         -5    1    3    3    0  502 -0.39042050781E+02 -0.65586125437E+02 -0.13698373619E+03  0.15686885592E+03  0.41800000000E+01 0. -1.
        -11    1    1    2    0    0  0.39577692171E+02  0.43515819698E+02 -0.87734404759E+01  0.59472628489E+02  0.00000000000E+00 0. -1.
         11    1    1    2    0    0 -0.39725594680E+02  0.85230263184E+01 -0.41739497382E+02  0.58249038550E+02  0.00000000000E+00 0.  1.
</event>
<event>
 6    1  0.2661133E-009  0.1357348E+03  0.7561462E-02  0.1219186E+00
          1   -1    0    0  501    0  0.00000000000E+00  0.00000000000E+00  0.15515341473E+03  0.15515341473E+03  0.00000000000E+00 0. -1.
         -1   -1    0    0    0  501 -0.00000000000E+00 -0.00000000000E+00 -0.18992189994E+03  0.18992189994E+03  0.00000000000E+00 0.  1.
          5    1    1    2  502    0 -0.40390098277E+01 -0.47058642682E+02  0.70732845158E+02  0.85155371150E+02  0.41800000000E+01 0. -1.
         -5    1    1    2    0  502 -0.89938934628E+02 -0.11895531045E+01 -0.72489675542E+01  0.90335192085E+02  0.41800000000E+01 0. -1.
        -11    1    1    2    0    0 -0.24472244295E+01  0.36829365675E+02 -0.47088477768E+02  0.59830726403E+02  0.00000000000E+00 0. -1.
         11    1    1    2    0    0  0.96425168885E+02  0.11418830112E+02 -0.51163885046E+02  0.10975402502E+03  0.00000000000E+00 0.  1.
</event>
<event>
 7    1  0.2661133E-009  0.1031903E+03  0.7561462E-02  0.1273727E+00
          2   -1    0    0  501    0  0.00000000000E+00  0.00000000000E+00  0.76415472206E+03  0.76415472206E+03  0.00000000000E+00 0. -1.
         -2   -1    0    0    0  501 -0.00000000000E+00 -0.00000000000E+00 -0.15236709918E+02  0.15236709918E+02  0.00000000000E+00 0.  1.
         25    2    1    2    0    0  0.36106076725E+02  0.12036926925E+02  0.43915623722E+03  0.45820765707E+03  0.12509004725E+03 0.  0.
          5    1    3    3  502    0 -0.38621142809E+02 -0.20739678652E+02  0.21888406526E+03  0.22326986668E+03  0.41800000000E+01 0.  1.
         -5    1    3    3    0  502  0.74727219534E+02  0.32776605577E+02  0.22027217196E+03  0.23493779039E+03  0.41800000000E+01 0.  1.
        -11    1    1    2    0    0  0.15502343418E+02 -0.23135876164E+02  0.63676291743E+02  0.69500083076E+02  0.00000000000E+00 0.  1.
         11    1    1    2    0    0 -0.51608420143E+02  0.11098949239E+02  0.24608548318E+03  0.25168369184E+03  0.00000000000E+00 0. -1.
</event>
<event>
 7    1  0.2661133E-009  0.3513750E+03  0.7561462E-02  0.1062052E+00
         -1   -1    0    0    0  501 -0.00000000000E+00  0.00000000000E+00  0.13216001673E+03  0.13216001673E+03  0.00000000000E+00 0. -1.
          1   -1    0    0  501    0  0.00000000000E+00 -0.00000000000E+00 -0.10547277117E+04  0.10547277117E+04  0.00000000000E+00 0.  1.
         25    2    1    2    0    0  0.32366398785E+03  0.92251031812E+02 -0.65754652079E+03  0.74918835351E+03  0.12508849720E+03 0.  0.
          5    1    3    3  502    0  0.17438037430E+03 -0.78765226349E+01 -0.26406661421E+03  0.31657416776E+03  0.41800000000E+01 0.  1.
         -5    1    3    3    0  502  0.14928361355E+03  0.10012755445E+03 -0.39347990658E+03  0.43261418575E+03  0.41800000000E+01 0.  1.
        -11    1    1    2    0    0 -0.20457121946E+03 -0.10248825820E+03 -0.17294621913E+03  0.28681635520E+03  0.00000000000E+00 0. -1.
         11    1    1    2    0    0 -0.11909276839E+03  0.10237226388E+02 -0.92074955014E+02  0.15088301968E+03  0.00000000000E+00 0.  1.
</event>
<event>
 7    1  0.2661133E-009  0.1836458E+03  0.7561462E-02  0.1164321E+00
          1   -1    0    0  501    0  0.00000000000E+00  0.00000000000E+00  0.35886239586E+03  0.35886239586E+03  0.00000000000E+00 0. -1.
         -1   -1    0    0    0  501 -0.00000000000E+00 -0.00000000000E+00 -0.12691154789E+03  0.12691154789E+03  0.00000000000E+00 0.  1.
         25    2    1    2    0    0  0.15824895848E+03  0.91816321447E+02  0.94055253913E+02  0.24076062726E+03  0.12508524736E+03 0.  0.
          5    1    3    3  502    0  0.70829897457E+02  0.43870750972E+02 -0.23396800433E+02  0.86639481965E+02  0.41800000000E+01 0.  1.
         -5    1    3    3    0  502  0.87419061021E+02  0.47945570476E+02  0.11745205435E+03  0.15412114530E+03  0.41800000000E+01 0.  1.
        -11    1    1    2    0    0 -0.88210709444E+02 -0.39456935315E+02  0.20762286791E+02  0.98838512523E+02  0.00000000000E+00 0.  1.
         11    1    1    2    0    0 -0.70038249035E+02 -0.52359386132E+02  0.11713330727E+03  0.14617480397E+03  0.00000000000E+00 0. -1.
</event>
<event>
 7    1  0.2661133E-009  0.1547747E+03  0.7561462E-02  0.1194726E+00
         -1   -1    0    0    0  501 -0.00000000000E+00  0.00000000000E+00  0.50315736033E+03  0.50315736033E+03  0.00000000000E+00 0.  1.
          1   -1    0    0  501    0  0.00000000000E+00 -0.00000000000E+00 -0.62285963472E+02  0.62285963472E+02  0.00000000000E+00 0. -1.
         25    2    1    2    0    0  0.12289110988E+03 -0.25306073217E+02  0.33806389884E+03  0.38167912970E+03  0.12509650725E+03 0.  0.
          5    1    3    3  502    0  0.37682562304E+02 -0.64372642143E+02  0.21019739402E+03  0.22307897572E+03  0.41800000000E+01 0. -1.
         -5    1    3    3    0  502  0.85208547574E+02  0.39066568927E+02  0.12786650482E+03  0.15860015398E+03  0.41800000000E+01 0. -1.
        -11    1    1    2    0    0 -0.12354540924E+03  0.81195944581E+01  0.10952191932E+03  0.16530107916E+03  0.00000000000E+00 0.  1.
         11    1    1    2    0    0  0.65429935849E+00  0.17186478759E+02 -0.67144213076E+01  0.18463114940E+02  0.00000000000E+00 0. -1.
</event>
<event>
 7    1  0.2661133E-009  0.9410468E+02  0.7561462E-02  0.1293205E+00
         -3   -1    0    0    0  501 -0.00000000000E+00  0.00000000000E+00  0.60997564406E+03  0.60997564406E+03  0.00000000000E+00 0.  1.
          3   -1    0    0  501    0  0.00000000000E+00 -0.00000000000E+00 -0.29099876200E+02  0.29099876200E+02  0.00000000000E+00 0. -1.
         25    2    1    2    0    0 -0.70598045049E+00  0.54769576498E+02  0.22440186680E+03  0.26268561980E+03  0.12508929652E+03 0.  0.
          5    1    3    3  502    0  0.25008317652E+01 -0.89161033520E+01  0.18969270857E+03  0.18996459445E+03  0.41800000000E+01 0.  1.
         -5    1    3    3    0  502 -0.32068122157E+01  0.63685679850E+02  0.34709158232E+02  0.72721025348E+02  0.41800000000E+01 0.  1.
        -11    1    1    2    0    0 -0.40317935248E+02  0.60652552915E+01  0.73427723869E+02  0.83987819695E+02  0.00000000000E+00 0. -1.
         11    1    1    2    0    0  0.41023915699E+02 -0.60834831789E+02  0.28304617719E+03  0.29240208077E+03  0.00000000000E+00 0.  1.
</event>
<event>
 7    1  0.2661133E-009  0.1388069E+03  0.7561462E-02  0.1214943E+00
          2   -1    0    0  501    0  0.00000000000E+00  0.00000000000E+00  0.92165519546E+03  0.92165519546E+03  0.00000000000E+00 0. -1.
         -2   -1    0    0    0  501 -0.00000000000E+00 -0.00000000000E+00 -0.25713889996E+02  0.25713889996E+02  0.00000000000E+00 0.  1.
         25    2    1    2    0    0  0.62691995827E+02 -0.80020492869E+02  0.35990803490E+03  0.39435582067E+03  0.12509657908E+03 0.  0.
          5    1    3    3  502    0  0.58532851299E+02 -0.10625617076E+03  0.21433262215E+03  0.24631770911E+03  0.41800000000E+01 0. -1.
         -5    1    3    3    0  502  0.41591445274E+01  0.26235677891E+02  0.14557541275E+03  0.14803811156E+03  0.41800000000E+01 0. -1.
        -11    1    1    2    0    0 -0.41956139126E+02 -0.46079018937E+01  0.10321650843E+03  0.11151321887E+03  0.00000000000E+00 0. -1.
         11    1    1    2    0    0 -0.20735856701E+02  0.84628394763E+02  0.43281676214E+03  0.44150004592E+03  0.00000000000E+00 0.  1.
</event>
<event>
 7    1  0.2661133E-009  0.1925272E+03  0.7561462E-02  0.1156202E+00
         -2   -1    0    0    0  501 -0.00000000000E+00  0.00000000000E+00  0.22810873437E+02  0.22810873437E+02  0.00000000000E+00 0.  1.
          2   -1    0    0  501    0  0.00000000000E+00 -0.00000000000E+00 -0.17283236750E+04  0.17283236750E+04  0.00000000000E+00 0. -1.
         25    2    1    2    0    0 -0.10077471658E+03 -0.12705231479E+03 -0.73797890355E+03  0.76587258202E+03  0.12510042211E+03 0.  0.
          5    1    3    3  502    0 -0.21474875282E+02 -0.12318313603E+03 -0.46744506736E+03  0.48389835572E+03  0.41800000000E+01 0.  1.
         -5    1    3    3    0  502 -0.79299841301E+02 -0.38691787610E+01 -0.27053383619E+03  0.28197422631E+03  0.41800000000E+01 0.  1.
        -11    1    1    2    0    0 -0.13084220477E+02  0.64709302889E+01 -0.32402342075E+02  0.35538451518E+02  0.00000000000E+00 0.  1.
         11    1    1    2    0    0  0.11385893706E+03  0.12058138450E+03 -0.93513155596E+03  0.94972351492E+03  0.00000000000E+00 0. -1.
</event>
<event>
 6    1  0.2661133E-009  0.7055480E+02  0.7561462E-02  0.1358217E+00
          2   -1    0    0  501    0  0.00000000000E+00  0.00000000000E+00  0.34969970121E+03  0.34969970121E+03  0.00000000000E+00 0. -1.
         -2   -1    0    0    0  501 -0.00000000000E+00 -0.00000000000E+00 -0.48562236552E+02  0.48562236552E+02  0.00000000000E+00 0.  1.
          5    1    1    2  502    0  0.30408533979E+02  0.18633055426E+01 -0.71613428608E+00  0.30759325328E+02  0.41800000000E+01 0.  1.
         -5    1    1    2    0  502  0.10524158250E+02 -0.52510442910E-01  0.25944220716E+03  0.25968922180E+03  0.41800000000E+01 0.  1.
        -11    1    1    2    0    0 -0.62995920693E+02  0.21855152970E+02  0.30655286139E+02  0.73388557034E+02  0.00000000000E+00 0.  1.
         11    1    1    2    0    0  0.22063228463E+02 -0.23665948070E+02  0.11756105644E+02  0.34424833597E+02  0.00000000000E+00 0. -1.
</event>
<event>
 7    1  0.2661133E-009  0.1001449E+03  0.7561462E-02  0.1279991E+00
          2   -1    0    0  501    0  0.00000000000E+00  0.00000000000E+00  0.33532441295E+03  0.33532441295E+03  0.00000000000E+00 0. -1.
         -2   -1    0    0    0  501 -0.00000000000E+00 -0.00000000000E+00 -0.67124049277E+02  0.67124049277E+02  0.00000000000E+00 0.  1.
         25    2    1    2    0    0 -0.26107053281E+02  0.90260261017E+02  0.20621360830E+03  0.25884560403E+03  0.12509397078E+03 0.  0.
          5    1    3    3  502    0 -0.38040502137E+02  0.78403944164E+02  0.47790277431E+02  0.99476837908E+02  0.41800000000E+01 0.  1.
         -5    1    3    3    0  502  0.11933448856E+02  0.11856316853E+02  0.15842333087E+03  0.15936876612E+03  0.41800000000E+01 0.  1.
        -11    1    1    2    0    0  0.28260687648E+02 -0.72379057795E+02  0.84485509285E+02  0.11478325554E+03  0.00000000000E+00 0. -1.
         11    1    1    2    0    0 -0.21536343675E+01 -0.17881203222E+02 -0.22498753913E+02  0.28819602657E+02  0.00000000000E+00 0.  1.
</event>
<event>
 7    1  0.2661133E-009  0.6679770E+02  0.7561462E-02  0.1371334E+00
         -3   -1    0    0    0  501 -0.00000000000E+00  0.00000000000E+00  0.48922918335E+03  0.48922918335E+03  0.00000000000E+00 0.  1.
          3   -1    0    0  501    0  0.00000000000E+00 -0.00000000000E+00 -0.35367641233E+02  0.35367641233E+02  0.00000000000E+00 0. -1.
         25    2    1    2    0    0  0.28130905666E+02  0.87320306034E+01  0.11532056815E+03  0.17266686291E+03  0.12508963146E+03 0.  0.
          5    1    3    3  502    0  0.17487890463E+02  0.16941170148E+02 -0.22927415867E+02  0.33704129675E+02  0.41800000000E+01 0. -1.
         -5    1    3    3    0  502  0.10643015204E+02 -0.82091395443E+01  0.13824798401E+03  0.13896273324E+03  0.41800000000E+01 0. -1.
        -11    1    1    2    0    0  0.32902676347E+02 -0.76093931436E+01  0.14993752011E+03  0.15369368534E+03  0.00000000000E+00 0.  1.
         11    1    1    2    0    0 -0.61033582013E+02 -0.11226374597E+01  0.18860345385E+03  0.19823627633E+03  0.00000000000E+00 0. -1.
</event>
<event>
 7    1  0.2661133E-009  0.9183489E+02  0.7561462E-02  0.1298468E+00
          2   -1    0    0  501    0  0.00000000000E+00  0.00000000000E+00  0.14093132229E+03  0.14093132229E+03  0.00000000000E+00 0. -1.
         -2   -1    0    0    0  501 -0.00000000000E+00 -0.00000000000E+00 -0.10483152152E+03  0.10483152152E+03  0.00000000000E+00 0.  1.
         25    2    1    2    0    0 -0.27383904084E+02  0.10842730971E+02 -0.26621544125E+02  0.13123941405E+03  0.12509050392E+03 0.  0.
          5    1    3    3  502    0  0.16209550635E+02  0.36455331591E+02 -0.58786317839E+02  0.71169124613E+02  0.41800000000E+01 0. -1.
         -5    1    3    3    0  502 -0.43593454719E+02 -0.25612600620E+02  0.32164773713E+02  0.60070289436E+02  0.41800000000E+01 0. -1.
        -11    1    1    2    0    0  0.60292490574E+01 -0.48852818841E+02  0.18953812740E+02  0.52746533254E+02  0.00000000000E+00 0.  1.
         11    1    1    2    0    0  0.21354655027E+02  0.38010087870E+02  0.43767532150E+02  0.61776896504E+02  0.00000000000E+00 0. -1.
</event>
<event>
 7    1  0.2661133E-009  0.1095448E+03  0.7561462E-02  0.1261415E+00
         -1   -1    0    0    0  501 -0.00000000000E+00  0.00000000000E+00  0.50218514994E+02  0.50218514994E+02  0.00000000000E+00 0.  1.
          1   -1    0    0  501    0  0.00000000000E+00 -0.00000000000E+00 -0.28204751405E+03  0.28204751405E+03  0.00000000000E+00 0. -1.
         25    2    1    2    0    0 -0.17252864382E+02 -0.16575852707E+02 -0.72508027470E+02  0.14655864023E+03  0.12509836432E+03 0.  0.
          5    1    3    3  502    0 -0.69793303559E+02 -0.17025983307E+02 -0.56442957507E+02  0.91456378572E+02  0.41800000000E+01 0.  1.
         -5    1    3    3    0  502  0.52540439177E+02  0.45013060061E+00 -0.16065069963E+02  0.55102261654E+02  0.41800000000E+01 0.  1.
        -11    1    1    2    0    0  0.53747792023E+02 -0.13396979443E+01 -0.10374214284E+03  0.11684627567E+03  0.00000000000E+00 0. -1.
         11    1    1    2    0    0 -0.36494927641E+02  0.17915550651E+02 -0.55578828748E+02  0.68861113146E+02  0.00000000000E+00 0.  1.
</event>
<event>
 7    1  0.2661133E-009  0.2333314E+03  0.7561462E-02  0.1124317E+00
         -1   -1    0    0    0  501 -0.00000000000E+00  0.00000000000E+00  0.20159242710E+03  0.20159242710E+03  0.00000000000E+00 0.  1.
          1   -1    0    0  501    0  0.00000000000E+00 -0.00000000000E+00 -0.29098646673E+03  0.29098646673E+03  0.00000000000E+00 0. -1.
         25    2    1    2    0    0 -0.21076350697E+03  0.34813235593E+02 -0.80413895993E+02  0.26028258577E+03  0.12508961805E+03 0.  0.
          5    1    3    3  502    0 -0.74077634446E+02  0.74513169424E+02 -0.33977581830E+02  0.11050636547E+03  0.41800000000E+01 0.  1.
         -5    1    3    3    0  502 -0.13668587252E+03 -0.39699933831E+02 -0.46436314163E+02  0.14977622029E+03  0.41800000000E+01 0.  1.
        -11    1    1    2    0    0  0.52111866793E+02  0.12437243728E+02  0.31136661458E+02  0.61966308418E+02  0.00000000000E+00 0.  1.
         11    1    1    2    0    0  0.15865164017E+03 -0.47250479321E+02 -0.40116805095E+02  0.17032999964E+03  0.00000000000E+00 0. -1.
</event>
<event>
 7    1  0.2661133E-009  0.1641955E+03  0.7561462E-02  0.1184040E+00
          2   -1    0    0  501    0  0.00000000000E+00  0.00000000000E+00  0.11212010849E+04  0.11212010849E+04  0.00000000000E+00 0.  1.
         -2   -1    0    0    0  501 -0.00000000000E+00 -0.00000000000E+00 -0.37242719417E+02  0.37242719417E+02  0.00000000000E+00 0. -1.
         25    2    1    2    0    0 -0.14580836210E+03  0.16898305974E+02  0.80360850008E+03  0.82642661502E+03  0.12509475372E+03 0.  0.
          5    1    3    3  502    0 -0.47440234686E+02  0.31810435989E+02  0.95542579283E+02  0.11139271323E+03  0.41800000000E+01 0.  1.
         -5    1    3    3    0  502 -0.98368127411E+02 -0.14912130016E+02  0.70806592080E+03  0.71503390179E+03  0.41800000000E+01 0.  1.
        -11    1    1    2    0    0  0.12492117515E+03 -0.48210171359E+02  0.25025505782E+03  0.28382585257E+03  0.00000000000E+00 0.  1.
         11    1    1    2    0    0  0.20887186950E+02  0.31311865385E+02  0.30094807590E+02  0.48191336737E+02  0.00000000000E+00 0. -1.
</event>
<event>
 7    1  0.2661133E-009  0.1765404E+03  0.7561462E-02  0.1171194E+00
         -1   -1    0    0    0  501 -0.00000000000E+00  0.00000000000E+00  0.25372540436E+02  0.25372540436E+02  0.00000000000E+00 0.  1.
          1   -1    0    0  501    0  0.00000000000E+00 -0.00000000000E+00 -0.14725707985E+04  0.14725707985E+04  0.00000000000E+00 0. -1.
         25    2    1    2    0    0  0.91661208385E+02  0.12471335456E+03 -0.90902319188E+03  0.93055133870E+03  0.12508969850E+03 0.  0.
          5    1    3    3  502    0  0.97925030536E+02  0.32112719398E+02 -0.39773426703E+03  0.41088995841E+03  0.41800000000E+01 0. -1.
         -5    1    3    3    0  502 -0.62638221508E+01  0.92600635158E+02 -0.51128892484E+03  0.51966138029E+03  0.41800000000E+01 0. -1.
        -11    1    1    2    0    0 -0.76196398109E+02 -0.83631968168E+02 -0.48700367041E+03  0.49997277143E+03  0.00000000000E+00 0. -1.
         11    1    1    2    0    0 -0.15464810276E+02 -0.41081386389E+02 -0.51171395752E+02  0.67419228768E+02  0.00000000000E+00 0.  1.
</event>
<event>
 7    1  0.2661133E-009  0.8379910E+02  0.7561462E-02  0.1318603E+00
         -1   -1    0    0    0  501 -0.00000000000E+00  0.00000000000E+00  0.28685791136E+02  0.28685791136E+02  0.00000000000E+00 0.  1.
          1   -1    0    0  501    0  0.00000000000E+00 -0.00000000000E+00 -0.56607118031E+03  0.56607118031E+03  0.00000000000E+00 0. -1.
         25    2    1    2    0    0 -0.21581344077E+02 -0.47430633401E+02 -0.40417827721E+03  0.42629045605E+03  0.12509218105E+03 0.  0.
          5    1    3    3  502    0  0.25508320138E+02 -0.36825114199E+02 -0.44213943863E+02  0.63080176474E+02  0.41800000000E+01 0.  1.
         -5    1    3    3    0  502 -0.47089664215E+02 -0.10605519201E+02 -0.35996433334E+03  0.36321027958E+03  0.41800000000E+01 0.  1.
        -11    1    1    2    0    0  0.12778101889E+02 -0.98936461336E+01  0.63304938271E+01  0.17356245959E+02  0.00000000000E+00 0.  1.
         11    1    1    2    0    0  0.88032421883E+01  0.57324279534E+02 -0.13953760580E+03  0.15111026944E+03  0.00000000000E+00 0. -1.
</event>
<event>
 7    1  0.2661133E-009  0.6507619E+02  0.7561462E-02  0.1377685E+00
          2   -1    0    0  501    0  0.00000000000E+00  0.00000000000E+00  0.35697569603E+03  0.35697569603E+03  0.00000000000E+00 0. -1.
         -2   -1    0    0    0  501 -0.00000000000E+00 -0.00000000000E+00 -0.34026905404E+02  0.34026905404E+02  0.00000000000E+00 0.  1.
         25    2    1    2    0    0  0.29662468931E+01 -0.12562227429E+01  0.15635175203E+03  0.20026069662E+03  0.12509236400E+03 0.  0.
          5    1    3    3  502    0  0.22486787533E+02 -0.26497582626E+00  0.17284181071E+03  0.17434875897E+03  0.41800000000E+01 0.  1.
         -5    1    3    3    0  502 -0.19520540640E+02 -0.99124691664E+00 -0.16490058680E+02  0.25911937647E+02  0.41800000000E+01 0.  1.
        -11    1    1    2    0    0 -0.36224864949E+02 -0.25753648807E+02  0.52052706658E+02  0.68446881141E+02  0.00000000000E+00 0.  1.
         11    1    1    2    0    0  0.33258618056E+02  0.27009871549E+02  0.11454433194E+03  0.12229502367E+03  0.00000000000E+00 0. -1.
</event>
<event>
 7    1  0.2661133E-009  0.1106800E+03  0.7561462E-02  0.1259316E+00
          1   -1    0    0  501    0  0.00000000000E+00  0.00000000000E+00  0.36661056674E+03  0.36661056674E+03  0.00000000000E+00 0. -1.
         -1   -1    0    0    0  501 -0.00000000000E+00 -0.00000000000E+00 -0.33458377680E+02  0.33458377680E+02  0.00000000000E+00 0.  1.
         25    2    1    2    0    0 -0.92835632279E+00  0.16599395183E+02  0.18298082961E+03  0.22227438602E+03  0.12509003522E+03 0.  0.
          5    1    3    3  502    0 -0.61664141776E+02  0.20680092836E+02  0.94265424656E+02  0.11460181197E+03  0.41800000000E+01 0.  1.
         -5    1    3    3    0  502  0.60735785453E+02 -0.40806976530E+01  0.88715404949E+02  0.10767257405E+03  0.41800000000E+01 0.  1.
        -11    1    1    2    0    0  0.12822060934E+02  0.37576658962E+02  0.61323077467E+02  0.73054297446E+02  0.00000000000E+00 0.  1.
         11    1    1    2    0    0 -0.11893704612E+02 -0.54176054145E+02  0.88848281986E+02  0.10474026095E+03  0.00000000000E+00 0. -1.
</event>
<event>
 7    1  0.2661133E-009  0.1041383E+03  0.7561462E-02  0.1271827E+00
          2   -1    0    0  501    0  0.00000000000E+00  0.00000000000E+00  0.56364201071E+03  0.56364201071E+03  0.00000000000E+00 0. -1.
         -2   -1    0    0    0  501 -0.00000000000E+00 -0.00000000000E+00 -0.37137020543E+02  0.37137020543E+02  0.00000000000E+00 0.  1.
         25    2    1    2    0    0  0.96185170696E+02  0.15394451556E+02  0.28017384638E+03  0.32192187918E+03  0.12509091054E+03 0.  0.
          5    1    3    3  502    0  0.71125624394E+02  0.26534339950E+01  0.43441902727E+02  0.83489918372E+02  0.41800000000E+01 0.  1.
         -5    1    3    3    0  502  0.25059546302E+02  0.12741017561E+02  0.23673194365E+03  0.23843196081E+03  0.41800000000E+01 0.  1.
        -11    1    1    2    0    0 -0.48985681710E+02 -0.32011869147E+02  0.52319686091E+02  0.78496537067E+02  0.00000000000E+00 0.  1.
         11    1    1    2    0    0 -0.47199488986E+02  0.16617417591E+02  0.19401145770E+03  0.20036061500E+03  0.00000000000E+00 0. -1.
</event>
<event>
 7    1  0.2661133E-009  0.1317347E+03  0.7561462E-02  0.1224904E+00
          2   -1    0    0  501    0  0.00000000000E+00  0.00000000000E+00  0.13501986088E+04  0.13501986088E+04  0.00000000000E+00 0. -1.
         -2   -1    0    0    0  501 -0.00000000000E+00 -0.00000000000E+00 -0.18457833847E+02  0.18457833847E+02  0.00000000000E+00 0.  1.
         25    2    1    2    0    0 -0.94922165668E+02  0.59996314182E+02  0.80437082838E+03  0.82174796696E+03  0.12509003323E+03 0.  0.
          5    1    3    3  502    0 -0.19214428316E+02  0.54491687693E+02  0.61447903630E+03  0.61720377246E+03  0.41800000000E+01 0.  1.
         -5    1    3    3    0  502 -0.75707737352E+02  0.55046264895E+01  0.18989179208E+03  0.20454419450E+03  0.41800000000E+01 0.  1.
        -11    1    1    2    0    0  0.46424058370E+02  0.68529260379E+01  0.86885270786E+02  0.98748195276E+02  0.00000000000E+00 0.  1.
         11    1    1    2    0    0  0.48498107298E+02 -0.66849240220E+02  0.44048467583E+03  0.44816028045E+03  0.00000000000E+00 0. -1.
</event>
<event>
 7    1  0.2698097E-009  0.1174545E+03  0.7561462E-02  0.1247356E+00
         -2   -1    0    0    0  501 -0.00000000000E+00  0.00000000000E+00  0.27060976839E+02  0.27060976839E+02  0.00000000000E+00 0.  1.
          2   -1    0    0  501    0  0.00000000000E+00 -0.00000000000E+00 -0.61784301557E+03  0.61784301557E+03  0.00000000000E+00 0. -1.
         25    2    1    2    0    0  0.67635767798E+02  0.79803618628E+01 -0.28296468741E+03  0.31678957311E+03  0.12509330937E+03 0.  0.
          5    1    3    3  502    0  0.60902783540E+02  0.62410981077E+02 -0.16710329661E+03  0.18853451604E+03  0.41800000000E+01 0.  1.
         -5    1    3    3    0  502  0.67329842581E+01 -0.54430619214E+02 -0.11586139080E+03  0.12825505707E+03  0.41800000000E+01 0.  1.
        -11    1    1    2    0    0 -0.43529497731E+02 -0.35389515786E+02 -0.26917127770E+03  0.27495529043E+03  0.00000000000E+00 0. -1.
         11    1    1    2    0    0 -0.24106270067E+02  0.27409153923E+02 -0.38646073633E+02  0.53159128873E+02  0.00000000000E+00 0.  1.
</event>
<event>
 7    1  0.2661133E-009  0.2174216E+03  0.7561462E-02  0.1135820E+00
          2   -1    0    0  501    0  0.00000000000E+00  0.00000000000E+00  0.20830698128E+03  0.20830698128E+03  0.00000000000E+00 0. -1.
         -2   -1    0    0    0  501 -0.00000000000E+00 -0.00000000000E+00 -0.48766049421E+03  0.48766049421E+03  0.00000000000E+00 0.  1.
         25    2    1    2    0    0  0.15787042187E+03  0.13051395181E+03  0.96316944663E+02  0.25861371179E+03  0.12508851417E+03 0.  0.
          5    1    3    3  502    0  0.14035930306E+03  0.77373191753E+02  0.16674343682E+02  0.16119196908E+03  0.41800000000E+01 0. -1.
         -5    1    3    3    0  502  0.17511118808E+02  0.53140760057E+02  0.79642600981E+02  0.97421742709E+02  0.41800000000E+01 0. -1.
        -11    1    1    2    0    0 -0.47076531107E+02  0.17357924250E+00 -0.12638257734E+03  0.13486580651E+03  0.00000000000E+00 0.  1.
         11    1    1    2    0    0 -0.11079389076E+03 -0.13068753105E+03 -0.24928788025E+03  0.30248795719E+03  0.00000000000E+00 0. -1.
</event>
<event>
 7    1  0.2661133E-009  0.2593188E+03  0.7561462E-02  0.1107553E+00
         -2   -1    0    0    0  501 -0.00000000000E+00  0.00000000000E+00  0.49082084376E+02  0.49082084376E+02  0.00000000000E+00 0.  1.
          2   -1    0    0  501    0  0.00000000000E+00 -0.00000000000E+00 -0.19436696910E+04  0.19436696910E+04  0.00000000000E+00 0. -1.
         25    2    1    2    0    0 -0.12924807607E+03  0.19887947362E+03 -0.43386641737E+03  0.51004614573E+03  0.12509553334E+03 0.  0.
          5    1    3    3  502    0 -0.72728950301E+02  0.19419622381E+03 -0.30120007232E+03  0.36570565968E+03  0.41800000000E+01 0.  1.
         -5    1    3    3    0  502 -0.56519125767E+02  0.46832498110E+01 -0.13266634505E+03  0.14434048605E+03  0.41800000000E+01 0.  1.
        -11    1    1    2    0    0  0.35824684709E+02 -0.13475311876E+01 -0.21249072587E+03  0.21549369470E+03  0.00000000000E+00 0.  1.
         11    1    1    2    0    0  0.93423391360E+02 -0.19753194244E+03 -0.12482304634E+04  0.12672119350E+04  0.00000000000E+00 0. -1.
</event>
<event>
 7    1  0.2661133E-009  0.8499255E+02  0.7561462E-02  0.1315452E+00
         -1   -1    0    0    0  501 -0.00000000000E+00  0.00000000000E+00  0.61421059994E+02  0.61421059994E+02  0.00000000000E+00 0.  1.
          1   -1    0    0  501    0  0.00000000000E+00 -0.00000000000E+00 -0.28839876054E+03  0.28839876054E+03  0.00000000000E+00 0. -1.
         25    2    1    2    0    0 -0.27567199993E+02 -0.13276883521E+02 -0.32129662618E+02  0.13272672410E+03  0.12509133431E+03 0.  0.
          5    1    3    3  502    0 -0.26818030103E+02  0.27855304144E+02  0.36022138039E+02  0.53011239718E+02  0.41800000000E+01 0.  1.
         -5    1    3    3    0  502 -0.74916988956E+00 -0.41132187665E+02 -0.68151800658E+02  0.79715484383E+02  0.41800000000E+01 0.  1.
        -11    1    1    2    0    0 -0.17301720090E+02  0.35633589393E+02 -0.12493809748E+03  0.13106727437E+03  0.00000000000E+00 0.  1.
         11    1    1    2    0    0  0.44868920083E+02 -0.22356705871E+02 -0.69909940450E+02  0.86025822057E+02  0.00000000000E+00 0. -1.
</event>
<event>
 7    1  0.3096619E-009  0.7808735E+02  0.7561462E-02  0.1334569E+00
         -3   -1    0    0    0  501 -0.00000000000E+00  0.00000000000E+00  0.11439376591E+03  0.11439376591E+03  0.00000000000E+00 0.  1.
          3   -1    0    0  501    0  0.00000000000E+00 -0.00000000000E+00 -0.16150617834E+03  0.16150617834E+03  0.00000000000E+00 0. -1.
         25    2    1    2    0    0 -0.11624648706E+02 -0.18118878321E+02  0.54165803436E+02  0.13800493104E+03  0.12509196825E+03 0.  0.
          5    1    3    3  502    0  0.24852955025E+02 -0.38914980891E+02 -0.21702932566E+02  0.51191159327E+02  0.41800000000E+01 0.  1.
         -5    1    3    3    0  502 -0.36477603732E+02  0.20796102570E+02  0.75868736002E+02  0.86813771711E+02  0.41800000000E+01 0.  1.
        -11    1    1    2    0    0  0.92634014177E+01 -0.23846896266E+02  0.27170264268E+01  0.25726781765E+02  0.00000000000E+00 0.  1.
         11    1    1    2    0    0  0.23612472886E+01  0.41965774587E+02 -0.10399524230E+03  0.11216823145E+03  0.00000000000E+00 0. -1.
</event>
<event>
 7    1  0.2661133E-009  0.1058503E+03  0.7561462E-02  0.1268453E+00
         -1   -1    0    0    0  501 -0.00000000000E+00  0.00000000000E+00  0.24010079246E+02  0.24010079246E+02  0.00000000000E+00 0.  1.
          1   -1    0    0  501    0  0.00000000000E+00 -0.00000000000E+00 -0.92993461915E+03  0.92993461915E+03  0.00000000000E+00 0. -1.
         25    2    1    2    0    0 -0.95866545502E+01 -0.10586567010E+02 -0.81519730747E+03  0.82486224783E+03  0.12508836257E+03 0.  0.
          5    1    3    3  502    0  0.13142740834E+02 -0.63809966995E+02 -0.51375519617E+03  0.51788639441E+03  0.41800000000E+01 0.  1.
         -5    1    3    3    0  502 -0.22729395384E+02  0.53223399985E+02 -0.30144211130E+03  0.30697585343E+03  0.41800000000E+01 0.  1.
        -11    1    1    2    0    0 -0.31745133311E+02 -0.19512889390E+02 -0.21500575568E+02  0.43020705376E+02  0.00000000000E+00 0.  1.
         11    1    1    2    0    0  0.41331787861E+02  0.30099456400E+02 -0.69226656866E+02  0.86061745185E+02  0.00000000000E+00 0. -1.
</event>
<event>
 7    1  0.2728604E-009  0.1176699E+03  0.7561462E-02  0.1246991E+00
         -1   -1    0    0    0  501 -0.00000000000E+00  0.00000000000E+00  0.22370566611E+02  0.22370566611E+02  0.00000000000E+00 0.  1.
          1   -1    0    0  501    0  0.00000000000E+00 -0.00000000000E+00 -0.78611027811E+03  0.78611027811E+03  0.00000000000E+00 0. -1.
         25    2    1    2    0    0  0.61358210942E+02 -0.45690055056E+02 -0.42762675433E+03  0.45206711106E+03  0.12509045009E+03 0.  0.
          5    1    3    3  502    0  0.22831746835E+02  0.37795675650E+02 -0.22758039131E+03  0.23186226228E+03  0.41800000000E+01 0.  1.
         -5    1    3    3    0  502  0.38526464107E+02 -0.83485730706E+02 -0.20004636302E+03  0.22020484878E+03  0.41800000000E+01 0.  1.
        -11    1    1    2    0    0 -0.58467859472E+02  0.55836253764E+01 -0.92972345264E+02  0.10997056173E+03  0.00000000000E+00 0.  1.
         11    1    1    2    0    0 -0.28903514702E+01  0.40106429680E+02 -0.24314061190E+03  0.24644317193E+03  0.00000000000E+00 0. -1.
</event>
<event>
 7    1  0.2661133E-009  0.8695053E+02  0.7561462E-02  0.1310409E+00
         -1   -1    0    0    0  501 -0.00000000000E+00  0.00000000000E+00  0.66935703896E+02  0.66935703896E+02  0.00000000000E+00 0.  1.
          1   -1    0    0  501    0  0.00000000000E+00 -0.00000000000E+00 -0.25688917385E+03  0.25688917385E+03  0.00000000000E+00 0. -1.
         25    2    1    2    0    0 -0.29444695885E+02  0.50561789362E+01 -0.18831220959E+03  0.22803547907E+03  0.12508451691E+03 0.  0.
          5    1    3    3  502    0 -0.28620714874E+02  0.52236008154E+02 -0.38825801736E+02  0.71222616830E+02  0.41800000000E+01 0. -1.
         -5    1    3    3    0  502 -0.82398101049E+00 -0.47179829217E+02 -0.14948640785E+03  0.15681286224E+03  0.41800000000E+01 0. -1.
        -11    1    1    2    0    0 -0.17622229452E+02 -0.86212203843E+01  0.32202982384E+02  0.37708095765E+02  0.00000000000E+00 0.  1.
         11    1    1    2    0    0  0.47066925337E+02  0.35650414480E+01 -0.33844242753E+02  0.58081302918E+02  0.00000000000E+00 0. -1.
</event>
<event>
 7    1  0.2661133E-009  0.9514702E+02  0.7561462E-02  0.1290845E+00
         -1   -1    0    0    0  501 -0.00000000000E+00  0.00000000000E+00  0.18493058446E+02  0.18493058446E+02  0.00000000000E+00 0.  1.
          1   -1    0    0  501    0  0.00000000000E+00 -0.00000000000E+00 -0.68284910173E+03  0.68284910173E+03  0.00000000000E+00 0. -1.
         25    2    1    2    0    0 -0.58869888504E+01 -0.98774779940E+01 -0.28644688376E+03  0.31277941382E+03  0.12508766241E+03 0.  0.
          5    1    3    3  502    0 -0.39668629747E+02  0.31464941502E+02 -0.53592355462E+02  0.73846162349E+02  0.41800000000E+01 0.  1.
         -5    1    3    3    0  502  0.33781640897E+02 -0.41342419496E+02 -0.23285452829E+03  0.23893325147E+03  0.41800000000E+01 0.  1.
        -11    1    1    2    0    0  0.40455833137E+02  0.25689797391E+02 -0.14895703457E+03  0.15647631857E+03  0.00000000000E+00 0. -1.
         11    1    1    2    0    0 -0.34568844287E+02 -0.15812319397E+02 -0.22895212496E+03  0.23208642779E+03  0.00000000000E+00 0.  1.
</event>
<event>
 7    1  0.2661133E-009  0.1505546E+03  0.7561462E-02  0.1199793E+00
         -3   -1    0    0    0  501 -0.00000000000E+00  0.00000000000E+00  0.13261324093E+03  0.13261324093E+03  0.00000000000E+00 0.  1.
          3   -1    0    0  501    0  0.00000000000E+00 -0.00000000000E+00 -0.17899164934E+03  0.17899164934E+03  0.00000000000E+00 0. -1.
         25    2    1    2    0    0  0.78188411982E+02 -0.70946906719E+02 -0.52988348283E+02  0.17205632215E+03  0.12509485041E+03 0.  0.
          5    1    3    3  502    0  0.58328852051E+02 -0.10718627930E+03 -0.37542064500E+02  0.12774205438E+03  0.41800000000E+01 0. -1.
         -5    1    3    3    0  502  0.19859559931E+02  0.36239372577E+02 -0.15446283783E+02  0.44314267771E+02  0.41800000000E+01 0. -1.
        -11    1    1    2    0    0 -0.97949423140E+02  0.57664606416E+02  0.14226600986E+02  0.11454995636E+03  0.00000000000E+00 0.  1.
         11    1    1    2    0    0  0.19761011158E+02  0.13282300303E+02 -0.76166611169E+01  0.24998611760E+02  0.00000000000E+00 0. -1.
</event>
<event>
 7    1  0.2661133E-009  0.1763639E+03  0.7561462E-02  0.1171369E+00
         -2   -1    0    0    0  501 -0.00000000000E+00  0.00000000000E+00  0.19020468316E+02  0.19020468316E+02  0.00000000000E+00 0. -1.
          2   -1    0    0  501    0  0.00000000000E+00 -0.00000000000E+00 -0.22599379798E+04  0.22599379798E+04  0.00000000000E+00 0.  1.
         25    2    1    2    0    0  0.13670198071E+03  0.71294198626E+02 -0.16463368739E+04  0.16582649593E+04  0.12508908221E+03 0.  0.
          5    1    3    3  502    0  0.20095936497E+01 -0.25486555340E+02 -0.11065045205E+03  0.11364241246E+03  0.41800000000E+01 0. -1.
         -5    1    3    3    0  502  0.13469238706E+03  0.96780753965E+02 -0.15356864219E+04  0.15446225468E+04  0.41800000000E+01 0. -1.
        -11    1    1    2    0    0 -0.52009365402E+02 -0.53021751178E+02 -0.41147093487E+03  0.41812033008E+03  0.00000000000E+00 0.  1.
         11    1    1    2    0    0 -0.84692615304E+02 -0.18272447448E+02 -0.18310970270E+03  0.20257315875E+03  0.00000000000E+00 0. -1.
</event>
<event>
 7    1  0.2661133E-009  0.9377562E+02  0.7561462E-02  0.1293958E+00
          2   -1    0    0  501    0  0.00000000000E+00  0.00000000000E+00  0.30239601832E+03  0.30239601832E+03  0.00000000000E+00 0. -1.
         -2   -1    0    0    0  501 -0.00000000000E+00 -0.00000000000E+00 -0.54398968952E+02  0.54398968952E+02  0.00000000000E+00 0.  1.
         25    2    1    2    0    0 -0.26271324561E+02 -0.43983954926E+02  0.74450574997E+02  0.15432194013E+03  0.12509037654E+03 0.  0.
          5    1    3    3  502    0 -0.13311509128E+01  0.41405643107E+02  0.43053722652E+02  0.59894028735E+02  0.41800000000E+01 0. -1.
         -5    1    3    3    0  502 -0.24940173648E+02 -0.85389598033E+02  0.31396852344E+02  0.94427911398E+02  0.41800000000E+01 0. -1.
        -11    1    1    2    0    0  0.23814399756E+02  0.15825995654E+02  0.17179023832E+03  0.17415359243E+03  0.00000000000E+00 0. -1.
         11    1    1    2    0    0  0.24569248048E+01  0.28157959272E+02  0.17562360487E+01  0.28319454707E+02  0.00000000000E+00 0.  1.
</event>
<event>
 7    1  0.2661133E-009  0.1129951E+03  0.7561462E-02  0.1255122E+00
          1   -1    0    0  501    0  0.00000000000E+00  0.00000000000E+00  0.32534504261E+03  0.32534504261E+03  0.00000000000E+00 0. -1.
         -1   -1    0    0    0  501 -0.00000000000E+00 -0.00000000000E+00 -0.47001387742E+02  0.47001387742E+02  0.00000000000E+00 0.  1.
         25    2    1    2    0    0  0.40201518095E+02  0.16195312778E+02  0.20585189712E+03  0.24475417604E+03  0.12510456798E+03 0.  0.
          5    1    3    3  502    0  0.76903749666E+02 -0.17887706784E+02  0.15037731256E+03  0.16989692551E+03  0.41800000000E+01 0.  1.
         -5    1    3    3    0  502 -0.36702231570E+02  0.34083019561E+02  0.55474584558E+02  0.74857250527E+02  0.41800000000E+01 0.  1.
        -11    1    1    2    0    0 -0.74410852379E+01 -0.49434715826E+02  0.62201833188E+02  0.79801183765E+02  0.00000000000E+00 0. -1.
         11    1    1    2    0    0 -0.32760432858E+02  0.33239403048E+02  0.10289924560E+02  0.47791070541E+02  0.00000000000E+00 0.  1.
</event>
<event>
 7    1  0.2661133E-009  0.9986324E+02  0.7561462E-02  0.1280584E+00
          1   -1    0    0  501    0  0.00000000000E+00  0.00000000000E+00  0.37624701064E+02  0.37624701064E+02  0.00000000000E+00 0. -1.
         -1   -1    0    0    0  501 -0.00000000000E+00 -0.00000000000E+00 -0.46504011155E+03  0.46504011155E+03  0.00000000000E+00 0.  1.
         25    2    1    2    0    0 -0.30217905443E+02  0.61105704087E+02 -0.30216821760E+03  0.33406734920E+03  0.12509329797E+03 0.  0.
          5    1    3    3  502    0 -0.51010555449E+02 -0.16800170983E+01 -0.23186518205E+03  0.23745280430E+03  0.41800000000E+01 0. -1.
         -5    1    3    3    0  502  0.20792650006E+02  0.62785721186E+02 -0.70303035549E+02  0.96614544901E+02  0.41800000000E+01 0. -1.
        -11    1    1    2    0    0  0.99060067063E+01 -0.61137058103E+02 -0.25793546007E+02  0.67090803081E+02  0.00000000000E+00 0. -1.
         11    1    1    2    0    0  0.20311898737E+02  0.31354016124E-01 -0.99453646882E+02  0.10150666033E+03  0.00000000000E+00 0.  1.
</event>
<event>
 7    1  0.2661133E-009  0.1113353E+03  0.7561462E-02  0.1258117E+00
          4   -1    0    0  501    0  0.00000000000E+00  0.00000000000E+00  0.16109145807E+03  0.16109145807E+03  0.00000000000E+00 0.  1.
         -4   -1    0    0    0  501 -0.00000000000E+00 -0.00000000000E+00 -0.95244835548E+02  0.95244835548E+02  0.00000000000E+00 0. -1.
         25    2    1    2    0    0 -0.10945152291E+02 -0.56434128323E+02  0.40014336029E+02  0.14336535280E+03  0.12509144694E+03 0.  0.
          5    1    3    3  502    0 -0.23974810533E+02  0.22161557710E+02 -0.24282368146E+02  0.40902713638E+02  0.41800000000E+01 0. -1.
         -5    1    3    3    0  502  0.13029658242E+02 -0.78595686033E+02  0.64296704175E+02  0.10246263916E+03  0.41800000000E+01 0. -1.
        -11    1    1    2    0    0  0.20960001540E+02 -0.22302880168E+02  0.73009633263E+01  0.31464967724E+02  0.00000000000E+00 0. -1.
         11    1    1    2    0    0 -0.10014849249E+02  0.78737008491E+02  0.18531323167E+02  0.81505973093E+02  0.00000000000E+00 0.  1.
</event>
<event>
 7    1  0.2661133E-009  0.1346646E+03  0.7561462E-02  0.1220694E+00
         -2   -1    0    0    0  501 -0.00000000000E+00  0.00000000000E+00  0.15456988988E+04  0.15456988988E+04  0.00000000000E+00 0.  1.
          2   -1    0    0  501    0  0.00000000000E+00 -0.00000000000E+00 -0.22264639299E+02  0.22264639299E+02  0.00000000000E+00 0. -1.
         25    2    1    2    0    0  0.86229349314E+02  0.85638036558E+02  0.11633039889E+04  0.11763017297E+04  0.12506084353E+03 0.  0.
          5    1    3    3  502    0  0.51188979094E+02 -0.32017548702E+01  0.76336157245E+03  0.76509406317E+03  0.41800000000E+01 0. -1.
         -5    1    3    3    0  502  0.35040370220E+02  0.88839791429E+02  0.39994241648E+03  0.41120766650E+03  0.41800000000E+01 0. -1.
        -11    1    1    2    0    0 -0.42868510867E+02 -0.33114500838E+02  0.48606933876E+02  0.72779897022E+02  0.00000000000E+00 0. -1.
         11    1    1    2    0    0 -0.43360838448E+02 -0.52523535721E+02  0.31152333673E+03  0.31888191144E+03  0.00000000000E+00 0.  1.
</event>
<event>
 7    1  0.2661133E-009  0.9045056E+02  0.7561462E-02  0.1301764E+00
         -1   -1    0    0    0  501 -0.00000000000E+00  0.00000000000E+00  0.39168684086E+02  0.39168684086E+02  0.00000000000E+00 0.  1.
          1   -1    0    0  501    0  0.00000000000E+00 -0.00000000000E+00 -0.33282512847E+03  0.33282512847E+03  0.00000000000E+00 0. -1.
         25    2    1    2    0    0  0.24000053050E+02  0.45993863835E+02 -0.16112805005E+03  0.21047912424E+03  0.12509106751E+03 0.  0.
          5    1    3    3  502    0  0.48766168728E+02 -0.69892118226E+01 -0.13946684116E+03  0.14797114745E+03  0.41800000000E+01 0. -1.
         -5    1    3    3    0  502 -0.24766115679E+02  0.52983075658E+02 -0.21661208894E+02  0.62507976793E+02  0.41800000000E+01 0. -1.
        -11    1    1    2    0    0  0.14318335594E+02 -0.19582913965E+01 -0.85055146411E+02  0.86274141956E+02  0.00000000000E+00 0. -1.
         11    1    1    2    0    0 -0.38318388644E+02 -0.44035572439E+02 -0.47473247920E+02  0.75240546359E+02  0.00000000000E+00 0.  1.
</event>
<event>
 7    1  0.2661133E-009  0.9834728E+02  0.7561462E-02  0.1283810E+00
          3   -1    0    0  501    0  0.00000000000E+00  0.00000000000E+00  0.12767980953E+02  0.12767980953E+02  0.00000000000E+00 0. -1.
         -3   -1    0    0    0  501 -0.00000000000E+00 -0.00000000000E+00 -0.13624529094E+04  0.13624529094E+04  0.00000000000E+00 0.  1.
         25    2    1    2    0    0 -0.60647846764E+02 -0.35829465942E+02 -0.88163330651E+03  0.89324346088E+03  0.12507870047E+03 0.  0.
          5    1    3    3  502    0 -0.56305386327E+02 -0.60485474312E+01 -0.14124227880E+03  0.15222921919E+03  0.41800000000E+01 0.  1.
         -5    1    3    3    0  502 -0.43424604369E+01 -0.29780918511E+02 -0.74039102771E+03  0.74101424169E+03  0.41800000000E+01 0.  1.
        -11    1    1    2    0    0  0.80498747776E+02  0.38958374417E+02 -0.42707834689E+03  0.43634128582E+03  0.00000000000E+00 0. -1.
         11    1    1    2    0    0 -0.19850901012E+02 -0.31289084752E+01 -0.40973275050E+02  0.45636143654E+02  0.00000000000E+00 0.  1.
</event>
<event>
 6    1  0.2661133E-009  0.1359533E+03  0.7561462E-02  0.1218880E+00
         -1   -1    0    0    0  501 -0.00000000000E+00  0.00000000000E+00  0.36315637172E+02  0.36315637172E+02  0.00000000000E+00 0.  1.
          1   -1    0    0  501    0  0.00000000000E+00 -0.00000000000E+00 -0.62167877817E+03  0.62167877817E+03  0.00000000000E+00 0. -1.
          5    1    1    2  502    0  0.58222068029E+01 -0.86697503958E+02 -0.21215177728E+03  0.22929501584E+03  0.41800000000E+01 0.  1.
         -5    1    1    2    0  502  0.52438026173E+02  0.76530548454E+01 -0.32031146718E+02  0.62062731147E+02  0.41800000000E+01 0.  1.
        -11    1    1    2    0    0 -0.13933149950E+02 -0.19345685342E+02 -0.38386269072E+02  0.45187319705E+02  0.00000000000E+00 0.  1.
         11    1    1    2    0    0 -0.44327083026E+02  0.98390134454E+02 -0.30279394792E+03  0.32144934865E+03  0.00000000000E+00 0. -1.
</event>
<event>
 7    1  0.2661133E-009  0.8410346E+02  0.7561462E-02  0.1317794E+00
          2   -1    0    0  501    0  0.00000000000E+00  0.00000000000E+00  0.48189862823E+03  0.48189862823E+03  0.00000000000E+00 0. -1.
         -2   -1    0    0    0  501 -0.00000000000E+00 -0.00000000000E+00 -0.29189247063E+02  0.29189247063E+02  0.00000000000E+00 0.  1.
         25    2    1    2    0    0 -0.93567426600E+01 -0.23355584877E+02  0.19243916209E+03  0.23089833035E+03  0.12509266915E+03 0.  0.
          5    1    3    3  502    0  0.24250254770E+02 -0.26362370374E+01 -0.84286981011E+01  0.26144597029E+02  0.41800000000E+01 0.  1.
         -5    1    3    3    0  502 -0.33606997430E+02 -0.20719347840E+02  0.20086786019E+03  0.20475373332E+03  0.41800000000E+01 0.  1.
        -11    1    1    2    0    0  0.43553320482E+02  0.45524699740E+02  0.15844112949E+03  0.17050801015E+03  0.00000000000E+00 0.  1.
         11    1    1    2    0    0 -0.34196577822E+02 -0.22169114863E+02  0.10182908959E+03  0.10968153480E+03  0.00000000000E+00 0. -1.
</event>
<event>
 6    1  0.2661133E-009  0.1087361E+03  0.7561462E-02  0.1262928E+00
         -2   -1    0    0    0  501 -0.00000000000E+00  0.00000000000E+00  0.36361851156E+02  0.36361851156E+02  0.00000000000E+00 0.  1.
          2   -1    0    0  501    0  0.00000000000E+00 -0.00000000000E+00 -0.49502123018E+03  0.49502123018E+03  0.00000000000E+00 0. -1.
          5    1    1    2  502    0 -0.31781704527E+02  0.82020586316E+02 -0.15936820088E+03  0.18208006254E+03  0.41800000000E+01 0. -1.
         -5    1    1    2    0  502  0.25297364164E+02 -0.18554150669E+02 -0.22253550300E+03  0.22477485544E+03  0.41800000000E+01 0. -1.
        -11    1    1    2    0    0 -0.32345412716E+02 -0.14989256270E+02 -0.32735716429E+02  0.48399696873E+02  0.00000000000E+00 0. -1.
         11    1    1    2    0    0  0.38829753079E+02 -0.48477179377E+02 -0.44019958714E+02  0.76128466487E+02  0.00000000000E+00 0.  1.
</event>
<event>
 7    1  0.2661133E-009  0.1117296E+03  0.7561462E-02  0.1257400E+00
          1   -1    0    0  501    0  0.00000000000E+00  0.00000000000E+00  0.26506728941E+03  0.26506728941E+03  0.00000000000E+00 0. -1.
         -1   -1    0    0    0  501 -0.00000000000E+00 -0.00000000000E+00 -0.71841846936E+02  0.71841846936E+02  0.00000000000E+00 0.  1.
         25    2    1    2    0    0  0.52592032229E+02 -0.40322897431E+02  0.17181513353E+03  0.22261710679E+03  0.12508428445E+03 0.  0.
          5    1    3    3  502    0 -0.24028189413E+02 -0.21191289740E+02  0.12839578423E+03  0.13239854401E+03  0.41800000000E+01 0.  1.
         -5    1    3    3    0  502  0.76620221642E+02 -0.19131607692E+02  0.43419349299E+02  0.90218562785E+02  0.41800000000E+01 0.  1.
        -11    1    1    2    0    0 -0.37179924439E+02 -0.25095794193E+02  0.11936493669E+02  0.46417944252E+02  0.00000000000E+00 0.  1.
         11    1    1    2    0    0 -0.15412107791E+02  0.65418691624E+02  0.94738152826E+01  0.67874085308E+02  0.00000000000E+00 0. -1.
</event>
<event>
 7    1  0.2661133E-009  0.1045295E+03  0.7561462E-02  0.1271049E+00
          4   -1    0    0  501    0  0.00000000000E+00  0.00000000000E+00  0.34329327153E+02  0.34329327153E+02  0.00000000000E+00 0. -1.
         -4   -1    0    0    0  501 -0.00000000000E+00 -0.00000000000E+00 -0.40699091928E+03  0.40699091928E+03  0.00000000000E+00 0.  1.
         25    2    1    2    0    0  0.18084235132E+02 -0.16767366345E+02 -0.13495519093E+03  0.18565069419E+03  0.12508034442E+03 0.  0.
          5    1    3    3  502    0 -0.25272284165E+02 -0.58086588480E+02 -0.46278540760E+02  0.78561541756E+02  0.41800000000E+01 0. -1.
         -5    1    3    3    0  502  0.43356519298E+02  0.41319222135E+02 -0.88676650170E+02  0.10708915243E+03  0.41800000000E+01 0. -1.
        -11    1    1    2    0    0  0.23418536081E+02  0.33428198384E+02 -0.61026150233E+02  0.73417050415E+02  0.00000000000E+00 0. -1.
         11    1    1    2    0    0 -0.41502771213E+02 -0.16660832039E+02 -0.17668025097E+03  0.18225250183E+03  0.00000000000E+00 0.  1.
</event>
<event>
 7    1  0.2661133E-009  0.8173576E+02  0.7561462E-02  0.1324197E+00
          2   -1    0    0  501    0  0.00000000000E+00  0.00000000000E+00  0.31868210814E+03  0.31868210814E+03  0.00000000000E+00 0.  1.
         -2   -1    0    0    0  501 -0.00000000000E+00 -0.00000000000E+00 -0.42301575688E+02  0.42301575688E+02  0.00000000000E+00 0. -1.
         25    2    1    2    0    0 -0.12830754658E+02 -0.26532710052E+02  0.11764825843E+03  0.17423620749E+03  0.12509408589E+03 0.  0.
          5    1    3    3  502    0 -0.41380326710E+02  0.19081514358E+02  0.11073999385E+03  0.11982176040E+03  0.41800000000E+01 0.  1.
         -5    1    3    3    0  502  0.28549572052E+02 -0.45614224411E+02  0.69082645808E+01  0.54414447093E+02  0.41800000000E+01 0.  1.
        -11    1    1    2    0    0 -0.20440244535E+02  0.22215397017E+02  0.14869468952E+03  0.15172817192E+03  0.00000000000E+00 0.  1.
         11    1    1    2    0    0  0.33270999193E+02  0.43173130351E+01  0.10037584504E+02  0.35019304417E+02  0.00000000000E+00 0. -1.
</event>
<event>
 7    1  0.2661133E-009  0.1588567E+03  0.7561462E-02  0.1189994E+00
         -2   -1    0    0    0  501 -0.00000000000E+00  0.00000000000E+00  0.44414584254E+02  0.44414584254E+02  0.00000000000E+00 0.  1.
          2   -1    0    0  501    0  0.00000000000E+00 -0.00000000000E+00 -0.75134751518E+03  0.75134751518E+03  0.00000000000E+00 0. -1.
         25    2    1    2    0    0 -0.85367175086E+02 -0.10154736576E+03 -0.50745723867E+03  0.53922118559E+03  0.12508883179E+03 0.  0.
          5    1    3    3  502    0 -0.92489667339E+02 -0.12582214472E+03 -0.42129052755E+03  0.44932029965E+03  0.41800000000E+01 0. -1.
         -5    1    3    3    0  502  0.71224922532E+01  0.24274778962E+02 -0.86166711113E+02  0.89900885944E+02  0.41800000000E+01 0. -1.
        -11    1    1    2    0    0  0.65168595465E+02  0.93817013375E+02 -0.91325697567E+02  0.14624965255E+03  0.00000000000E+00 0.  1.
         11    1    1    2    0    0  0.20198579621E+02  0.77303523874E+01 -0.10814999469E+03  0.11029126129E+03  0.00000000000E+00 0. -1.
</event>
<event>
 7    1  0.2661133E-009  0.1168158E+03  0.7561462E-02  0.1248444E+00
         -2   -1    0    0    0  501 -0.00000000000E+00  0.00000000000E+00  0.25315162797E+02  0.25315162797E+02  0.00000000000E+00 0.  1.
          2   -1    0    0  501    0  0.00000000000E+00 -0.00000000000E+00 -0.72246503475E+03  0.72246503475E+03  0.00000000000E+00 0. -1.
         25    2    1    2    0    0  0.34123488674E+02 -0.74381988662E+02 -0.37208085566E+03  0.40098420475E+03  0.12508827518E+03 0.  0.
          5    1    3    3  502    0  0.47854483827E+02 -0.92393004450E+02 -0.36043515652E+03  0.37517661621E+03  0.41800000000E+01 0. -1.
         -5    1    3    3    0  502 -0.13730995153E+02  0.18011015788E+02 -0.11645699142E+02  0.25807588537E+02  0.41800000000E+01 0. -1.
        -11    1    1    2    0    0  0.16698092203E+02  0.44455842857E+02 -0.67311410990E+02  0.82377025297E+02  0.00000000000E+00 0.  1.
         11    1    1    2    0    0 -0.50821580877E+02  0.29926145805E+02 -0.25775760530E+03  0.26441896750E+03  0.00000000000E+00 0. -1.
</event>
<event>
 7    1  0.2661133E-009  0.2167734E+03  0.7561462E-02  0.1136312E+00
         -2   -1    0    0    0  501 -0.00000000000E+00  0.00000000000E+00  0.13241439409E+03  0.13241439409E+03  0.00000000000E+00 0. -1.
          2   -1    0    0  501    0  0.00000000000E+00 -0.00000000000E+00 -0.65094123161E+03  0.65094123161E+03  0.00000000000E+00 0.  1.
         25    2    1    2    0    0 -0.13048832900E+03  0.13540838516E+03 -0.18819583017E+02  0.22663793127E+03  0.12509172799E+03 0.  0.
          5    1    3    3  502    0 -0.35711975723E+02  0.35441994539E+02  0.51327824748E+02  0.71996515056E+02  0.41800000000E+01 0.  1.
         -5    1    3    3    0  502 -0.94776353277E+02  0.99966390619E+02 -0.70147407765E+02  0.15464141622E+03  0.41800000000E+01 0.  1.
        -11    1    1    2    0    0  0.34580767526E+02  0.35314213694E+02 -0.92624734944E+02  0.10498697393E+03  0.00000000000E+00 0.  1.
         11    1    1    2    0    0  0.95907561473E+02 -0.17072259885E+03 -0.40708251957E+03  0.45173072050E+03  0.00000000000E+00 0. -1.
</event>
<event>
 7    1  0.2661133E-009  0.1342597E+03  0.7561462E-02  0.1221268E+00
          1   -1    0    0  501    0  0.00000000000E+00  0.00000000000E+00  0.52923374534E+03  0.52923374534E+03  0.00000000000E+00 0. -1.
         -1   -1    0    0    0  501 -0.00000000000E+00 -0.00000000000E+00 -0.38740978961E+02  0.38740978961E+02  0.00000000000E+00 0.  1.
         25    2    1    2    0    0 -0.78244175776E+02  0.45432972665E+02  0.25849673502E+03  0.30109072845E+03  0.12509499867E+03 0.  0.
          5    1    3    3  502    0 -0.44517674721E+02  0.84770251593E+02  0.12276791345E+03  0.15574739770E+03  0.41800000000E+01 0. -1.
         -5    1    3    3    0  502 -0.33726501055E+02 -0.39337278928E+02  0.13572882157E+03  0.14534333075E+03  0.41800000000E+01 0. -1.
        -11    1    1    2    0    0  0.15845201201E+02 -0.55296105823E+02  0.16528229623E+03  0.17500562039E+03  0.00000000000E+00 0. -1.
         11    1    1    2    0    0  0.62398974575E+02  0.98631331586E+01  0.66713735127E+02  0.91878375466E+02  0.00000000000E+00 0.  1.
</event>
<event>
 7    1  0.2661133E-009  0.6997813E+02  0.7561462E-02  0.1360167E+00
         -2   -1    0    0    0  501 -0.00000000000E+00  0.00000000000E+00  0.51654707503E+03  0.51654707503E+03  0.00000000000E+00 0.  1.
          2   -1    0    0  501    0  0.00000000000E+00 -0.00000000000E+00 -0.26015000805E+02  0.26015000805E+02  0.00000000000E+00 0. -1.
         25    2    1    2    0    0 -0.21874455749E+02 -0.27297843628E+02  0.22619613999E+03  0.26083787412E+03  0.12509212105E+03 0.  0.
          5    1    3    3  502    0 -0.27058818218E+02 -0.19653587131E+02 -0.70463895455E+00  0.33710711154E+02  0.41800000000E+01 0. -1.
         -5    1    3    3    0  502  0.51843624686E+01 -0.76442564974E+01  0.22690077894E+03  0.22712716297E+03  0.41800000000E+01 0. -1.
        -11    1    1    2    0    0 -0.33983650298E+02  0.20888370386E+02  0.87466721832E+02  0.96133448565E+02  0.00000000000E+00 0.  1.
         11    1    1    2    0    0  0.55858106047E+02  0.64094732425E+01  0.17686921241E+03  0.18559075315E+03  0.00000000000E+00 0. -1.
</event>
<event>
 7    1  0.2661133E-009  0.9412353E+02  0.7561462E-02  0.1293162E+00
          2   -1    0    0  501    0  0.00000000000E+00  0.00000000000E+00  0.21700091438E+03  0.21700091438E+03  0.00000000000E+00 0. -1.
         -2   -1    0    0    0  501 -0.00000000000E+00 -0.00000000000E+00 -0.66537607649E+02  0.66537607649E+02  0.00000000000E+00 0.  1.
         25    2    1    2    0    0  0.39227766247E+02  0.31823044671E+02  0.96191394856E+02  0.16568440361E+03  0.12508802237E+03 0.  0.
          5    1    3    3  502    0  0.73236542508E+02 -0.10808689790E+02  0.79012094996E+02  0.10835498368E+03  0.41800000000E+01 0. -1.
         -5    1    3    3    0  502 -0.34008776261E+02  0.42631734461E+02  0.17179299860E+02  0.57329419931E+02  0.41800000000E+01 0. -1.
        -11    1    1    2    0    0 -0.71738363923E-01 -0.17819432145E+02  0.70872434938E+02  0.73078309658E+02  0.00000000000E+00 0. -1.
         11    1    1    2    0    0 -0.39156027883E+02 -0.14003612525E+02 -0.16600523067E+02  0.44775808752E+02  0.00000000000E+00 0.  1.
</event>
<event>
 7    1  0.2661133E-009  0.1304350E+03  0.7561462E-02  0.1226812E+00
         -1   -1    0    0    0  501 -0.00000000000E+00  0.00000000000E+00  0.85573595978E+02  0.85573595978E+02  0.00000000000E+00 0.  1.
          1   -1    0    0  501    0  0.00000000000E+00 -0.00000000000E+00 -0.22953160722E+03  0.22953160722E+03  0.00000000000E+00 0. -1.
         25    2    1    2    0    0 -0.37886631833E+02  0.69535924021E+02 -0.32016757206E+02  0.15147031036E+03  0.12509012982E+03 0.  0.
          5    1    3    3  502    0 -0.35312887556E+02  0.10244570979E+03 -0.49102308170E+01  0.10855278094E+03  0.41800000000E+01 0. -1.
         -5    1    3    3    0  502 -0.25737442765E+01 -0.32909785772E+02 -0.27106526389E+02  0.42917529426E+02  0.41800000000E+01 0. -1.
        -11    1    1    2    0    0  0.63699548927E+02 -0.26544620965E+02 -0.69479417781E+02  0.97926701828E+02  0.00000000000E+00 0.  1.
         11    1    1    2    0    0 -0.25812917094E+02 -0.42991303056E+02 -0.42461836255E+02  0.65708191008E+02  0.00000000000E+00 0. -1.
</event>
<event>
 7    1  0.2661133E-009  0.9011215E+02  0.7561462E-02  0.1302580E+00
         -2   -1    0    0    0  501 -0.00000000000E+00  0.00000000000E+00  0.73863156910E+02  0.73863156910E+02  0.00000000000E+00 0.  1.
          2   -1    0    0  501    0  0.00000000000E+00 -0.00000000000E+00 -0.16588739965E+03  0.16588739965E+03  0.00000000000E+00 0. -1.
         25    2    1    2    0    0  0.56744139418E+01  0.19541614281E+02 -0.35340047784E+02  0.13157072090E+03  0.12509141441E+03 0.  0.
          5    1    3    3  502    0 -0.36112574193E+02 -0.26270438145E+02 -0.50558932339E+02  0.67586477748E+02  0.41800000000E+01 0.  1.
         -5    1    3    3    0  502  0.41786988135E+02  0.45812052425E+02  0.15218884554E+02  0.63984243153E+02  0.41800000000E+01 0.  1.
        -11    1    1    2    0    0  0.29005221385E+02  0.66589191705E+01  0.74751642720E+01  0.30684232971E+02  0.00000000000E+00 0.  1.
         11    1    1    2    0    0 -0.34679635327E+02 -0.26200533451E+02 -0.64159359232E+02  0.77495602692E+02  0.00000000000E+00 0. -1.
</event>
<event>
 7    1  0.2661133E-009  0.2005494E+03  0.7561462E-02  0.1149276E+00
         -2   -1    0    0    0  501 -0.00000000000E+00  0.00000000000E+00  0.59515883164E+02  0.59515883164E+02  0.00000000000E+00 0.  1.
          2   -1    0    0  501    0  0.00000000000E+00 -0.00000000000E+00 -0.80173423941E+03  0.80173423941E+03  0.00000000000E+00 0. -1.
         25    2    1    2    0    0  0.55938042565E+02 -0.15915453088E+03 -0.54996251276E+03  0.58869769341E+03  0.12508788701E+03 0.  0.
          5    1    3    3  502    0  0.87475211281E+02 -0.15387034542E+03 -0.44628948561E+03  0.48012474749E+03  0.41800000000E+01 0.  1.
         -5    1    3    3    0  502 -0.31537168716E+02 -0.52841854633E+01 -0.10367302715E+03  0.10857294592E+03  0.41800000000E+01 0.  1.
        -11    1    1    2    0    0  0.22169116756E+02  0.69233779664E+02 -0.57378404234E+02  0.92612457352E+02  0.00000000000E+00 0.  1.
         11    1    1    2    0    0 -0.78107159321E+02  0.89920751216E+02 -0.13487743925E+03  0.17993997181E+03  0.00000000000E+00 0. -1.
</event>
<event>
 6    1  0.2661133E-009  0.1038102E+03  0.7561462E-02  0.1272482E+00
          2   -1    0    0  501    0  0.00000000000E+00  0.00000000000E+00  0.18544927680E+04  0.18544927680E+04  0.00000000000E+00 0. -1.
         -2   -1    0    0    0  501 -0.00000000000E+00 -0.00000000000E+00 -0.93882126630E+01  0.93882126630E+01  0.00000000000E+00 0.  1.
          5    1    1    2  502    0  0.41351089401E+02 -0.57797800770E+02  0.11274053373E+04  0.11296507271E+04  0.41800000000E+01 0. -1.
         -5    1    1    2    0  502  0.18597722580E+01  0.50245212646E+02  0.33774092499E+03  0.34148857222E+03  0.41800000000E+01 0. -1.
        -11    1    1    2    0    0  0.17373288905E+02  0.17411580228E+02  0.37641536176E+02  0.44965314845E+02  0.00000000000E+00 0.  1.
         11    1    1    2    0    0 -0.60584150564E+02 -0.98589921042E+01  0.34231675684E+03  0.34777636642E+03  0.00000000000E+00 0. -1.
</event>
<event>
 7    1  0.2740958E-009  0.1786367E+03  0.7561462E-02  0.1169129E+00
          2   -1    0    0  501    0  0.00000000000E+00  0.00000000000E+00  0.58125865244E+03  0.58125865244E+03  0.00000000000E+00 0. -1.
         -2   -1    0    0    0  501 -0.00000000000E+00 -0.00000000000E+00 -0.60988310426E+02  0.60988310426E+02  0.00000000000E+00 0.  1.
         25    2    1    2    0    0 -0.69992802243E+02 -0.13441764384E+03  0.22935922609E+03  0.30202779658E+03  0.12509212595E+03 0.  0.
          5    1    3    3  502    0  0.21423727451E+02  0.69975256525E+01  0.55045466333E+02  0.59627319468E+02  0.41800000000E+01 0. -1.
         -5    1    3    3    0  502 -0.91416529694E+02 -0.14141516949E+03  0.17431375975E+03  0.24240047711E+03  0.41800000000E+01 0. -1.
        -11    1    1    2    0    0  0.86762947425E+01  0.89453872865E+02  0.98556290442E+02  0.13338146740E+03  0.00000000000E+00 0.  1.
         11    1    1    2    0    0  0.61316507500E+02  0.44963770975E+02  0.19235482548E+03  0.20683769888E+03  0.00000000000E+00 0. -1.
</event>
<event>
 7    1  0.2661133E-009  0.1606748E+03  0.7561462E-02  0.1187937E+00
          1   -1    0    0  501    0  0.00000000000E+00  0.00000000000E+00  0.28112381757E+03  0.28112381757E+03  0.00000000000E+00 0. -1.
         -1   -1    0    0    0  501 -0.00000000000E+00 -0.00000000000E+00 -0.10254933722E+03  0.10254933722E+03  0.00000000000E+00 0.  1.
         25    2    1    2    0    0  0.13303759515E+03  0.22626611981E+01  0.10544319468E+03  0.21088033180E+03  0.12509246850E+03 0.  0.
          5    1    3    3  502    0  0.13229323283E+03 -0.28734997080E+02  0.44830439490E+02  0.14266898828E+03  0.41800000000E+01 0.  1.
         -5    1    3    3    0  502  0.74436232073E+00  0.30997658278E+02  0.60612755188E+02  0.68211343525E+02  0.41800000000E+01 0.  1.
        -11    1    1    2    0    0 -0.82060216843E+02 -0.39907319477E+02  0.56318970218E+02  0.10723012516E+03  0.00000000000E+00 0.  1.
         11    1    1    2    0    0 -0.50977378312E+02  0.37644658279E+02  0.16812315454E+02  0.65562697835E+02  0.00000000000E+00 0. -1.
</event>
<event>
 7    1  0.2661133E-009  0.1050861E+03  0.7561462E-02  0.1269950E+00
         -1   -1    0    0    0  501 -0.00000000000E+00  0.00000000000E+00  0.13255678538E+03  0.13255678538E+03  0.00000000000E+00 0.  1.
          1   -1    0    0  501    0  0.00000000000E+00 -0.00000000000E+00 -0.13322314919E+03  0.13322314919E+03  0.00000000000E+00 0. -1.
         25    2    1    2    0    0  0.19340963335E+02  0.45362218342E+02  0.56688372315E+02  0.14591914261E+03  0.12508805262E+03 0.  0.
          5    1    3    3  502    0 -0.51256253958E+02  0.30024603408E+02  0.39752104868E+02  0.71598761309E+02  0.41800000000E+01 0.  1.
         -5    1    3    3    0  502  0.70597217292E+02  0.15337614933E+02  0.16936267447E+02  0.74320381298E+02  0.41800000000E+01 0.  1.
        -11    1    1    2    0    0  0.17407262997E+02 -0.36526271561E+02 -0.69278467187E+02  0.80228968179E+02  0.00000000000E+00 0. -1.
         11    1    1    2    0    0 -0.36748226332E+02 -0.88359467812E+01  0.11923731061E+02  0.39631823784E+02  0.00000000000E+00 0.  1.
</event>
<event>
 7    1  0.2661133E-009  0.1147069E+03  0.7561462E-02  0.1252094E+00
         -1   -1    0    0    0  501 -0.00000000000E+00  0.00000000000E+00  0.62921642243E+03  0.62921642243E+03  0.00000000000E+00 0.  1.
          1   -1    0    0  501    0  0.00000000000E+00 -0.00000000000E+00 -0.30400795972E+02  0.30400795972E+02  0.00000000000E+00 0. -1.
         25    2    1    2    0    0 -0.69969521217E+02 -0.31687220096E+02  0.23763406026E+03  0.27930299426E+03  0.12506159359E+03 0.  0.
          5    1    3    3  502    0 -0.92065204890E+02 -0.21940034561E+02  0.23649876019E+03  0.25476754707E+03  0.41800000000E+01 0. -1.
         -5    1    3    3    0  502  0.22095683673E+02 -0.97471855352E+01  0.11353000722E+01  0.24535447196E+02  0.41800000000E+01 0. -1.
        -11    1    1    2    0    0  0.26891959886E+02 -0.26510918819E+02  0.20115873022E+03  0.20467252152E+03  0.00000000000E+00 0.  1.
         11    1    1    2    0    0  0.43077561331E+02  0.58198138914E+02  0.16002283598E+03  0.17564170262E+03  0.00000000000E+00 0. -1.
</event>
<event>
 7    1  0.2661133E-009  0.1304667E+03  0.7561462E-02  0.1226765E+00
          1   -1    0    0  501    0  0.00000000000E+00  0.00000000000E+00  0.21980819199E+04  0.21980819199E+04  0.00000000000E+00 0. -1.
         -1   -1    0    0    0  501 -0.00000000000E+00 -0.00000000000E+00 -0.98006368781E+01  0.98006368781E+01  0.00000000000E+00 0.  1.
         25    2    1    2    0    0  0.27501866999E+02  0.68515685414E+02  0.16120241991E+04  0.16185547270E+04  0.12508650606E+03 0.  0.
          5    1    3    3  502    0  0.75123666185E+02  0.36910025004E+02  0.11373854316E+04  0.11404687666E+04  0.41800000000E+01 0.  1.
         -5    1    3    3    0  502 -0.47621799186E+02  0.31605660410E+02  0.47463876751E+03  0.47808596042E+03  0.41800000000E+01 0.  1.
        -11    1    1    2    0    0 -0.62097739504E+02 -0.54033358305E+02  0.45559380911E+03  0.46297024954E+03  0.00000000000E+00 0. -1.
         11    1    1    2    0    0  0.34595872505E+02 -0.14482327109E+02  0.12066327480E+03  0.12635758021E+03  0.00000000000E+00 0.  1.
</event>
<event>
 7    1  0.2661133E-009  0.1186290E+03  0.7561462E-02  0.1245376E+00
         -3   -1    0    0    0  501 -0.00000000000E+00  0.00000000000E+00  0.49014438595E+03  0.49014438595E+03  0.00000000000E+00 0.  1.
          3   -1    0    0  501    0  0.00000000000E+00 -0.00000000000E+00 -0.13051425870E+03  0.13051425870E+03  0.00000000000E+00 0. -1.
         25    2    1    2    0    0 -0.11961029969E+02  0.92958269894E+02  0.44041262362E+03  0.46732759963E+03  0.12508996824E+03 0.  0.
          5    1    3    3  502    0  0.11015209271E+02 -0.14377048576E+02  0.64448514991E+01  0.19673405193E+02  0.41800000000E+01 0.  1.
         -5    1    3    3    0  502 -0.22976239240E+02  0.10733531847E+03  0.43396777212E+03  0.44765419444E+03  0.41800000000E+01 0.  1.
        -11    1    1    2    0    0  0.13652336562E+02  0.20456883475E+01  0.13617466864E+02  0.19390888020E+02  0.00000000000E+00 0.  1.
         11    1    1    2    0    0 -0.16913065932E+01 -0.95003958242E+02 -0.94399963234E+02  0.13394015700E+03  0.00000000000E+00 0. -1.
</event>
<event>
 7    1  0.2661133E-009  0.3083556E+03  0.7561462E-02  0.1081137E+00
         -2   -1    0    0    0  501 -0.00000000000E+00  0.00000000000E+00  0.54877092046E+02  0.54877092046E+02  0.00000000000E+00 0.  1.
          2   -1    0    0  501    0  0.00000000000E+00 -0.00000000000E+00 -0.18640739351E+04  0.18640739351E+04  0.00000000000E+00 0. -1.
         25    2    1    2    0    0  0.22568682233E+03 -0.19856268083E+03 -0.91869754200E+03  0.97468641143E+03  0.12508695763E+03 0.  0.
          5    1    3    3  502    0  0.39869978133E+02 -0.54061511963E+02 -0.85190517425E+02  0.10856868283E+03  0.41800000000E+01 0. -1.
         -5    1    3    3    0  502  0.18581684420E+03 -0.14450116887E+03 -0.83350702457E+03  0.86611772860E+03  0.41800000000E+01 0. -1.
        -11    1    1    2    0    0 -0.12692256620E+03  0.51812258566E+02 -0.40066531503E+03  0.42346964781E+03  0.00000000000E+00 0.  1.
         11    1    1    2    0    0 -0.98764256139E+02  0.14675042226E+03 -0.48983398599E+03  0.52079496787E+03  0.00000000000E+00 0. -1.
</event>
<event>
 7    1  0.2661133E-009  0.1117787E+03  0.7561462E-02  0.1257311E+00
          2   -1    0    0  501    0  0.00000000000E+00  0.00000000000E+00  0.63898550857E+03  0.63898550857E+03  0.00000000000E+00 0. -1.
         -2   -1    0    0    0  501 -0.00000000000E+00 -0.00000000000E+00 -0.23430199798E+02  0.23430199798E+02  0.00000000000E+00 0.  1.
         25    2    1    2    0    0  0.19635000237E+02  0.50517962409E+02  0.43022339866E+03  0.45130644879E+03  0.12509092776E+03 0.  0.
          5    1    3    3  502    0 -0.19370264559E+02  0.81829685883E+02  0.30473840924E+03  0.31615546035E+03  0.41800000000E+01 0. -1.
         -5    1    3    3    0  502  0.39005264796E+02 -0.31311723474E+02  0.12548498942E+03  0.13515098845E+03  0.41800000000E+01 0. -1.
        -11    1    1    2    0    0 -0.42594512597E+02 -0.11871815946E+02  0.14179753477E+03  0.14853206181E+03  0.00000000000E+00 0. -1.
         11    1    1    2    0    0  0.22959512360E+02 -0.38646146463E+02  0.43534375344E+02  0.62577197771E+02  0.00000000000E+00 0.  1.
</event>
<event>
 7    1  0.2661133E-009  0.1391537E+03  0.7561462E-02  0.1214472E+00
          2   -1    0    0  501    0  0.00000000000E+00  0.00000000000E+00  0.82080470994E+02  0.82080470994E+02  0.00000000000E+00 0. -1.
         -2   -1    0    0    0  501 -0.00000000000E+00 -0.00000000000E+00 -0.36098258271E+03  0.36098258271E+03  0.00000000000E+00 0.  1.
         25    2    1    2    0    0  0.79718203938E+02 -0.10641970480E+03 -0.13169709449E+03  0.22510363978E+03  0.12508948131E+03 0.  0.
          5    1    3    3  502    0  0.46621433359E+02 -0.54750455368E+02  0.79923572523E+01  0.72474275339E+02  0.41800000000E+01 0. -1.
         -5    1    3    3    0  502  0.33096770579E+02 -0.51669249433E+02 -0.13968945175E+03  0.15262936444E+03  0.41800000000E+01 0. -1.
        -11    1    1    2    0    0 -0.15080720858E+02 -0.50619084651E+01  0.66718485803E+01  0.17250061519E+02  0.00000000000E+00 0. -1.
         11    1    1    2    0    0 -0.64637483079E+02  0.11148161327E+03 -0.15387686580E+03  0.20070935241E+03  0.00000000000E+00 0.  1.
</event>
<event>
 7    1  0.2661133E-009  0.2842812E+03  0.7561462E-02  0.1093373E+00
         -2   -1    0    0    0  501 -0.00000000000E+00  0.00000000000E+00  0.83270256338E+02  0.83270256338E+02  0.00000000000E+00 0.  1.
          2   -1    0    0  501    0  0.00000000000E+00 -0.00000000000E+00 -0.11612814900E+04  0.11612814900E+04  0.00000000000E+00 0. -1.
         25    2    1    2    0    0  0.10703213512E+03  0.26213730429E+03 -0.41311899912E+03  0.51622214268E+03  0.12508456708E+03 0.  0.
          5    1    3    3  502    0  0.88118598360E+02  0.18235084344E+03 -0.37386553371E+03  0.42521715297E+03  0.41800000000E+01 0.  1.
         -5    1    3    3    0  502  0.18913536761E+02  0.79786460844E+02 -0.39253465402E+02  0.91004989714E+02  0.41800000000E+01 0.  1.
        -11    1    1    2    0    0 -0.46071386755E+02 -0.86998894200E+02 -0.13616860264E+03  0.16802758290E+03  0.00000000000E+00 0.  1.
         11    1    1    2    0    0 -0.60960748366E+02 -0.17513841009E+03 -0.52872363193E+03  0.56030202078E+03  0.00000000000E+00 0. -1.
</event>
<event>
 7    1  0.2661133E-009  0.1047551E+03  0.7561462E-02  0.1270603E+00
          2   -1    0    0  501    0  0.00000000000E+00  0.00000000000E+00  0.47777712081E+03  0.47777712081E+03  0.00000000000E+00 0. -1.
         -2   -1    0    0    0  501 -0.00000000000E+00 -0.00000000000E+00 -0.24475328518E+02  0.24475328518E+02  0.00000000000E+00 0.  1.
         25    2    1    2    0    0  0.63331834738E+01 -0.31239037706E+01  0.26314462439E+03  0.29144803589E+03  0.12508795421E+03 0.  0.
          5    1    3    3  502    0  0.31241850669E+02 -0.56634678956E+02  0.11652062509E+03  0.13333442378E+03  0.41800000000E+01 0.  1.
         -5    1    3    3    0  502 -0.24908667195E+02  0.53510775186E+02  0.14662399930E+03  0.15811361211E+03  0.41800000000E+01 0.  1.
        -11    1    1    2    0    0 -0.22670272399E+02  0.39558065045E+02  0.64734031892E+02  0.79178763856E+02  0.00000000000E+00 0.  1.
         11    1    1    2    0    0  0.16337088926E+02 -0.36434161275E+02  0.12542313600E+03  0.13162564958E+03  0.00000000000E+00 0. -1.
</event>
<event>
 7    1  0.2661133E-009  0.1328669E+03  0.7561462E-02  0.1223263E+00
         -1   -1    0    0    0  501 -0.00000000000E+00  0.00000000000E+00  0.35133391527E+02  0.35133391527E+02  0.00000000000E+00 0.  1.
          1   -1    0    0  501    0  0.00000000000E+00 -0.00000000000E+00 -0.71153729685E+03  0.71153729685E+03  0.00000000000E+00 0. -1.
         25    2    1    2    0    0  0.69891772057E+02  0.72467976693E+02 -0.49028364340E+03  0.51591067296E+03  0.12509717840E+03 0.  0.
          5    1    3    3  502    0 -0.32675178720E+01 -0.31340270319E+02 -0.13161882069E+03  0.13540264242E+03  0.41800000000E+01 0.  1.
         -5    1    3    3    0  502  0.73159289929E+02  0.10380824701E+03 -0.35866482271E+03  0.38050803054E+03  0.41800000000E+01 0.  1.
        -11    1    1    2    0    0 -0.37372180754E+02 -0.62582560765E+02 -0.45132864831E+02  0.85733495753E+02  0.00000000000E+00 0.  1.
         11    1    1    2    0    0 -0.32519591303E+02 -0.98854159285E+01 -0.14098739710E+03  0.14502651967E+03  0.00000000000E+00 0. -1.
</event>
<event>
 7    1  0.2661133E-009  0.1386991E+03  0.7561462E-02  0.1215090E+00
         -3   -1    0    0    0  501 -0.00000000000E+00  0.00000000000E+00  0.11838881069E+03  0.11838881069E+03  0.00000000000E+00 0.  1.
          3   -1    0    0  501    0  0.00000000000E+00 -0.00000000000E+00 -0.35705142656E+03  0.35705142656E+03  0.00000000000E+00 0. -1.
         25    2    1    2    0    0 -0.43922526046E+02 -0.98838013510E+02  0.33736428567E+02  0.16876856313E+03  0.12508613065E+03 0.  0.
          5    1    3    3  502    0 -0.84002074390E+02 -0.54497996400E+02  0.43431514130E+00  0.10021996379E+03  0.41800000000E+01 0. -1.
         -5    1    3    3    0  502  0.40079548343E+02 -0.44340017110E+02  0.33302113426E+02  0.68548599339E+02  0.41800000000E+01 0. -1.
        -11    1    1    2    0    0 -0.83367835102E+01  0.28130631528E+02 -0.11772110836E+02  0.31613556950E+02  0.00000000000E+00 0.  1.
         11    1    1    2    0    0  0.52259309557E+02  0.70707381981E+02 -0.26062693360E+03  0.27505811716E+03  0.00000000000E+00 0. -1.
</event>
<event>
 7    1  0.2661133E-009  0.9772463E+02  0.7561462E-02  0.1285155E+00
         -2   -1    0    0    0  501 -0.00000000000E+00  0.00000000000E+00  0.38528670464E+02  0.38528670464E+02  0.00000000000E+00 0.  1.
          2   -1    0    0  501    0  0.00000000000E+00 -0.00000000000E+00 -0.39984878555E+03  0.39984878555E+03  0.00000000000E+00 0. -1.
         25    2    1    2    0    0 -0.87604066298E+01  0.32437366047E+02 -0.11456020726E+03  0.17291072866E+03  0.12508058026E+03 0.  0.
          5    1    3    3  502    0  0.41251378735E+02 -0.18205176188E+02 -0.10030374825E+02  0.46380874363E+02  0.41800000000E+01 0. -1.
         -5    1    3    3    0  502 -0.50011785365E+02  0.50642542235E+02 -0.10452983244E+03  0.12652985430E+03  0.41800000000E+01 0. -1.
        -11    1    1    2    0    0  0.26522687185E+02  0.13396013431E+02 -0.26582096835E+02  0.39868709328E+02  0.00000000000E+00 0.  1.
         11    1    1    2    0    0 -0.17762280555E+02 -0.45833379477E+02 -0.22017781099E+03  0.22559801802E+03  0.00000000000E+00 0. -1.
</event>
<event>
 7    1  0.2661133E-009  0.1868397E+03  0.7561462E-02  0.1161343E+00
         -1   -1    0    0    0  501 -0.00000000000E+00  0.00000000000E+00  0.18992766199E+03  0.18992766199E+03  0.00000000000E+00 0.  1.
          1   -1    0    0  501    0  0.00000000000E+00 -0.00000000000E+00 -0.21920184320E+03  0.21920184320E+03  0.00000000000E+00 0. -1.
         25    2    1    2    0    0  0.13944451271E+02  0.16533185106E+03  0.29624379239E+02  0.20989321899E+03  0.12509392806E+03 0.  0.
          5    1    3    3  502    0  0.21742337486E+02 -0.15257957801E+02  0.16925174674E+01  0.26942003099E+02  0.41800000000E+01 0. -1.
         -5    1    3    3    0  502 -0.77978862145E+01  0.18058980886E+03  0.27931861771E+02  0.18295121589E+03  0.41800000000E+01 0. -1.
        -11    1    1    2    0    0 -0.49773749513E+01 -0.36074334172E+02 -0.59391766401E+02  0.69667164171E+02  0.00000000000E+00 0. -1.
         11    1    1    2    0    0 -0.89670763202E+01 -0.12925751689E+03  0.49320595394E+00  0.12956912203E+03  0.00000000000E+00 0.  1.
</event>
<event>
 7    1  0.2661133E-009  0.1362384E+03  0.7561462E-02  0.1218482E+00
          1   -1    0    0  501    0  0.00000000000E+00  0.00000000000E+00  0.45793482085E+03  0.45793482085E+03  0.00000000000E+00 0. -1.
         -1   -1    0    0    0  501 -0.00000000000E+00 -0.00000000000E+00 -0.50147008164E+02  0.50147008164E+02  0.00000000000E+00 0.  1.
         25    2    1    2    0    0 -0.42023266855E+02 -0.63085845942E+02  0.12372239642E+03  0.19157575791E+03  0.12509300831E+03 0.  0.
          5    1    3    3  502    0 -0.29861774193E+02 -0.94625726083E+02  0.12221815290E+03  0.15748175416E+03  0.41800000000E+01 0.  1.
         -5    1    3    3    0  502 -0.12161492662E+02  0.31539880140E+02  0.15042435143E+01  0.34094003748E+02  0.41800000000E+01 0.  1.
        -11    1    1    2    0    0  0.65099061499E+02 -0.68492098004E+01  0.12065363487E+03  0.13726652574E+03  0.00000000000E+00 0. -1.
         11    1    1    2    0    0 -0.23075794644E+02  0.69935055743E+02  0.16341178140E+03  0.17923954536E+03  0.00000000000E+00 0.  1.
</event>
<event>
 7    1  0.2661133E-009  0.1000856E+03  0.7561462E-02  0.1280116E+00
          1   -1    0    0  501    0  0.00000000000E+00  0.00000000000E+00  0.45929137773E+03  0.45929137773E+03  0.00000000000E+00 0. -1.
         -1   -1    0    0    0  501 -0.00000000000E+00 -0.00000000000E+00 -0.41464879157E+02  0.41464879157E+02  0.00000000000E+00 0.  1.
         25    2    1    2    0    0  0.42837038250E+02 -0.71228019985E+02  0.23164878996E+03  0.27608058496E+03  0.12510349645E+03 0.  0.
          5    1    3    3  502    0  0.20576224822E+01 -0.14084801347E+01 -0.15374902808E+02  0.16126923542E+02  0.41800000000E+01 0.  1.
         -5    1    3    3    0  502  0.40779415768E+02 -0.69819539850E+02  0.24702369277E+03  0.25995366142E+03  0.41800000000E+01 0.  1.
        -11    1    1    2    0    0  0.21418133039E+02  0.48591158556E+01  0.69394807878E+01  0.23032668611E+02  0.00000000000E+00 0.  1.
         11    1    1    2    0    0 -0.64255171289E+02  0.66368904130E+02  0.17923822783E+03  0.20164300332E+03  0.00000000000E+00 0. -1.
</event>
<event>
 7    1  0.2661133E-009  0.1671499E+03  0.7561462E-02  0.1180853E+00
          1   -1    0    0  501    0  0.00000000000E+00  0.00000000000E+00  0.28425585951E+03  0.28425585951E+03  0.00000000000E+00 0. -1.
         -1   -1    0    0    0  501 -0.00000000000E+00 -0.00000000000E+00 -0.11698195413E+03  0.11698195413E+03  0.00000000000E+00 0.  1.
         25    2    1    2    0    0 -0.85636950338E+02 -0.11828617495E+03  0.84490737160E+02  0.21003031866E+03  0.12509493853E+03 0.  0.
          5    1    3    3  502    0  0.36657432863E+01 -0.85802101149E+02  0.75609129327E+02  0.11449738457E+03  0.41800000000E+01 0.  1.
         -5    1    3    3    0  502 -0.89302693624E+02 -0.32484073801E+02  0.88816078327E+01  0.95532934096E+02  0.41800000000E+01 0.  1.
        -11    1    1    2    0    0  0.72874496174E+02  0.62604186817E+02  0.70307043501E+01  0.96329679763E+02  0.00000000000E+00 0.  1.
         11    1    1    2    0    0  0.12762454164E+02  0.55681988133E+02  0.75752463869E+02  0.94877815221E+02  0.00000000000E+00 0. -1.
</event>
<event>
 7    1  0.2661133E-009  0.2053619E+03  0.7561462E-02  0.1145292E+00
          1   -1    0    0  501    0  0.00000000000E+00  0.00000000000E+00  0.27641578676E+04  0.27641578676E+04  0.00000000000E+00 0. -1.
         -1   -1    0    0    0  501 -0.00000000000E+00 -0.00000000000E+00 -0.16828502691E+02  0.16828502691E+02  0.00000000000E+00 0.  1.
         25    2    1    2    0    0 -0.81858943144E+02 -0.15737114080E+03  0.17953038565E+04  0.18083779750E+04  0.12509356778E+03 0.  0.
          5    1    3    3  502    0 -0.39232245573E+02  0.11853724912E+02  0.27140365210E+03  0.27451246722E+03  0.41800000000E+01 0. -1.
         -5    1    3    3    0  502 -0.42626697572E+02 -0.16922486571E+03  0.15239002044E+04  0.15338655078E+04  0.41800000000E+01 0. -1.
        -11    1    1    2    0    0  0.90951399210E+02  0.93456384827E+02  0.72258743974E+03  0.73426075815E+03  0.00000000000E+00 0.  1.
         11    1    1    2    0    0 -0.90924560654E+01  0.63914755973E+02  0.22943806871E+03  0.23834763720E+03  0.00000000000E+00 0. -1.
</event>
<event>
 7    1  0.2661133E-009  0.1280470E+03  0.7561462E-02  0.1230383E+00
         -1   -1    0    0    0  501 -0.00000000000E+00  0.00000000000E+00  0.12155615284E+03  0.12155615284E+03  0.00000000000E+00 0.  1.
          1   -1    0    0  501    0  0.00000000000E+00 -0.00000000000E+00 -0.14219921425E+03  0.14219921425E+03  0.00000000000E+00 0. -1.
         25    2    1    2    0    0 -0.68400605156E+02 -0.30378658657E+02 -0.14324098848E+02  0.14647259673E+03  0.12509011191E+03 0.  0.
          5    1    3    3  502    0  0.14460155133E+02 -0.53423132621E+02 -0.22686077383E+02  0.59960467748E+02  0.41800000000E+01 0.  1.
         -5    1    3    3    0  502 -0.82860760289E+02  0.23044473965E+02  0.83619785352E+01  0.86512128982E+02  0.41800000000E+01 0.  1.
        -11    1    1    2    0    0 -0.14089697071E+02  0.28705089752E+02  0.93184944793E+01  0.33306697233E+02  0.00000000000E+00 0.  1.
         11    1    1    2    0    0  0.82490302227E+02  0.16735689046E+01 -0.15637457046E+02  0.83976073123E+02  0.00000000000E+00 0. -1.
</event>
<event>
 7    1  0.2661133E-009  0.1247273E+03  0.7561462E-02  0.1235496E+00
         -1   -1    0    0    0  501 -0.00000000000E+00  0.00000000000E+00  0.27227540834E+02  0.27227540834E+02  0.00000000000E+00 0.  1.
          1   -1    0    0  501    0  0.00000000000E+00 -0.00000000000E+00 -0.82091137730E+03  0.82091137730E+03  0.00000000000E+00 0. -1.
         25    2    1    2    0    0  0.87971276160E+02  0.43779913613E+02 -0.33506731988E+03  0.37091074794E+03  0.12509615429E+03 0.  0.
          5    1    3    3  502    0 -0.83516120527E+01  0.24439091797E+02 -0.21092342897E+03  0.21253984079E+03  0.41800000000E+01 0. -1.
         -5    1    3    3    0  502  0.96322888213E+02  0.19340821816E+02 -0.12414389091E+03  0.15837090715E+03  0.41800000000E+01 0. -1.
        -11    1    1    2    0    0 -0.74690662690E+02  0.45567867831E+01 -0.34536474554E+03  0.35337836218E+03  0.00000000000E+00 0. -1.
         11    1    1    2    0    0 -0.13280613470E+02 -0.48336700396E+02 -0.11325177105E+03  0.12384980801E+03  0.00000000000E+00 0.  1.
</event>
<event>
 7    1  0.2661133E-009  0.1344696E+03  0.7561462E-02  0.1220970E+00
          2   -1    0    0  501    0  0.00000000000E+00  0.00000000000E+00  0.14759810422E+04  0.14759810422E+04  0.00000000000E+00 0.  1.
         -2   -1    0    0    0  501 -0.00000000000E+00 -0.00000000000E+00 -0.12503988731E+02  0.12503988731E+02  0.00000000000E+00 0. -1.
         25    2    1    2    0    0 -0.53509014638E+02  0.65172216474E+02  0.84526488723E+03  0.85862128978E+03  0.12508859752E+03 0.  0.
          5    1    3    3  502    0  0.57030467641E+01  0.87211717467E+02  0.50012116096E+03  0.50771749669E+03  0.41800000000E+01 0.  1.
         -5    1    3    3    0  502 -0.59212061402E+02 -0.22039500993E+02  0.34514372627E+03  0.35090379309E+03  0.41800000000E+01 0.  1.
        -11    1    1    2    0    0  0.75705422047E+02 -0.44643627791E+02  0.50953913328E+03  0.51706333536E+03  0.00000000000E+00 0.  1.
         11    1    1    2    0    0 -0.22196407409E+02 -0.20528588683E+02  0.10867303301E+03  0.11280040584E+03  0.00000000000E+00 0. -1.
</event>
<event>
 7    1  0.2661133E-009  0.2476883E+03  0.7561462E-02  0.1114775E+00
         -1   -1    0    0    0  501 -0.00000000000E+00  0.00000000000E+00  0.31163817907E+02  0.31163817907E+02  0.00000000000E+00 0.  1.
          1   -1    0    0  501    0  0.00000000000E+00 -0.00000000000E+00 -0.22379539232E+04  0.22379539232E+04  0.00000000000E+00 0. -1.
         25    2    1    2    0    0  0.23990478087E+03 -0.17910643205E+02 -0.11439748749E+04  0.11756711284E+04  0.12509593402E+03 0.  0.
          5    1    3    3  502    0  0.90259574398E+02 -0.18500685268E+02 -0.72321721219E+03  0.72907453291E+03  0.41800000000E+01 0. -1.
         -5    1    3    3    0  502  0.14964520647E+03  0.59004206336E+00 -0.42075766273E+03  0.44659659550E+03  0.41800000000E+01 0. -1.
        -11    1    1    2    0    0 -0.12086617482E+03 -0.30948223359E+02 -0.61410323405E+03  0.62664918959E+03  0.00000000000E+00 0.  1.
         11    1    1    2    0    0 -0.11903860605E+03  0.48858866564E+02 -0.44871199631E+03  0.46679742309E+03  0.00000000000E+00 0. -1.
</event>
<event>
 7    1  0.2661133E-009  0.1117944E+03  0.7561462E-02  0.1257283E+00
         -2   -1    0    0    0  501 -0.00000000000E+00  0.00000000000E+00  0.26562534779E+02  0.26562534779E+02  0.00000000000E+00 0.  1.
          2   -1    0    0  501    0  0.00000000000E+00 -0.00000000000E+00 -0.90120719080E+03  0.90120719080E+03  0.00000000000E+00 0. -1.
         25    2    1    2    0    0  0.15376313334E+02 -0.87382587718E+02 -0.67307174497E+03  0.69032286173E+03  0.12509169396E+03 0.  0.
          5    1    3    3  502    0  0.23530284967E+02 -0.93778092633E+02 -0.67218263523E+03  0.67911337233E+03  0.41800000000E+01 0.  1.
         -5    1    3    3    0  502 -0.81539716333E+01  0.63955049148E+01 -0.88910974086E+00  0.11209489402E+02  0.41800000000E+01 0.  1.
        -11    1    1    2    0    0  0.30126193718E+02  0.37918668207E+02 -0.13249179656E+03  0.14106554896E+03  0.00000000000E+00 0. -1.
         11    1    1    2    0    0 -0.45502507052E+02  0.49463919511E+02 -0.69081114484E+02  0.96381314889E+02  0.00000000000E+00 0.  1.
</event>
<event>
 7    1  0.2661133E-009  0.1184400E+03  0.7561462E-02  0.1245693E+00
          2   -1    0    0  501    0  0.00000000000E+00  0.00000000000E+00  0.61922523549E+02  0.61922523549E+02  0.00000000000E+00 0. -1.
         -2   -1    0    0    0  501 -0.00000000000E+00 -0.00000000000E+00 -0.30038347898E+03  0.30038347898E+03  0.00000000000E+00 0.  1.
         25    2    1    2    0    0  0.11016953834E+02 -0.60297717829E+02 -0.55725187978E+02  0.15003970782E+03  0.12509767904E+03 0.  0.
          5    1    3    3  502    0 -0.56218463559E+02 -0.17127615087E+02 -0.29119532759E+02  0.65721308809E+02  0.41800000000E+01 0. -1.
         -5    1    3    3    0  502  0.67235417393E+02 -0.43170102742E+02 -0.26605655219E+02  0.84318399014E+02  0.41800000000E+01 0. -1.
        -11    1    1    2    0    0  0.33040103348E+02  0.23449924631E+02 -0.34227052200E+02  0.53038085343E+02  0.00000000000E+00 0. -1.
         11    1    1    2    0    0 -0.44057057182E+02  0.36847793197E+02 -0.14850871525E+03  0.15922820936E+03  0.00000000000E+00 0.  1.
</event>
<event>
 7    1  0.2661133E-009  0.9509985E+02  0.7561462E-02  0.1290951E+00
         -1   -1    0    0    0  501 -0.00000000000E+00  0.00000000000E+00  0.21290161106E+02  0.21290161106E+02  0.00000000000E+00 0.  1.
          1   -1    0    0  501    0  0.00000000000E+00 -0.00000000000E+00 -0.52085489128E+03  0.52085489128E+03  0.00000000000E+00 0. -1.
         25    2    1    2    0    0  0.30226984802E+02 -0.16110649336E+02 -0.37785136380E+03  0.39949016057E+03  0.12509001412E+03 0.  0.
          5    1    3    3  502    0 -0.30254805382E+02  0.27577463265E+02 -0.23187902669E+03  0.23550207037E+03  0.41800000000E+01 0.  1.
         -5    1    3    3    0  502  0.60481790184E+02 -0.43688112600E+02 -0.14597233711E+03  0.16398809020E+03  0.41800000000E+01 0.  1.
        -11    1    1    2    0    0 -0.36056672917E+02 -0.17591773775E+02 -0.62312726423E+02  0.74110930642E+02  0.00000000000E+00 0. -1.
         11    1    1    2    0    0  0.58296881146E+01  0.33702423111E+02 -0.59400639951E+02  0.68543961176E+02  0.00000000000E+00 0.  1.
</event>
<event>
 7    1  0.2661133E-009  0.1023916E+03  0.7561462E-02  0.1275346E+00
          2   -1    0    0  501    0  0.00000000000E+00  0.00000000000E+00  0.26911110088E+02  0.26911110088E+02  0.00000000000E+00 0. -1.
         -2   -1    0    0    0  501 -0.00000000000E+00 -0.00000000000E+00 -0.46207877078E+03  0.46207877078E+03  0.00000000000E+00 0.  1.
         25    2    1    2    0    0  0.78319928496E+01  0.18651153202E+02 -0.23915329806E+03  0.27065011832E+03  0.12509189001E+03 0.  0.
          5    1    3    3  502    0 -0.36423956528E+02  0.55075544329E+02 -0.97974131911E+02  0.11822192316E+03  0.41800000000E+01 0.  1.
         -5    1    3    3    0  502  0.44255949378E+02 -0.36424391127E+02 -0.14117916615E+03  0.15242819516E+03  0.41800000000E+01 0.  1.
        -11    1    1    2    0    0 -0.17422510109E+02  0.28298338725E+02 -0.14329010525E+03  0.14709314768E+03  0.00000000000E+00 0.  1.
         11    1    1    2    0    0  0.95905172590E+01 -0.46949491927E+02 -0.52724257388E+02  0.71246614872E+02  0.00000000000E+00 0. -1.
</event>
<event>
 7    1  0.2661133E-009  0.1187771E+03  0.7561462E-02  0.1245128E+00
         -2   -1    0    0    0  501 -0.00000000000E+00  0.00000000000E+00  0.33039516874E+02  0.33039516874E+02  0.00000000000E+00 0.  1.
          2   -1    0    0  501    0  0.00000000000E+00 -0.00000000000E+00 -0.66424780532E+03  0.66424780532E+03  0.00000000000E+00 0. -1.
         25    2    1    2    0    0 -0.65281689111E+01 -0.71818731308E+02 -0.50891674731E+03  0.52900237654E+03  0.12508681598E+03 0.  0.
          5    1    3    3  502    0  0.24582189528E+02 -0.99472350347E+02 -0.36278327207E+03  0.37699894883E+03  0.41800000000E+01 0. -1.
         -5    1    3    3    0  502 -0.31110358439E+02  0.27653619039E+02 -0.14613347524E+03  0.15200342770E+03  0.41800000000E+01 0. -1.
        -11    1    1    2    0    0  0.31621766697E+02  0.53333936590E+02 -0.26282838623E+02  0.67344135063E+02  0.00000000000E+00 0. -1.
         11    1    1    2    0    0 -0.25093597786E+02  0.18484794718E+02 -0.96008702506E+02  0.10094081059E+03  0.00000000000E+00 0.  1.
</event>
<event>
 7    1  0.2661133E-009  0.1923372E+03  0.7561462E-02  0.1156370E+00
          2   -1    0    0  501    0  0.00000000000E+00  0.00000000000E+00  0.24649983888E+04  0.24649983888E+04  0.00000000000E+00 0. -1.
         -2   -1    0    0    0  501 -0.00000000000E+00 -0.00000000000E+00 -0.21288471534E+02  0.21288471534E+02  0.00000000000E+00 0.  1.
         25    2    1    2    0    0  0.18940036208E+03  0.11071778555E+02  0.16169942150E+04  0.16328847229E+04  0.12508855063E+03 0.  0.
          5    1    3    3  502    0  0.18511014531E+03  0.73373279170E+01  0.16149357082E+04  0.16255320409E+04  0.41800000000E+01 0.  1.
         -5    1    3    3    0  502  0.42902167793E+01  0.37344506381E+01  0.20585068580E+01  0.73526819642E+01  0.41800000000E+01 0.  1.
        -11    1    1    2    0    0 -0.27452551029E+02  0.95310601109E+01  0.37307228625E+02  0.47289670886E+02  0.00000000000E+00 0.  1.
         11    1    1    2    0    0 -0.16194781106E+03 -0.20602838666E+02  0.78940847360E+03  0.80611246650E+03  0.00000000000E+00 0. -1.
</event>
<event>
 7    1  0.2661133E-009  0.8195364E+02  0.7561462E-02  0.1323597E+00
         -2   -1    0    0    0  501 -0.00000000000E+00  0.00000000000E+00  0.20867621197E+03  0.20867621197E+03  0.00000000000E+00 0. -1.
          2   -1    0    0  501    0  0.00000000000E+00 -0.00000000000E+00 -0.66257411759E+02  0.66257411759E+02  0.00000000000E+00 0.  1.
         25    2    1    2    0    0  0.24936034684E+02 -0.38363299546E+02  0.83063669320E+02  0.15697339948E+03  0.12509007317E+03 0.  0.
          5    1    3    3  502    0  0.93157628692E+01 -0.65893108260E+02  0.10048979232E+03  0.12059998306E+03  0.41800000000E+01 0.  1.
         -5    1    3    3    0  502  0.15620271815E+02  0.27529808715E+02 -0.17426122997E+02  0.36373416421E+02  0.41800000000E+01 0.  1.
        -11    1    1    2    0    0  0.13571011081E+02  0.53803162426E+01 -0.19410062640E+02  0.24287253371E+02  0.00000000000E+00 0.  1.
         11    1    1    2    0    0 -0.38507045765E+02  0.32982983303E+02  0.78765193530E+02  0.93672970877E+02  0.00000000000E+00 0. -1.
</event>
<event>
 7    1  0.2661133E-009  0.9803574E+02  0.7561462E-02  0.1284482E+00
         -1   -1    0    0    0  501 -0.00000000000E+00  0.00000000000E+00  0.26748891479E+03  0.26748891479E+03  0.00000000000E+00 0.  1.
          1   -1    0    0  501    0  0.00000000000E+00 -0.00000000000E+00 -0.97656277092E+02  0.97656277092E+02  0.00000000000E+00 0. -1.
         25    2    1    2    0    0  0.50308100981E+02 -0.42559694115E+01  0.21335902509E+03  0.25242847717E+03  0.12509613982E+03 0.  0.
          5    1    3    3  502    0  0.72360999753E+02  0.27586936846E+02  0.72085972331E+02  0.10588207203E+03  0.41800000000E+01 0.  1.
         -5    1    3    3    0  502 -0.22052898772E+02 -0.31842906258E+02  0.14127305276E+03  0.14654640514E+03  0.41800000000E+01 0.  1.
        -11    1    1    2    0    0 -0.60278666457E+02 -0.11058544048E+02 -0.61686100046E+02  0.86953918630E+02  0.00000000000E+00 0. -1.
         11    1    1    2    0    0  0.99705654755E+01  0.15314513460E+02  0.18159712647E+02  0.25762796079E+02  0.00000000000E+00 0.  1.
</event>
<event>
 7    1  0.2661133E-009  0.1111038E+03  0.7561462E-02  0.1258539E+00
         -1   -1    0    0    0  501 -0.00000000000E+00  0.00000000000E+00  0.51604796968E+02  0.51604796968E+02  0.00000000000E+00 0.  1.
          1   -1    0    0  501    0  0.00000000000E+00 -0.00000000000E+00 -0.28854299721E+03  0.28854299721E+03  0.00000000000E+00 0. -1.
         25    2    1    2    0    0 -0.19990096769E+02 -0.49783803097E+02 -0.15847626335E+03  0.20890345001E+03  0.12509154392E+03 0.  0.
          5    1    3    3  502    0 -0.19994905137E+02  0.30507912287E+02 -0.69489048731E+01  0.37366945587E+02  0.41800000000E+01 0. -1.
         -5    1    3    3    0  502  0.48083678996E-02 -0.80291715385E+02 -0.15152735848E+03  0.17153650443E+03  0.41800000000E+01 0. -1.
        -11    1    1    2    0    0 -0.22385067614E+02 -0.15523833687E+02 -0.23086212718E+02  0.35707896635E+02  0.00000000000E+00 0.  1.
         11    1    1    2    0    0  0.42375164384E+02  0.65307636785E+02 -0.55375724168E+02  0.95536447527E+02  0.00000000000E+00 0. -1.
</event>
<event>
 7    1  0.2661133E-009  0.1107846E+03  0.7561462E-02  0.1259124E+00
         -1   -1    0    0    0  501 -0.00000000000E+00  0.00000000000E+00  0.42741119461E+02  0.42741119461E+02  0.00000000000E+00 0.  1.
          1   -1    0    0  501    0  0.00000000000E+00 -0.00000000000E+00 -0.41727136606E+03  0.41727136606E+03  0.00000000000E+00 0. -1.
         25    2    1    2    0    0  0.36393198785E+02 -0.65755623633E+02 -0.16736626981E+03  0.22205194738E+03  0.12508929654E+03 0.  0.
          5    1    3    3  502    0  0.58945282480E+02 -0.60096339883E+02 -0.17738597720E+03  0.19639086970E+03  0.41800000000E+01 0.  1.
         -5    1    3    3    0  502 -0.22552083695E+02 -0.56592837501E+01  0.10019707394E+02  0.25661077682E+02  0.41800000000E+01 0.  1.
        -11    1    1    2    0    0  0.23274805233E+02  0.44685016329E+02 -0.12088058665E+03  0.13096023622E+03  0.00000000000E+00 0. -1.
         11    1    1    2    0    0 -0.59668004018E+02  0.21070607304E+02 -0.86283390143E+02  0.10700030192E+03  0.00000000000E+00 0.  1.
</event>
<event>
 7    1  0.2661133E-009  0.1184246E+03  0.7561462E-02  0.1245719E+00
          1   -1    0    0  501    0  0.00000000000E+00  0.00000000000E+00  0.54817012919E+03  0.54817012919E+03  0.00000000000E+00 0. -1.
         -1   -1    0    0    0  501 -0.00000000000E+00 -0.00000000000E+00 -0.48469677116E+02  0.48469677116E+02  0.00000000000E+00 0.  1.
         25    2    1    2    0    0 -0.68699147223E+02  0.71048944978E+02  0.39536851472E+03  0.42629975953E+03  0.12509075561E+03 0.  0.
          5    1    3    3  502    0 -0.66528057183E+02  0.33441159192E+02  0.82770484541E+02  0.11141238276E+03  0.41800000000E+01 0.  1.
         -5    1    3    3    0  502 -0.21710900404E+01  0.37607785786E+02  0.31259803018E+03  0.31488737678E+03  0.41800000000E+01 0.  1.
        -11    1    1    2    0    0  0.39573429082E+02  0.77815748247E+01  0.56539783762E+01  0.40725626668E+02  0.00000000000E+00 0.  1.
         11    1    1    2    0    0  0.29125718141E+02 -0.78830519803E+02  0.98677958978E+02  0.12961442010E+03  0.00000000000E+00 0. -1.
</event>
<event>
 7    1  0.2661133E-009  0.1086525E+03  0.7561462E-02  0.1263086E+00
         -2   -1    0    0    0  501 -0.00000000000E+00  0.00000000000E+00  0.19161755164E+02  0.19161755164E+02  0.00000000000E+00 0. -1.
          2   -1    0    0  501    0  0.00000000000E+00 -0.00000000000E+00 -0.10051676175E+04  0.10051676175E+04  0.00000000000E+00 0.  1.
         25    2    1    2    0    0 -0.45297565590E+02  0.72808748777E+02 -0.59817264982E+03  0.61709816125E+03  0.12508652316E+03 0.  0.
          5    1    3    3  502    0 -0.32068526738E+02  0.89732513801E+02 -0.58230994185E+03  0.59007004264E+03  0.41800000000E+01 0.  1.
         -5    1    3    3    0  502 -0.13229038852E+02 -0.16923765024E+02 -0.15862707973E+02  0.27028118614E+02  0.41800000000E+01 0.  1.
        -11    1    1    2    0    0 -0.10130834902E+02 -0.24504760446E+02 -0.23117539121E+02  0.35178654257E+02  0.00000000000E+00 0. -1.
         11    1    1    2    0    0  0.55428400492E+02 -0.48303988331E+02 -0.36471567342E+03  0.37205255719E+03  0.00000000000E+00 0.  1.
</event>
<event>
 7    1  0.2661133E-009  0.1105905E+03  0.7561462E-02  0.1259480E+00
          2   -1    0    0  501    0  0.00000000000E+00  0.00000000000E+00  0.17671228170E+03  0.17671228170E+03  0.00000000000E+00 0. -1.
         -2   -1    0    0    0  501 -0.00000000000E+00 -0.00000000000E+00 -0.12511745810E+03  0.12511745810E+03  0.00000000000E+00 0.  1.
         25    2    1    2    0    0  0.74390848580E+02  0.95874728005E+01 -0.43894866090E+02  0.15231601765E+03  0.12508993555E+03 0.  0.
          5    1    3    3  502    0  0.38765476286E+02 -0.53659473358E+02 -0.44016471666E+02  0.79605423250E+02  0.41800000000E+01 0.  1.
         -5    1    3    3    0  502  0.35625372294E+02  0.63246946159E+02  0.12160557620E+00  0.72710594396E+02  0.41800000000E+01 0.  1.
        -11    1    1    2    0    0 -0.41959875469E+02 -0.22046845307E+02 -0.52981147590E+00  0.47402270384E+02  0.00000000000E+00 0.  1.
         11    1    1    2    0    0 -0.32430973111E+02  0.12459372507E+02  0.96019501159E+02  0.10211145177E+03  0.00000000000E+00 0. -1.
</event>
<event>
 7    1  0.2661133E-009  0.2193086E+03  0.7561462E-02  0.1134400E+00
          2   -1    0    0  501    0  0.00000000000E+00  0.00000000000E+00  0.15596762282E+04  0.15596762282E+04  0.00000000000E+00 0.  1.
         -2   -1    0    0    0  501 -0.00000000000E+00 -0.00000000000E+00 -0.39346694058E+02  0.39346694058E+02  0.00000000000E+00 0. -1.
         25    2    1    2    0    0  0.20356554186E+03  0.68989367447E+02  0.98834273902E+03  0.10191508131E+04  0.12509415421E+03 0.  0.
          5    1    3    3  502    0  0.26281211133E+02  0.30431134203E+02  0.43355622533E+03  0.43543682540E+03  0.41800000000E+01 0. -1.
         -5    1    3    3    0  502  0.17728433072E+03  0.38558233244E+02  0.55478651369E+03  0.58371398770E+03  0.41800000000E+01 0. -1.
        -11    1    1    2    0    0 -0.13060051860E+03 -0.30065731596E+02  0.22450036792E+03  0.26145909598E+03  0.00000000000E+00 0. -1.
         11    1    1    2    0    0 -0.72965023260E+02 -0.38923635851E+02  0.30748642722E+03  0.31841301320E+03  0.00000000000E+00 0.  1.
</event>
<event>
 7    1  0.2661133E-009  0.9638426E+02  0.7561462E-02  0.1288088E+00
         -2   -1    0    0    0  501 -0.00000000000E+00  0.00000000000E+00  0.31052861556E+02  0.31052861556E+02  0.00000000000E+00 0. -1.
          2   -1    0    0  501    0  0.00000000000E+00 -0.00000000000E+00 -0.97573852711E+03  0.97573852711E+03  0.00000000000E+00 0.  1.
         25    2    1    2    0    0 -0.25323050872E+02 -0.66087596954E+02 -0.83999730958E+03  0.85220344926E+03  0.12508561651E+03 0.  0.
          5    1    3    3  502    0 -0.42807203547E+02 -0.46133612620E+02 -0.16457654771E+03  0.17624891303E+03  0.41800000000E+01 0. -1.
         -5    1    3    3    0  502  0.17484152675E+02 -0.19953984334E+02 -0.67542076187E+03  0.67595453624E+03  0.41800000000E+01 0. -1.
        -11    1    1    2    0    0  0.38832582528E+02  0.76492934533E+02 -0.54626300374E+02  0.10170138245E+03  0.00000000000E+00 0. -1.
         11    1    1    2    0    0 -0.13509531656E+02 -0.10405337580E+02 -0.50062055595E+02  0.52886556951E+02  0.00000000000E+00 0.  1.
</event>
<event>
 7    1  0.2661133E-009  0.1710169E+03  0.7561462E-02  0.1176792E+00
         -2   -1    0    0    0  501 -0.00000000000E+00  0.00000000000E+00  0.27989134640E+02  0.27989134640E+02  0.00000000000E+00 0. -1.
          2   -1    0    0  501    0  0.00000000000E+00 -0.00000000000E+00 -0.12301999214E+04  0.12301999214E+04  0.00000000000E+00 0.  1.
         25    2    1    2    0    0 -0.96961654388E+02 -0.11607855287E+03 -0.63044357239E+03  0.66028957549E+03  0.12508969851E+03 0.  0.
          5    1    3    3  502    0  0.33385131187E+01 -0.84495307382E+02 -0.20028111333E+03  0.21744102510E+03  0.41800000000E+01 0.  1.
         -5    1    3    3    0  502 -0.10030016751E+03 -0.31583245489E+02 -0.43016245906E+03  0.44284855039E+03  0.41800000000E+01 0.  1.
        -11    1    1    2    0    0  0.79645123393E+02  0.84518608278E+02 -0.53083339261E+03  0.54338828800E+03  0.00000000000E+00 0.  1.
         11    1    1    2    0    0  0.17316530995E+02  0.31559944593E+02 -0.40933821719E+02  0.54511192510E+02  0.00000000000E+00 0. -1.
</event>
<event>
 7    1  0.2661133E-009  0.1257035E+03  0.7561462E-02  0.1233974E+00
         -2   -1    0    0    0  501 -0.00000000000E+00  0.00000000000E+00  0.12300835125E+03  0.12300835125E+03  0.00000000000E+00 0. -1.
          2   -1    0    0  501    0  0.00000000000E+00 -0.00000000000E+00 -0.22421616687E+03  0.22421616687E+03  0.00000000000E+00 0.  1.
         25    2    1    2    0    0  0.92491406994E+02  0.36245776951E+02 -0.13571443898E+03  0.20960460951E+03  0.12508903496E+03 0.  0.
          5    1    3    3  502    0  0.63722189464E+02  0.61759784061E+02 -0.14479268992E+03  0.16987402336E+03  0.41800000000E+01 0.  1.
         -5    1    3    3    0  502  0.28769217530E+02 -0.25514007110E+02  0.90782509380E+01  0.39730586154E+02  0.41800000000E+01 0.  1.
        -11    1    1    2    0    0 -0.36728117476E+02  0.22355139292E+02 -0.11568533643E+02  0.44525698610E+02  0.00000000000E+00 0.  1.
         11    1    1    2    0    0 -0.55763289518E+02 -0.58600916243E+02  0.46075156998E+02  0.93094209996E+02  0.00000000000E+00 0. -1.
</event>
<event>
 7    1  0.2661133E-009  0.1643579E+03  0.7561462E-02  0.1183863E+00
          2   -1    0    0  501    0  0.00000000000E+00  0.00000000000E+00  0.33464592522E+03  0.33464592522E+03  0.00000000000E+00 0. -1.
         -2   -1    0    0    0  501 -0.00000000000E+00 -0.00000000000E+00 -0.84144442974E+02  0.84144442974E+02  0.00000000000E+00 0.  1.
         25    2    1    2    0    0  0.54198743945E+02  0.11057322551E+03  0.10250806282E+03  0.20327155281E+03  0.12508988446E+03 0.  0.
          5    1    3    3  502    0  0.55943807486E+02 -0.65319342547E+01  0.19866784128E+02  0.59871005276E+02  0.41800000000E+01 0.  1.
         -5    1    3    3    0  502 -0.17450635404E+01  0.11710515977E+03  0.82641278688E+02  0.14340054754E+03  0.41800000000E+01 0.  1.
        -11    1    1    2    0    0  0.20410400923E+02 -0.63801732193E+02  0.48793406316E+02  0.82873650798E+02  0.00000000000E+00 0.  1.
         11    1    1    2    0    0 -0.74609144869E+02 -0.46771493320E+02  0.99200013115E+02  0.13264516458E+03  0.00000000000E+00 0. -1.
</event>
<event>
 7    1  0.2661133E-009  0.7174568E+02  0.7561462E-02  0.1354255E+00
         -1   -1    0    0    0  501 -0.00000000000E+00  0.00000000000E+00  0.63593734625E+02  0.63593734625E+02  0.00000000000E+00 0.  1.
          1   -1    0    0  501    0  0.00000000000E+00 -0.00000000000E+00 -0.19222786765E+03  0.19222786765E+03  0.00000000000E+00 0. -1.
         25    2    1    2    0    0  0.11728528348E+02 -0.22317489309E+02 -0.11228345924E+03  0.16997649047E+03  0.12509517732E+03 0.  0.
          5    1    3    3  502    0 -0.26285832924E+02 -0.42389730717E+02 -0.40954135335E+00  0.50054714133E+02  0.41800000000E+01 0. -1.
         -5    1    3    3    0  502  0.38014361272E+02  0.20072241408E+02 -0.11187391789E+03  0.11992177634E+03  0.41800000000E+01 0. -1.
        -11    1    1    2    0    0 -0.52896889953E+01 -0.13163661197E+02  0.26367357661E+02  0.29941615451E+02  0.00000000000E+00 0.  1.
         11    1    1    2    0    0 -0.64388393525E+01  0.35481150506E+02 -0.42718031452E+02  0.55903496354E+02  0.00000000000E+00 0. -1.
</event>
<event>
 7    1  0.2661133E-009  0.3014801E+03  0.7561462E-02  0.1084503E+00
          1   -1    0    0  501    0  0.00000000000E+00  0.00000000000E+00  0.40102684731E+03  0.40102684731E+03  0.00000000000E+00 0. -1.
         -1   -1    0    0    0  501 -0.00000000000E+00 -0.00000000000E+00 -0.29960886372E+03  0.29960886372E+03  0.00000000000E+00 0.  1.
         25    2    1    2    0    0 -0.58816085228E+02 -0.29132586764E+03  0.19418432775E+03  0.37641146721E+03  0.12509175216E+03 0.  0.
          5    1    3    3  502    0 -0.74391046698E+02 -0.23126872278E+03  0.19896389327E+03  0.31404355301E+03  0.41800000000E+01 0.  1.
         -5    1    3    3    0  502  0.15574961470E+02 -0.60057144868E+02 -0.47795655138E+01  0.62367914195E+02  0.41800000000E+01 0.  1.
        -11    1    1    2    0    0  0.41956836081E+02  0.16051037488E+03 -0.97147698800E+02  0.19225408168E+03  0.00000000000E+00 0.  1.
         11    1    1    2    0    0  0.16859249147E+02  0.13081549276E+03  0.43813546371E+01  0.13197016214E+03  0.00000000000E+00 0. -1.
</event>
<event>
 7    1  0.2661133E-009  0.1129342E+03  0.7561462E-02  0.1255231E+00
          4   -1    0    0  501    0  0.00000000000E+00  0.00000000000E+00  0.50234923589E+02  0.50234923589E+02  0.00000000000E+00 0. -1.
         -4   -1    0    0    0  501 -0.00000000000E+00 -0.00000000000E+00 -0.35038458379E+03  0.35038458379E+03  0.00000000000E+00 0.  1.
         25    2    1    2    0    0 -0.55614405784E+02  0.37966272885E+02 -0.22109175861E+03  0.26279649191E+03  0.12508409343E+03 0.  0.
          5    1    3    3  502    0  0.16032089031E+02 -0.16743009306E+02  0.47205952590E+00  0.23559530546E+02  0.41800000000E+01 0.  1.
         -5    1    3    3    0  502 -0.71646494815E+02  0.54709282192E+02 -0.22156381814E+03  0.23923696137E+03  0.41800000000E+01 0.  1.
        -11    1    1    2    0    0 -0.58142328921E+01 -0.49268957341E+02 -0.43315768867E+02  0.65859633267E+02  0.00000000000E+00 0. -1.
         11    1    1    2    0    0  0.61428638676E+02  0.11302684456E+02 -0.35742132721E+02  0.71963382195E+02  0.00000000000E+00 0.  1.
</event>
<event>
 7    1  0.2661133E-009  0.1824518E+03  0.7561462E-02  0.1165451E+00
         -1   -1    0    0    0  501 -0.00000000000E+00  0.00000000000E+00  0.22187361881E+03  0.22187361881E+03  0.00000000000E+00 0.  1.
          1   -1    0    0  501    0  0.00000000000E+00 -0.00000000000E+00 -0.19590376164E+03  0.19590376164E+03  0.00000000000E+00 0. -1.
         25    2    1    2    0    0 -0.10313325983E+03 -0.14114021911E+03  0.47649389820E+02  0.22017074830E+03  0.12509062045E+03 0.  0.
          5    1    3    3  502    0 -0.68622049524E+02 -0.35454540314E+02 -0.31616992902E+02  0.83565045024E+02  0.41800000000E+01 0.  1.
         -5    1    3    3    0  502 -0.34511210310E+02 -0.10568567879E+03  0.79266382721E+02  0.13660570328E+03  0.41800000000E+01 0.  1.
        -11    1    1    2    0    0  0.61982597577E+02  0.65455066960E+02  0.32513697903E+02  0.95829790485E+02  0.00000000000E+00 0.  1.
         11    1    1    2    0    0  0.41150662257E+02  0.75685152147E+02 -0.54193230553E+02  0.10177684166E+03  0.00000000000E+00 0. -1.
</event>
<event>
 7    1  0.2661133E-009  0.1021174E+03  0.7561462E-02  0.1275905E+00
          2   -1    0    0  501    0  0.00000000000E+00  0.00000000000E+00  0.21782355660E+03  0.21782355660E+03  0.00000000000E+00 0. -1.
         -2   -1    0    0    0  501 -0.00000000000E+00 -0.00000000000E+00 -0.76545652568E+02  0.76545652568E+02  0.00000000000E+00 0.  1.
         25    2    1    2    0    0  0.42174526180E+02  0.17459419538E+02  0.19994761551E+02  0.13468644136E+03  0.12512843405E+03 0.  0.
          5    1    3    3  502    0  0.84447163416E+02  0.28637756815E+02  0.13277119042E+02  0.90250755202E+02  0.41800000000E+01 0. -1.
         -5    1    3    3    0  502 -0.42272637236E+02 -0.11178337278E+02  0.67176425087E+01  0.44435686155E+02  0.41800000000E+01 0. -1.
        -11    1    1    2    0    0 -0.60111654717E-01  0.16770274203E+02 -0.86509848141E+01  0.18870221210E+02  0.00000000000E+00 0.  1.
         11    1    1    2    0    0 -0.42114414525E+02 -0.34229693741E+02  0.12993412729E+03  0.14081254660E+03  0.00000000000E+00 0. -1.
</event>
<event>
 7    1  0.2661133E-009  0.1021010E+03  0.7561462E-02  0.1275939E+00
         -2   -1    0    0    0  501 -0.00000000000E+00  0.00000000000E+00  0.77310991105E+02  0.77310991105E+02  0.00000000000E+00 0.  1.
          2   -1    0    0  501    0  0.00000000000E+00 -0.00000000000E+00 -0.24574063249E+03  0.24574063249E+03  0.00000000000E+00 0. -1.
         25    2    1    2    0    0 -0.93063680891E+01 -0.12686952289E+02  0.49248406888E+01  0.12617217727E+03  0.12509035541E+03 0.  0.
          5    1    3    3  502    0  0.20454886443E+02  0.47271901089E+02 -0.18859271039E+02  0.55010721829E+02  0.41800000000E+01 0.  1.
         -5    1    3    3    0  502 -0.29761254532E+02 -0.59958853378E+02  0.23784111728E+02  0.71161455441E+02  0.41800000000E+01 0.  1.
        -11    1    1    2    0    0 -0.37322803874E+02  0.10516891000E+02 -0.11937956089E+03  0.12551922659E+03  0.00000000000E+00 0. -1.
         11    1    1    2    0    0  0.46629171963E+02  0.21700612890E+01 -0.53974921179E+02  0.71360219732E+02  0.00000000000E+00 0.  1.
</event>
<event>
 7    1  0.2661133E-009  0.1489703E+03  0.7561462E-02  0.1201744E+00
         -1   -1    0    0    0  501 -0.00000000000E+00  0.00000000000E+00  0.22737089588E+02  0.22737089588E+02  0.00000000000E+00 0.  1.
          1   -1    0    0  501    0  0.00000000000E+00 -0.00000000000E+00 -0.13349778585E+04  0.13349778585E+04  0.00000000000E+00 0. -1.
         25    2    1    2    0    0 -0.11217340278E+03 -0.47160414486E+02 -0.94453623006E+03  0.96052207415E+03  0.12508792124E+03 0.  0.
          5    1    3    3  502    0 -0.13336854218E+03 -0.17177085311E+02 -0.80552675542E+03  0.81668417788E+03  0.41800000000E+01 0.  1.
         -5    1    3    3    0  502  0.21195139398E+02 -0.29983329175E+02 -0.13900947465E+03  0.14383789627E+03  0.41800000000E+01 0.  1.
        -11    1    1    2    0    0  0.70716475139E+02  0.11256080980E+02 -0.94649731721E+02  0.11868483867E+03  0.00000000000E+00 0.  1.
         11    1    1    2    0    0  0.41456927640E+02  0.35904333506E+02 -0.27305480708E+03  0.27850803522E+03  0.00000000000E+00 0. -1.
</event>
<event>
 7    1  0.2661133E-009  0.1603693E+03  0.7561462E-02  0.1188281E+00
         -2   -1    0    0    0  501 -0.00000000000E+00  0.00000000000E+00  0.12994258243E+03  0.12994258243E+03  0.00000000000E+00 0. -1.
          2   -1    0    0  501    0  0.00000000000E+00 -0.00000000000E+00 -0.27293057029E+03  0.27293057029E+03  0.00000000000E+00 0.  1.
         25    2    1    2    0    0  0.89286680831E+02  0.98290973106E+02 -0.15644293237E+03  0.24032323457E+03  0.12509052409E+03 0.  0.
          5    1    3    3  502    0  0.17532721051E+02 -0.26700880296E+02 -0.55990837781E+02  0.64597055904E+02  0.41800000000E+01 0.  1.
         -5    1    3    3    0  502  0.71753959780E+02  0.12499185340E+03 -0.10045209459E+03  0.17572617866E+03  0.41800000000E+01 0.  1.
        -11    1    1    2    0    0 -0.98340335648E+01 -0.50868567324E+02 -0.30489465089E+02  0.60115944966E+02  0.00000000000E+00 0.  1.
         11    1    1    2    0    0 -0.79452647266E+02 -0.47422405782E+02  0.43944409595E+02  0.10243397318E+03  0.00000000000E+00 0. -1.
</event>
<event>
 7    1  0.2661133E-009  0.1236960E+03  0.7561462E-02  0.1237121E+00
          2   -1    0    0  501    0  0.00000000000E+00  0.00000000000E+00  0.19894573206E+03  0.19894573206E+03  0.00000000000E+00 0. -1.
         -2   -1    0    0    0  501 -0.00000000000E+00 -0.00000000000E+00 -0.87768582849E+02  0.87768582849E+02  0.00000000000E+00 0.  1.
         25    2    1    2    0    0  0.50501572363E+02  0.41120345352E+02  0.10073695715E+03  0.17331048072E+03  0.12508915452E+03 0.  0.
          5    1    3    3  502    0 -0.28471598416E+02  0.47187123557E+02  0.67682970556E+02  0.87382569481E+02  0.41800000000E+01 0.  1.
         -5    1    3    3    0  502  0.78973170779E+02 -0.60667782046E+01  0.33053986599E+02  0.85927911244E+02  0.41800000000E+01 0.  1.
        -11    1    1    2    0    0 -0.13378283216E+02  0.29851215541E+02  0.53636373753E+01  0.33148787866E+02  0.00000000000E+00 0.  1.
         11    1    1    2    0    0 -0.37123289148E+02 -0.70971560893E+02  0.50765546857E+01  0.80255046323E+02  0.00000000000E+00 0. -1.
</event>
<event>
 7    1  0.2661133E-009  0.1976740E+03  0.7561462E-02  0.1151716E+00
          1   -1    0    0  501    0  0.00000000000E+00  0.00000000000E+00  0.61066282528E+03  0.61066282528E+03  0.00000000000E+00 0. -1.
         -1   -1    0    0    0  501 -0.00000000000E+00 -0.00000000000E+00 -0.74518340535E+02  0.74518340535E+02  0.00000000000E+00 0.  1.
         25    2    1    2    0    0 -0.10425984837E+03 -0.13546619995E+03  0.38816183439E+03  0.44219705335E+03  0.12508963589E+03 0.  0.
          5    1    3    3  502    0 -0.11699378368E+03 -0.53415469283E+02  0.23732511108E+03  0.26996562472E+03  0.41800000000E+01 0.  1.
         -5    1    3    3    0  502  0.12733935313E+02 -0.82050730666E+02  0.15083672331E+03  0.17223142863E+03  0.41800000000E+01 0.  1.
        -11    1    1    2    0    0  0.72415657680E+02  0.39646082297E+02  0.30353997624E+02  0.87961380677E+02  0.00000000000E+00 0.  1.
         11    1    1    2    0    0  0.31844190688E+02  0.95820117652E+02  0.11762865273E+03  0.15502273179E+03  0.00000000000E+00 0. -1.
</event>
<event>
 7    1  0.2661133E-009  0.2028934E+03  0.7561462E-02  0.1147321E+00
          2   -1    0    0  501    0  0.00000000000E+00  0.00000000000E+00  0.41569322751E+03  0.41569322751E+03  0.00000000000E+00 0.  1.
         -2   -1    0    0    0  501 -0.00000000000E+00 -0.00000000000E+00 -0.13183613093E+03  0.13183613093E+03  0.00000000000E+00 0. -1.
         25    2    1    2    0    0  0.19038975979E+03 -0.41537418632E+02  0.22960345812E+03  0.32609654656E+03  0.12509033501E+03 0.  0.
          5    1    3    3  502    0  0.14779457669E+02 -0.48657288108E+00 -0.15459869749E+02  0.21797914919E+02  0.41800000000E+01 0.  1.
         -5    1    3    3    0  502  0.17561030212E+03 -0.41050845751E+02  0.24506332787E+03  0.30429863164E+03  0.41800000000E+01 0.  1.
        -11    1    1    2    0    0 -0.89298306785E+02  0.59564021329E+02  0.50631537816E+02  0.11868282459E+03  0.00000000000E+00 0.  1.
         11    1    1    2    0    0 -0.10109145300E+03 -0.18026602697E+02  0.36221006314E+01  0.10274998729E+03  0.00000000000E+00 0. -1.
</event>
<event>
 7    1  0.2661133E-009  0.2179223E+03  0.7561462E-02  0.1135442E+00
         -1   -1    0    0    0  501 -0.00000000000E+00  0.00000000000E+00  0.79909456731E+02  0.79909456731E+02  0.00000000000E+00 0.  1.
          1   -1    0    0  501    0  0.00000000000E+00 -0.00000000000E+00 -0.68412177620E+03  0.68412177620E+03  0.00000000000E+00 0. -1.
         25    2    1    2    0    0 -0.47961549188E+02  0.20171040910E+03 -0.38657014436E+03  0.45614816361E+03  0.12508905354E+03 0.  0.
          5    1    3    3  502    0 -0.40844936579E+02  0.25904971015E+02 -0.17152609782E+03  0.17826399244E+03  0.41800000000E+01 0.  1.
         -5    1    3    3    0  502 -0.71166126099E+01  0.17580543809E+03 -0.21504404654E+03  0.27788417117E+03  0.41800000000E+01 0.  1.
        -11    1    1    2    0    0 -0.61331803149E+01 -0.47099239715E+02 -0.20936523818E+02  0.51906572918E+02  0.00000000000E+00 0.  1.
         11    1    1    2    0    0  0.54094729503E+02 -0.15461116939E+03 -0.19670565129E+03  0.25597649640E+03  0.00000000000E+00 0. -1.
</event>
<event>
 7    1  0.2661133E-009  0.3448192E+03  0.7561462E-02  0.1064762E+00
         -2   -1    0    0    0  501 -0.00000000000E+00  0.00000000000E+00  0.16980313118E+04  0.16980313118E+04  0.00000000000E+00 0.  1.
          2   -1    0    0  501    0  0.00000000000E+00 -0.00000000000E+00 -0.87497514499E+02  0.87497514499E+02  0.00000000000E+00 0. -1.
         25    2    1    2    0    0 -0.22410509156E+03 -0.23809636602E+03  0.12124405160E+04  0.12619721240E+04  0.12509462517E+03 0.  0.
          5    1    3    3  502    0 -0.17959534667E+03 -0.24572628470E+03  0.10731962760E+04  0.11155284016E+04  0.41800000000E+01 0. -1.
         -5    1    3    3    0  502 -0.44509744887E+02  0.76299186761E+01  0.13924424004E+03  0.14644372241E+03  0.41800000000E+01 0. -1.
        -11    1    1    2    0    0  0.73914201135E+02  0.14619827995E+03  0.19971925675E+03  0.25831188069E+03  0.00000000000E+00 0. -1.
         11    1    1    2    0    0  0.15019089043E+03  0.91898086076E+02  0.19837402454E+03  0.26524482163E+03  0.00000000000E+00 0.  1.
</event>
<event>
 7    1  0.2661133E-009  0.6029725E+02  0.7561462E-02  0.1396589E+00
         -1   -1    0    0    0  501 -0.00000000000E+00  0.00000000000E+00  0.86383267569E+02  0.86383267569E+02  0.00000000000E+00 0.  1.
          1   -1    0    0  501    0  0.00000000000E+00 -0.00000000000E+00 -0.15083212502E+03  0.15083212502E+03  0.00000000000E+00 0. -1.
         25    2    1    2    0    0  0.44956251970E+01  0.31595702334E+02 -0.16874351892E+02  0.13019530624E+03  0.12509026726E+03 0.  0.
          5    1    3    3  502    0  0.17832734545E+02  0.60026893090E+01 -0.68359807540E+02  0.71025167281E+02  0.41800000000E+01 0. -1.
         -5    1    3    3    0  502 -0.13337109348E+02  0.25593013025E+02  0.51485455649E+02  0.59170138962E+02  0.41800000000E+01 0. -1.
        -11    1    1    2    0    0  0.19729759395E+02  0.11415895484E+02  0.15023078786E+02  0.27299798016E+02  0.00000000000E+00 0.  1.
         11    1    1    2    0    0 -0.24225384592E+02 -0.43011597818E+02 -0.62597584350E+02  0.79720288334E+02  0.00000000000E+00 0. -1.
</event>
<event>
 7    1  0.2661133E-009  0.1352180E+03  0.7561462E-02  0.1219912E+00
          2   -1    0    0  501    0  0.00000000000E+00  0.00000000000E+00  0.11619609185E+04  0.11619609185E+04  0.00000000000E+00 0. -1.
         -2   -1    0    0    0  501 -0.00000000000E+00 -0.00000000000E+00 -0.32746770263E+02  0.32746770263E+02  0.00000000000E+00 0.  1.
         25    2    1    2    0    0 -0.11597809706E+03  0.56138965960E+01  0.93716241189E+03  0.95257466571E+03  0.12507067063E+03 0.  0.
          5    1    3    3  502    0 -0.10843601945E+03 -0.29895561687E+02  0.85840139534E+03  0.86574969989E+03  0.41800000000E+01 0. -1.
         -5    1    3    3    0  502 -0.75420776037E+01  0.35509458283E+02  0.78761016548E+02  0.86824965821E+02  0.41800000000E+01 0. -1.
        -11    1    1    2    0    0  0.16154637926E+02 -0.13704496568E+02  0.11181707621E+03  0.11380616892E+03  0.00000000000E+00 0. -1.
         11    1    1    2    0    0  0.99823459132E+02  0.80905999716E+01  0.80234660092E+02  0.12832685409E+03  0.00000000000E+00 0.  1.
</event>
<event>
 7    1  0.2661133E-009  0.1033110E+03  0.7561462E-02  0.1273483E+00
          1   -1    0    0  501    0  0.00000000000E+00  0.00000000000E+00  0.20175668059E+03  0.20175668059E+03  0.00000000000E+00 0. -1.
         -1   -1    0    0    0  501 -0.00000000000E+00 -0.00000000000E+00 -0.63856735298E+02  0.63856735298E+02  0.00000000000E+00 0.  1.
         25    2    1    2    0    0  0.34440323231E+01  0.40300723289E+02  0.86512485369E+02  0.15737883038E+03  0.12509067300E+03 0.  0.
          5    1    3    3  502    0 -0.13263988964E+02  0.73671702924E+02  0.92801724661E+02  0.11930249668E+03  0.41800000000E+01 0. -1.
         -5    1    3    3    0  502  0.16708021287E+02 -0.33370979635E+02 -0.62892392918E+01  0.38076333700E+02  0.41800000000E+01 0. -1.
        -11    1    1    2    0    0 -0.44139697915E+02 -0.24133336948E+02  0.35837178464E+02  0.61765963480E+02  0.00000000000E+00 0. -1.
         11    1    1    2    0    0  0.40695665592E+02 -0.16167386341E+02  0.15550281454E+02  0.46468622019E+02  0.00000000000E+00 0.  1.
</event>
<event>
 7    1  0.2661133E-009  0.1152447E+03  0.7561462E-02  0.1251155E+00
         -1   -1    0    0    0  501 -0.00000000000E+00  0.00000000000E+00  0.64328735708E+02  0.64328735708E+02  0.00000000000E+00 0.  1.
          1   -1    0    0  501    0  0.00000000000E+00 -0.00000000000E+00 -0.28330328661E+03  0.28330328661E+03  0.00000000000E+00 0. -1.
         25    2    1    2    0    0  0.72536161224E+02 -0.31167239034E+02 -0.14574117714E+03  0.20765573382E+03  0.12509005395E+03 0.  0.
          5    1    3    3  502    0  0.58427045319E+02 -0.57533321594E+02 -0.29005242279E+02  0.87078006397E+02  0.41800000000E+01 0.  1.
         -5    1    3    3    0  502  0.14109115905E+02  0.26366082560E+02 -0.11673593486E+03  0.12057772742E+03  0.41800000000E+01 0.  1.
        -11    1    1    2    0    0 -0.11222369087E+02  0.52181544440E+02 -0.23694695522E+02  0.58397720366E+02  0.00000000000E+00 0.  1.
         11    1    1    2    0    0 -0.61313792137E+02 -0.21014305406E+02 -0.49538678240E+02  0.81578568140E+02  0.00000000000E+00 0. -1.
</event>
<event>
 7    1  0.2661133E-009  0.7926886E+02  0.7561462E-02  0.1331139E+00
         -2   -1    0    0    0  501 -0.00000000000E+00  0.00000000000E+00  0.10796706661E+03  0.10796706661E+03  0.00000000000E+00 0.  1.
          2   -1    0    0  501    0  0.00000000000E+00 -0.00000000000E+00 -0.13256867115E+03  0.13256867115E+03  0.00000000000E+00 0. -1.
         25    2    1    2    0    0  0.15963139516E+02 -0.31300427207E+02  0.24427245791E+02  0.13220826244E+03  0.12509114978E+03 0.  0.
          5    1    3    3  502    0  0.27782501390E+02 -0.73483588698E+02 -0.56989012203E+01  0.78877468687E+02  0.41800000000E+01 0.  1.
         -5    1    3    3    0  502 -0.11819361874E+02  0.42183161491E+02  0.30126147011E+02  0.53330793752E+02  0.41800000000E+01 0.  1.
        -11    1    1    2    0    0 -0.12949023562E+02  0.17709934795E+02  0.24849867870E+02  0.33148679232E+02  0.00000000000E+00 0.  1.
         11    1    1    2    0    0 -0.30141159532E+01  0.13590492411E+02 -0.73878718198E+02  0.75178796090E+02  0.00000000000E+00 0. -1.
</event>
<event>
 7    1  0.2661133E-009  0.1140356E+03  0.7561462E-02  0.1253274E+00
         -1   -1    0    0    0  501 -0.00000000000E+00  0.00000000000E+00  0.16973871106E+03  0.16973871106E+03  0.00000000000E+00 0.  1.
          1   -1    0    0  501    0  0.00000000000E+00 -0.00000000000E+00 -0.14205567993E+03  0.14205567993E+03  0.00000000000E+00 0. -1.
         25    2    1    2    0    0  0.80092545243E+02 -0.74081422909E+02  0.26980344238E+01  0.16600448727E+03  0.12508931761E+03 0.  0.
          5    1    3    3  502    0  0.39527083529E+02 -0.59877753611E+02 -0.57415809383E+02  0.91987951803E+02  0.41800000000E+01 0. -1.
         -5    1    3    3    0  502  0.40565461714E+02 -0.14203669298E+02  0.60113843807E+02  0.74016535469E+02  0.41800000000E+01 0. -1.
        -11    1    1    2    0    0 -0.23496014023E+02  0.41565206831E+02 -0.33356734260E+02  0.58244320018E+02  0.00000000000E+00 0. -1.
         11    1    1    2    0    0 -0.56596531219E+02  0.32516216077E+02  0.58341730964E+02  0.87545583703E+02  0.00000000000E+00 0.  1.
</event>
<event>
 7    1  0.2661133E-009  0.9477716E+02  0.7561462E-02  0.1291679E+00
         -1   -1    0    0    0  501 -0.00000000000E+00  0.00000000000E+00  0.48129934630E+02  0.48129934630E+02  0.00000000000E+00 0.  1.
          1   -1    0    0  501    0  0.00000000000E+00 -0.00000000000E+00 -0.30049729411E+03  0.30049729411E+03  0.00000000000E+00 0. -1.
         25    2    1    2    0    0 -0.21912240217E+02  0.46830701366E+02 -0.14699915694E+03  0.19982059074E+03  0.12508499302E+03 0.  0.
          5    1    3    3  502    0 -0.43489403676E+02 -0.11235720574E+02 -0.12671326048E+03  0.13450387515E+03  0.41800000000E+01 0. -1.
         -5    1    3    3    0  502  0.21577163458E+02  0.58066421939E+02 -0.20285896457E+02  0.65316715585E+02  0.41800000000E+01 0. -1.
        -11    1    1    2    0    0 -0.11559002943E+02  0.10729755411E+02 -0.73160846331E+02  0.74841483390E+02  0.00000000000E+00 0. -1.
         11    1    1    2    0    0  0.33471243160E+02 -0.57560456776E+02 -0.32207356208E+02  0.73965154613E+02  0.00000000000E+00 0.  1.
</event>
<event>
 7    1  0.2661133E-009  0.1047887E+03  0.7561462E-02  0.1270536E+00
         -2   -1    0    0    0  501 -0.00000000000E+00  0.00000000000E+00  0.11719313045E+03  0.11719313045E+03  0.00000000000E+00 0.  1.
          2   -1    0    0  501    0  0.00000000000E+00 -0.00000000000E+00 -0.15519900389E+03  0.15519900389E+03  0.00000000000E+00 0. -1.
         25    2    1    2    0    0 -0.19642719071E+02  0.53336439300E+02  0.35604664399E+02  0.14193574071E+03  0.12508976854E+03 0.  0.
          5    1    3    3  502    0  0.57196861450E+01 -0.25178008174E+02 -0.27518546278E+02  0.37965638339E+02  0.41800000000E+01 0.  1.
         -5    1    3    3    0  502 -0.25362405216E+02  0.78514447474E+02  0.63123210677E+02  0.10397010237E+03  0.41800000000E+01 0.  1.
        -11    1    1    2    0    0  0.17192685665E+02 -0.76046052151E+02 -0.34703546746E+02  0.85340064711E+02  0.00000000000E+00 0.  1.
         11    1    1    2    0    0  0.24500334054E+01  0.22709612851E+02 -0.38906991098E+02  0.45116328927E+02  0.00000000000E+00 0. -1.
</event>
<event>
 7    1  0.2661133E-009  0.1839366E+03  0.7561462E-02  0.1164047E+00
          1   -1    0    0  501    0  0.00000000000E+00  0.00000000000E+00  0.40979934337E+03  0.40979934337E+03  0.00000000000E+00 0. -1.
         -1   -1    0    0    0  501 -0.00000000000E+00 -0.00000000000E+00 -0.91808001067E+02  0.91808001067E+02  0.00000000000E+00 0.  1.
         25    2    1    2    0    0 -0.19878391138E+02 -0.14937128986E+03  0.94406763087E+02  0.21740992347E+03  0.12508998856E+03 0.  0.
          5    1    3    3  502    0  0.14597141277E+01  0.21926651127E+02  0.17421962016E+02  0.28353235361E+02  0.41800000000E+01 0. -1.
         -5    1    3    3    0  502 -0.21338105266E+02 -0.17129794098E+03  0.76984801071E+02  0.18905668810E+03  0.41800000000E+01 0. -1.
        -11    1    1    2    0    0 -0.31005248686E+02  0.86865768701E+02  0.14344057024E+03  0.17053499467E+03  0.00000000000E+00 0. -1.
         11    1    1    2    0    0  0.50883639825E+02  0.62505521154E+02  0.80144008976E+02  0.11366242630E+03  0.00000000000E+00 0.  1.
</event>
<event>
 7    1  0.2661133E-009  0.1714340E+03  0.7561462E-02  0.1176361E+00
         -2   -1    0    0    0  501 -0.00000000000E+00  0.00000000000E+00  0.94700695965E+02  0.94700695965E+02  0.00000000000E+00 0.  1.
          2   -1    0    0  501    0  0.00000000000E+00 -0.00000000000E+00 -0.73746589513E+03  0.73746589513E+03  0.00000000000E+00 0. -1.
         25    2    1    2    0    0 -0.72629991841E+00 -0.13848807446E+03 -0.59450395023E+03  0.62310822834E+03  0.12509773422E+03 0.  0.
          5    1    3    3  502    0 -0.24472588526E+02 -0.10940833450E+03 -0.56255753016E+03  0.57363537059E+03  0.41800000000E+01 0.  1.
         -5    1    3    3    0  502  0.23746288608E+02 -0.29079739968E+02 -0.31946420071E+02  0.49472857757E+02  0.41800000000E+01 0.  1.
        -11    1    1    2    0    0  0.39095314021E+02 -0.93240042903E+01 -0.39099874261E+02  0.56072995298E+02  0.00000000000E+00 0. -1.
         11    1    1    2    0    0 -0.38369014103E+02  0.14781207875E+03 -0.91613746694E+01  0.15298536745E+03  0.00000000000E+00 0.  1.
</event>
<event>
 7    1  0.2661133E-009  0.1159106E+03  0.7561462E-02  0.1250000E+00
         -1   -1    0    0    0  501 -0.00000000000E+00  0.00000000000E+00  0.92862292091E+02  0.92862292091E+02  0.00000000000E+00 0.  1.
          1   -1    0    0  501    0  0.00000000000E+00 -0.00000000000E+00 -0.25485795347E+03  0.25485795347E+03  0.00000000000E+00 0. -1.
         25    2    1    2    0    0  0.78368272545E+02 -0.63400575585E+02 -0.42329779684E+02  0.16613455884E+03  0.12509061622E+03 0.  0.
          5    1    3    3  502    0  0.74134237052E+02 -0.33269936343E+02 -0.82298029285E+02  0.11572904472E+03  0.41800000000E+01 0.  1.
         -5    1    3    3    0  502  0.42340354925E+01 -0.30130639242E+02  0.39968249601E+02  0.50405514121E+02  0.41800000000E+01 0.  1.
        -11    1    1    2    0    0 -0.73130988972E+02  0.19710108663E+02 -0.11449484731E+03  0.13727964158E+03  0.00000000000E+00 0.  1.
         11    1    1    2    0    0 -0.52372835733E+01  0.43690466922E+02 -0.51710343799E+01  0.44306045136E+02  0.00000000000E+00 0. -1.
</event>
<event>
 7    1  0.2661133E-009  0.1195380E+03  0.7561462E-02  0.1243861E+00
         -2   -1    0    0    0  501 -0.00000000000E+00  0.00000000000E+00  0.33320592271E+02  0.33320592271E+02  0.00000000000E+00 0.  1.
          2   -1    0    0  501    0  0.00000000000E+00 -0.00000000000E+00 -0.45155326573E+03  0.45155326573E+03  0.00000000000E+00 0. -1.
         25    2    1    2    0    0  0.49122538272E+02 -0.13580844468E+02 -0.24830378557E+03  0.28267284465E+03  0.12510677069E+03 0.  0.
          5    1    3    3  502    0  0.87097111236E+02 -0.30160268745E+02 -0.18752865527E+03  0.20899764962E+03  0.41800000000E+01 0.  1.
         -5    1    3    3    0  502 -0.37974572964E+02  0.16579424276E+02 -0.60775130296E+02  0.73675195036E+02  0.41800000000E+01 0.  1.
        -11    1    1    2    0    0 -0.55745513932E+02 -0.28469754766E+02 -0.71906979082E+02  0.95334688863E+02  0.00000000000E+00 0.  1.
         11    1    1    2    0    0  0.66229756599E+01  0.42050599234E+02 -0.98021908809E+02  0.10686632449E+03  0.00000000000E+00 0. -1.
</event>
<event>
 7    1  0.2661133E-009  0.1387210E+03  0.7561462E-02  0.1215060E+00
         -1   -1    0    0    0  501 -0.00000000000E+00  0.00000000000E+00  0.69989193793E+02  0.69989193793E+02  0.00000000000E+00 0.  1.
          1   -1    0    0  501    0  0.00000000000E+00 -0.00000000000E+00 -0.36717001612E+03  0.36717001612E+03  0.00000000000E+00 0. -1.
         25    2    1    2    0    0  0.44860171112E+02 -0.10140014323E+03 -0.21372959358E+03  0.27131077432E+03  0.12503908626E+03 0.  0.
          5    1    3    3  502    0  0.72878034153E+02 -0.11405430154E+03 -0.18289162069E+03  0.22756627360E+03  0.41800000000E+01 0. -1.
         -5    1    3    3    0  502 -0.28017863041E+02  0.12654158303E+02 -0.30837972881E+02  0.43744500719E+02  0.41800000000E+01 0. -1.
        -11    1    1    2    0    0 -0.35971224737E+02  0.86009764643E+02 -0.10333778492E+03  0.13917724820E+03  0.00000000000E+00 0. -1.
         11    1    1    2    0    0 -0.88889463753E+01  0.15390378589E+02  0.19886556170E+02  0.26671187396E+02  0.00000000000E+00 0.  1.
</event>
<event>
 7    1  0.2661133E-009  0.1160898E+03  0.7561462E-02  0.1249691E+00
         -2   -1    0    0    0  501 -0.00000000000E+00  0.00000000000E+00  0.41632976715E+02  0.41632976715E+02  0.00000000000E+00 0. -1.
          2   -1    0    0  501    0  0.00000000000E+00 -0.00000000000E+00 -0.42564114237E+03  0.42564114237E+03  0.00000000000E+00 0.  1.
         25    2    1    2    0    0  0.40121903472E+02  0.19996451851E+02 -0.10183468132E+03  0.16742570836E+03  0.12510571640E+03 0.  0.
          5    1    3    3  502    0  0.55989869690E+02 -0.40765903609E+02 -0.45630490916E+02  0.83044196102E+02  0.41800000000E+01 0.  1.
         -5    1    3    3    0  502 -0.15867966218E+02  0.60762355459E+02 -0.56204190402E+02  0.84381512262E+02  0.41800000000E+01 0.  1.
        -11    1    1    2    0    0 -0.34808715918E+02 -0.54651913784E+02 -0.20692970322E+03  0.21683722111E+03  0.00000000000E+00 0. -1.
         11    1    1    2    0    0 -0.53131875538E+01  0.34655461933E+02 -0.75243781112E+02  0.83011189607E+02  0.00000000000E+00 0.  1.
</event>
<event>
 7    1  0.2661133E-009  0.9213431E+02  0.7561462E-02  0.1297764E+00
          1   -1    0    0  501    0  0.00000000000E+00  0.00000000000E+00  0.95467377471E+02  0.95467377471E+02  0.00000000000E+00 0. -1.
         -1   -1    0    0    0  501 -0.00000000000E+00 -0.00000000000E+00 -0.15550790726E+03  0.15550790726E+03  0.00000000000E+00 0.  1.
         25    2    1    2    0    0  0.32973652082E+02  0.51634526078E+02 -0.67094131031E+02  0.15460554365E+03  0.12509142934E+03 0.  0.
          5    1    3    3  502    0 -0.85637381954E+01  0.69508171806E+02  0.39698551787E+01  0.70270589223E+02  0.41800000000E+01 0. -1.
         -5    1    3    3    0  502  0.41537390278E+02 -0.17873645728E+02 -0.71063986210E+02  0.84334954430E+02  0.41800000000E+01 0. -1.
        -11    1    1    2    0    0 -0.19922986089E+02 -0.51954187981E+02  0.34853215889E+02  0.65657518087E+02  0.00000000000E+00 0. -1.
         11    1    1    2    0    0 -0.13050665993E+02  0.31966190346E+00 -0.27799614644E+02  0.30712222989E+02  0.00000000000E+00 0.  1.
</event>
<event>
 7    1  0.2661133E-009  0.6993180E+02  0.7561462E-02  0.1360325E+00
          2   -1    0    0  501    0  0.00000000000E+00  0.00000000000E+00  0.45935675552E+03  0.45935675552E+03  0.00000000000E+00 0.  1.
         -2   -1    0    0    0  501 -0.00000000000E+00 -0.00000000000E+00 -0.29590454671E+02  0.29590454671E+02  0.00000000000E+00 0. -1.
         25    2    1    2    0    0  0.82670954270E+01 -0.21754990097E+02  0.16998475547E+03  0.21232652929E+03  0.12508442543E+03 0.  0.
          5    1    3    3  502    0  0.92270158368E+01 -0.32176109477E+02 -0.74404728335E+01  0.34543782050E+02  0.41800000000E+01 0.  1.
         -5    1    3    3    0  502 -0.95992040983E+00  0.10421119380E+02  0.17742522830E+03  0.17778274724E+03  0.41800000000E+01 0.  1.
        -11    1    1    2    0    0  0.20973824683E+02  0.49991253810E+02  0.14001441197E+03  0.15014347251E+03  0.00000000000E+00 0. -1.
         11    1    1    2    0    0 -0.29240920110E+02 -0.28236263713E+02  0.11976713340E+03  0.12647720839E+03  0.00000000000E+00 0.  1.
</event>
<event>
 7    1  0.2661133E-009  0.1273397E+03  0.7561462E-02  0.1231457E+00
          2   -1    0    0  501    0  0.00000000000E+00  0.00000000000E+00  0.11478638095E+04  0.11478638095E+04  0.00000000000E+00 0. -1.
         -2   -1    0    0    0  501 -0.00000000000E+00 -0.00000000000E+00 -0.24604434151E+02  0.24604434151E+02  0.00000000000E+00 0.  1.
         25    2    1    2    0    0 -0.87114978677E+02  0.15553556361E+02  0.92212237613E+03  0.93476629335E+03  0.12508962386E+03 0.  0.
          5    1    3    3  502    0 -0.12444953803E+02  0.45634905908E+02  0.12732714781E+03  0.13589369552E+03  0.41800000000E+01 0.  1.
         -5    1    3    3    0  502 -0.74670024873E+02 -0.30081349547E+02  0.79479522831E+03  0.79887259782E+03  0.41800000000E+01 0.  1.
        -11    1    1    2    0    0  0.37233190585E+02  0.38136163684E+02  0.89126972657E+02  0.10384745888E+03  0.00000000000E+00 0.  1.
         11    1    1    2    0    0  0.49881788092E+02 -0.53689720045E+02  0.11201002655E+03  0.13385449140E+03  0.00000000000E+00 0. -1.
</event>
<event>
 7    1  0.2661133E-009  0.1448010E+03  0.7561462E-02  0.1207011E+00
          2   -1    0    0  501    0  0.00000000000E+00  0.00000000000E+00  0.65857720357E+03  0.65857720357E+03  0.00000000000E+00 0. -1.
         -2   -1    0    0    0  501 -0.00000000000E+00 -0.00000000000E+00 -0.44642000771E+02  0.44642000771E+02  0.00000000000E+00 0.  1.
         25    2    1    2    0    0  0.97737543793E+02  0.60595267000E+02  0.46129292441E+03  0.49159264160E+03  0.12509096415E+03 0.  0.
          5    1    3    3  502    0  0.10681623017E+03  0.87286885909E+02  0.41376478983E+03  0.43617368236E+03  0.41800000000E+01 0. -1.
         -5    1    3    3    0  502 -0.90786863809E+01 -0.26691618909E+02  0.47528134582E+02  0.55418959239E+02  0.41800000000E+01 0. -1.
        -11    1    1    2    0    0 -0.60444897151E+02 -0.60892058750E+02  0.15174556325E+03  0.17432195610E+03  0.00000000000E+00 0. -1.
         11    1    1    2    0    0 -0.37292646642E+02  0.29679174971E+00  0.89671513489E+00  0.37304606645E+02  0.00000000000E+00 0.  1.
</event>
<event>
 7    1  0.2661133E-009  0.1669119E+03  0.7561462E-02  0.1181107E+00
         -2   -1    0    0    0  501 -0.00000000000E+00  0.00000000000E+00  0.48251695125E+02  0.48251695125E+02  0.00000000000E+00 0.  1.
          2   -1    0    0  501    0  0.00000000000E+00 -0.00000000000E+00 -0.65668250098E+03  0.65668250098E+03  0.00000000000E+00 0. -1.
         25    2    1    2    0    0  0.13339163573E+03  0.48918448455E+02 -0.35091157117E+03  0.39871313402E+03  0.12508752684E+03 0.  0.
          5    1    3    3  502    0  0.52077506154E+02  0.79319839951E+02 -0.23780388036E+03  0.25607003255E+03  0.41800000000E+01 0.  1.
         -5    1    3    3    0  502  0.81314129580E+02 -0.30401391496E+02 -0.11310769081E+03  0.14264310146E+03  0.41800000000E+01 0.  1.
        -11    1    1    2    0    0 -0.27983678452E+02  0.11706022535E+02 -0.12735530454E+02  0.32898494787E+02  0.00000000000E+00 0.  1.
         11    1    1    2    0    0 -0.10540795728E+03 -0.60624470990E+02 -0.24478370422E+03  0.27332256730E+03  0.00000000000E+00 0. -1.
</event>
<event>
 7    1  0.2661133E-009  0.9937160E+02  0.7561462E-02  0.1281623E+00
          3   -1    0    0  501    0  0.00000000000E+00  0.00000000000E+00  0.75559454147E+03  0.75559454147E+03  0.00000000000E+00 0. -1.
         -3   -1    0    0    0  501 -0.00000000000E+00 -0.00000000000E+00 -0.22223999872E+02  0.22223999872E+02  0.00000000000E+00 0.  1.
         25    2    1    2    0    0 -0.16672595019E+02 -0.52239493837E+02  0.26698595686E+03  0.29989366195E+03  0.12509103554E+03 0.  0.
          5    1    3    3  502    0 -0.10893651770E+02  0.19699032628E+02  0.20010245007E+03  0.20140800991E+03  0.41800000000E+01 0.  1.
         -5    1    3    3    0  502 -0.57789432488E+01 -0.71938526465E+02  0.66883506798E+02  0.98485652034E+02  0.41800000000E+01 0.  1.
        -11    1    1    2    0    0  0.22239620467E+02  0.75982194553E+02  0.38026550732E+03  0.38841955494E+03  0.00000000000E+00 0.  1.
         11    1    1    2    0    0 -0.55670254476E+01 -0.23742700716E+02  0.86119077422E+02  0.89505324454E+02  0.00000000000E+00 0. -1.
</event>
<event>
 7    1  0.2661133E-009  0.1349982E+03  0.7561462E-02  0.1220222E+00
         -1   -1    0    0    0  501 -0.00000000000E+00  0.00000000000E+00  0.19306559369E+03  0.19306559369E+03  0.00000000000E+00 0.  1.
          1   -1    0    0  501    0  0.00000000000E+00 -0.00000000000E+00 -0.11388087360E+03  0.11388087360E+03  0.00000000000E+00 0. -1.
         25    2    1    2    0    0  0.21100329928E+01 -0.96117495510E+02  0.74370439964E+02  0.17441806193E+03  0.12509065834E+03 0.  0.
          5    1    3    3  502    0 -0.47893468904E+02 -0.53427558829E+02  0.80899154024E+02  0.10821475836E+03  0.41800000000E+01 0.  1.
         -5    1    3    3    0  502  0.50003501896E+02 -0.42689936681E+02 -0.65287140594E+01  0.66203303565E+02  0.41800000000E+01 0.  1.
        -11    1    1    2    0    0  0.14955203103E+02 -0.14194167470E+02 -0.18781618838E+01  0.20704105441E+02  0.00000000000E+00 0.  1.
         11    1    1    2    0    0 -0.17065236096E+02  0.11031166298E+03  0.66924420080E+01  0.11182429992E+03  0.00000000000E+00 0. -1.
</event>
<event>
 7    1  0.2661133E-009  0.7610078E+02  0.7561462E-02  0.1340496E+00
          1   -1    0    0  501    0  0.00000000000E+00  0.00000000000E+00  0.16027968025E+03  0.16027968025E+03  0.00000000000E+00 0. -1.
         -1   -1    0    0    0  501 -0.00000000000E+00 -0.00000000000E+00 -0.75353499698E+02  0.75353499698E+02  0.00000000000E+00 0.  1.
         25    2    1    2    0    0 -0.23173892728E+02 -0.10530529247E+02  0.48108407405E+02  0.13641584468E+03  0.12508773907E+03 0.  0.
          5    1    3    3  502    0 -0.72681883787E+01  0.52620150085E+02  0.47153061011E+02  0.71151882055E+02  0.41800000000E+01 0.  1.
         -5    1    3    3    0  502 -0.15905704349E+02 -0.63150679332E+02  0.95534639388E+00  0.65263962626E+02  0.41800000000E+01 0.  1.
        -11    1    1    2    0    0  0.74917056912E+01  0.15495296162E+02 -0.27713187997E+02  0.32622854662E+02  0.00000000000E+00 0.  1.
         11    1    1    2    0    0  0.15682187036E+02 -0.49647669147E+01  0.64530961147E+02  0.66594480607E+02  0.00000000000E+00 0. -1.
</event>
<event>
 7    1  0.4811101E-009  0.1117753E+03  0.7561462E-02  0.1257317E+00
         -2   -1    0    0    0  501 -0.00000000000E+00  0.00000000000E+00  0.26455433345E+02  0.26455433345E+02  0.00000000000E+00 0.  1.
          2   -1    0    0  501    0  0.00000000000E+00 -0.00000000000E+00 -0.70765400087E+03  0.70765400087E+03  0.00000000000E+00 0. -1.
         25    2    1    2    0    0 -0.81463812643E+02 -0.12168372039E+02 -0.33630309599E+03  0.36814594490E+03  0.12508893768E+03 0.  0.
          5    1    3    3  502    0 -0.68145500276E+02 -0.39251945118E+02 -0.32690964712E+03  0.33626167517E+03  0.41800000000E+01 0. -1.
         -5    1    3    3    0  502 -0.13318312367E+02  0.27083573080E+02 -0.93934488644E+01  0.31884269737E+02  0.41800000000E+01 0. -1.
        -11    1    1    2    0    0  0.15706390983E+02  0.39962736341E+02 -0.71514159985E+02  0.83414543647E+02  0.00000000000E+00 0.  1.
         11    1    1    2    0    0  0.65757421661E+02 -0.27794364302E+02 -0.27338131155E+03  0.28254894567E+03  0.00000000000E+00 0. -1.
</event>
<event>
 7    1  0.2661133E-009  0.1784631E+03  0.7561462E-02  0.1169299E+00
          2   -1    0    0  501    0  0.00000000000E+00  0.00000000000E+00  0.98678567221E+03  0.98678567221E+03  0.00000000000E+00 0. -1.
         -2   -1    0    0    0  501 -0.00000000000E+00 -0.00000000000E+00 -0.48403421636E+02  0.48403421636E+02  0.00000000000E+00 0.  1.
         25    2    1    2    0    0 -0.11706105525E+03  0.10304306119E+03  0.74066399481E+03  0.76717079402E+03  0.12508681333E+03 0.  0.
          5    1    3    3  502    0 -0.19925732129E+02  0.81701960283E+02  0.19349432520E+03  0.21102078428E+03  0.41800000000E+01 0. -1.
         -5    1    3    3    0  502 -0.97135323123E+02  0.21341100906E+02  0.54716966961E+03  0.55615000973E+03  0.41800000000E+01 0. -1.
        -11    1    1    2    0    0  0.43414953155E+02  0.36228431251E+01  0.19708270869E+02  0.47816305696E+02  0.00000000000E+00 0.  1.
         11    1    1    2    0    0  0.73646102097E+02 -0.10666590431E+03  0.17800998489E+03  0.22020199413E+03  0.00000000000E+00 0. -1.
</event>
<event>
 7    1  0.2661133E-009  0.1231480E+03  0.7561462E-02  0.1237992E+00
          3   -1    0    0  501    0  0.00000000000E+00  0.00000000000E+00  0.12921850498E+03  0.12921850498E+03  0.00000000000E+00 0. -1.
         -3   -1    0    0    0  501 -0.00000000000E+00 -0.00000000000E+00 -0.37629487689E+03  0.37629487689E+03  0.00000000000E+00 0.  1.
         25    2    1    2    0    0  0.11226084192E+03  0.19715375723E+02  0.43306727535E+02  0.17467776904E+03  0.12508260341E+03 0.  0.
          5    1    3    3  502    0  0.40322955652E+02  0.11170879641E+02  0.82212202182E+02  0.92342015855E+02  0.41800000000E+01 0. -1.
         -5    1    3    3    0  502  0.71937886272E+02  0.85444960814E+01 -0.38905474648E+02  0.82335753182E+02  0.41800000000E+01 0. -1.
        -11    1    1    2    0    0 -0.24337538481E+02 -0.34808106433E+02 -0.19763780207E+03  0.20214999595E+03  0.00000000000E+00 0.  1.
         11    1    1    2    0    0 -0.87923303443E+02  0.15092730711E+02 -0.92745297365E+02  0.12868561688E+03  0.00000000000E+00 0. -1.
</event>
<event>
 7    1  0.2661133E-009  0.2386169E+03  0.7561462E-02  0.1120718E+00
          2   -1    0    0  501    0  0.00000000000E+00  0.00000000000E+00  0.91063318457E+03  0.91063318457E+03  0.00000000000E+00 0. -1.
         -2   -1    0    0    0  501 -0.00000000000E+00 -0.00000000000E+00 -0.80272159922E+02  0.80272159922E+02  0.00000000000E+00 0.  1.
         25    2    1    2    0    0  0.21698294516E+03  0.48016354810E+02  0.62628570631E+03  0.67621721866E+03  0.12509505209E+03 0.  0.
          5    1    3    3  502    0  0.15711206598E+03 -0.25992452483E+02  0.37253899466E+03  0.40516982095E+03  0.41800000000E+01 0. -1.
         -5    1    3    3    0  502  0.59870879173E+02  0.74008807294E+02  0.25374671165E+03  0.27104739770E+03  0.41800000000E+01 0. -1.
        -11    1    1    2    0    0 -0.19052565648E+03 -0.46648427210E+02  0.12822769111E+03  0.23434684190E+03  0.00000000000E+00 0.  1.
         11    1    1    2    0    0 -0.26457288679E+02 -0.13679276005E+01  0.75847627221E+02  0.80341283940E+02  0.00000000000E+00 0. -1.
</event>
<event>
 7    1  0.2661133E-009  0.1961015E+03  0.7561462E-02  0.1153070E+00
          2   -1    0    0  501    0  0.00000000000E+00  0.00000000000E+00  0.18431237032E+04  0.18431237032E+04  0.00000000000E+00 0. -1.
         -2   -1    0    0    0  501 -0.00000000000E+00 -0.00000000000E+00 -0.23724308046E+02  0.23724308046E+02  0.00000000000E+00 0.  1.
         25    2    1    2    0    0 -0.16963027755E+03  0.41165756361E+02  0.11210407883E+04  0.11414245261E+04  0.12509376203E+03 0.  0.
          5    1    3    3  502    0 -0.94385002329E+02 -0.23260148909E+02  0.78666302592E+03  0.79265739885E+03  0.41800000000E+01 0.  1.
         -5    1    3    3    0  502 -0.75245275223E+02  0.64425905271E+02  0.33437776237E+03  0.34876712729E+03  0.41800000000E+01 0.  1.
        -11    1    1    2    0    0  0.27069719759E+02 -0.45710883840E+02  0.16638574614E+03  0.17466101783E+03  0.00000000000E+00 0.  1.
         11    1    1    2    0    0  0.14256055779E+03  0.45451274783E+01  0.53197286077E+03  0.55076246733E+03  0.00000000000E+00 0. -1.
</event>
<event>
 7    1  0.2661133E-009  0.1384040E+03  0.7561462E-02  0.1215493E+00
         -3   -1    0    0    0  501 -0.00000000000E+00  0.00000000000E+00  0.11023995026E+04  0.11023995026E+04  0.00000000000E+00 0.  1.
          3   -1    0    0  501    0  0.00000000000E+00 -0.00000000000E+00 -0.18162046302E+02  0.18162046302E+02  0.00000000000E+00 0. -1.
         25    2    1    2    0    0  0.78001058363E+02  0.43407069725E+02  0.53594754821E+03  0.55754223361E+03  0.12508088989E+03 0.  0.
          5    1    3    3  502    0 -0.88983000209E+01  0.63516440556E+02  0.21441712132E+03  0.22384300811E+03  0.41800000000E+01 0. -1.
         -5    1    3    3    0  502  0.86899358384E+02 -0.20109370831E+02  0.32153042689E+03  0.33369922550E+03  0.41800000000E+01 0. -1.
        -11    1    1    2    0    0  0.18554744081E+02 -0.99445643341E+01  0.48222165217E+02  0.52617013464E+02  0.00000000000E+00 0. -1.
         11    1    1    2    0    0 -0.96555802445E+02 -0.33462505391E+02  0.50006774286E+03  0.51040230182E+03  0.00000000000E+00 0.  1.
</event>
<event>
 7    1  0.2661133E-009  0.1012729E+03  0.7561462E-02  0.1277642E+00
         -2   -1    0    0    0  501 -0.00000000000E+00  0.00000000000E+00  0.20261368785E+02  0.20261368785E+02  0.00000000000E+00 0.  1.
          2   -1    0    0  501    0  0.00000000000E+00 -0.00000000000E+00 -0.59677433322E+03  0.59677433322E+03  0.00000000000E+00 0. -1.
         25    2    1    2    0    0 -0.83853616469E+01  0.12204667318E+02 -0.31708777191E+03  0.34119102800E+03  0.12508954511E+03 0.  0.
          5    1    3    3  502    0 -0.56600235899E+02 -0.18736403344E+02 -0.98790397768E+02  0.11546278450E+03  0.41800000000E+01 0.  1.
         -5    1    3    3    0  502  0.48214874252E+02  0.30941070663E+02 -0.21829737415E+03  0.22572824350E+03  0.41800000000E+01 0.  1.
        -11    1    1    2    0    0  0.37312187929E+02  0.19764574315E+02 -0.71494143764E+02  0.83031622641E+02  0.00000000000E+00 0.  1.
         11    1    1    2    0    0 -0.28926826282E+02 -0.31969241633E+02 -0.18793104876E+03  0.19281305137E+03  0.00000000000E+00 0. -1.
</event>
<event>
 7    1  0.2661133E-009  0.2563618E+03  0.7561462E-02  0.1109349E+00
         -2   -1    0    0    0  501 -0.00000000000E+00  0.00000000000E+00  0.41181108208E+03  0.41181108208E+03  0.00000000000E+00 0. -1.
          2   -1    0    0  501    0  0.00000000000E+00 -0.00000000000E+00 -0.16785937307E+03  0.16785937307E+03  0.00000000000E+00 0.  1.
         25    2    1    2    0    0  0.19033377051E+03 -0.13453368438E+03  0.65521606965E+02  0.27252062276E+03  0.12509257541E+03 0.  0.
          5    1    3    3  502    0  0.70079966783E+02 -0.12515360435E+03  0.28743860196E+02  0.14634995157E+03  0.41800000000E+01 0.  1.
         -5    1    3    3    0  502  0.12025380373E+03 -0.93800800319E+01  0.36777746768E+02  0.12617067119E+03  0.41800000000E+01 0.  1.
        -11    1    1    2    0    0 -0.52307020116E+02  0.88920598559E+02  0.57826349876E+02  0.11826573443E+03  0.00000000000E+00 0.  1.
         11    1    1    2    0    0 -0.13802675039E+03  0.45613085819E+02  0.12060375217E+03  0.18888409796E+03  0.00000000000E+00 0. -1.
</event>
<event>
 7    1  0.2661133E-009  0.1639276E+03  0.7561462E-02  0.1184333E+00
         -3   -1    0    0    0  501 -0.00000000000E+00  0.00000000000E+00  0.22699707452E+03  0.22699707452E+03  0.00000000000E+00 0.  1.
          3   -1    0    0  501    0  0.00000000000E+00 -0.00000000000E+00 -0.20531818251E+03  0.20531818251E+03  0.00000000000E+00 0. -1.
         25    2    1    2    0    0 -0.36507637174E+02  0.15211540726E+03  0.11312738726E+03  0.23003792101E+03  0.12509090557E+03 0.  0.
          5    1    3    3  502    0 -0.56620423427E+01  0.31902841658E+02  0.99961429259E+02  0.10516467928E+03  0.41800000000E+01 0.  1.
         -5    1    3    3    0  502 -0.30845594831E+02  0.12021256560E+03  0.13165958004E+02  0.12487324172E+03  0.41800000000E+01 0.  1.
        -11    1    1    2    0    0 -0.13841970667E+02 -0.37631108584E+01  0.82818314150E+01  0.16563510705E+02  0.00000000000E+00 0.  1.
         11    1    1    2    0    0  0.50349607841E+02 -0.14835229640E+03 -0.99730326667E+02  0.18571382532E+03  0.00000000000E+00 0. -1.
</event>
<event>
 7    1  0.2661133E-009  0.1844361E+03  0.7561462E-02  0.1163577E+00
          1   -1    0    0  501    0  0.00000000000E+00  0.00000000000E+00  0.17036807886E+04  0.17036807886E+04  0.00000000000E+00 0. -1.
         -1   -1    0    0    0  501 -0.00000000000E+00 -0.00000000000E+00 -0.28828580485E+02  0.28828580485E+02  0.00000000000E+00 0.  1.
         25    2    1    2    0    0  0.65020920452E+02 -0.15929979963E+03  0.12101097743E+04  0.12286647585E+04  0.12508907479E+03 0.  0.
          5    1    3    3  502    0  0.87222570730E+02 -0.12465966355E+03  0.67441860252E+03  0.69137958632E+03  0.41800000000E+01 0. -1.
         -5    1    3    3    0  502 -0.22201650278E+02 -0.34640136087E+02  0.53569117181E+03  0.53728517219E+03  0.41800000000E+01 0. -1.
        -11    1    1    2    0    0 -0.36056751889E+02  0.46421414980E+02  0.27469162886E+03  0.28091017798E+03  0.00000000000E+00 0. -1.
         11    1    1    2    0    0 -0.28964168563E+02  0.11287838465E+03  0.19005080493E+03  0.22293443259E+03  0.00000000000E+00 0.  1.
</event>
<event>
 7    1  0.2661133E-009  0.1954616E+03  0.7561462E-02  0.1153626E+00
         -1   -1    0    0    0  501 -0.00000000000E+00  0.00000000000E+00  0.81005612994E+02  0.81005612994E+02  0.00000000000E+00 0.  1.
          1   -1    0    0  501    0  0.00000000000E+00 -0.00000000000E+00 -0.54778593208E+03  0.54778593208E+03  0.00000000000E+00 0. -1.
         25    2    1    2    0    0  0.12695085530E+03 -0.11027465758E+03 -0.34401254577E+03  0.40282534655E+03  0.12508640379E+03 0.  0.
          5    1    3    3  502    0  0.87806735995E+02  0.47198057649E+01 -0.14502624024E+03  0.16965371263E+03  0.41800000000E+01 0. -1.
         -5    1    3    3    0  502  0.39144119302E+02 -0.11499446334E+03 -0.19898630553E+03  0.23317163392E+03  0.41800000000E+01 0. -1.
        -11    1    1    2    0    0 -0.12653946950E+03  0.77122311973E+02 -0.12334572126E+03  0.19280626364E+03  0.00000000000E+00 0. -1.
         11    1    1    2    0    0 -0.41138579338E+00  0.33152345605E+02  0.57794794379E+00  0.33159934880E+02  0.00000000000E+00 0.  1.
</event>
<event>
 7    1  0.2661133E-009  0.1230123E+03  0.7561462E-02  0.1238209E+00
         -2   -1    0    0    0  501 -0.00000000000E+00  0.00000000000E+00  0.14987684595E+03  0.14987684595E+03  0.00000000000E+00 0.  1.
          2   -1    0    0  501    0  0.00000000000E+00 -0.00000000000E+00 -0.11339815853E+03  0.11339815853E+03  0.00000000000E+00 0. -1.
         25    2    1    2    0    0 -0.34527471621E+02  0.49862380767E+02 -0.16314024650E+02  0.13997159711E+03  0.12508995677E+03 0.  0.
          5    1    3    3  502    0  0.11143089555E+01  0.87028281333E+02 -0.64431822740E+01  0.87373625506E+02  0.41800000000E+01 0. -1.
         -5    1    3    3    0  502 -0.35641780577E+02 -0.37165900566E+02 -0.98708423761E+01  0.52597971603E+02  0.41800000000E+01 0. -1.
        -11    1    1    2    0    0 -0.12865534353E+02 -0.57762934464E+02  0.45625866717E+02  0.74724817067E+02  0.00000000000E+00 0.  1.
         11    1    1    2    0    0  0.47393005974E+02  0.79005536965E+01  0.71668453526E+01  0.48578590308E+02  0.00000000000E+00 0. -1.
</event>
<event>
 7    1  0.2661133E-009  0.1715266E+03  0.7561462E-02  0.1176265E+00
         -1   -1    0    0    0  501 -0.00000000000E+00  0.00000000000E+00  0.41006302800E+02  0.41006302800E+02  0.00000000000E+00 0.  1.
          1   -1    0    0  501    0  0.00000000000E+00 -0.00000000000E+00 -0.87566407367E+03  0.87566407367E+03  0.00000000000E+00 0. -1.
         25    2    1    2    0    0 -0.10696353144E+03  0.10284508549E+03 -0.35647962514E+03  0.40588646737E+03  0.12509113712E+03 0.  0.
          5    1    3    3  502    0 -0.37238344046E+02  0.10068577593E+03 -0.12880261478E+03  0.16772568592E+03  0.41800000000E+01 0. -1.
         -5    1    3    3    0  502 -0.69725187396E+02  0.21593095554E+01 -0.22767701036E+03  0.23816078145E+03  0.41800000000E+01 0. -1.
        -11    1    1    2    0    0  0.29971078413E+02 -0.79994860053E+02 -0.14711199357E+03  0.17011578947E+03  0.00000000000E+00 0.  1.
         11    1    1    2    0    0  0.76992453028E+02 -0.22850225432E+02 -0.33106615216E+03  0.34066811963E+03  0.00000000000E+00 0. -1.
</event>
<event>
 7    1  0.2661133E-009  0.2160110E+03  0.7561462E-02  0.1136892E+00
         -2   -1    0    0    0  501 -0.00000000000E+00  0.00000000000E+00  0.19188903576E+03  0.19188903576E+03  0.00000000000E+00 0.  1.
          2   -1    0    0  501    0  0.00000000000E+00 -0.00000000000E+00 -0.27877893996E+03  0.27877893996E+03  0.00000000000E+00 0. -1.
         25    2    1    2    0    0 -0.70086553563E+02 -0.17768695976E+03  0.27346585196E+02  0.22995701318E+03  0.12509041343E+03 0.  0.
          5    1    3    3  502    0 -0.14854822250E+02  0.15322671955E+02 -0.12726839331E+02  0.25197120060E+02  0.41800000000E+01 0.  1.
         -5    1    3    3    0  502 -0.55231731313E+02 -0.19300963171E+03  0.40073424527E+02  0.20475989312E+03  0.41800000000E+01 0.  1.
        -11    1    1    2    0    0  0.37503895170E+02  0.10225017461E+02 -0.36162366920E+02  0.53092465720E+02  0.00000000000E+00 0.  1.
         11    1    1    2    0    0  0.32582658394E+02  0.16746194230E+03 -0.78074122482E+02  0.18761849682E+03  0.00000000000E+00 0. -1.
</event>
<event>
 7    1  0.2661133E-009  0.6787151E+02  0.7561462E-02  0.1367484E+00
         -1   -1    0    0    0  501 -0.00000000000E+00  0.00000000000E+00  0.45211235016E+02  0.45211235016E+02  0.00000000000E+00 0.  1.
          1   -1    0    0  501    0  0.00000000000E+00 -0.00000000000E+00 -0.25182795257E+03  0.25182795257E+03  0.00000000000E+00 0. -1.
         25    2    1    2    0    0  0.18355531112E+01 -0.77982892707E+01 -0.83791604630E+02  0.15077206061E+03  0.12508796378E+03 0.  0.
          5    1    3    3  502    0  0.36510821265E+01 -0.34329741139E+02  0.22304667327E+02  0.41313824707E+02  0.41800000000E+01 0.  1.
         -5    1    3    3    0  502 -0.18155290153E+01  0.26531451868E+02 -0.10609627196E+03  0.10945823590E+03  0.41800000000E+01 0.  1.
        -11    1    1    2    0    0 -0.49622374519E+01  0.40698092288E+02 -0.40829001548E+02  0.57861609758E+02  0.00000000000E+00 0.  1.
         11    1    1    2    0    0  0.31266843408E+01 -0.32899803017E+02 -0.81996111371E+02  0.88405517212E+02  0.00000000000E+00 0. -1.
</event>
<event>
 7    1  0.3090903E-009  0.6255357E+02  0.7561462E-02  0.1387418E+00
         -1   -1    0    0    0  501 -0.00000000000E+00  0.00000000000E+00  0.11779809608E+03  0.11779809608E+03  0.00000000000E+00 0.  1.
          1   -1    0    0  501    0  0.00000000000E+00 -0.00000000000E+00 -0.12530482310E+03  0.12530482310E+03  0.00000000000E+00 0. -1.
         25    2    1    2    0    0  0.27238848988E+02  0.41919768046E+01 -0.50458200217E+02  0.13767110647E+03  0.12509107092E+03 0.  0.
          5    1    3    3  502    0  0.44758764918E+02  0.27729474996E+02  0.23638660430E+02  0.57866479826E+02  0.41800000000E+01 0.  1.
         -5    1    3    3    0  502 -0.17519915930E+02 -0.23537498191E+02 -0.74096860647E+02  0.79804626640E+02  0.41800000000E+01 0.  1.
        -11    1    1    2    0    0 -0.13786740472E+02  0.14247503935E+02  0.68418566650E+02  0.71233179373E+02  0.00000000000E+00 0.  1.
         11    1    1    2    0    0 -0.13452108516E+02 -0.18439480740E+02 -0.25467093456E+02  0.34198633344E+02  0.00000000000E+00 0. -1.
</event>
<event>
 7    1  0.2661133E-009  0.6683689E+02  0.7561462E-02  0.1371192E+00
          1   -1    0    0  501    0  0.00000000000E+00  0.00000000000E+00  0.16635602529E+03  0.16635602529E+03  0.00000000000E+00 0. -1.
         -1   -1    0    0    0  501 -0.00000000000E+00 -0.00000000000E+00 -0.88949625967E+02  0.88949625967E+02  0.00000000000E+00 0.  1.
         25    2    1    2    0    0  0.50907372334E+02 -0.11603781952E+01  0.67810644687E+02  0.15112646302E+03  0.12509203515E+03 0.  0.
          5    1    3    3  502    0  0.47846919147E+02 -0.26714853454E+02  0.97308746319E+02  0.11175632231E+03  0.41800000000E+01 0. -1.
         -5    1    3    3    0  502  0.30604531871E+01  0.25554475259E+02 -0.29498101632E+02  0.39370140708E+02  0.41800000000E+01 0. -1.
        -11    1    1    2    0    0 -0.16701876296E+02  0.66882139205E+01  0.48709198985E+02  0.51925628961E+02  0.00000000000E+00 0. -1.
         11    1    1    2    0    0 -0.34205496038E+02 -0.55278357253E+01 -0.39113444354E+02  0.52253559268E+02  0.00000000000E+00 0.  1.
</event>
<event>
 7    1  0.2661133E-009  0.1184441E+03  0.7561462E-02  0.1245686E+00
          1   -1    0    0  501    0  0.00000000000E+00  0.00000000000E+00  0.24264304617E+03  0.24264304617E+03  0.00000000000E+00 0. -1.
         -1   -1    0    0    0  501 -0.00000000000E+00 -0.00000000000E+00 -0.95480909907E+02  0.95480909907E+02  0.00000000000E+00 0.  1.
         25    2    1    2    0    0 -0.58564456628E+02 -0.76536274541E+02  0.31705087801E+02  0.16106151686E+03  0.12509197704E+03 0.  0.
          5    1    3    3  502    0 -0.79954946401E+02 -0.71978276881E+02 -0.15591854867E+02  0.10878531213E+03  0.41800000000E+01 0.  1.
         -5    1    3    3    0  502  0.21390489773E+02 -0.45579976607E+01  0.47296942668E+02  0.52276204732E+02  0.41800000000E+01 0.  1.
        -11    1    1    2    0    0  0.85723562708E+01  0.49279651477E+02  0.19305518184E+01  0.50056931309E+02  0.00000000000E+00 0.  1.
         11    1    1    2    0    0  0.49992100357E+02  0.27256623064E+02  0.11352649665E+03  0.12700550791E+03  0.00000000000E+00 0. -1.
</event>
<event>
 7    1  0.2661133E-009  0.1104676E+03  0.7561462E-02  0.1259706E+00
         -2   -1    0    0    0  501 -0.00000000000E+00  0.00000000000E+00  0.12032410680E+03  0.12032410680E+03  0.00000000000E+00 0.  1.
          2   -1    0    0  501    0  0.00000000000E+00 -0.00000000000E+00 -0.24274256565E+03  0.24274256565E+03  0.00000000000E+00 0. -1.
         25    2    1    2    0    0 -0.59086728042E+02 -0.55557554613E+02  0.44325810006E+02  0.15553055248E+03  0.12508833686E+03 0.  0.
          5    1    3    3  502    0 -0.35282614158E+02 -0.65947646546E+02 -0.26906922543E+02  0.79595287722E+02  0.41800000000E+01 0. -1.
         -5    1    3    3    0  502 -0.23804113884E+02  0.10390091933E+02  0.71232732549E+02  0.75935264762E+02  0.41800000000E+01 0. -1.
        -11    1    1    2    0    0  0.20907265253E+02  0.74300925678E+02 -0.13067679286E+03  0.15177010737E+03  0.00000000000E+00 0. -1.
         11    1    1    2    0    0  0.38179462789E+02 -0.18743371064E+02 -0.36067475994E+02  0.55766012609E+02  0.00000000000E+00 0.  1.
</event>
<event>
 7    1  0.3608260E-009  0.1445329E+03  0.7561462E-02  0.1207357E+00
          2   -1    0    0  501    0  0.00000000000E+00  0.00000000000E+00  0.38985774554E+03  0.38985774554E+03  0.00000000000E+00 0. -1.
         -2   -1    0    0    0  501 -0.00000000000E+00 -0.00000000000E+00 -0.72201664748E+02  0.72201664748E+02  0.00000000000E+00 0.  1.
         25    2    1    2    0    0  0.10286046928E+03 -0.66242798935E+02  0.11941532418E+03  0.21183880569E+03  0.12508906985E+03 0.  0.
          5    1    3    3  502    0  0.83062736937E+02 -0.84305355131E+02  0.13577455193E+03  0.18016384910E+03  0.41800000000E+01 0.  1.
         -5    1    3    3    0  502  0.19797732344E+02  0.18062556196E+02 -0.16359227750E+02  0.31674956589E+02  0.41800000000E+01 0.  1.
        -11    1    1    2    0    0 -0.30785512328E+02  0.64445170046E+02  0.56022689385E+02  0.90771523274E+02  0.00000000000E+00 0.  1.
         11    1    1    2    0    0 -0.72074956953E+02  0.17976288895E+01  0.14221806723E+03  0.15944908133E+03  0.00000000000E+00 0. -1.
</event>
<event>
 7    1  0.2661133E-009  0.2768028E+03  0.7561462E-02  0.1097448E+00
          1   -1    0    0  501    0  0.00000000000E+00  0.00000000000E+00  0.15206391084E+03  0.15206391084E+03  0.00000000000E+00 0. -1.
         -1   -1    0    0    0  501 -0.00000000000E+00 -0.00000000000E+00 -0.76106643449E+03  0.76106643449E+03  0.00000000000E+00 0.  1.
         25    2    1    2    0    0  0.21522566960E+03  0.16490313194E+03 -0.54153377411E+03  0.61840322253E+03  0.12509430587E+03 0.  0.
          5    1    3    3  502    0  0.51391145110E+00 -0.54428470026E+01 -0.89422197566E+02  0.89686623897E+02  0.41800000000E+01 0. -1.
         -5    1    3    3    0  502  0.21471175815E+03  0.17034597894E+03 -0.45211157654E+03  0.52871659863E+03  0.41800000000E+01 0. -1.
        -11    1    1    2    0    0 -0.18519361417E+03 -0.12843600724E+03 -0.17636252271E+02  0.22606087693E+03  0.00000000000E+00 0. -1.
         11    1    1    2    0    0 -0.30032055434E+02 -0.36467124692E+02 -0.49832497270E+02  0.68666245864E+02  0.00000000000E+00 0.  1.
</event>
<event>
 7    1  0.2661133E-009  0.1274745E+03  0.7561462E-02  0.1231252E+00
         -1   -1    0    0    0  501 -0.00000000000E+00  0.00000000000E+00  0.11839578977E+03  0.11839578977E+03  0.00000000000E+00 0.  1.
          1   -1    0    0  501    0  0.00000000000E+00 -0.00000000000E+00 -0.14432420795E+03  0.14432420795E+03  0.00000000000E+00 0. -1.
         25    2    1    2    0    0 -0.54890385290E+02  0.44382933726E+02  0.29917808294E+01  0.14368116364E+03  0.12511005886E+03 0.  0.
          5    1    3    3  502    0 -0.61882614544E+02 -0.29309381515E+02 -0.66232922316E+01  0.68919070130E+02  0.41800000000E+01 0.  1.
         -5    1    3    3    0  502  0.69922292548E+01  0.73692315241E+02  0.96150730610E+01  0.74762093506E+02  0.41800000000E+01 0.  1.
        -11    1    1    2    0    0 -0.17948041873E+02  0.10691942094E+02  0.52461790460E+01  0.21540014563E+02  0.00000000000E+00 0.  1.
         11    1    1    2    0    0  0.72838427162E+02 -0.55074875820E+02 -0.34166378063E+02  0.97498819521E+02  0.00000000000E+00 0. -1.
</event>
<event>
 7    1  0.2661133E-009  0.1486042E+03  0.7561462E-02  0.1202199E+00
         -2   -1    0    0    0  501 -0.00000000000E+00  0.00000000000E+00  0.81157453150E+02  0.81157453150E+02  0.00000000000E+00 0.  1.
          2   -1    0    0  501    0  0.00000000000E+00 -0.00000000000E+00 -0.47496826823E+03  0.47496826823E+03  0.00000000000E+00 0. -1.
         25    2    1    2    0    0 -0.14443268929E+03 -0.95453826370E+01 -0.31352357253E+03  0.36729169913E+03  0.12511692791E+03 0.  0.
          5    1    3    3  502    0 -0.61652479083E+02 -0.16317488445E+02 -0.27772916306E+02  0.69685693556E+02  0.41800000000E+01 0.  1.
         -5    1    3    3    0  502 -0.82780210203E+02  0.67721058081E+01 -0.28575065623E+03  0.29760600557E+03  0.41800000000E+01 0.  1.
        -11    1    1    2    0    0  0.72012491608E+01 -0.91407161124E+01 -0.44208135277E+02  0.45714001194E+02  0.00000000000E+00 0. -1.
         11    1    1    2    0    0  0.13723144013E+03  0.18686098749E+02 -0.36079107265E+02  0.14312002105E+03  0.00000000000E+00 0.  1.
</event>
<event>
 7    1  0.2661133E-009  0.1305720E+03  0.7561462E-02  0.1226609E+00
          1   -1    0    0  501    0  0.00000000000E+00  0.00000000000E+00  0.53839324350E+03  0.53839324350E+03  0.00000000000E+00 0. -1.
         -1   -1    0    0    0  501 -0.00000000000E+00 -0.00000000000E+00 -0.42965742664E+02  0.42965742664E+02  0.00000000000E+00 0.  1.
         25    2    1    2    0    0  0.62995603245E+02 -0.85454090226E+02  0.31550472944E+03  0.35561370388E+03  0.12508806709E+03 0.  0.
          5    1    3    3  502    0 -0.28841249453E+01 -0.51195543460E+02  0.27852375560E+02  0.58502385175E+02  0.41800000000E+01 0.  1.
         -5    1    3    3    0  502  0.65879728191E+02 -0.34258546766E+02  0.28765235388E+03  0.29711131871E+03  0.41800000000E+01 0.  1.
        -11    1    1    2    0    0 -0.49246701963E+01  0.76392488759E+02  0.87969191294E+02  0.11661322109E+03  0.00000000000E+00 0. -1.
         11    1    1    2    0    0 -0.58070933049E+02  0.90616014676E+01  0.91953580099E+02  0.10913206119E+03  0.00000000000E+00 0.  1.
</event>
<event>
 7    1  0.2661133E-009  0.1490810E+03  0.7561462E-02  0.1201607E+00
          4   -1    0    0  501    0  0.00000000000E+00  0.00000000000E+00  0.30799049468E+03  0.30799049468E+03  0.00000000000E+00 0. -1.
         -4   -1    0    0    0  501 -0.00000000000E+00 -0.00000000000E+00 -0.90718339165E+02  0.90718339165E+02  0.00000000000E+00 0.  1.
         25    2    1    2    0    0 -0.65068805738E+02 -0.10381457338E+03  0.66964808182E+02  0.18746331054E+03  0.12508713817E+03 0.  0.
          5    1    3    3  502    0 -0.12177658128E+01 -0.10974138891E+03  0.32460524530E+02  0.11452429195E+03  0.41800000000E+01 0.  1.
         -5    1    3    3    0  502 -0.63851039925E+02  0.59268155321E+01  0.34504283652E+02  0.72939018586E+02  0.41800000000E+01 0.  1.
        -11    1    1    2    0    0  0.75689519779E+01  0.27489749372E+02 -0.49474150299E+01  0.28938767597E+02  0.00000000000E+00 0.  1.
         11    1    1    2    0    0  0.57499853760E+02  0.76324824008E+02  0.15525476237E+03  0.18230675572E+03  0.00000000000E+00 0. -1.
</event>
<event>
 7    1  0.2661133E-009  0.1007403E+03  0.7561462E-02  0.1278747E+00
         -2   -1    0    0    0  501 -0.00000000000E+00  0.00000000000E+00  0.19136258907E+02  0.19136258907E+02  0.00000000000E+00 0.  1.
          2   -1    0    0  501    0  0.00000000000E+00 -0.00000000000E+00 -0.92668370282E+03  0.92668370282E+03  0.00000000000E+00 0. -1.
         25    2    1    2    0    0 -0.53388361173E+02 -0.18827562747E+02 -0.68350186056E+03  0.69715656762E+03  0.12509073570E+03 0.  0.
          5    1    3    3  502    0 -0.59599309223E+02  0.23596316180E+02 -0.16806692355E+03  0.17992450358E+03  0.41800000000E+01 0. -1.
         -5    1    3    3    0  502  0.62109480495E+01 -0.42423878926E+02 -0.51543493701E+03  0.51723206404E+03  0.41800000000E+01 0. -1.
        -11    1    1    2    0    0 -0.14486201351E+02 -0.12755700298E+02 -0.96628064928E+01  0.21585359599E+02  0.00000000000E+00 0.  1.
         11    1    1    2    0    0  0.67874562524E+02  0.31583263045E+02 -0.21438277685E+03  0.22707803450E+03  0.00000000000E+00 0. -1.
</event>
<event>
 7    1  0.2661133E-009  0.1051170E+03  0.7561462E-02  0.1269889E+00
         -2   -1    0    0    0  501 -0.00000000000E+00  0.00000000000E+00  0.17129981057E+03  0.17129981057E+03  0.00000000000E+00 0.  1.
          2   -1    0    0  501    0  0.00000000000E+00 -0.00000000000E+00 -0.10085686460E+03  0.10085686460E+03  0.00000000000E+00 0. -1.
         25    2    1    2    0    0  0.22606890730E+02 -0.34275207682E+02 -0.27436079564E+02  0.13448558700E+03  0.12509105994E+03 0.  0.
          5    1    3    3  502    0 -0.30584038269E+01  0.40081316502E+02 -0.37426268176E+02  0.55082335790E+02  0.41800000000E+01 0. -1.
         -5    1    3    3    0  502  0.25665294557E+02 -0.74356524184E+02  0.99901886121E+01  0.79403251205E+02  0.41800000000E+01 0. -1.
        -11    1    1    2    0    0  0.19513323915E+02  0.43723588353E+02  0.74555495619E+02  0.88606116695E+02  0.00000000000E+00 0.  1.
         11    1    1    2    0    0 -0.42120214645E+02 -0.94483806711E+01  0.23323529919E+02  0.49064971486E+02  0.00000000000E+00 0. -1.
</event>
<event>
 7    1  0.2661133E-009  0.9212787E+02  0.7561462E-02  0.1297779E+00
         -4   -1    0    0    0  501 -0.00000000000E+00  0.00000000000E+00  0.55439440094E+02  0.55439440094E+02  0.00000000000E+00 0.  1.
          4   -1    0    0  501    0  0.00000000000E+00 -0.00000000000E+00 -0.25249388240E+03  0.25249388240E+03  0.00000000000E+00 0. -1.
         25    2    1    2    0    0 -0.36794702921E+02  0.10141012024E+02 -0.80213520521E+02  0.15342193117E+03  0.12508952714E+03 0.  0.
          5    1    3    3  502    0  0.36236609403E+02  0.59469224303E+01  0.89383161498E+01  0.38023987732E+02  0.41800000000E+01 0.  1.
         -5    1    3    3    0  502 -0.73031312324E+02  0.41940895940E+01 -0.89151836671E+02  0.11539794344E+03  0.41800000000E+01 0.  1.
        -11    1    1    2    0    0 -0.51317307548E+01  0.21116055045E+02  0.46682408558E+01  0.22226446272E+02  0.00000000000E+00 0.  1.
         11    1    1    2    0    0  0.41926433676E+02 -0.31257067069E+02 -0.12150916264E+03  0.13228494506E+03  0.00000000000E+00 0. -1.
</event>
<event>
 7    1  0.2661133E-009  0.1611186E+03  0.7561462E-02  0.1187440E+00
         -1   -1    0    0    0  501 -0.00000000000E+00  0.00000000000E+00  0.33230101914E+03  0.33230101914E+03  0.00000000000E+00 0.  1.
          1   -1    0    0  501    0  0.00000000000E+00 -0.00000000000E+00 -0.10494627929E+03  0.10494627929E+03  0.00000000000E+00 0. -1.
         25    2    1    2    0    0 -0.31294786000E+01 -0.13931512509E+03  0.18798247027E+03  0.26533688932E+03  0.12509099883E+03 0.  0.
          5    1    3    3  502    0  0.33116337133E+02 -0.32568310645E+02  0.13079338167E+03  0.13885880502E+03  0.41800000000E+01 0. -1.
         -5    1    3    3    0  502 -0.36245815733E+02 -0.10674681445E+03  0.57189088602E+02  0.12647808430E+03  0.41800000000E+01 0. -1.
        -11    1    1    2    0    0 -0.36902225431E+02  0.34204908906E+02 -0.59091790503E+01  0.50662297936E+02  0.00000000000E+00 0.  1.
         11    1    1    2    0    0  0.40031704031E+02  0.10511021619E+03  0.45281448626E+02  0.12124811118E+03  0.00000000000E+00 0. -1.
</event>
<event>
 7    1  0.2661133E-009  0.2128445E+03  0.7561462E-02  0.1139333E+00
         -2   -1    0    0    0  501 -0.00000000000E+00  0.00000000000E+00  0.26234678636E+02  0.26234678636E+02  0.00000000000E+00 0. -1.
          2   -1    0    0  501    0  0.00000000000E+00 -0.00000000000E+00 -0.17627472976E+04  0.17627472976E+04  0.00000000000E+00 0.  1.
         25    2    1    2    0    0  0.17866770125E+03  0.51959609644E+02 -0.86225658076E+03  0.89093058402E+03  0.12509574723E+03 0.  0.
          5    1    3    3  502    0  0.17702592463E+03  0.59218469564E+01 -0.71215028757E+03  0.73385880846E+03  0.41800000000E+01 0.  1.
         -5    1    3    3    0  502  0.16417766201E+01  0.46037762688E+02 -0.15010629318E+03  0.15707177556E+03  0.41800000000E+01 0.  1.
        -11    1    1    2    0    0 -0.15892048397E+03 -0.14083147093E+02 -0.61811419622E+03  0.63837231677E+03  0.00000000000E+00 0. -1.
         11    1    1    2    0    0 -0.19747217284E+02 -0.37876462551E+02 -0.25614184196E+03  0.25967907541E+03  0.00000000000E+00 0.  1.
</event>
<event>
 7    1  0.2661133E-009  0.6535711E+02  0.7561462E-02  0.1376633E+00
         -3   -1    0    0    0  501 -0.00000000000E+00  0.00000000000E+00  0.81691929060E+03  0.81691929060E+03  0.00000000000E+00 0.  1.
          3   -1    0    0  501    0  0.00000000000E+00 -0.00000000000E+00 -0.15683629625E+02  0.15683629625E+02  0.00000000000E+00 0. -1.
         25    2    1    2    0    0  0.65760775176E+01  0.26976328254E+02  0.52379049361E+03  0.53923453985E+03  0.12508573335E+03 0.  0.
          5    1    3    3  502    0 -0.89428762758E+01  0.11506122679E+02  0.51505387985E+03  0.51527695217E+03  0.41800000000E+01 0. -1.
         -5    1    3    3    0  502  0.15518953793E+02  0.15470205574E+02  0.87366137680E+01  0.23957587681E+02  0.41800000000E+01 0. -1.
        -11    1    1    2    0    0 -0.47393051428E+02 -0.21576218007E+02  0.12388207922E+03  0.13438156146E+03  0.00000000000E+00 0.  1.
         11    1    1    2    0    0  0.40816973911E+02 -0.54001102465E+01  0.15356308813E+03  0.15898681891E+03  0.00000000000E+00 0. -1.
</event>
<event>
 7    1  0.2661133E-009  0.2436224E+03  0.7561462E-02  0.1117403E+00
          2   -1    0    0  501    0  0.00000000000E+00  0.00000000000E+00  0.15607235911E+03  0.15607235911E+03  0.00000000000E+00 0. -1.
         -2   -1    0    0    0  501 -0.00000000000E+00 -0.00000000000E+00 -0.41486072360E+03  0.41486072360E+03  0.00000000000E+00 0.  1.
         25    2    1    2    0    0  0.99863645169E+02 -0.20016604995E+03 -0.72576703897E+02  0.26635146211E+03  0.12504610446E+03 0.  0.
          5    1    3    3  502    0 -0.57039140013E+01 -0.11661224149E+03 -0.59263348921E+02  0.13099834512E+03  0.41800000000E+01 0.  1.
         -5    1    3    3    0  502  0.10556755917E+03 -0.83553808460E+02 -0.13313354977E+02  0.13535311699E+03  0.41800000000E+01 0.  1.
        -11    1    1    2    0    0 -0.41607152919E+02  0.19603952781E+02 -0.64320735925E+02  0.79073555684E+02  0.00000000000E+00 0.  1.
         11    1    1    2    0    0 -0.58256492250E+02  0.18056209717E+03 -0.12189092467E+03  0.22550806491E+03  0.00000000000E+00 0. -1.
</event>
<event>
 7    1  0.2661133E-009  0.7015438E+02  0.7561462E-02  0.1359569E+00
          2   -1    0    0  501    0  0.00000000000E+00  0.00000000000E+00  0.86152978474E+02  0.86152978474E+02  0.00000000000E+00 0. -1.
         -2   -1    0    0    0  501 -0.00000000000E+00 -0.00000000000E+00 -0.17408673545E+03  0.17408673545E+03  0.00000000000E+00 0.  1.
         25    2    1    2    0    0  0.28373739395E+01  0.50754666225E+02 -0.77392217473E+02  0.15563254747E+03  0.12509135730E+03 0.  0.
          5    1    3    3  502    0  0.35246673627E+02  0.38209175033E+02  0.17085911216E+02  0.54878682751E+02  0.41800000000E+01 0. -1.
         -5    1    3    3    0  502 -0.32409299687E+02  0.12545491193E+02 -0.94478128689E+02  0.10075386472E+03  0.41800000000E+01 0. -1.
        -11    1    1    2    0    0  0.63564054689E+01 -0.16338613955E+02 -0.49085657378E+02  0.52122509117E+02  0.00000000000E+00 0.  1.
         11    1    1    2    0    0 -0.91937794084E+01 -0.34416052270E+02  0.38544117871E+02  0.52484657340E+02  0.00000000000E+00 0. -1.
</event>
<event>
 7    1  0.2661133E-009  0.1345688E+03  0.7561462E-02  0.1220830E+00
          4   -1    0    0  501    0  0.00000000000E+00  0.00000000000E+00  0.10452979395E+03  0.10452979395E+03  0.00000000000E+00 0.  1.
         -4   -1    0    0    0  501 -0.00000000000E+00 -0.00000000000E+00 -0.24031828941E+03  0.24031828941E+03  0.00000000000E+00 0. -1.
         25    2    1    2    0    0 -0.11070518766E+03 -0.65860914050E+01 -0.39163241680E+02  0.17169644442E+03  0.12508754675E+03 0.  0.
          5    1    3    3  502    0  0.86200349344E+01  0.14330433900E+02  0.28176374474E+02  0.33030997813E+02  0.41800000000E+01 0.  1.
         -5    1    3    3    0  502 -0.11932522259E+03 -0.20916525305E+02 -0.67339616154E+02  0.13866544660E+03  0.41800000000E+01 0.  1.
        -11    1    1    2    0    0 -0.22094511002E+01 -0.15476460454E+02  0.80722735086E+01  0.17594433834E+02  0.00000000000E+00 0. -1.
         11    1    1    2    0    0  0.11291463876E+03  0.22062551859E+02 -0.10469752729E+03  0.15555720511E+03  0.00000000000E+00 0.  1.
</event>
<event>
 7    1  0.2661133E-009  0.1638380E+03  0.7561462E-02  0.1184431E+00
          1   -1    0    0  501    0  0.00000000000E+00  0.00000000000E+00  0.79166954729E+02  0.79166954729E+02  0.00000000000E+00 0. -1.
         -1   -1    0    0    0  501 -0.00000000000E+00 -0.00000000000E+00 -0.70078332392E+03  0.70078332392E+03  0.00000000000E+00 0.  1.
         25    2    1    2    0    0  0.13270804638E+03 -0.43458091231E+02 -0.57846230904E+03  0.60808426066E+03  0.12509114207E+03 0.  0.
          5    1    3    3  502    0  0.14481180752E+03 -0.45478790586E+02 -0.57493651088E+03  0.59464968169E+03  0.41800000000E+01 0. -1.
         -5    1    3    3    0  502 -0.12103761141E+02  0.20206993556E+01 -0.35257981582E+01  0.13434578977E+02  0.41800000000E+01 0. -1.
        -11    1    1    2    0    0 -0.70725941702E+02 -0.20668743008E+02 -0.37043176922E+02  0.82471526745E+02  0.00000000000E+00 0.  1.
         11    1    1    2    0    0 -0.61982104676E+02  0.64126834239E+02 -0.61108832283E+01  0.89394491236E+02  0.00000000000E+00 0. -1.
</event>
<event>
 7    1  0.2661133E-009  0.7336588E+02  0.7561462E-02  0.1349007E+00
         -1   -1    0    0    0  501 -0.00000000000E+00  0.00000000000E+00  0.44867089835E+02  0.44867089835E+02  0.00000000000E+00 0.  1.
          1   -1    0    0  501    0  0.00000000000E+00 -0.00000000000E+00 -0.32685386851E+03  0.32685386851E+03  0.00000000000E+00 0. -1.
         25    2    1    2    0    0 -0.50553406504E+02 -0.37144031401E+01 -0.12344527548E+03  0.18290063717E+03  0.12507782913E+03 0.  0.
          5    1    3    3  502    0 -0.30920652384E+02 -0.11815141704E+02  0.19286186811E+02  0.38537173211E+02  0.41800000000E+01 0. -1.
         -5    1    3    3    0  502 -0.19632754120E+02  0.81007385644E+01 -0.14273146229E+03  0.14436346396E+03  0.41800000000E+01 0. -1.
        -11    1    1    2    0    0  0.42114769175E+02 -0.33342942446E+02 -0.48395516175E+02  0.72301670655E+02  0.00000000000E+00 0.  1.
         11    1    1    2    0    0  0.84386373293E+01  0.37057345586E+02 -0.11014598702E+03  0.11651865052E+03  0.00000000000E+00 0. -1.
</event>
<event>
 7    1  0.2661133E-009  0.8246863E+02  0.7561462E-02  0.1322188E+00
          2   -1    0    0  501    0  0.00000000000E+00  0.00000000000E+00  0.52023290068E+03  0.52023290068E+03  0.00000000000E+00 0. -1.
         -2   -1    0    0    0  501 -0.00000000000E+00 -0.00000000000E+00 -0.30623905231E+02  0.30623905231E+02  0.00000000000E+00 0.  1.
         25    2    1    2    0    0 -0.46749071895E+02  0.27203606875E+02  0.35299819728E+03  0.37839239199E+03  0.12509021976E+03 0.  0.
          5    1    3    3  502    0 -0.51658227645E+01  0.20036885344E+02  0.32898614421E+03  0.32966273369E+03  0.41800000000E+01 0.  1.
         -5    1    3    3    0  502 -0.41583249130E+02  0.71667215318E+01  0.24012053076E+02  0.48729658306E+02  0.41800000000E+01 0.  1.
        -11    1    1    2    0    0 -0.14058513035E+02 -0.37229811534E+02  0.77244580069E+02  0.86893186186E+02  0.00000000000E+00 0.  1.
         11    1    1    2    0    0  0.60807584929E+02  0.10026204659E+02  0.59366218098E+02  0.85571227735E+02  0.00000000000E+00 0. -1.
</event>
<event>
 7    1  0.2661133E-009  0.8638624E+02  0.7561462E-02  0.1311847E+00
         -1   -1    0    0    0  501 -0.00000000000E+00  0.00000000000E+00  0.74605480180E+02  0.74605480180E+02  0.00000000000E+00 0.  1.
          1   -1    0    0  501    0  0.00000000000E+00 -0.00000000000E+00 -0.23686251885E+03  0.23686251885E+03  0.00000000000E+00 0. -1.
         25    2    1    2    0    0  0.20497161377E+02  0.67011720752E+02 -0.50404044537E+02  0.15198449073E+03  0.12509201962E+03 0.  0.
          5    1    3    3  502    0  0.16298872099E+02  0.74515659455E+02 -0.86057057410E+02  0.11507183090E+03  0.41800000000E+01 0.  1.
         -5    1    3    3    0  502  0.41982892781E+01 -0.75039387030E+01  0.35653012873E+02  0.36912659832E+02  0.41800000000E+01 0.  1.
        -11    1    1    2    0    0 -0.22396947392E+02 -0.27898994180E+01  0.76270321072E+01  0.23823904172E+02  0.00000000000E+00 0.  1.
         11    1    1    2    0    0  0.18997860147E+01 -0.64221821334E+02 -0.11948002624E+03  0.13565960413E+03  0.00000000000E+00 0. -1.
</event>
<event>
 7    1  0.2661133E-009  0.1348374E+03  0.7561462E-02  0.1220449E+00
         -1   -1    0    0    0  501 -0.00000000000E+00  0.00000000000E+00  0.11023187495E+04  0.11023187495E+04  0.00000000000E+00 0.  1.
          1   -1    0    0  501    0  0.00000000000E+00 -0.00000000000E+00 -0.25496786126E+02  0.25496786126E+02  0.00000000000E+00 0. -1.
         25    2    1    2    0    0 -0.88559384846E+02 -0.20862095896E+02  0.89339639292E+03  0.90668738974E+03  0.12508763386E+03 0.  0.
          5    1    3    3  502    0 -0.90083920489E+02 -0.59651645553E+02  0.76135647887E+03  0.76899583345E+03  0.41800000000E+01 0.  1.
         -5    1    3    3    0  502  0.15245356435E+01  0.38789549656E+02  0.13203991405E+03  0.13769155629E+03  0.41800000000E+01 0.  1.
        -11    1    1    2    0    0  0.47404224405E+02 -0.30742806769E+02  0.98678669072E+02  0.11370910425E+03  0.00000000000E+00 0. -1.
         11    1    1    2    0    0  0.41155160441E+02  0.51604902666E+02  0.84746901340E+02  0.10741904159E+03  0.00000000000E+00 0.  1.
</event>
<event>
 7    1  0.2661133E-009  0.9069529E+02  0.7561462E-02  0.1301177E+00
         -1   -1    0    0    0  501 -0.00000000000E+00  0.00000000000E+00  0.18446661486E+02  0.18446661486E+02  0.00000000000E+00 0.  1.
          1   -1    0    0  501    0  0.00000000000E+00 -0.00000000000E+00 -0.11123773681E+04  0.11123773681E+04  0.00000000000E+00 0. -1.
         25    2    1    2    0    0 -0.59950105944E+02 -0.19450647826E+02 -0.87296533525E+03  0.88413165714E+03  0.12509183712E+03 0.  0.
          5    1    3    3  502    0  0.46313289427E+01 -0.43919170987E+02 -0.11901371936E+03  0.12701212770E+03  0.41800000000E+01 0. -1.
         -5    1    3    3    0  502 -0.64581434886E+02  0.24468523161E+02 -0.75395161589E+03  0.75711952944E+03  0.41800000000E+01 0. -1.
        -11    1    1    2    0    0  0.17055794963E+02  0.18182143504E+02 -0.36679188855E+01  0.25198097412E+02  0.00000000000E+00 0.  1.
         11    1    1    2    0    0  0.42894310981E+02  0.12685043223E+01 -0.21729745252E+03  0.22149427507E+03  0.00000000000E+00 0. -1.
</event>
<event>
 7    1  0.2661133E-009  0.9733145E+02  0.7561462E-02  0.1286010E+00
          2   -1    0    0  501    0  0.00000000000E+00  0.00000000000E+00  0.16496718060E+04  0.16496718060E+04  0.00000000000E+00 0. -1.
         -2   -1    0    0    0  501 -0.00000000000E+00 -0.00000000000E+00 -0.10446808544E+02  0.10446808544E+02  0.00000000000E+00 0.  1.
         25    2    1    2    0    0  0.23210818606E+02 -0.44101452317E+02  0.12374728349E+04  0.12447766069E+04  0.12508438663E+03 0.  0.
          5    1    3    3  502    0 -0.25086078634E+02 -0.29367110061E+02  0.11949778756E+03  0.12565401755E+03  0.41800000000E+01 0.  1.
         -5    1    3    3    0  502  0.48296897240E+02 -0.14734342256E+02  0.11179750473E+04  0.11191225893E+04  0.41800000000E+01 0.  1.
        -11    1    1    2    0    0 -0.44387847747E+02  0.62795346621E+02  0.28127379727E+03  0.29159644308E+03  0.00000000000E+00 0.  1.
         11    1    1    2    0    0  0.21177029140E+02 -0.18693894304E+02  0.12047836529E+03  0.12374556457E+03  0.00000000000E+00 0. -1.
</event>
<event>
 7    1  0.2661133E-009  0.8448456E+02  0.7561462E-02  0.1316786E+00
          2   -1    0    0  501    0  0.00000000000E+00  0.00000000000E+00  0.12206561602E+04  0.12206561602E+04  0.00000000000E+00 0. -1.
         -2   -1    0    0    0  501 -0.00000000000E+00 -0.00000000000E+00 -0.11244170542E+02  0.11244170542E+02  0.00000000000E+00 0.  1.
         25    2    1    2    0    0  0.20003750968E+02  0.16497815663E+01  0.88911437937E+03  0.89809560762E+03  0.12509384081E+03 0.  0.
          5    1    3    3  502    0  0.14366230163E+02  0.36917003720E+02  0.93027745318E+02  0.10119727038E+03  0.41800000000E+01 0. -1.
         -5    1    3    3    0  502  0.56375208054E+01 -0.35267222153E+02  0.79608663405E+03  0.79689833725E+03  0.41800000000E+01 0. -1.
        -11    1    1    2    0    0  0.56178048970E+01 -0.43632784864E+02  0.12944124512E+03  0.13671289473E+03  0.00000000000E+00 0.  1.
         11    1    1    2    0    0 -0.25621555865E+02  0.41983003298E+02  0.19085636519E+03  0.19709182840E+03  0.00000000000E+00 0. -1.
</event>
<event>
 7    1  0.2661133E-009  0.1106654E+03  0.7561462E-02  0.1259343E+00
         -1   -1    0    0    0  501 -0.00000000000E+00  0.00000000000E+00  0.11899311304E+03  0.11899311304E+03  0.00000000000E+00 0.  1.
          1   -1    0    0  501    0  0.00000000000E+00 -0.00000000000E+00 -0.14434532539E+03  0.14434532539E+03  0.00000000000E+00 0. -1.
         25    2    1    2    0    0 -0.52317691592E+02 -0.47658427618E+02  0.10129104908E+02  0.14407780255E+03  0.12508935944E+03 0.  0.
          5    1    3    3  502    0 -0.87539096758E+02 -0.53998032129E+02 -0.89148091163E+01  0.10332389441E+03  0.41800000000E+01 0. -1.
         -5    1    3    3    0  502  0.35221405166E+02  0.63396045115E+01  0.19043914024E+02  0.40753908139E+02  0.41800000000E+01 0. -1.
        -11    1    1    2    0    0  0.17825104793E+02  0.44244652875E+02 -0.60112697581E+02  0.76738908510E+02  0.00000000000E+00 0. -1.
         11    1    1    2    0    0  0.34492586799E+02  0.34137747429E+01  0.24631380319E+02  0.42521727370E+02  0.00000000000E+00 0.  1.
</event>
<event>
 7    1  0.2661133E-009  0.1014107E+03  0.7561462E-02  0.1277357E+00
          1   -1    0    0  501    0  0.00000000000E+00  0.00000000000E+00  0.11637194837E+03  0.11637194837E+03  0.00000000000E+00 0. -1.
         -1   -1    0    0    0  501 -0.00000000000E+00 -0.00000000000E+00 -0.99268010997E+02  0.99268010997E+02  0.00000000000E+00 0.  1.
         25    2    1    2    0    0  0.77294425487E+00 -0.24192312264E+02  0.48593486050E+01  0.12752277065E+03  0.12511026477E+03 0.  0.
          5    1    3    3  502    0  0.52102369681E+02 -0.42580946994E+02 -0.15490304461E+02  0.69175255009E+02  0.41800000000E+01 0. -1.
         -5    1    3    3    0  502 -0.51329425426E+02  0.18388634730E+02  0.20349653066E+02  0.58347515643E+02  0.41800000000E+01 0. -1.
        -11    1    1    2    0    0  0.30846084710E+01  0.52278349603E+02  0.23773661013E+02  0.57512847300E+02  0.00000000000E+00 0. -1.
         11    1    1    2    0    0 -0.38575527259E+01 -0.28086037339E+02 -0.11529072246E+02  0.30604341413E+02  0.00000000000E+00 0.  1.
</event>
<event>
 7    1  0.2661133E-009  0.2503105E+03  0.7561462E-02  0.1113109E+00
         -1   -1    0    0    0  501 -0.00000000000E+00  0.00000000000E+00  0.33735126449E+03  0.33735126449E+03  0.00000000000E+00 0.  1.
          1   -1    0    0  501    0  0.00000000000E+00 -0.00000000000E+00 -0.22579245754E+03  0.22579245754E+03  0.00000000000E+00 0. -1.
         25    2    1    2    0    0  0.71498468399E+02 -0.23968380764E+03  0.10164183710E+03  0.29755461018E+03  0.12508926556E+03 0.  0.
          5    1    3    3  502    0  0.63152661088E+02 -0.20297234383E+03  0.27612219809E+02  0.21439668385E+03  0.41800000000E+01 0.  1.
         -5    1    3    3    0  502  0.83458073112E+01 -0.36711463812E+02  0.74029617291E+02  0.83157926328E+02  0.41800000000E+01 0.  1.
        -11    1    1    2    0    0 -0.22356319954E+02  0.71440067412E+02 -0.37907981230E+02  0.83907707123E+02  0.00000000000E+00 0. -1.
         11    1    1    2    0    0 -0.49142148445E+02  0.16824374023E+03  0.47824951080E+02  0.18168140474E+03  0.00000000000E+00 0.  1.
</event>
<event>
 7    1  0.2661133E-009  0.1069852E+03  0.7561462E-02  0.1266257E+00
         -1   -1    0    0    0  501 -0.00000000000E+00  0.00000000000E+00  0.12278120980E+03  0.12278120980E+03  0.00000000000E+00 0.  1.
          1   -1    0    0  501    0  0.00000000000E+00 -0.00000000000E+00 -0.23011751087E+03  0.23011751087E+03  0.00000000000E+00 0. -1.
         25    2    1    2    0    0 -0.48940949979E+02  0.61072243631E+02 -0.16370498869E+03  0.22038565238E+03  0.12508188090E+03 0.  0.
          5    1    3    3  502    0 -0.79455029350E+02  0.65289007895E+02 -0.15832278789E+03  0.18883679145E+03  0.41800000000E+01 0. -1.
         -5    1    3    3    0  502  0.30514079371E+02 -0.42167642641E+01 -0.53822007989E+01  0.31548860933E+02  0.41800000000E+01 0. -1.
        -11    1    1    2    0    0  0.29298389559E+02 -0.23480819140E+02 -0.21917546703E+02  0.43475548895E+02  0.00000000000E+00 0. -1.
         11    1    1    2    0    0  0.19642560420E+02 -0.37591424491E+02  0.78286234323E+02  0.89037519393E+02  0.00000000000E+00 0.  1.
</event>
<event>
 7    1  0.2661133E-009  0.9672525E+02  0.7561462E-02  0.1287337E+00
          2   -1    0    0  501    0  0.00000000000E+00  0.00000000000E+00  0.59084807698E+03  0.59084807698E+03  0.00000000000E+00 0. -1.
         -2   -1    0    0    0  501 -0.00000000000E+00 -0.00000000000E+00 -0.23574881728E+02  0.23574881728E+02  0.00000000000E+00 0.  1.
         25    2    1    2    0    0  0.11950925659E+02 -0.25750627540E+02  0.44929781445E+03  0.46725287025E+03  0.12510315441E+03 0.  0.
          5    1    3    3  502    0  0.18237550705E+01 -0.70350766469E+02  0.35999278560E+03  0.36683079820E+03  0.41800000000E+01 0.  1.
         -5    1    3    3    0  502  0.10127170588E+02  0.44600138929E+02  0.89305028853E+02  0.10042207205E+03  0.41800000000E+01 0.  1.
        -11    1    1    2    0    0  0.21512064074E+02  0.36078837059E+02  0.27638590961E+02  0.50282632136E+02  0.00000000000E+00 0.  1.
         11    1    1    2    0    0 -0.33462989733E+02 -0.10328209518E+02  0.90336789835E+02  0.96887456316E+02  0.00000000000E+00 0. -1.
</event>
<event>
 7    1  0.2661133E-009  0.8855296E+02  0.7561462E-02  0.1306394E+00
         -1   -1    0    0    0  501 -0.00000000000E+00  0.00000000000E+00  0.15759628239E+02  0.15759628239E+02  0.00000000000E+00 0.  1.
          1   -1    0    0  501    0  0.00000000000E+00 -0.00000000000E+00 -0.74495237680E+03  0.74495237680E+03  0.00000000000E+00 0. -1.
         25    2    1    2    0    0 -0.38170581920E+02  0.32451271013E+02 -0.60524857675E+03  0.62006817170E+03  0.12509444266E+03 0.  0.
          5    1    3    3  502    0  0.39472969159E+01 -0.33629921193E+02 -0.58542207870E+02  0.67758506881E+02  0.41800000000E+01 0.  1.
         -5    1    3    3    0  502 -0.42117878836E+02  0.66081192206E+02 -0.54670636888E+03  0.55230966482E+03  0.41800000000E+01 0.  1.
        -11    1    1    2    0    0  0.45678643528E+02 -0.19761715838E+02 -0.79267220594E+02  0.93596774239E+02  0.00000000000E+00 0.  1.
         11    1    1    2    0    0 -0.75080616079E+01 -0.12689555175E+02 -0.44676951219E+02  0.47047059099E+02  0.00000000000E+00 0. -1.
</event>
<event>
 7    1  0.2661133E-009  0.1121248E+03  0.7561462E-02  0.1256685E+00
         -4   -1    0    0    0  501 -0.00000000000E+00  0.00000000000E+00  0.11610915051E+03  0.11610915051E+03  0.00000000000E+00 0.  1.
          4   -1    0    0  501    0  0.00000000000E+00 -0.00000000000E+00 -0.19678405626E+03  0.19678405626E+03  0.00000000000E+00 0. -1.
         25    2    1    2    0    0  0.98945487569E+02 -0.21229805896E+02 -0.13347792936E+02  0.16145563554E+03  0.12509534165E+03 0.  0.
          5    1    3    3  502    0  0.78843360384E+02 -0.43346477193E+02  0.41254560022E+02  0.99068681652E+02  0.41800000000E+01 0. -1.
         -5    1    3    3    0  502  0.20102127185E+02  0.22116671296E+02 -0.54602352958E+02  0.62386953886E+02  0.41800000000E+01 0. -1.
        -11    1    1    2    0    0 -0.27574884891E+02 -0.48823122100E+01  0.20935862896E+02  0.34964576424E+02  0.00000000000E+00 0.  1.
         11    1    1    2    0    0 -0.71370602678E+02  0.26112118106E+02 -0.88262975715E+02  0.11647299481E+03  0.00000000000E+00 0. -1.
</event>
<event>
 7    1  0.2661133E-009  0.1706474E+03  0.7561462E-02  0.1177174E+00
         -2   -1    0    0    0  501 -0.00000000000E+00  0.00000000000E+00  0.13807073215E+03  0.13807073215E+03  0.00000000000E+00 0.  1.
          2   -1    0    0  501    0  0.00000000000E+00 -0.00000000000E+00 -0.28237444826E+03  0.28237444826E+03  0.00000000000E+00 0. -1.
         25    2    1    2    0    0  0.15983478214E+03 -0.18216728080E+02 -0.10907896635E+03  0.23113767132E+03  0.12508954967E+03 0.  0.
          5    1    3    3  502    0 -0.33974918900E+01  0.12959136033E+02 -0.54338263437E+02  0.56121309956E+02  0.41800000000E+01 0.  1.
         -5    1    3    3    0  502  0.16323227403E+03 -0.31175864113E+02 -0.54740702915E+02  0.17501636136E+03  0.41800000000E+01 0.  1.
        -11    1    1    2    0    0 -0.59125451507E+02  0.33006770729E+01 -0.60238990025E+02  0.84471589332E+02  0.00000000000E+00 0. -1.
         11    1    1    2    0    0 -0.10070933064E+03  0.14916051008E+02  0.25014240266E+02  0.10483591975E+03  0.00000000000E+00 0.  1.
</event>
<event>
 7    1  0.2661133E-009  0.1154540E+03  0.7561462E-02  0.1250791E+00
         -1   -1    0    0    0  501 -0.00000000000E+00  0.00000000000E+00  0.43652426996E+03  0.43652426996E+03  0.00000000000E+00 0.  1.
          1   -1    0    0  501    0  0.00000000000E+00 -0.00000000000E+00 -0.43261666166E+02  0.43261666166E+02  0.00000000000E+00 0. -1.
         25    2    1    2    0    0  0.43145296167E+02 -0.69200518568E+02  0.17746606471E+03  0.23192507575E+03  0.12507920805E+03 0.  0.
          5    1    3    3  502    0  0.37278842121E+02 -0.84917175933E+02  0.54293018525E+02  0.10754460981E+03  0.41800000000E+01 0. -1.
         -5    1    3    3    0  502  0.58664540464E+01  0.15716657365E+02  0.12317304618E+03  0.12438046594E+03  0.41800000000E+01 0. -1.
        -11    1    1    2    0    0 -0.34727609149E+02 -0.13792759079E+02  0.83211780074E+02  0.91216486357E+02  0.00000000000E+00 0.  1.
         11    1    1    2    0    0 -0.84176870179E+01  0.82993277647E+02  0.13258475901E+03  0.15664437402E+03  0.00000000000E+00 0. -1.
</event>
<event>
 7    1  0.2661133E-009  0.1078106E+03  0.7561462E-02  0.1264679E+00
          4   -1    0    0  501    0  0.00000000000E+00  0.00000000000E+00  0.68554089869E+03  0.68554089869E+03  0.00000000000E+00 0. -1.
         -4   -1    0    0    0  501 -0.00000000000E+00 -0.00000000000E+00 -0.21106962473E+02  0.21106962473E+02  0.00000000000E+00 0.  1.
         25    2    1    2    0    0  0.33453721306E+01 -0.25743681307E+02  0.50443846036E+03  0.52036489973E+03  0.12509012727E+03 0.  0.
          5    1    3    3  502    0 -0.31023335020E+02  0.37071299395E+02  0.12266736537E+03  0.13191468259E+03  0.41800000000E+01 0. -1.
         -5    1    3    3    0  502  0.34368707150E+02 -0.62814980702E+02  0.38177109499E+03  0.38845021714E+03  0.41800000000E+01 0. -1.
        -11    1    1    2    0    0 -0.39551618430E+02  0.40196586554E+02  0.92222619999E+02  0.10809767680E+03  0.00000000000E+00 0.  1.
         11    1    1    2    0    0  0.36206246300E+02 -0.14452905248E+02  0.67772855862E+02  0.78185284631E+02  0.00000000000E+00 0. -1.
</event>
<event>
 7    1  0.2661133E-009  0.9491414E+02  0.7561462E-02  0.1291370E+00
         -2   -1    0    0    0  501 -0.00000000000E+00  0.00000000000E+00  0.22104547283E+03  0.22104547283E+03  0.00000000000E+00 0. -1.
          2   -1    0    0  501    0  0.00000000000E+00 -0.00000000000E+00 -0.96359471888E+02  0.96359471888E+02  0.00000000000E+00 0.  1.
         25    2    1    2    0    0  0.55002142028E+02 -0.13326939509E+02  0.15268344103E+03  0.20533759045E+03  0.12509376460E+03 0.  0.
          5    1    3    3  502    0  0.72695535177E+02 -0.13674763452E+02  0.27792540902E+02  0.79129878806E+02  0.41800000000E+01 0. -1.
         -5    1    3    3    0  502 -0.17693393149E+02  0.34782394375E+00  0.12489090013E+03  0.12620771164E+03  0.41800000000E+01 0. -1.
        -11    1    1    2    0    0 -0.26187226517E+01 -0.29670441031E+02 -0.32578646215E+02  0.44142507502E+02  0.00000000000E+00 0.  1.
         11    1    1    2    0    0 -0.52383419376E+02  0.42997380540E+02  0.45812061240E+01  0.67924846767E+02  0.00000000000E+00 0. -1.
</event>
<event>
 7    1  0.2661133E-009  0.1312796E+03  0.7561462E-02  0.1225569E+00
          2   -1    0    0  501    0  0.00000000000E+00  0.00000000000E+00  0.10789549426E+03  0.10789549426E+03  0.00000000000E+00 0. -1.
         -2   -1    0    0    0  501 -0.00000000000E+00 -0.00000000000E+00 -0.25731251674E+03  0.25731251674E+03  0.00000000000E+00 0.  1.
         25    2    1    2    0    0 -0.97565391344E+02 -0.69840105169E+02 -0.12653773616E+03  0.21460715697E+03  0.12509111588E+03 0.  0.
          5    1    3    3  502    0 -0.33338383624E+02 -0.61273704218E+02 -0.13209373471E+03  0.14943942519E+03  0.41800000000E+01 0.  1.
         -5    1    3    3    0  502 -0.64227007720E+02 -0.85664009508E+01  0.55559985487E+01  0.65167731783E+02  0.41800000000E+01 0.  1.
        -11    1    1    2    0    0  0.68620363153E+02  0.22417645267E+02 -0.50945725848E+02  0.88355939477E+02  0.00000000000E+00 0.  1.
         11    1    1    2    0    0  0.28945028191E+02  0.47422459902E+02  0.28066439532E+02  0.62244914556E+02  0.00000000000E+00 0. -1.
</event>
<event>
 7    1  0.2661133E-009  0.1545009E+03  0.7561462E-02  0.1195049E+00
         -2   -1    0    0    0  501 -0.00000000000E+00  0.00000000000E+00  0.26554773859E+02  0.26554773859E+02  0.00000000000E+00 0.  1.
          2   -1    0    0  501    0  0.00000000000E+00 -0.00000000000E+00 -0.11033284462E+04  0.11033284462E+04  0.00000000000E+00 0. -1.
         25    2    1    2    0    0  0.11711713378E+03  0.59255927777E+02 -0.51938582710E+03  0.55012518096E+03  0.12509352232E+03 0.  0.
          5    1    3    3  502    0  0.60059569429E+02  0.71248365311E+02 -0.44921393094E+03  0.45879637051E+03  0.41800000000E+01 0.  1.
         -5    1    3    3    0  502  0.57057564348E+02 -0.11992437534E+02 -0.70171896164E+02  0.91328810452E+02  0.41800000000E+01 0.  1.
        -11    1    1    2    0    0 -0.45113830032E+02 -0.71192543205E+02 -0.34628205125E+03  0.35639149104E+03  0.00000000000E+00 0.  1.
         11    1    1    2    0    0 -0.72003303745E+02  0.11936615428E+02 -0.21110579403E+03  0.22336654810E+03  0.00000000000E+00 0. -1.
</event>
<event>
 7    1  0.2661133E-009  0.2191753E+03  0.7561462E-02  0.1134499E+00
         -2   -1    0    0    0  501 -0.00000000000E+00  0.00000000000E+00  0.86744480600E+02  0.86744480600E+02  0.00000000000E+00 0.  1.
          2   -1    0    0  501    0  0.00000000000E+00 -0.00000000000E+00 -0.59959454350E+03  0.59959454350E+03  0.00000000000E+00 0. -1.
         25    2    1    2    0    0 -0.19510745930E+03  0.46891349338E+02 -0.25733803692E+03  0.34947908178E+03  0.12508814507E+03 0.  0.
          5    1    3    3  502    0  0.20319673365E+01  0.38111966299E+02 -0.52249492484E+02  0.64839283859E+02  0.41800000000E+01 0. -1.
         -5    1    3    3    0  502 -0.19713942663E+03  0.87793830384E+01 -0.20508854444E+03  0.28463979792E+03  0.41800000000E+01 0. -1.
        -11    1    1    2    0    0  0.93083437536E+02 -0.36656240660E+02 -0.19129371449E+03  0.21587378610E+03  0.00000000000E+00 0. -1.
         11    1    1    2    0    0  0.10202402176E+03 -0.10235108678E+02 -0.64218311487E+02  0.12098615622E+03  0.00000000000E+00 0.  1.
</event>
<event>
 7    1  0.2661133E-009  0.1062892E+03  0.7561462E-02  0.1267600E+00
         -3   -1    0    0    0  501 -0.00000000000E+00  0.00000000000E+00  0.12129295120E+03  0.12129295120E+03  0.00000000000E+00 0.  1.
          3   -1    0    0  501    0  0.00000000000E+00 -0.00000000000E+00 -0.16041302294E+03  0.16041302294E+03  0.00000000000E+00 0. -1.
         25    2    1    2    0    0  0.18315877117E+02  0.78303131749E+02 -0.56528912925E+02  0.15907697423E+03  0.12507243477E+03 0.  0.
          5    1    3    3  502    0  0.24182616168E+02  0.85527213619E+02 -0.88512622072E+02  0.12550561685E+03  0.41800000000E+01 0.  1.
         -5    1    3    3    0  502 -0.58667390504E+01 -0.72240818697E+01  0.31983709146E+02  0.33571357386E+02  0.41800000000E+01 0.  1.
        -11    1    1    2    0    0 -0.38233063320E+02 -0.84327292340E+02 -0.41284307909E+01  0.92681731237E+02  0.00000000000E+00 0. -1.
         11    1    1    2    0    0  0.19917186203E+02  0.60241605912E+01  0.21537271977E+02  0.29947268678E+02  0.00000000000E+00 0.  1.
</event>
<event>
 7    1  0.2661133E-009  0.1233953E+03  0.7561462E-02  0.1237599E+00
          2   -1    0    0  501    0  0.00000000000E+00  0.00000000000E+00  0.26871303726E+03  0.26871303726E+03  0.00000000000E+00 0. -1.
         -2   -1    0    0    0  501 -0.00000000000E+00 -0.00000000000E+00 -0.62565202783E+02  0.62565202783E+02  0.00000000000E+00 0.  1.
         25    2    1    2    0    0  0.70454538249E+02  0.86364410054E+01  0.93889253158E+02  0.17176150182E+03  0.12509353131E+03 0.  0.
          5    1    3    3  502    0  0.15527987391E+02 -0.55611650139E+02  0.49656448951E+02  0.76269321133E+02  0.41800000000E+01 0.  1.
         -5    1    3    3    0  502  0.54926550858E+02  0.64248091144E+02  0.44232804207E+02  0.95492180689E+02  0.41800000000E+01 0.  1.
        -11    1    1    2    0    0 -0.59334307433E+02 -0.39623873009E+02  0.44244323253E+02  0.83953388799E+02  0.00000000000E+00 0.  1.
         11    1    1    2    0    0 -0.11120230815E+02  0.30987432004E+02  0.68014258067E+02  0.75563349423E+02  0.00000000000E+00 0. -1.
</event>
<event>
 7    1  0.2661133E-009  0.1075950E+03  0.7561462E-02  0.1265089E+00
          1   -1    0    0  501    0  0.00000000000E+00  0.00000000000E+00  0.61857167511E+02  0.61857167511E+02  0.00000000000E+00 0. -1.
         -1   -1    0    0    0  501 -0.00000000000E+00 -0.00000000000E+00 -0.24330015776E+03  0.24330015776E+03  0.00000000000E+00 0.  1.
         25    2    1    2    0    0 -0.58573518755E+01  0.47249094112E+02 -0.64580871880E+02  0.14860391310E+03  0.12508256677E+03 0.  0.
          5    1    3    3  502    0 -0.28083711896E+02 -0.35339359084E+02 -0.37386196065E+02  0.58760235113E+02  0.41800000000E+01 0. -1.
         -5    1    3    3    0  502  0.22226360021E+02  0.82588453196E+02 -0.27194675816E+02  0.89843677984E+02  0.41800000000E+01 0. -1.
        -11    1    1    2    0    0 -0.14527525866E+02 -0.58957120475E+02 -0.11832979876E+03  0.13299974563E+03  0.00000000000E+00 0.  1.
         11    1    1    2    0    0  0.20384877742E+02  0.11708026363E+02  0.14676803943E+01  0.23553666543E+02  0.00000000000E+00 0. -1.
</event>
<event>
 7    1  0.2661133E-009  0.7233179E+02  0.7561462E-02  0.1352339E+00
         -2   -1    0    0    0  501 -0.00000000000E+00  0.00000000000E+00  0.42685705330E+02  0.42685705330E+02  0.00000000000E+00 0. -1.
          2   -1    0    0  501    0  0.00000000000E+00 -0.00000000000E+00 -0.43079400970E+03  0.43079400970E+03  0.00000000000E+00 0.  1.
         25    2    1    2    0    0 -0.35447426212E+02  0.19223276233E+02 -0.33815712891E+03  0.36280623471E+03  0.12510821609E+03 0.  0.
          5    1    3    3  502    0 -0.40621980601E+02  0.21919264906E+02 -0.34775027064E+03  0.35082520236E+03  0.41800000000E+01 0. -1.
         -5    1    3    3    0  502  0.51745543887E+01 -0.26959886732E+01  0.95931417220E+01  0.11981032349E+02  0.41800000000E+01 0. -1.
        -11    1    1    2    0    0  0.62128640185E+02 -0.16727367919E+02 -0.53452866785E+02  0.83647963133E+02  0.00000000000E+00 0.  1.
         11    1    1    2    0    0 -0.26681213974E+02 -0.24959083145E+01  0.35016913265E+01  0.27025517193E+02  0.00000000000E+00 0. -1.
</event>
<event>
 7    1  0.2661133E-009  0.1818136E+03  0.7561462E-02  0.1166059E+00
          3   -1    0    0  501    0  0.00000000000E+00  0.00000000000E+00  0.26642424185E+03  0.26642424185E+03  0.00000000000E+00 0. -1.
         -3   -1    0    0    0  501 -0.00000000000E+00 -0.00000000000E+00 -0.12967774965E+03  0.12967774965E+03  0.00000000000E+00 0.  1.
         25    2    1    2    0    0  0.80056530394E+01  0.14967636945E+03  0.60694276566E+02  0.20444667522E+03  0.12509013450E+03 0.  0.
          5    1    3    3  502    0 -0.44949044256E+02  0.12880116649E+03  0.54782898779E+02  0.14706731611E+03  0.41800000000E+01 0. -1.
         -5    1    3    3    0  502  0.52954697296E+02  0.20875202952E+02  0.59113777864E+01  0.57379359105E+02  0.41800000000E+01 0. -1.
        -11    1    1    2    0    0  0.33745872951E+02 -0.37877995267E+02  0.11229573760E+01  0.50742363957E+02  0.00000000000E+00 0.  1.
         11    1    1    2    0    0 -0.41751525990E+02 -0.11179837418E+03  0.74929258250E+02  0.14091295233E+03  0.00000000000E+00 0. -1.
</event>
<event>
 7    1  0.2779836E-009  0.7235012E+02  0.7561462E-02  0.1352279E+00
         -3   -1    0    0    0  501 -0.00000000000E+00  0.00000000000E+00  0.17267190744E+03  0.17267190744E+03  0.00000000000E+00 0.  1.
          3   -1    0    0  501    0  0.00000000000E+00 -0.00000000000E+00 -0.92742491477E+02  0.92742491477E+02  0.00000000000E+00 0. -1.
         25    2    1    2    0    0  0.38377478079E+02  0.18165556777E+02 -0.75954511627E+01  0.13231964916E+03  0.12509188782E+03 0.  0.
          5    1    3    3  502    0 -0.26607296809E+02  0.14848582818E+02  0.40818007974E+02  0.51107835311E+02  0.41800000000E+01 0.  1.
         -5    1    3    3    0  502  0.64984774888E+02  0.33169739591E+01 -0.48413459137E+02  0.81211813852E+02  0.41800000000E+01 0.  1.
        -11    1    1    2    0    0 -0.28464557744E+02 -0.48188187307E+00  0.10346229312E+03  0.10730754566E+03  0.00000000000E+00 0.  1.
         11    1    1    2    0    0 -0.99129203355E+01 -0.17683674904E+02 -0.15937425995E+02  0.25787204095E+02  0.00000000000E+00 0. -1.
</event>
<event>
 7    1  0.2661133E-009  0.1733588E+03  0.7561462E-02  0.1174390E+00
          2   -1    0    0  501    0  0.00000000000E+00  0.00000000000E+00  0.14122556122E+04  0.14122556122E+04  0.00000000000E+00 0. -1.
         -2   -1    0    0    0  501 -0.00000000000E+00 -0.00000000000E+00 -0.22467471447E+02  0.22467471447E+02  0.00000000000E+00 0.  1.
         25    2    1    2    0    0 -0.54174287360E+02 -0.12873801905E+03  0.63347308073E+03  0.66063932646E+03  0.12509134541E+03 0.  0.
          5    1    3    3  502    0 -0.87854248646E+02 -0.49871305278E+02  0.36720718931E+03  0.38087282442E+03  0.41800000000E+01 0.  1.
         -5    1    3    3    0  502  0.33679961286E+02 -0.78866713777E+02  0.26626589142E+03  0.27976650204E+03  0.41800000000E+01 0.  1.
        -11    1    1    2    0    0  0.63182153543E+02  0.50200887974E+02  0.28581058456E+03  0.29698451799E+03  0.00000000000E+00 0. -1.
         11    1    1    2    0    0 -0.90078661833E+01  0.78537131080E+02  0.47050447551E+03  0.47709923924E+03  0.00000000000E+00 0.  1.
</event>
<event>
 7    1  0.2661133E-009  0.1392185E+03  0.7561462E-02  0.1214384E+00
          2   -1    0    0  501    0  0.00000000000E+00  0.00000000000E+00  0.21238368350E+03  0.21238368350E+03  0.00000000000E+00 0. -1.
         -2   -1    0    0    0  501 -0.00000000000E+00 -0.00000000000E+00 -0.12138931021E+03  0.12138931021E+03  0.00000000000E+00 0.  1.
         25    2    1    2    0    0 -0.11781718108E+03 -0.17797791210E+01  0.59326994454E+02  0.18179548241E+03  0.12508336972E+03 0.  0.
          5    1    3    3  502    0 -0.12488741821E+03 -0.32018138227E+02  0.18475015775E+02  0.13031050230E+03  0.41800000000E+01 0. -1.
         -5    1    3    3    0  502  0.70702371266E+01  0.30238359106E+02  0.40851978679E+02  0.51484980105E+02  0.41800000000E+01 0. -1.
        -11    1    1    2    0    0  0.69468131804E+02  0.50343183229E+01 -0.28037868068E+02  0.75081873599E+02  0.00000000000E+00 0.  1.
         11    1    1    2    0    0  0.48349049275E+02 -0.32545392019E+01  0.59705246901E+02  0.76895637709E+02  0.00000000000E+00 0. -1.
</event>
<event>
 7    1  0.2661133E-009  0.1120443E+03  0.7561462E-02  0.1256830E+00
         -2   -1    0    0    0  501 -0.00000000000E+00  0.00000000000E+00  0.11552239683E+03  0.11552239683E+03  0.00000000000E+00 0.  1.
          2   -1    0    0  501    0  0.00000000000E+00 -0.00000000000E+00 -0.16705024615E+03  0.16705024615E+03  0.00000000000E+00 0. -1.
         25    2    1    2    0    0  0.83848439077E+02 -0.11869463426E+01 -0.23990856738E+02  0.15249579562E+03  0.12508971540E+03 0.  0.
          5    1    3    3  502    0  0.83356954207E+02  0.35303629233E+02  0.22375262227E+02  0.93342663404E+02  0.41800000000E+01 0. -1.
         -5    1    3    3    0  502  0.49148487039E+00 -0.36490575575E+02 -0.46366118965E+02  0.59153132217E+02  0.41800000000E+01 0. -1.
        -11    1    1    2    0    0 -0.83226433477E+01 -0.17107855933E+02 -0.46366756428E+02  0.50118072873E+02  0.00000000000E+00 0. -1.
         11    1    1    2    0    0 -0.75525795729E+02  0.18294802275E+02  0.18829763852E+02  0.79958774488E+02  0.00000000000E+00 0.  1.
</event>
<event>
 7    1  0.2661133E-009  0.2127476E+03  0.7561462E-02  0.1139408E+00
         -2   -1    0    0    0  501 -0.00000000000E+00  0.00000000000E+00  0.10800724101E+03  0.10800724101E+03  0.00000000000E+00 0.  1.
          2   -1    0    0  501    0  0.00000000000E+00 -0.00000000000E+00 -0.58420854693E+03  0.58420854693E+03  0.00000000000E+00 0. -1.
         25    2    1    2    0    0 -0.11436026012E+03  0.14512072481E+03 -0.65610407302E+02  0.23256905011E+03  0.12508134815E+03 0.  0.
          5    1    3    3  502    0 -0.96340713261E+02  0.16566707907E+03 -0.70975610480E+02  0.20440676065E+03  0.41800000000E+01 0.  1.
         -5    1    3    3    0  502 -0.18019546857E+02 -0.20546354253E+02  0.53652031779E+01  0.28162289452E+02  0.41800000000E+01 0.  1.
        -11    1    1    2    0    0  0.99795553958E+02 -0.53195695108E+02 -0.24033356168E+03  0.26561090986E+03  0.00000000000E+00 0.  1.
         11    1    1    2    0    0  0.14564706161E+02 -0.91925029706E+02 -0.17025733694E+03  0.19403582797E+03  0.00000000000E+00 0. -1.
</event>
<event>
 7    1  0.2661133E-009  0.1267127E+03  0.7561462E-02  0.1232417E+00
         -2   -1    0    0    0  501 -0.00000000000E+00  0.00000000000E+00  0.28705206154E+02  0.28705206154E+02  0.00000000000E+00 0. -1.
          2   -1    0    0  501    0  0.00000000000E+00 -0.00000000000E+00 -0.81680459550E+03  0.81680459550E+03  0.00000000000E+00 0.  1.
         25    2    1    2    0    0 -0.10007998441E+03  0.22272726270E+02 -0.43292700619E+03  0.46215127179E+03  0.12508368282E+03 0.  0.
          5    1    3    3  502    0 -0.10612892776E+03  0.21363469608E+02 -0.18702623800E+03  0.21613892116E+03  0.41800000000E+01 0. -1.
         -5    1    3    3    0  502  0.60489433441E+01  0.90925666201E+00 -0.24590076819E+03  0.24601235062E+03  0.41800000000E+01 0. -1.
        -11    1    1    2    0    0  0.41801979873E+02 -0.56354662095E+02 -0.12339960604E+03  0.14195321846E+03  0.00000000000E+00 0. -1.
         11    1    1    2    0    0  0.58278004538E+02  0.34081935825E+02 -0.23177277712E+03  0.24140531141E+03  0.00000000000E+00 0.  1.
</event>
<event>
 7    1  0.2661133E-009  0.1205288E+03  0.7561462E-02  0.1242227E+00
         -2   -1    0    0    0  501 -0.00000000000E+00  0.00000000000E+00  0.12390585026E+02  0.12390585026E+02  0.00000000000E+00 0.  1.
          2   -1    0    0  501    0  0.00000000000E+00 -0.00000000000E+00 -0.13116407086E+04  0.13116407086E+04  0.00000000000E+00 0. -1.
         25    2    1    2    0    0 -0.18028394875E+02  0.40952137685E+02 -0.81103148824E+03  0.82184167555E+03  0.12509821796E+03 0.  0.
          5    1    3    3  502    0  0.42667730575E+02  0.54224987600E+02 -0.36547425642E+03  0.37195401465E+03  0.41800000000E+01 0. -1.
         -5    1    3    3    0  502 -0.60696125450E+02 -0.13272849915E+02 -0.44555723183E+03  0.44988766089E+03  0.41800000000E+01 0. -1.
        -11    1    1    2    0    0  0.58687001507E+02 -0.12411269458E+02 -0.35455466107E+03  0.35959311929E+03  0.00000000000E+00 0. -1.
         11    1    1    2    0    0 -0.40658606632E+02 -0.28540868227E+02 -0.13366397427E+03  0.14259649880E+03  0.00000000000E+00 0.  1.
</event>
<event>
 7    1  0.2661133E-009  0.1248305E+03  0.7561462E-02  0.1235334E+00
          2   -1    0    0  501    0  0.00000000000E+00  0.00000000000E+00  0.31617486490E+03  0.31617486490E+03  0.00000000000E+00 0. -1.
         -2   -1    0    0    0  501 -0.00000000000E+00 -0.00000000000E+00 -0.65005630700E+02  0.65005630700E+02  0.00000000000E+00 0.  1.
         25    2    1    2    0    0 -0.20642124089E+02  0.91196912633E+02  0.14176032057E+03  0.21092369077E+03  0.12509932326E+03 0.  0.
          5    1    3    3  502    0 -0.37650455435E+02  0.11808524018E+03  0.11530072292E+03  0.16933224692E+03  0.41800000000E+01 0. -1.
         -5    1    3    3    0  502  0.17008331346E+02 -0.26888327546E+02  0.26459597649E+02  0.41591443845E+02  0.41800000000E+01 0. -1.
        -11    1    1    2    0    0  0.14669190806E+02 -0.57830826905E+02  0.42995693607E+01  0.59817020957E+02  0.00000000000E+00 0.  1.
         11    1    1    2    0    0  0.59729332825E+01 -0.33366085727E+02  0.10510934428E+03  0.11043978388E+03  0.00000000000E+00 0. -1.
</event>
<event>
 7    1  0.2661133E-009  0.1995568E+03  0.7561462E-02  0.1150114E+00
         -2   -1    0    0    0  501 -0.00000000000E+00  0.00000000000E+00  0.13803454579E+03  0.13803454579E+03  0.00000000000E+00 0.  1.
          2   -1    0    0  501    0  0.00000000000E+00 -0.00000000000E+00 -0.30550764359E+03  0.30550764359E+03  0.00000000000E+00 0. -1.
         25    2    1    2    0    0 -0.17329868797E+03  0.41394359048E+00 -0.77437241660E+02  0.22732206397E+03  0.12508472236E+03 0.  0.
          5    1    3    3  502    0 -0.10636046918E+03  0.56418397477E+02 -0.70705168502E+02  0.13968635664E+03  0.41800000000E+01 0.  1.
         -5    1    3    3    0  502 -0.66938218787E+02 -0.56004453887E+02 -0.67320731583E+01  0.87635707326E+02  0.41800000000E+01 0.  1.
        -11    1    1    2    0    0  0.46890637056E+02 -0.36933140257E+02 -0.52242121479E+02  0.79322304236E+02  0.00000000000E+00 0.  1.
         11    1    1    2    0    0  0.12640805091E+03  0.36519196667E+02 -0.37793734663E+02  0.13689782117E+03  0.00000000000E+00 0. -1.
</event>
<event>
 7    1  0.2661133E-009  0.1902920E+03  0.7561462E-02  0.1158198E+00
          2   -1    0    0  501    0  0.00000000000E+00  0.00000000000E+00  0.81638224176E+02  0.81638224176E+02  0.00000000000E+00 0. -1.
         -2   -1    0    0    0  501 -0.00000000000E+00 -0.00000000000E+00 -0.54741433308E+03  0.54741433308E+03  0.00000000000E+00 0.  1.
         25    2    1    2    0    0  0.15569957773E+03 -0.42095023324E+02 -0.36585472273E+03  0.41894213507E+03  0.12509390434E+03 0.  0.
          5    1    3    3  502    0  0.10027685743E+02 -0.48678029618E+02 -0.48053249327E+02  0.69258156341E+02  0.41800000000E+01 0. -1.
         -5    1    3    3    0  502  0.14567189198E+03  0.65830062940E+01 -0.31780147340E+03  0.34968397873E+03  0.41800000000E+01 0. -1.
        -11    1    1    2    0    0 -0.77611895986E+02 -0.25348883556E+02 -0.44634321291E+02  0.93050496684E+02  0.00000000000E+00 0. -1.
         11    1    1    2    0    0 -0.78087681740E+02  0.67443906880E+02 -0.55287064886E+02  0.11705992550E+03  0.00000000000E+00 0.  1.
</event>
<event>
 7    1  0.2661133E-009  0.1605578E+03  0.7561462E-02  0.1188068E+00
         -2   -1    0    0    0  501 -0.00000000000E+00  0.00000000000E+00  0.50710483560E+03  0.50710483560E+03  0.00000000000E+00 0. -1.
          2   -1    0    0  501    0  0.00000000000E+00 -0.00000000000E+00 -0.52559358137E+02  0.52559358137E+02  0.00000000000E+00 0.  1.
         25    2    1    2    0    0  0.10150172270E+03 -0.66574035490E+02  0.23976393491E+03  0.29642701921E+03  0.12509009281E+03 0.  0.
          5    1    3    3  502    0  0.12580906359E+03 -0.37378180457E+02  0.15302526005E+03  0.20164139325E+03  0.41800000000E+01 0. -1.
         -5    1    3    3    0  502 -0.24307340892E+02 -0.29195855033E+02  0.86738674857E+02  0.94785625958E+02  0.41800000000E+01 0. -1.
        -11    1    1    2    0    0 -0.96199345199E+02  0.12218897362E+02  0.12587620937E+03  0.15889756308E+03  0.00000000000E+00 0.  1.
         11    1    1    2    0    0 -0.53023775024E+01  0.54355138128E+02  0.88905333181E+02  0.10433961144E+03  0.00000000000E+00 0. -1.
</event>
<event>
 7    1  0.5336635E-009  0.9926950E+02  0.7561462E-02  0.1281840E+00
          1   -1    0    0  501    0  0.00000000000E+00  0.00000000000E+00  0.73447153709E+03  0.73447153709E+03  0.00000000000E+00 0. -1.
         -1   -1    0    0    0  501 -0.00000000000E+00 -0.00000000000E+00 -0.23117542238E+02  0.23117542238E+02  0.00000000000E+00 0.  1.
         25    2    1    2    0    0  0.53813998681E+02 -0.27691572370E+02  0.50609546104E+03  0.52482668680E+03  0.12509063056E+03 0.  0.
          5    1    3    3  502    0  0.36161127228E+02 -0.68339430642E+02  0.18339286193E+03  0.19906862915E+03  0.41800000000E+01 0.  1.
         -5    1    3    3    0  502  0.17652871453E+02  0.40647858272E+02  0.32270259911E+03  0.32575805765E+03  0.41800000000E+01 0.  1.
        -11    1    1    2    0    0 -0.14536008896E+02 -0.13387493280E+02 -0.19537740812E-01  0.19761601976E+02  0.00000000000E+00 0.  1.
         11    1    1    2    0    0 -0.39277989786E+02  0.41079065650E+02  0.20527807155E+03  0.21300079055E+03  0.00000000000E+00 0. -1.
</event>
<event>
 7    1  0.2661133E-009  0.9899203E+02  0.7561462E-02  0.1282430E+00
          1   -1    0    0  501    0  0.00000000000E+00  0.00000000000E+00  0.44451278758E+03  0.44451278758E+03  0.00000000000E+00 0.  1.
         -1   -1    0    0    0  501 -0.00000000000E+00 -0.00000000000E+00 -0.53303602053E+02  0.53303602053E+02  0.00000000000E+00 0. -1.
         25    2    1    2    0    0  0.60074930895E+01 -0.68160745616E+02  0.74260862837E+02  0.16075773216E+03  0.12508555265E+03 0.  0.
          5    1    3    3  502    0 -0.18836980499E+02 -0.52758946640E+02  0.10440601077E+03  0.11855979828E+03  0.41800000000E+01 0.  1.
         -5    1    3    3    0  502  0.24844473588E+02 -0.15401798976E+02 -0.30145147928E+02  0.42197933873E+02  0.41800000000E+01 0.  1.
        -11    1    1    2    0    0  0.40950115615E+02  0.22238994646E+02  0.16651203253E+03  0.17290963486E+03  0.00000000000E+00 0.  1.
         11    1    1    2    0    0 -0.46957608704E+02  0.45921750970E+02  0.15043629016E+03  0.16414902261E+03  0.00000000000E+00 0. -1.
</event>
<event>
 7    1  0.2661133E-009  0.6859867E+02  0.7561462E-02  0.1364924E+00
         -2   -1    0    0    0  501 -0.00000000000E+00  0.00000000000E+00  0.29124932111E+02  0.29124932111E+02  0.00000000000E+00 0.  1.
          2   -1    0    0  501    0  0.00000000000E+00 -0.00000000000E+00 -0.97649600306E+03  0.97649600306E+03  0.00000000000E+00 0. -1.
         25    2    1    2    0    0  0.56663110421E+02 -0.34942944029E+01 -0.84418424225E+03  0.85528775816E+03  0.12508875335E+03 0.  0.
          5    1    3    3  502    0  0.51885875156E+02 -0.13187952493E+02 -0.12544438198E+03  0.13645450341E+03  0.41800000000E+01 0. -1.
         -5    1    3    3    0  502  0.47772352642E+01  0.96936580903E+01 -0.71873986028E+03  0.71883325475E+03  0.41800000000E+01 0. -1.
        -11    1    1    2    0    0 -0.15836694016E+02 -0.19448178869E+02  0.10643753320E+02  0.27245587228E+02  0.00000000000E+00 0.  1.
         11    1    1    2    0    0 -0.40826416404E+02  0.22942473272E+02 -0.11383058202E+03  0.12308758979E+03  0.00000000000E+00 0. -1.
</event>
<event>
 7    1  0.2661133E-009  0.1042179E+03  0.7561462E-02  0.1271668E+00
         -3   -1    0    0    0  501 -0.00000000000E+00  0.00000000000E+00  0.29865722806E+03  0.29865722806E+03  0.00000000000E+00 0.  1.
          3   -1    0    0  501    0  0.00000000000E+00 -0.00000000000E+00 -0.42854882800E+02  0.42854882800E+02  0.00000000000E+00 0. -1.
         25    2    1    2    0    0 -0.12406007214E+02 -0.27505044752E+02  0.16139962505E+03  0.20641775096E+03  0.12509201590E+03 0.  0.
          5    1    3    3  502    0 -0.54947513168E+01 -0.77149012022E+02  0.10968909050E+03  0.13428079283E+03  0.41800000000E+01 0. -1.
         -5    1    3    3    0  502 -0.69112558974E+01  0.49643967270E+02  0.51710534555E+02  0.72136958131E+02  0.41800000000E+01 0. -1.
        -11    1    1    2    0    0  0.27658287755E+02 -0.17791410260E+02  0.43884944291E+01  0.33177915003E+02  0.00000000000E+00 0. -1.
         11    1    1    2    0    0 -0.15252280541E+02  0.45296455012E+02  0.90014225777E+02  0.10191644490E+03  0.00000000000E+00 0.  1.
</event>
<event>
 6    1  0.2661133E-009  0.1563277E+03  0.7561462E-02  0.1192906E+00
         -1   -1    0    0    0  501 -0.00000000000E+00  0.00000000000E+00  0.32347642620E+03  0.32347642620E+03  0.00000000000E+00 0. -1.
          1   -1    0    0  501    0  0.00000000000E+00 -0.00000000000E+00 -0.12448143448E+03  0.12448143448E+03  0.00000000000E+00 0.  1.
          5    1    1    2  502    0  0.23760402492E+02 -0.66790228497E+02 -0.45628860275E+02  0.84409458233E+02  0.41800000000E+01 0.  1.
         -5    1    1    2    0  502  0.90179766829E+02  0.75502271699E+01  0.30433766630E+02  0.95567163958E+02  0.41800000000E+01 0.  1.
        -11    1    1    2    0    0 -0.39167261613E+02  0.65178346162E+02  0.15421481161E+03  0.17194330261E+03  0.00000000000E+00 0. -1.
         11    1    1    2    0    0 -0.74772907708E+02 -0.59383448344E+01  0.59975273759E+02  0.96037935884E+02  0.00000000000E+00 0.  1.
</event>
<event>
 7    1  0.2661133E-009  0.9182944E+02  0.7561462E-02  0.1298481E+00
          2   -1    0    0  501    0  0.00000000000E+00  0.00000000000E+00  0.30908609631E+03  0.30908609631E+03  0.00000000000E+00 0. -1.
         -2   -1    0    0    0  501 -0.00000000000E+00 -0.00000000000E+00 -0.41226718440E+02  0.41226718440E+02  0.00000000000E+00 0.  1.
         25    2    1    2    0    0  0.19157839612E+02 -0.31394006998E+02  0.17176181606E+03  0.21564361759E+03  0.12508973522E+03 0.  0.
          5    1    3    3  502    0  0.50375258940E+02  0.11108011698E+02  0.20969236801E+02  0.55841166976E+02  0.41800000000E+01 0. -1.
         -5    1    3    3    0  502 -0.31217419328E+02 -0.42502018696E+02  0.15079257926E+03  0.15980245061E+03  0.41800000000E+01 0. -1.
        -11    1    1    2    0    0 -0.21433022346E+01  0.52134061371E+02  0.23409337059E+02  0.57188732815E+02  0.00000000000E+00 0.  1.
         11    1    1    2    0    0 -0.17014537377E+02 -0.20740054373E+02  0.72688224748E+02  0.77480464341E+02  0.00000000000E+00 0. -1.
</event>
<event>
 7    1  0.2661133E-009  0.1045547E+03  0.7561462E-02  0.1270999E+00
         -2   -1    0    0    0  501 -0.00000000000E+00  0.00000000000E+00  0.16003930782E+02  0.16003930782E+02  0.00000000000E+00 0.  1.
          2   -1    0    0  501    0  0.00000000000E+00 -0.00000000000E+00 -0.86536730062E+03  0.86536730062E+03  0.00000000000E+00 0. -1.
         25    2    1    2    0    0  0.45422452449E+01  0.15005250692E+02 -0.63114024167E+03  0.64360797934E+03  0.12508971530E+03 0.  0.
          5    1    3    3  502    0  0.29591421289E+02  0.61094873229E+02 -0.25968085412E+03  0.26843966574E+03  0.41800000000E+01 0.  1.
         -5    1    3    3    0  502 -0.25049176044E+02 -0.46089622537E+02 -0.37145938756E+03  0.37516831360E+03  0.41800000000E+01 0.  1.
        -11    1    1    2    0    0  0.40672173929E+02  0.49827372439E+00 -0.60076468571E+02  0.72551058467E+02  0.00000000000E+00 0.  1.
         11    1    1    2    0    0 -0.45214419174E+02 -0.15503524417E+02 -0.15814665959E+03  0.16521219359E+03  0.00000000000E+00 0. -1.
</event>
<event>
 7    1  0.2661133E-009  0.8445118E+02  0.7561462E-02  0.1316874E+00
          2   -1    0    0  501    0  0.00000000000E+00  0.00000000000E+00  0.22564291963E+03  0.22564291963E+03  0.00000000000E+00 0. -1.
         -2   -1    0    0    0  501 -0.00000000000E+00 -0.00000000000E+00 -0.95701806654E+02  0.95701806654E+02  0.00000000000E+00 0.  1.
         25    2    1    2    0    0  0.10835019258E+02  0.26156977884E+00  0.17813321377E+03  0.21793667495E+03  0.12508991318E+03 0.  0.
          5    1    3    3  502    0 -0.13049930553E+02 -0.55606310544E+02  0.49834614752E+02  0.75916557399E+02  0.41800000000E+01 0.  1.
         -5    1    3    3    0  502  0.23884949811E+02  0.55867880322E+02  0.12829859902E+03  0.14202011755E+03  0.41800000000E+01 0.  1.
        -11    1    1    2    0    0 -0.29626742612E+02 -0.75503008609E+01 -0.68365804383E+02  0.74890814723E+02  0.00000000000E+00 0.  1.
         11    1    1    2    0    0  0.18791723355E+02  0.72887310821E+01  0.20173703583E+02  0.28517236607E+02  0.00000000000E+00 0. -1.
</event>
<event>
 7    1  0.2661133E-009  0.4113902E+03  0.7561462E-02  0.1039905E+00
         -2   -1    0    0    0  501 -0.00000000000E+00  0.00000000000E+00  0.54766902954E+02  0.54766902954E+02  0.00000000000E+00 0.  1.
          2   -1    0    0  501    0  0.00000000000E+00 -0.00000000000E+00 -0.33832045597E+04  0.33832045597E+04  0.00000000000E+00 0. -1.
         25    2    1    2    0    0 -0.13130271191E+02 -0.40613886196E+03 -0.13188635236E+04  0.13857014358E+04  0.12508515465E+03 0.  0.
          5    1    3    3  502    0 -0.34374570978E+02 -0.19756014388E+03 -0.46402102931E+03  0.50551420318E+03  0.41800000000E+01 0.  1.
         -5    1    3    3    0  502  0.21244299787E+02 -0.20857871808E+03 -0.85484249433E+03  0.88018723259E+03  0.41800000000E+01 0.  1.
        -11    1    1    2    0    0 -0.27779000799E+02  0.10534762316E+03 -0.41527635271E+03  0.42932999396E+03  0.00000000000E+00 0.  1.
         11    1    1    2    0    0  0.40909271989E+02  0.30079123880E+03 -0.15942977804E+04  0.16229400329E+04  0.00000000000E+00 0. -1.
</event>
<event>
 7    1  0.2661133E-009  0.1038958E+03  0.7561462E-02  0.1272311E+00
          2   -1    0    0  501    0  0.00000000000E+00  0.00000000000E+00  0.60695316258E+03  0.60695316258E+03  0.00000000000E+00 0. -1.
         -2   -1    0    0    0  501 -0.00000000000E+00 -0.00000000000E+00 -0.22000786726E+02  0.22000786726E+02  0.00000000000E+00 0.  1.
         25    2    1    2    0    0  0.40577631975E+02  0.19519333143E+02  0.39420284941E+03  0.41601839866E+03  0.12509145837E+03 0.  0.
          5    1    3    3  502    0  0.16570741182E+02  0.64815833512E+02  0.31146252254E+03  0.31859387484E+03  0.41800000000E+01 0. -1.
         -5    1    3    3    0  502  0.24006890793E+02 -0.45296500369E+02  0.82740326867E+02  0.97424523819E+02  0.41800000000E+01 0. -1.
        -11    1    1    2    0    0 -0.93665989338E+01  0.29645714897E+02  0.35864193613E+02  0.47464112451E+02  0.00000000000E+00 0.  1.
         11    1    1    2    0    0 -0.31211033041E+02 -0.49165048040E+02  0.15488533283E+03  0.16547143819E+03  0.00000000000E+00 0. -1.
</event>
<event>
 7    1  0.2661133E-009  0.1238837E+03  0.7561462E-02  0.1236824E+00
         -1   -1    0    0    0  501 -0.00000000000E+00  0.00000000000E+00  0.34550420299E+02  0.34550420299E+02  0.00000000000E+00 0.  1.
          1   -1    0    0  501    0  0.00000000000E+00 -0.00000000000E+00 -0.70433281544E+03  0.70433281544E+03  0.00000000000E+00 0. -1.
         25    2    1    2    0    0  0.63164445306E+02 -0.87302498089E+02 -0.43660776586E+03  0.46677374914E+03  0.12505965920E+03 0.  0.
          5    1    3    3  502    0  0.33326106865E+02 -0.30502459702E+02 -0.28384513754E+02  0.53518057398E+02  0.41800000000E+01 0. -1.
         -5    1    3    3    0  502  0.29838338441E+02 -0.56800038387E+02 -0.40822325210E+03  0.41325569174E+03  0.41800000000E+01 0. -1.
        -11    1    1    2    0    0  0.90920561885E+01 -0.12146752090E+02 -0.43629426223E+02  0.46192379291E+02  0.00000000000E+00 0.  1.
         11    1    1    2    0    0 -0.72256501495E+02  0.99449250178E+02 -0.18954520306E+03  0.22591710731E+03  0.00000000000E+00 0. -1.
</event>
<event>
 7    1  0.2661133E-009  0.3736328E+03  0.7561462E-02  0.1053313E+00
          1   -1    0    0  501    0  0.00000000000E+00  0.00000000000E+00  0.30960828727E+03  0.30960828727E+03  0.00000000000E+00 0. -1.
         -1   -1    0    0    0  501 -0.00000000000E+00 -0.00000000000E+00 -0.47475878547E+03  0.47475878547E+03  0.00000000000E+00 0.  1.
         25    2    1    2    0    0  0.68304195566E+01  0.36630316243E+03 -0.55359555494E+02  0.39107102428E+03  0.12508878530E+03 0.  0.
          5    1    3    3  502    0 -0.46737636259E+02  0.21771392839E+03 -0.67176989503E+02  0.23262412080E+03  0.41800000000E+01 0.  1.
         -5    1    3    3    0  502  0.53568055815E+02  0.14858923404E+03  0.11817434009E+02  0.15844690348E+03  0.41800000000E+01 0.  1.
        -11    1    1    2    0    0  0.30821859921E+01 -0.12849362319E+03  0.58728825811E+01  0.12866468755E+03  0.00000000000E+00 0.  1.
         11    1    1    2    0    0 -0.99126055487E+01 -0.23780953923E+03 -0.11566382529E+03  0.26463136092E+03  0.00000000000E+00 0. -1.
</event>
<event>
 7    1  0.2661133E-009  0.8713258E+02  0.7561462E-02  0.1309948E+00
         -1   -1    0    0    0  501 -0.00000000000E+00  0.00000000000E+00  0.35265871029E+02  0.35265871029E+02  0.00000000000E+00 0.  1.
          1   -1    0    0  501    0  0.00000000000E+00 -0.00000000000E+00 -0.41281116407E+03  0.41281116407E+03  0.00000000000E+00 0. -1.
         25    2    1    2    0    0  0.22097791315E+01  0.74022964551E+01 -0.22217699060E+03  0.25508850686E+03  0.12509138285E+03 0.  0.
          5    1    3    3  502    0 -0.52653975263E+02  0.35229508318E+02 -0.10587527132E+03  0.12345284462E+03  0.41800000000E+01 0. -1.
         -5    1    3    3    0  502  0.54863754394E+02 -0.27827211863E+02 -0.11630171928E+03  0.13163566224E+03  0.41800000000E+01 0. -1.
        -11    1    1    2    0    0  0.11729335413E+00  0.20808547438E+02  0.11473572250E+02  0.23762412849E+02  0.00000000000E+00 0.  1.
         11    1    1    2    0    0 -0.23270724857E+01 -0.28210843893E+02 -0.16684187469E+03  0.16922611539E+03  0.00000000000E+00 0. -1.
</event>
<event>
 7    1  0.2661133E-009  0.9159197E+02  0.7561462E-02  0.1299042E+00
          1   -1    0    0  501    0  0.00000000000E+00  0.00000000000E+00  0.78163072840E+02  0.78163072840E+02  0.00000000000E+00 0. -1.
         -1   -1    0    0    0  501 -0.00000000000E+00 -0.00000000000E+00 -0.18692413738E+03  0.18692413738E+03  0.00000000000E+00 0.  1.
         25    2    1    2    0    0  0.56871976166E+01 -0.40434998840E+02 -0.98353769735E+02  0.16428208547E+03  0.12509119169E+03 0.  0.
          5    1    3    3  502    0 -0.11408303865E+02 -0.72869553308E+02 -0.18263749039E+02  0.76099659167E+02  0.41800000000E+01 0.  1.
         -5    1    3    3    0  502  0.17095501481E+02  0.32434554468E+02 -0.80090020696E+02  0.88182426308E+02  0.41800000000E+01 0.  1.
        -11    1    1    2    0    0  0.26967237177E+02  0.13948489789E+02  0.29862323490E+02  0.42585802946E+02  0.00000000000E+00 0.  1.
         11    1    1    2    0    0 -0.32654434794E+02  0.26486509050E+02 -0.40269618297E+02  0.58219321802E+02  0.00000000000E+00 0. -1.
</event>
<event>
 7    1  0.2661133E-009  0.2004644E+03  0.7561462E-02  0.1149348E+00
         -2   -1    0    0    0  501 -0.00000000000E+00  0.00000000000E+00  0.11126665711E+03  0.11126665711E+03  0.00000000000E+00 0.  1.
          2   -1    0    0  501    0  0.00000000000E+00 -0.00000000000E+00 -0.36902873677E+03  0.36902873677E+03  0.00000000000E+00 0. -1.
         25    2    1    2    0    0  0.80040436455E+02 -0.15222047229E+03 -0.13344859054E+03  0.25106455642E+03  0.12508933416E+03 0.  0.
          5    1    3    3  502    0 -0.28290485917E+02 -0.58606056009E+02 -0.19596923503E+02  0.68092093558E+02  0.41800000000E+01 0. -1.
         -5    1    3    3    0  502  0.10833092237E+03 -0.93614416285E+02 -0.11385166704E+03  0.18297246286E+03  0.41800000000E+01 0. -1.
        -11    1    1    2    0    0 -0.66319329654E+02  0.16238471065E+03 -0.11097813856E+03  0.20756491750E+03  0.00000000000E+00 0.  1.
         11    1    1    2    0    0 -0.13721106800E+02 -0.10164238354E+02 -0.13335350557E+02  0.21665919958E+02  0.00000000000E+00 0. -1.
</event>
<event>
 7    1  0.2661133E-009  0.1545730E+03  0.7561462E-02  0.1194964E+00
         -2   -1    0    0    0  501 -0.00000000000E+00  0.00000000000E+00  0.71288130761E+03  0.71288130761E+03  0.00000000000E+00 0.  1.
          2   -1    0    0  501    0  0.00000000000E+00 -0.00000000000E+00 -0.45105096999E+02  0.45105096999E+02  0.00000000000E+00 0. -1.
         25    2    1    2    0    0 -0.28785093182E+01 -0.12606190735E+03  0.20698276362E+03  0.27274450832E+03  0.12509121504E+03 0.  0.
          5    1    3    3  502    0 -0.61241666976E+02 -0.51634789604E+02  0.71457614519E+02  0.10742605058E+03  0.41800000000E+01 0.  1.
         -5    1    3    3    0  502  0.58363157658E+02 -0.74427117750E+02  0.13552514910E+03  0.16531845773E+03  0.41800000000E+01 0.  1.
        -11    1    1    2    0    0  0.19057745579E+02  0.10935049005E+03  0.44082884019E+03  0.45458859828E+03  0.00000000000E+00 0.  1.
         11    1    1    2    0    0 -0.16179236261E+02  0.16711417304E+02  0.19964606798E+02  0.30653298010E+02  0.00000000000E+00 0. -1.
</event>
<event>
 7    1  0.2661133E-009  0.1126529E+03  0.7561462E-02  0.1255734E+00
          2   -1    0    0  501    0  0.00000000000E+00  0.00000000000E+00  0.88281992213E+03  0.88281992213E+03  0.00000000000E+00 0. -1.
         -2   -1    0    0    0  501 -0.00000000000E+00 -0.00000000000E+00 -0.18030876412E+02  0.18030876412E+02  0.00000000000E+00 0.  1.
         25    2    1    2    0    0  0.36475318375E+02  0.21839804497E+02  0.64938882811E+03  0.66269212653E+03  0.12509028167E+03 0.  0.
          5    1    3    3  502    0  0.38550871622E+02  0.68970378532E+02  0.30651604793E+03  0.31656380535E+03  0.41800000000E+01 0.  1.
         -5    1    3    3    0  502 -0.20755532475E+01 -0.47130574036E+02  0.34287278018E+03  0.34612832118E+03  0.41800000000E+01 0.  1.
        -11    1    1    2    0    0  0.20924331749E+02  0.19089194864E+02  0.89374317210E+02  0.93754965716E+02  0.00000000000E+00 0. -1.
         11    1    1    2    0    0 -0.57399650124E+02 -0.40928999360E+02  0.12602590040E+03  0.14440370630E+03  0.00000000000E+00 0.  1.
</event>
<event>
 7    1  0.2661133E-009  0.1751644E+03  0.7561462E-02  0.1172567E+00
         -1   -1    0    0    0  501 -0.00000000000E+00  0.00000000000E+00  0.50063947337E+03  0.50063947337E+03  0.00000000000E+00 0.  1.
          1   -1    0    0  501    0  0.00000000000E+00 -0.00000000000E+00 -0.72214536706E+02  0.72214536706E+02  0.00000000000E+00 0. -1.
         25    2    1    2    0    0 -0.11151053846E+03  0.83410874909E+02  0.11965026517E+03  0.22216079697E+03  0.12508900637E+03 0.  0.
          5    1    3    3  502    0 -0.13643628996E+03  0.50682378050E+02  0.88524249877E+02  0.17040416626E+03  0.41800000000E+01 0.  1.
         -5    1    3    3    0  502  0.24925751498E+02  0.32728496859E+02  0.31126015296E+02  0.51756630712E+02  0.41800000000E+01 0.  1.
        -11    1    1    2    0    0  0.79047528600E+02 -0.99551155087E+02  0.26456533121E+03  0.29351960537E+03  0.00000000000E+00 0.  1.
         11    1    1    2    0    0  0.32463009860E+02  0.16140280178E+02  0.44209340275E+02  0.57173607731E+02  0.00000000000E+00 0. -1.
</event>
<event>
 7    1  0.2661133E-009  0.9526519E+02  0.7561462E-02  0.1290580E+00
          2   -1    0    0  501    0  0.00000000000E+00  0.00000000000E+00  0.61741544913E+03  0.61741544913E+03  0.00000000000E+00 0.  1.
         -2   -1    0    0    0  501 -0.00000000000E+00 -0.00000000000E+00 -0.27032644363E+02  0.27032644363E+02  0.00000000000E+00 0. -1.
         25    2    1    2    0    0  0.62432805456E+02  0.33444639441E+02  0.31107718789E+03  0.34268540130E+03  0.12509143990E+03 0.  0.
          5    1    3    3  502    0  0.12968808569E+02 -0.29299557446E+02  0.14340339219E+02  0.35352111552E+02  0.41800000000E+01 0.  1.
         -5    1    3    3    0  502  0.49463996887E+02  0.62744196887E+02  0.29673684867E+03  0.30733328975E+03  0.41800000000E+01 0.  1.
        -11    1    1    2    0    0 -0.61487565794E+01 -0.19188783240E+02  0.41820063581E+01  0.20579256228E+02  0.00000000000E+00 0. -1.
         11    1    1    2    0    0 -0.56284048876E+02 -0.14255856201E+02  0.27512361051E+03  0.28118343596E+03  0.00000000000E+00 0.  1.
</event>
<event>
 7    1  0.2661133E-009  0.2275694E+03  0.7561462E-02  0.1128362E+00
          1   -1    0    0  501    0  0.00000000000E+00  0.00000000000E+00  0.36794106179E+03  0.36794106179E+03  0.00000000000E+00 0. -1.
         -1   -1    0    0    0  501 -0.00000000000E+00 -0.00000000000E+00 -0.20184889337E+03  0.20184889337E+03  0.00000000000E+00 0.  1.
         25    2    1    2    0    0 -0.78473957291E+02  0.19761642030E+03  0.22250217563E+03  0.33221280874E+03  0.12509084932E+03 0.  0.
          5    1    3    3  502    0 -0.68494478990E+02  0.20196085018E+03  0.23344845745E+03  0.31622038730E+03  0.41800000000E+01 0.  1.
         -5    1    3    3    0  502 -0.99794783008E+01 -0.43444298780E+01 -0.10946281813E+02  0.15992421445E+02  0.41800000000E+01 0.  1.
        -11    1    1    2    0    0  0.98249793194E+02 -0.16430860124E+03 -0.53258858550E+02  0.19871296968E+03  0.00000000000E+00 0. -1.
         11    1    1    2    0    0 -0.19775835903E+02 -0.33307819054E+02 -0.31511486694E+01  0.38864176740E+02  0.00000000000E+00 0.  1.
</event>
<event>
 7    1  0.4357761E-009  0.1045943E+03  0.7561462E-02  0.1270921E+00
          1   -1    0    0  501    0  0.00000000000E+00  0.00000000000E+00  0.46007325714E+03  0.46007325714E+03  0.00000000000E+00 0. -1.
         -1   -1    0    0    0  501 -0.00000000000E+00 -0.00000000000E+00 -0.36110861113E+02  0.36110861113E+02  0.00000000000E+00 0.  1.
         25    2    1    2    0    0 -0.24069449002E+02 -0.39593141348E+02  0.33484967797E+03  0.36044161451E+03  0.12508755098E+03 0.  0.
          5    1    3    3  502    0  0.49243654797E+02 -0.11322048986E+01  0.14776603455E+03  0.15581557301E+03  0.41800000000E+01 0. -1.
         -5    1    3    3    0  502 -0.73313103799E+02 -0.38460936449E+02  0.18708364343E+03  0.20462604150E+03  0.41800000000E+01 0. -1.
        -11    1    1    2    0    0  0.22189939320E+02 -0.12004070272E+02 -0.73959892628E+01  0.26290526189E+02  0.00000000000E+00 0.  1.
         11    1    1    2    0    0  0.18795096820E+01  0.51597211620E+02  0.96508707313E+02  0.10945197756E+03  0.00000000000E+00 0. -1.
</event>
<event>
 7    1  0.2661133E-009  0.1423762E+03  0.7561462E-02  0.1210167E+00
         -3   -1    0    0    0  501 -0.00000000000E+00  0.00000000000E+00  0.17556295199E+03  0.17556295199E+03  0.00000000000E+00 0.  1.
          3   -1    0    0  501    0  0.00000000000E+00 -0.00000000000E+00 -0.15094190334E+03  0.15094190334E+03  0.00000000000E+00 0. -1.
         25    2    1    2    0    0 -0.67469645899E+02  0.95283330101E+02  0.27335545108E+02  0.17328076610E+03  0.12509166943E+03 0.  0.
          5    1    3    3  502    0 -0.10228992544E+03  0.64115633711E+02  0.34946661544E+02  0.12574889616E+03  0.41800000000E+01 0. -1.
         -5    1    3    3    0  502  0.34820279545E+02  0.31167696391E+02 -0.76111164368E+01  0.47531869933E+02  0.41800000000E+01 0. -1.
        -11    1    1    2    0    0  0.56016641339E+02 -0.83971434775E+02  0.39230407997E+02  0.10829631054E+03  0.00000000000E+00 0.  1.
         11    1    1    2    0    0  0.11453004560E+02 -0.11311895326E+02 -0.41944904445E+02  0.44927778692E+02  0.00000000000E+00 0. -1.
</event>
<event>
 6    1  0.2661133E-009  0.8282469E+02  0.7561462E-02  0.1321221E+00
         -1   -1    0    0    0  501 -0.00000000000E+00  0.00000000000E+00  0.20344579177E+03  0.20344579177E+03  0.00000000000E+00 0.  1.
          1   -1    0    0  501    0  0.00000000000E+00 -0.00000000000E+00 -0.12539710721E+03  0.12539710721E+03  0.00000000000E+00 0. -1.
          5    1    1    2  502    0 -0.44069950839E+01 -0.36382389641E+02 -0.84130113973E+02  0.91861027421E+02  0.41800000000E+01 0. -1.
         -5    1    1    2    0  502 -0.18156520465E+02  0.52380424294E+02  0.93865998946E+01  0.56382166881E+02  0.41800000000E+01 0. -1.
        -11    1    1    2    0    0  0.46725727800E+02 -0.14649217038E+02  0.34608140335E+02  0.59963460338E+02  0.00000000000E+00 0. -1.
         11    1    1    2    0    0 -0.24162212251E+02 -0.13488176156E+01  0.11818405830E+03  0.12063624433E+03  0.00000000000E+00 0.  1.
</event>
<event>
 7    1  0.2661133E-009  0.1097022E+03  0.7561462E-02  0.1261122E+00
         -2   -1    0    0    0  501 -0.00000000000E+00  0.00000000000E+00  0.22739637625E+02  0.22739637625E+02  0.00000000000E+00 0.  1.
          2   -1    0    0  501    0  0.00000000000E+00 -0.00000000000E+00 -0.55965583020E+03  0.55965583020E+03  0.00000000000E+00 0. -1.
         25    2    1    2    0    0  0.35575102406E+01 -0.21372736683E+02 -0.37313477800E+03  0.39414110686E+03  0.12509276481E+03 0.  0.
          5    1    3    3  502    0  0.63217422966E+02 -0.21262427874E+02 -0.21084098744E+03  0.22117849758E+03  0.41800000000E+01 0.  1.
         -5    1    3    3    0  502 -0.59659912725E+02 -0.11030880960E+00 -0.16229379056E+03  0.17296260928E+03  0.41800000000E+01 0.  1.
        -11    1    1    2    0    0 -0.43776038847E+02  0.28062937512E+02 -0.94826716726E+02  0.10814793685E+03  0.00000000000E+00 0. -1.
         11    1    1    2    0    0  0.40218528607E+02 -0.66902008284E+01 -0.68954697852E+02  0.80106424126E+02  0.00000000000E+00 0.  1.
</event>
<event>
 7    1  0.2661133E-009  0.1301893E+03  0.7561462E-02  0.1227175E+00
         -1   -1    0    0    0  501 -0.00000000000E+00  0.00000000000E+00  0.60706610049E+02  0.60706610049E+02  0.00000000000E+00 0.  1.
          1   -1    0    0  501    0  0.00000000000E+00 -0.00000000000E+00 -0.41932426277E+03  0.41932426277E+03  0.00000000000E+00 0. -1.
         25    2    1    2    0    0 -0.58552656796E+02 -0.41951169682E+02 -0.54715240025E+02  0.15436856948E+03  0.12509030137E+03 0.  0.
          5    1    3    3  502    0 -0.72469521781E+02 -0.77263226362E+02 -0.37118078944E+02  0.11232391517E+03  0.41800000000E+01 0.  1.
         -5    1    3    3    0  502  0.13916864985E+02  0.35312056680E+02 -0.17597161081E+02  0.42044654311E+02  0.41800000000E+01 0.  1.
        -11    1    1    2    0    0  0.37560950546E+02 -0.25591342064E+02 -0.13865808082E+03  0.14591711747E+03  0.00000000000E+00 0. -1.
         11    1    1    2    0    0  0.20991706250E+02  0.67542511746E+02 -0.16524433187E+03  0.17974518586E+03  0.00000000000E+00 0.  1.
</event>
<event>
 7    1  0.2661133E-009  0.4216905E+03  0.7561462E-02  0.1036518E+00
          2   -1    0    0  501    0  0.00000000000E+00  0.00000000000E+00  0.13762938685E+04  0.13762938685E+04  0.00000000000E+00 0.  1.
         -2   -1    0    0    0  501 -0.00000000000E+00 -0.00000000000E+00 -0.13430258273E+03  0.13430258273E+03  0.00000000000E+00 0. -1.
         25    2    1    2    0    0 -0.41296741573E+03  0.28383116493E+02  0.55537149125E+03  0.70386667375E+03  0.12507243248E+03 0.  0.
          5    1    3    3  502    0 -0.11828372319E+03  0.60290544741E+02  0.21270396624E+03  0.25077168622E+03  0.41800000000E+01 0.  1.
         -5    1    3    3    0  502 -0.29468369254E+03 -0.31907428248E+02  0.34266752502E+03  0.45309498753E+03  0.41800000000E+01 0.  1.
        -11    1    1    2    0    0  0.11471959117E+03 -0.13296579205E+02  0.12194645838E+03  0.16795333378E+03  0.00000000000E+00 0. -1.
         11    1    1    2    0    0  0.29824782457E+03 -0.15086537288E+02  0.56467333612E+03  0.63877644367E+03  0.00000000000E+00 0.  1.
</event>
<event>
 7    1  0.2661133E-009  0.1789641E+03  0.7561462E-02  0.1168809E+00
          1   -1    0    0  501    0  0.00000000000E+00  0.00000000000E+00  0.48034531732E+03  0.48034531732E+03  0.00000000000E+00 0. -1.
         -1   -1    0    0    0  501 -0.00000000000E+00 -0.00000000000E+00 -0.73387323759E+02  0.73387323759E+02  0.00000000000E+00 0.  1.
         25    2    1    2    0    0  0.37997349921E+02  0.14275447451E+03  0.15273637332E+03  0.24657683180E+03  0.12509634548E+03 0.  0.
          5    1    3    3  502    0  0.77783096320E+02  0.11358386303E+03  0.13788250076E+03  0.19488601907E+03  0.41800000000E+01 0. -1.
         -5    1    3    3    0  502 -0.39785746399E+02  0.29170611485E+02  0.14853872559E+02  0.51690812733E+02  0.41800000000E+01 0. -1.
        -11    1    1    2    0    0  0.19983033920E+02 -0.90359409094E+02  0.11622078200E+03  0.14856451334E+03  0.00000000000E+00 0.  1.
         11    1    1    2    0    0 -0.57980383842E+02 -0.52395065417E+02  0.13800083824E+03  0.15859129593E+03  0.00000000000E+00 0. -1.
</event>
<event>
 7    1  0.2661133E-009  0.7988138E+02  0.7561462E-02  0.1329388E+00
         -2   -1    0    0    0  501 -0.00000000000E+00  0.00000000000E+00  0.14619508371E+03  0.14619508371E+03  0.00000000000E+00 0.  1.
          2   -1    0    0  501    0  0.00000000000E+00 -0.00000000000E+00 -0.84243297520E+02  0.84243297520E+02  0.00000000000E+00 0. -1.
         25    2    1    2    0    0  0.14893562554E+02  0.17841369910E+02  0.51036155852E+02  0.13708958077E+03  0.12509488905E+03 0.  0.
          5    1    3    3  502    0  0.45134585699E+02  0.48567825312E+02 -0.45860450800E+01  0.66591806487E+02  0.41800000000E+01 0.  1.
         -5    1    3    3    0  502 -0.30241023145E+02 -0.30726455402E+02  0.55622200932E+02  0.70497774284E+02  0.41800000000E+01 0.  1.
        -11    1    1    2    0    0  0.41352394052E+01 -0.28096195149E+02  0.44867468377E+02  0.53099775003E+02  0.00000000000E+00 0.  1.
         11    1    1    2    0    0 -0.19028801959E+02  0.10254825239E+02 -0.33951838034E+02  0.40249025462E+02  0.00000000000E+00 0. -1.
</event>
<event>
 7    1  0.2661133E-009  0.1138389E+03  0.7561462E-02  0.1253622E+00
         -2   -1    0    0    0  501 -0.00000000000E+00  0.00000000000E+00  0.14269734816E+02  0.14269734816E+02  0.00000000000E+00 0.  1.
          2   -1    0    0  501    0  0.00000000000E+00 -0.00000000000E+00 -0.11649092922E+04  0.11649092922E+04  0.00000000000E+00 0. -1.
         25    2    1    2    0    0 -0.38502125964E+02 -0.13571283516E+02 -0.89499248401E+03  0.90461357592E+03  0.12509029483E+03 0.  0.
          5    1    3    3  502    0 -0.73983151958E+02  0.25632966659E+02 -0.55363049342E+03  0.55915539110E+03  0.41800000000E+01 0.  1.
         -5    1    3    3    0  502  0.35481025994E+02 -0.39204250175E+02 -0.34136199060E+03  0.34545818482E+03  0.41800000000E+01 0.  1.
        -11    1    1    2    0    0  0.39621796223E+02 -0.31823083909E+02 -0.96452641995E+02  0.10902159214E+03  0.00000000000E+00 0.  1.
         11    1    1    2    0    0 -0.11196702595E+01  0.45394367425E+02 -0.15919443138E+03  0.16554385895E+03  0.00000000000E+00 0. -1.
</event>
<event>
 7    1  0.2661133E-009  0.1913544E+03  0.7561462E-02  0.1157245E+00
          1   -1    0    0  501    0  0.00000000000E+00  0.00000000000E+00  0.94147367504E+03  0.94147367504E+03  0.00000000000E+00 0. -1.
         -1   -1    0    0    0  501 -0.00000000000E+00 -0.00000000000E+00 -0.49717120546E+02  0.49717120546E+02  0.00000000000E+00 0.  1.
         25    2    1    2    0    0  0.83836669699E+02  0.16424675777E+03  0.53453867635E+03  0.57912414629E+03  0.12509035005E+03 0.  0.
          5    1    3    3  502    0  0.40701949361E+02  0.13568776669E+03  0.22972771053E+03  0.26992612341E+03  0.41800000000E+01 0.  1.
         -5    1    3    3    0  502  0.43134720338E+02  0.28558991081E+02  0.30481096582E+03  0.30919802288E+03  0.41800000000E+01 0.  1.
        -11    1    1    2    0    0 -0.67103243655E+02 -0.86066081883E+02  0.12228446133E+03  0.16390151080E+03  0.00000000000E+00 0.  1.
         11    1    1    2    0    0 -0.16733426044E+02 -0.78180675891E+02  0.23493341682E+03  0.24816513850E+03  0.00000000000E+00 0. -1.
</event>
<event>
 6    1  0.2824614E-009  0.2032791E+03  0.7561462E-02  0.1147002E+00
          1   -1    0    0  501    0  0.00000000000E+00  0.00000000000E+00  0.10703212225E+04  0.10703212225E+04  0.00000000000E+00 0.  1.
         -1   -1    0    0    0  501 -0.00000000000E+00 -0.00000000000E+00 -0.41350601662E+02  0.41350601662E+02  0.00000000000E+00 0. -1.
          5    1    1    2  502    0  0.16270459130E+03  0.42188778659E+02  0.50545592825E+03  0.53268738006E+03  0.41800000000E+01 0. -1.
         -5    1    1    2    0  502  0.14220689783E+02 -0.45159777918E+02  0.11240274651E+03  0.12203886013E+03  0.41800000000E+01 0. -1.
        -11    1    1    2    0    0 -0.90631890810E+02  0.37316653729E+02  0.27686581845E+03  0.29370283231E+03  0.00000000000E+00 0.  1.
         11    1    1    2    0    0 -0.86293390270E+02 -0.34345654470E+02  0.13424612758E+03  0.16324275162E+03  0.00000000000E+00 0. -1.
</event>
<event>
 7    1  0.2661133E-009  0.1067585E+03  0.7561462E-02  0.1266693E+00
         -1   -1    0    0    0  501 -0.00000000000E+00  0.00000000000E+00  0.11543166343E+03  0.11543166343E+03  0.00000000000E+00 0.  1.
          1   -1    0    0  501    0  0.00000000000E+00 -0.00000000000E+00 -0.20794534681E+03  0.20794534681E+03  0.00000000000E+00 0. -1.
         25    2    1    2    0    0 -0.14652708390E+02  0.51076216944E+02  0.51763930473E+02  0.14543269983E+03  0.12509070262E+03 0.  0.
          5    1    3    3  502    0  0.31131574010E+02  0.63024509266E+02  0.65304445951E+02  0.96038568968E+02  0.41800000000E+01 0.  1.
         -5    1    3    3    0  502 -0.45784282400E+02 -0.11948292322E+02 -0.13540515478E+02  0.49394130863E+02  0.41800000000E+01 0.  1.
        -11    1    1    2    0    0 -0.80862978494E+01 -0.67223280382E+02 -0.13008727753E+03  0.14665284660E+03  0.00000000000E+00 0. -1.
         11    1    1    2    0    0  0.22739006240E+02  0.16147063438E+02 -0.14190336320E+02  0.31291463809E+02  0.00000000000E+00 0.  1.
</event>
<event>
 7    1  0.2661133E-009  0.1418735E+03  0.7561462E-02  0.1210830E+00
         -2   -1    0    0    0  501 -0.00000000000E+00  0.00000000000E+00  0.25643976312E+02  0.25643976312E+02  0.00000000000E+00 0.  1.
          2   -1    0    0  501    0  0.00000000000E+00 -0.00000000000E+00 -0.89131266617E+03  0.89131266617E+03  0.00000000000E+00 0. -1.
         25    2    1    2    0    0 -0.81788116092E+02 -0.46131384565E+02 -0.32674107676E+03  0.36224874888E+03  0.12508806594E+03 0.  0.
          5    1    3    3  502    0 -0.88870055154E+02  0.15501373934E+02 -0.23167120850E+03  0.24865076019E+03  0.41800000000E+01 0. -1.
         -5    1    3    3    0  502  0.70819390621E+01 -0.61632758498E+02 -0.95069868263E+02  0.11359798868E+03  0.41800000000E+01 0. -1.
        -11    1    1    2    0    0  0.98618611627E+02  0.54269387598E+02 -0.45391405870E+03  0.46766309420E+03  0.00000000000E+00 0.  1.
         11    1    1    2    0    0 -0.16830495535E+02 -0.81380030335E+01 -0.85013554397E+02  0.87044799411E+02  0.00000000000E+00 0. -1.
</event>
<event>
 7    1  0.2661133E-009  0.1058352E+03  0.7561462E-02  0.1268483E+00
         -1   -1    0    0    0  501 -0.00000000000E+00  0.00000000000E+00  0.32430608711E+03  0.32430608711E+03  0.00000000000E+00 0.  1.
          1   -1    0    0  501    0  0.00000000000E+00 -0.00000000000E+00 -0.12553237517E+03  0.12553237517E+03  0.00000000000E+00 0. -1.
         25    2    1    2    0    0 -0.41502779359E+02 -0.36097056682E+02  0.28339171395E+03  0.31461603612E+03  0.12508760310E+03 0.  0.
          5    1    3    3  502    0  0.35472956149E+02  0.55481842673E+01  0.15511728836E+03  0.15927321970E+03  0.41800000000E+01 0. -1.
         -5    1    3    3    0  502 -0.76975735508E+02 -0.41645240950E+02  0.12827442559E+03  0.15534281642E+03  0.41800000000E+01 0. -1.
        -11    1    1    2    0    0  0.51124456591E+02  0.49661868802E+02 -0.28617710148E+02  0.76804847560E+02  0.00000000000E+00 0.  1.
         11    1    1    2    0    0 -0.96216772315E+01 -0.13564812120E+02 -0.56000291860E+02  0.58417578596E+02  0.00000000000E+00 0. -1.
</event>
<event>
 7    1  0.2661133E-009  0.9780717E+02  0.7561462E-02  0.1284976E+00
         -1   -1    0    0    0  501 -0.00000000000E+00  0.00000000000E+00  0.42396843015E+02  0.42396843015E+02  0.00000000000E+00 0.  1.
          1   -1    0    0  501    0  0.00000000000E+00 -0.00000000000E+00 -0.32410661207E+03  0.32410661207E+03  0.00000000000E+00 0. -1.
         25    2    1    2    0    0 -0.10084569125E+02  0.16824426788E+01 -0.22899578830E+03  0.26113415347E+03  0.12508975140E+03 0.  0.
          5    1    3    3  502    0 -0.15929104264E+02 -0.60573551195E+02 -0.11038164555E+03  0.12698217017E+03  0.41800000000E+01 0. -1.
         -5    1    3    3    0  502  0.58445351388E+01  0.62255993874E+02 -0.11861414275E+03  0.13415198330E+03  0.41800000000E+01 0. -1.
        -11    1    1    2    0    0 -0.79513633274E+01  0.31455282503E+02 -0.58796408951E+02  0.67154126319E+02  0.00000000000E+00 0. -1.
         11    1    1    2    0    0  0.18035932453E+02 -0.33137725181E+02  0.60824281964E+01  0.38215175289E+02  0.00000000000E+00 0.  1.
</event>
<event>
 7    1  0.2661133E-009  0.1286366E+03  0.7561462E-02  0.1229493E+00
          1   -1    0    0  501    0  0.00000000000E+00  0.00000000000E+00  0.16872669561E+03  0.16872669561E+03  0.00000000000E+00 0. -1.
         -1   -1    0    0    0  501 -0.00000000000E+00 -0.00000000000E+00 -0.12769830883E+03  0.12769830883E+03  0.00000000000E+00 0.  1.
         25    2    1    2    0    0 -0.78579363518E+02  0.59366807894E+02  0.10063697253E+02  0.15951417012E+03  0.12507740890E+03 0.  0.
          5    1    3    3  502    0 -0.18047378698E+02 -0.21338159018E+02  0.44602574027E+02  0.52800444297E+02  0.41800000000E+01 0. -1.
         -5    1    3    3    0  502 -0.60531984821E+02  0.80704966912E+02 -0.34538876774E+02  0.10671372582E+03  0.41800000000E+01 0. -1.
        -11    1    1    2    0    0  0.20289699480E+02 -0.66309451573E+02 -0.24077869277E+01  0.69385969121E+02  0.00000000000E+00 0.  1.
         11    1    1    2    0    0  0.58289664038E+02  0.69426436793E+01  0.33372476456E+02  0.67524865196E+02  0.00000000000E+00 0. -1.
</event>
<event>
 7    1  0.3504855E-009  0.1226126E+03  0.7561462E-02  0.1238848E+00
          2   -1    0    0  501    0  0.00000000000E+00  0.00000000000E+00  0.91719121374E+03  0.91719121374E+03  0.00000000000E+00 0. -1.
         -2   -1    0    0    0  501 -0.00000000000E+00 -0.00000000000E+00 -0.24295385867E+02  0.24295385867E+02  0.00000000000E+00 0.  1.
         25    2    1    2    0    0  0.25516419373E+02  0.98205463745E+02  0.52011419063E+03  0.54448272399E+03  0.12508902696E+03 0.  0.
          5    1    3    3  502    0  0.56352910600E+02  0.20700523495E+02  0.34811384674E+03  0.35327734841E+03  0.41800000000E+01 0.  1.
         -5    1    3    3    0  502 -0.30836491227E+02  0.77504940250E+02  0.17200034389E+03  0.19120537558E+03  0.41800000000E+01 0.  1.
        -11    1    1    2    0    0 -0.14595644230E+02 -0.62865663191E+02  0.34436350827E+03  0.35035888781E+03  0.00000000000E+00 0. -1.
         11    1    1    2    0    0 -0.10920775143E+02 -0.35339800554E+02  0.28418128974E+02  0.46644987805E+02  0.00000000000E+00 0.  1.
</event>
<event>
 7    1  0.2661133E-009  0.1677621E+03  0.7561462E-02  0.1180202E+00
          2   -1    0    0  501    0  0.00000000000E+00  0.00000000000E+00  0.19791340867E+03  0.19791340867E+03  0.00000000000E+00 0. -1.
         -2   -1    0    0    0  501 -0.00000000000E+00 -0.00000000000E+00 -0.21316315105E+03  0.21316315105E+03  0.00000000000E+00 0.  1.
         25    2    1    2    0    0  0.81468709496E+02 -0.11758702136E+03 -0.10670623587E+03  0.21793908780E+03  0.12508943600E+03 0.  0.
          5    1    3    3  502    0  0.47422251314E+02  0.40365247077E+01  0.65770264911E+01  0.48227514231E+02  0.41800000000E+01 0.  1.
         -5    1    3    3    0  502  0.34046458182E+02 -0.12162354607E+03 -0.11328326236E+03  0.16971157357E+03  0.41800000000E+01 0.  1.
        -11    1    1    2    0    0 -0.75462337855E+02  0.43607566365E+02  0.18572660981E+02  0.89113006990E+02  0.00000000000E+00 0.  1.
         11    1    1    2    0    0 -0.60063716411E+01  0.73979454997E+02  0.72883832515E+02  0.10402446493E+03  0.00000000000E+00 0. -1.
</event>
<event>
 7    1  0.2661133E-009  0.1008561E+03  0.7561462E-02  0.1278506E+00
         -1   -1    0    0    0  501 -0.00000000000E+00  0.00000000000E+00  0.47005317204E+02  0.47005317204E+02  0.00000000000E+00 0.  1.
          1   -1    0    0  501    0  0.00000000000E+00 -0.00000000000E+00 -0.29787161670E+03  0.29787161670E+03  0.00000000000E+00 0. -1.
         25    2    1    2    0    0  0.27562842459E+02  0.18627284259E+02 -0.18491196321E+03  0.22571373624E+03  0.12509024976E+03 0.  0.
          5    1    3    3  502    0  0.78732767583E+01  0.62896939440E+02 -0.15763886495E+03  0.16995734059E+03  0.41800000000E+01 0. -1.
         -5    1    3    3    0  502  0.19689565700E+02 -0.44269655182E+02 -0.27273098265E+02  0.55756395654E+02  0.41800000000E+01 0. -1.
        -11    1    1    2    0    0  0.29495874393E+02  0.12079209630E+00  0.61770889256E+00  0.29502589059E+02  0.00000000000E+00 0.  1.
         11    1    1    2    0    0 -0.57058716851E+02 -0.18748076355E+02 -0.66572045171E+02  0.89660608597E+02  0.00000000000E+00 0. -1.
</event>
<event>
 7    1  0.2661133E-009  0.9560502E+02  0.7561462E-02  0.1289819E+00
          1   -1    0    0  501    0  0.00000000000E+00  0.00000000000E+00  0.14630582005E+03  0.14630582005E+03  0.00000000000E+00 0. -1.
         -1   -1    0    0    0  501 -0.00000000000E+00 -0.00000000000E+00 -0.20481998248E+03  0.20481998248E+03  0.00000000000E+00 0.  1.
         25    2    1    2    0    0  0.48303725598E+02 -0.15447696329E+02  0.94266439210E+02  0.16463777266E+03  0.12509018106E+03 0.  0.
          5    1    3    3  502    0  0.24929483730E+02 -0.67555115651E+02  0.75406230304E+02  0.10434914843E+03  0.41800000000E+01 0. -1.
         -5    1    3    3    0  502  0.23374241868E+02  0.52107419323E+02  0.18860208906E+02  0.60288624228E+02  0.41800000000E+01 0. -1.
        -11    1    1    2    0    0 -0.49162185263E+02  0.29070786303E+01 -0.16300672962E+03  0.17028377923E+03  0.00000000000E+00 0.  1.
         11    1    1    2    0    0  0.85845966455E+00  0.12540617698E+02  0.10226127986E+02  0.16204250641E+02  0.00000000000E+00 0. -1.
</event>
<event>
 7    1  0.2661133E-009  0.1302012E+03  0.7561462E-02  0.1227157E+00
          2   -1    0    0  501    0  0.00000000000E+00  0.00000000000E+00  0.46556665987E+03  0.46556665987E+03  0.00000000000E+00 0. -1.
         -2   -1    0    0    0  501 -0.00000000000E+00 -0.00000000000E+00 -0.49496843881E+02  0.49496843881E+02  0.00000000000E+00 0.  1.
         25    2    1    2    0    0  0.60604496965E+01  0.10121033367E+03  0.17468784482E+03  0.23757922195E+03  0.12509109833E+03 0.  0.
          5    1    3    3  502    0  0.24081963205E+02 -0.22373808172E+02  0.56953159180E+02  0.65891296728E+02  0.41800000000E+01 0. -1.
         -5    1    3    3    0  502 -0.18021513509E+02  0.12358414184E+03  0.11773468564E+03  0.17168792523E+03  0.41800000000E+01 0. -1.
        -11    1    1    2    0    0  0.41661243707E+01 -0.43193399088E+02  0.18893506294E+02  0.47328542098E+02  0.00000000000E+00 0.  1.
         11    1    1    2    0    0 -0.10226574067E+02 -0.58016934585E+02  0.22248846488E+03  0.23015573970E+03  0.00000000000E+00 0. -1.
</event>
<event>
 7    1  0.2661133E-009  0.1140106E+03  0.7561462E-02  0.1253318E+00
          2   -1    0    0  501    0  0.00000000000E+00  0.00000000000E+00  0.13739864481E+04  0.13739864481E+04  0.00000000000E+00 0. -1.
         -2   -1    0    0    0  501 -0.00000000000E+00 -0.00000000000E+00 -0.10083577671E+02  0.10083577671E+02  0.00000000000E+00 0.  1.
         25    2    1    2    0    0 -0.30457074547E+02 -0.20051540337E+02  0.92187744088E+03  0.93103912070E+03  0.12508449383E+03 0.  0.
          5    1    3    3  502    0 -0.28951100711E+02 -0.71813067274E+02  0.50049029617E+03  0.50646154032E+03  0.41800000000E+01 0. -1.
         -5    1    3    3    0  502 -0.15059738367E+01  0.51761526937E+02  0.42138714471E+03  0.42457758038E+03  0.41800000000E+01 0. -1.
        -11    1    1    2    0    0  0.59121560558E+02 -0.64713182121E+01  0.29285424574E+03  0.29883247168E+03  0.00000000000E+00 0.  1.
         11    1    1    2    0    0 -0.28664486010E+02  0.26522858549E+02  0.14917118385E+03  0.15419843344E+03  0.00000000000E+00 0. -1.
</event>
<event>
 7    1  0.2661133E-009  0.1295985E+03  0.7561462E-02  0.1228053E+00
          1   -1    0    0  501    0  0.00000000000E+00  0.00000000000E+00  0.49281751355E+03  0.49281751355E+03  0.00000000000E+00 0.  1.
         -1   -1    0    0    0  501 -0.00000000000E+00 -0.00000000000E+00 -0.54091565553E+02  0.54091565553E+02  0.00000000000E+00 0. -1.
         25    2    1    2    0    0 -0.97632473974E+02 -0.64697010812E+01  0.11666533223E+03  0.19705910519E+03  0.12509010427E+03 0.  0.
          5    1    3    3  502    0 -0.78021372963E+02  0.27899654742E+02  0.13074844721E+03  0.15484945664E+03  0.41800000000E+01 0.  1.
         -5    1    3    3    0  502 -0.19611101011E+02 -0.34369355823E+02 -0.14083114980E+02  0.42209648543E+02  0.41800000000E+01 0.  1.
        -11    1    1    2    0    0 -0.47185287137E+01  0.30864463809E+02  0.81999810615E+02  0.87743082806E+02  0.00000000000E+00 0.  1.
         11    1    1    2    0    0  0.10235100269E+03 -0.24394762727E+02  0.24006080515E+03  0.26210689111E+03  0.00000000000E+00 0. -1.
</event>
<event>
 7    1  0.2661133E-009  0.1307669E+03  0.7561462E-02  0.1226322E+00
          2   -1    0    0  501    0  0.00000000000E+00  0.00000000000E+00  0.60171775139E+03  0.60171775139E+03  0.00000000000E+00 0. -1.
         -2   -1    0    0    0  501 -0.00000000000E+00 -0.00000000000E+00 -0.36144369644E+02  0.36144369644E+02  0.00000000000E+00 0.  1.
         25    2    1    2    0    0  0.15872919819E+02  0.93142077143E+02  0.38413957037E+03  0.41489508284E+03  0.12508926463E+03 0.  0.
          5    1    3    3  502    0 -0.42459521960E+02  0.42475768550E+01  0.17583095649E+03  0.18098301184E+03  0.41800000000E+01 0.  1.
         -5    1    3    3    0  502  0.58332441779E+02  0.88894500288E+02  0.20830861388E+03  0.23391207101E+03  0.41800000000E+01 0.  1.
        -11    1    1    2    0    0 -0.30275570802E+02 -0.16924359689E+02  0.12137601268E+02  0.36747319669E+02  0.00000000000E+00 0.  1.
         11    1    1    2    0    0  0.14402650983E+02 -0.76217717453E+02  0.16929621011E+03  0.18621971852E+03  0.00000000000E+00 0. -1.
</event>
<event>
 7    1  0.2661133E-009  0.2658195E+03  0.7561462E-02  0.1103696E+00
         -2   -1    0    0    0  501 -0.00000000000E+00  0.00000000000E+00  0.59518321395E+03  0.59518321395E+03  0.00000000000E+00 0.  1.
          2   -1    0    0  501    0  0.00000000000E+00 -0.00000000000E+00 -0.38256141013E+03  0.38256141013E+03  0.00000000000E+00 0. -1.
         25    2    1    2    0    0  0.18509779926E+03  0.17401970589E+03 -0.29112230723E+03  0.40613253624E+03  0.12508951154E+03 0.  0.
          5    1    3    3  502    0  0.78645517233E+02  0.66459143514E+01 -0.48554089345E+02  0.92759137289E+02  0.41800000000E+01 0. -1.
         -5    1    3    3    0  502  0.10645228203E+03  0.16737379153E+03 -0.24256821789E+03  0.31337339895E+03  0.41800000000E+01 0. -1.
        -11    1    1    2    0    0 -0.12044729738E+03 -0.10757086629E+03  0.40578068975E+03  0.43673448558E+03  0.00000000000E+00 0.  1.
         11    1    1    2    0    0 -0.64650501879E+02 -0.66448839594E+02  0.97963421308E+02  0.13487760226E+03  0.00000000000E+00 0. -1.
</event>
<event>
 7    1  0.2661133E-009  0.1999061E+03  0.7561462E-02  0.1149818E+00
         -2   -1    0    0    0  501 -0.00000000000E+00  0.00000000000E+00  0.14340496419E+03  0.14340496419E+03  0.00000000000E+00 0.  1.
          2   -1    0    0  501    0  0.00000000000E+00 -0.00000000000E+00 -0.33081129984E+03  0.33081129984E+03  0.00000000000E+00 0. -1.
         25    2    1    2    0    0  0.15867076559E+03  0.66807809064E+02 -0.18095040052E+03  0.27934845126E+03  0.12511120879E+03 0.  0.
          5    1    3    3  502    0  0.20071538955E+01  0.55499589583E+02 -0.47644602239E+02  0.73291975230E+02  0.41800000000E+01 0. -1.
         -5    1    3    3    0  502  0.15666361169E+03  0.11308219481E+02 -0.13330579829E+03  0.20605647603E+03  0.41800000000E+01 0. -1.
        -11    1    1    2    0    0 -0.62700800989E+02  0.10731513451E+02 -0.28206175918E+02  0.69585517067E+02  0.00000000000E+00 0. -1.
         11    1    1    2    0    0 -0.95969964598E+02 -0.77539322516E+02  0.21750240792E+02  0.12528229570E+03  0.00000000000E+00 0.  1.
</event>
<event>
 7    1  0.2661133E-009  0.9465446E+02  0.7561462E-02  0.1291956E+00
          1   -1    0    0  501    0  0.00000000000E+00  0.00000000000E+00  0.71177477129E+03  0.71177477129E+03  0.00000000000E+00 0. -1.
         -1   -1    0    0    0  501 -0.00000000000E+00 -0.00000000000E+00 -0.24570685465E+02  0.24570685465E+02  0.00000000000E+00 0.  1.
         25    2    1    2    0    0 -0.73220217679E+00 -0.74937639541E+02  0.34723381735E+03  0.37662540834E+03  0.12513667871E+03 0.  0.
          5    1    3    3  502    0 -0.38719582734E+01  0.94464175423E+01  0.23914171788E+03  0.23939603275E+03  0.41800000000E+01 0. -1.
         -5    1    3    3    0  502  0.31397560966E+01 -0.84384057084E+02  0.10809209946E+03  0.13722937559E+03  0.41800000000E+01 0. -1.
        -11    1    1    2    0    0  0.26257090358E+02  0.19520106448E+02  0.32004358017E+02  0.45768420138E+02  0.00000000000E+00 0.  1.
         11    1    1    2    0    0 -0.25524888181E+02  0.55417533093E+02  0.30796591046E+03  0.31395162828E+03  0.00000000000E+00 0. -1.
</event>
<event>
 7    1  0.2661133E-009  0.9813044E+02  0.7561462E-02  0.1284277E+00
         -2   -1    0    0    0  501 -0.00000000000E+00  0.00000000000E+00  0.97139377942E+02  0.97139377942E+02  0.00000000000E+00 0.  1.
          2   -1    0    0  501    0  0.00000000000E+00 -0.00000000000E+00 -0.15585018974E+03  0.15585018974E+03  0.00000000000E+00 0. -1.
         25    2    1    2    0    0  0.32810312944E+01  0.10108682644E+02  0.31100714785E+02  0.12933462681E+03  0.12508893076E+03 0.  0.
          5    1    3    3  502    0  0.48087955452E+02 -0.36620264476E+02  0.12765555763E+02  0.61918713196E+02  0.41800000000E+01 0.  1.
         -5    1    3    3    0  502 -0.44806924158E+02  0.46728947121E+02  0.18335159022E+02  0.67415913610E+02  0.41800000000E+01 0.  1.
        -11    1    1    2    0    0 -0.25838327336E+02 -0.30789667766E+02 -0.83120763000E+02  0.92329215541E+02  0.00000000000E+00 0. -1.
         11    1    1    2    0    0  0.22557296042E+02  0.20680985122E+02 -0.66907635822E+01  0.31325725333E+02  0.00000000000E+00 0.  1.
</event>
<event>
 7    1  0.2661133E-009  0.1079989E+03  0.7561462E-02  0.1264321E+00
          3   -1    0    0  501    0  0.00000000000E+00  0.00000000000E+00  0.25288506020E+03  0.25288506020E+03  0.00000000000E+00 0. -1.
         -3   -1    0    0    0  501 -0.00000000000E+00 -0.00000000000E+00 -0.85540527066E+02  0.85540527066E+02  0.00000000000E+00 0.  1.
         25    2    1    2    0    0  0.47990850564E+02 -0.83209481927E+02  0.11957132506E+03  0.19791737896E+03  0.12508815890E+03 0.  0.
          5    1    3    3  502    0 -0.12840550571E+02 -0.41998415662E+02  0.11614617147E+03  0.12424231246E+03  0.41800000000E+01 0.  1.
         -5    1    3    3    0  502  0.60831401135E+02 -0.41211066265E+02  0.34251535847E+01  0.73675066501E+02  0.41800000000E+01 0.  1.
        -11    1    1    2    0    0 -0.11737947579E+02  0.40991840466E+02 -0.24590785784E+02  0.49222120470E+02  0.00000000000E+00 0.  1.
         11    1    1    2    0    0 -0.36252902985E+02  0.42217641461E+02  0.72363993858E+02  0.91286087836E+02  0.00000000000E+00 0. -1.
</event>
<event>
 7    1  0.2661133E-009  0.1410927E+03  0.7561462E-02  0.1211866E+00
         -1   -1    0    0    0  501 -0.00000000000E+00  0.00000000000E+00  0.30169032840E+03  0.30169032840E+03  0.00000000000E+00 0.  1.
          1   -1    0    0  501    0  0.00000000000E+00 -0.00000000000E+00 -0.70644971106E+02  0.70644971106E+02  0.00000000000E+00 0. -1.
         25    2    1    2    0    0  0.94517069765E+02  0.20109833944E+02  0.14120562583E+03  0.21195465216E+03  0.12509142220E+03 0.  0.
          5    1    3    3  502    0  0.26396824411E+02  0.65677802934E+02  0.39147422160E+02  0.80996044342E+02  0.41800000000E+01 0. -1.
         -5    1    3    3    0  502  0.68120245353E+02 -0.45567968991E+02  0.10205820367E+03  0.13095860782E+03  0.41800000000E+01 0. -1.
        -11    1    1    2    0    0 -0.21856059667E+02  0.32741613422E+02  0.45564491420E+02  0.60214811068E+02  0.00000000000E+00 0.  1.
         11    1    1    2    0    0 -0.72661010098E+02 -0.52851447365E+02  0.44275240048E+02  0.10016583628E+03  0.00000000000E+00 0. -1.
</event>
<event>
 7    1  0.2661133E-009  0.1762039E+03  0.7561462E-02  0.1171528E+00
         -2   -1    0    0    0  501 -0.00000000000E+00  0.00000000000E+00  0.60503036507E+02  0.60503036507E+02  0.00000000000E+00 0.  1.
          2   -1    0    0  501    0  0.00000000000E+00 -0.00000000000E+00 -0.10065623831E+04  0.10065623831E+04  0.00000000000E+00 0. -1.
         25    2    1    2    0    0 -0.12215946356E+03 -0.86802159875E+02 -0.83924498031E+03  0.86164801131E+03  0.12509040303E+03 0.  0.
          5    1    3    3  502    0  0.12282484088E+02 -0.34503565408E+02 -0.33911087026E+03  0.34110850205E+03  0.41800000000E+01 0.  1.
         -5    1    3    3    0  502 -0.13444194765E+03 -0.52298594467E+02 -0.50013411005E+03  0.52053950926E+03  0.41800000000E+01 0.  1.
        -11    1    1    2    0    0  0.11310702708E+03  0.34647631253E+02 -0.93632445765E+02  0.15086647350E+03  0.00000000000E+00 0. -1.
         11    1    1    2    0    0  0.90524364794E+01  0.52154528622E+02 -0.13181920563E+02  0.54550934838E+02  0.00000000000E+00 0.  1.
</event>
<event>
 7    1  0.2661133E-009  0.7759070E+02  0.7561462E-02  0.1336031E+00
         -1   -1    0    0    0  501 -0.00000000000E+00  0.00000000000E+00  0.27472769223E+02  0.27472769223E+02  0.00000000000E+00 0.  1.
          1   -1    0    0  501    0  0.00000000000E+00 -0.00000000000E+00 -0.46685832288E+03  0.46685832288E+03  0.00000000000E+00 0. -1.
         25    2    1    2    0    0  0.29734963521E+02  0.39481370698E+01 -0.26339292542E+03  0.29311707305E+03  0.12506809949E+03 0.  0.
          5    1    3    3  502    0  0.46179895701E+02 -0.98972836205E+01 -0.24774274382E+02  0.53495570482E+02  0.41800000000E+01 0.  1.
         -5    1    3    3    0  502 -0.16444932180E+02  0.13845420690E+02 -0.23861865104E+03  0.23962150257E+03  0.41800000000E+01 0.  1.
        -11    1    1    2    0    0 -0.69672682000E+01 -0.41430877028E+02 -0.13424300505E+03  0.14066358734E+03  0.00000000000E+00 0. -1.
         11    1    1    2    0    0 -0.22767695321E+02  0.37482739958E+02 -0.41749623185E+02  0.60550431717E+02  0.00000000000E+00 0.  1.
</event>
<event>
 7    1  0.2661133E-009  0.1436438E+03  0.7561462E-02  0.1208508E+00
         -2   -1    0    0    0  501 -0.00000000000E+00  0.00000000000E+00  0.65479052847E+03  0.65479052847E+03  0.00000000000E+00 0.  1.
          2   -1    0    0  501    0  0.00000000000E+00 -0.00000000000E+00 -0.63064522114E+02  0.63064522114E+02  0.00000000000E+00 0. -1.
         25    2    1    2    0    0  0.12688434264E+03 -0.37192724978E+01  0.10572545679E+03  0.20721548827E+03  0.12508763716E+03 0.  0.
          5    1    3    3  502    0  0.66408745906E+02  0.26843235474E+02  0.11812036992E+03  0.13820482992E+03  0.41800000000E+01 0. -1.
         -5    1    3    3    0  502  0.60475596731E+02 -0.30562507971E+02 -0.12394913137E+02  0.69010658344E+02  0.41800000000E+01 0. -1.
        -11    1    1    2    0    0  0.10207749616E+02  0.26751548291E+01  0.76579954117E+01  0.13038385610E+02  0.00000000000E+00 0. -1.
         11    1    1    2    0    0 -0.13709209225E+03  0.10441176688E+01  0.47834255416E+03  0.49760117670E+03  0.00000000000E+00 0.  1.
</event>
<event>
 7    1  0.2661133E-009  0.1262648E+03  0.7561462E-02  0.1233106E+00
         -1   -1    0    0    0  501 -0.00000000000E+00  0.00000000000E+00  0.32702298424E+03  0.32702298424E+03  0.00000000000E+00 0.  1.
          1   -1    0    0  501    0  0.00000000000E+00 -0.00000000000E+00 -0.52701586098E+02  0.52701586098E+02  0.00000000000E+00 0. -1.
         25    2    1    2    0    0 -0.65187095001E+02 -0.33591284296E+02  0.13118169944E+03  0.19553382235E+03  0.12508839147E+03 0.  0.
          5    1    3    3  502    0 -0.42436447506E+02  0.41221532542E+02  0.26900007177E+02  0.65124109270E+02  0.41800000000E+01 0. -1.
         -5    1    3    3    0  502 -0.22750647495E+02 -0.74812816838E+02  0.10428169227E+03  0.13040971308E+03  0.41800000000E+01 0. -1.
        -11    1    1    2    0    0  0.41695287833E+02 -0.27171718641E+02  0.50159354353E+02  0.70659466107E+02  0.00000000000E+00 0. -1.
         11    1    1    2    0    0  0.23491807168E+02  0.60763002937E+02  0.92980344342E+02  0.11353128187E+03  0.00000000000E+00 0.  1.
</event>
<event>
 7    1  0.2661133E-009  0.1791754E+03  0.7561462E-02  0.1168603E+00
         -2   -1    0    0    0  501 -0.00000000000E+00  0.00000000000E+00  0.34628512486E+02  0.34628512486E+02  0.00000000000E+00 0.  1.
          2   -1    0    0  501    0  0.00000000000E+00 -0.00000000000E+00 -0.20967553485E+04  0.20967553485E+04  0.00000000000E+00 0. -1.
         25    2    1    2    0    0 -0.15307054070E+03  0.64076133728E+02 -0.17675172212E+04  0.17796910076E+04  0.12508642651E+03 0.  0.
          5    1    3    3  502    0 -0.10977764752E+03  0.69456276859E+02 -0.74625124527E+03  0.75748511520E+03  0.41800000000E+01 0.  1.
         -5    1    3    3    0  502 -0.43292893185E+02 -0.53801431307E+01 -0.10212659759E+04  0.10222058924E+04  0.41800000000E+01 0.  1.
        -11    1    1    2    0    0  0.15577325269E+03 -0.75292688115E+02 -0.29268156450E+03  0.33999528428E+03  0.00000000000E+00 0. -1.
         11    1    1    2    0    0 -0.27027119924E+01  0.11216554386E+02 -0.19280503420E+01  0.11697569086E+02  0.00000000000E+00 0.  1.
</event>
<event>
 7    1  0.2661133E-009  0.1528033E+03  0.7561462E-02  0.1197070E+00
         -2   -1    0    0    0  501 -0.00000000000E+00  0.00000000000E+00  0.24474701816E+02  0.24474701816E+02  0.00000000000E+00 0.  1.
          2   -1    0    0  501    0  0.00000000000E+00 -0.00000000000E+00 -0.12124272576E+04  0.12124272576E+04  0.00000000000E+00 0. -1.
         25    2    1    2    0    0 -0.12837409214E+03  0.31699945997E+02 -0.57130475628E+03  0.59960094516E+03  0.12508946710E+03 0.  0.
          5    1    3    3  502    0 -0.58206477366E+02 -0.36422487172E+02 -0.36277867994E+03  0.36924305626E+03  0.41800000000E+01 0.  1.
         -5    1    3    3    0  502 -0.70167614775E+02  0.68122433169E+02 -0.20852607634E+03  0.23035788890E+03  0.41800000000E+01 0.  1.
        -11    1    1    2    0    0  0.84708312253E+02 -0.41272567402E+02 -0.54325135497E+03  0.55136281853E+03  0.00000000000E+00 0. -1.
         11    1    1    2    0    0  0.43665779888E+02  0.95726214050E+01 -0.73396444545E+02  0.85938195732E+02  0.00000000000E+00 0.  1.
</event>
<event>
 7    1  0.2661133E-009  0.9966447E+02  0.7561462E-02  0.1281003E+00
         -1   -1    0    0    0  501 -0.00000000000E+00  0.00000000000E+00  0.28549882707E+03  0.28549882707E+03  0.00000000000E+00 0.  1.
          1   -1    0    0  501    0  0.00000000000E+00 -0.00000000000E+00 -0.49243334690E+02  0.49243334690E+02  0.00000000000E+00 0. -1.
         25    2    1    2    0    0 -0.44756503415E+02 -0.47059483219E+01  0.10703283680E+03  0.17067214543E+03  0.12509061725E+03 0.  0.
          5    1    3    3  502    0 -0.76190345546E+01 -0.58415287213E+02  0.21210186216E+02  0.62751413268E+02  0.41800000000E+01 0.  1.
         -5    1    3    3    0  502 -0.37137468860E+02  0.53709338892E+02  0.85822650585E+02  0.10792073216E+03  0.41800000000E+01 0.  1.
        -11    1    1    2    0    0 -0.15686240992E+01 -0.21538771933E+02 -0.27421691488E+01  0.21769216099E+02  0.00000000000E+00 0. -1.
         11    1    1    2    0    0  0.46325127514E+02  0.26244720254E+02  0.13196482473E+03  0.14230080023E+03  0.00000000000E+00 0.  1.
</event>
<event>
 7    1  0.2661133E-009  0.1037732E+03  0.7561462E-02  0.1272556E+00
         -2   -1    0    0    0  501 -0.00000000000E+00  0.00000000000E+00  0.12906841488E+03  0.12906841488E+03  0.00000000000E+00 0.  1.
          2   -1    0    0  501    0  0.00000000000E+00 -0.00000000000E+00 -0.17234677262E+03  0.17234677262E+03  0.00000000000E+00 0. -1.
         25    2    1    2    0    0 -0.62150381711E+02  0.11746716523E+02  0.56465127134E+02  0.15111682987E+03  0.12508928968E+03 0.  0.
          5    1    3    3  502    0  0.63143022652E+01  0.26663511376E+02 -0.29269725630E+02  0.40311319632E+02  0.41800000000E+01 0. -1.
         -5    1    3    3    0  502 -0.68464683976E+02 -0.14916794853E+02  0.85734852764E+02  0.11080551024E+03  0.41800000000E+01 0. -1.
        -11    1    1    2    0    0  0.52716922985E+02  0.34127246886E+02 -0.73270525552E+02  0.96500325718E+02  0.00000000000E+00 0. -1.
         11    1    1    2    0    0  0.94334587255E+01 -0.45873963410E+02 -0.26472959323E+02  0.53798031914E+02  0.00000000000E+00 0.  1.
</event>
<event>
 7    1  0.2661133E-009  0.1075205E+03  0.7561462E-02  0.1265232E+00
          1   -1    0    0  501    0  0.00000000000E+00  0.00000000000E+00  0.85054606583E+02  0.85054606583E+02  0.00000000000E+00 0. -1.
         -1   -1    0    0    0  501 -0.00000000000E+00 -0.00000000000E+00 -0.18470171441E+03  0.18470171441E+03  0.00000000000E+00 0.  1.
         25    2    1    2    0    0 -0.42438491446E+02  0.31288271952E+02 -0.18570783487E+02  0.13700681267E+03  0.12508401657E+03 0.  0.
          5    1    3    3  502    0  0.41459776516E+02 -0.75305605829E+01 -0.13024293990E+02  0.44302675375E+02  0.41800000000E+01 0.  1.
         -5    1    3    3    0  502 -0.83898267961E+02  0.38818832535E+02 -0.55464894963E+01  0.92704137297E+02  0.41800000000E+01 0.  1.
        -11    1    1    2    0    0  0.19291761558E+02 -0.47918694245E+02 -0.89230760263E+02  0.10310432532E+03  0.00000000000E+00 0.  1.
         11    1    1    2    0    0  0.23146729887E+02  0.16630422293E+02  0.81544359218E+01  0.29645183004E+02  0.00000000000E+00 0. -1.
</event>
<event>
 7    1  0.2661133E-009  0.1121861E+03  0.7561462E-02  0.1256574E+00
         -1   -1    0    0    0  501 -0.00000000000E+00  0.00000000000E+00  0.91666292712E+03  0.91666292712E+03  0.00000000000E+00 0.  1.
          1   -1    0    0  501    0  0.00000000000E+00 -0.00000000000E+00 -0.15855237146E+02  0.15855237146E+02  0.00000000000E+00 0. -1.
         25    2    1    2    0    0  0.43242078659E+02 -0.19074305230E+02  0.60002787697E+03  0.61474769084E+03  0.12509022249E+03 0.  0.
          5    1    3    3  502    0  0.93556357024E+01 -0.70883257904E+02  0.33011017646E+03  0.33779012001E+03  0.41800000000E+01 0. -1.
         -5    1    3    3    0  502  0.33886442956E+02  0.51808952674E+02  0.26991770051E+03  0.27695757083E+03  0.41800000000E+01 0. -1.
        -11    1    1    2    0    0 -0.49184124468E+02 -0.18585562447E+02  0.95846488425E+02  0.10932086066E+03  0.00000000000E+00 0. -1.
         11    1    1    2    0    0  0.59420458094E+01  0.37659867677E+02  0.20493332457E+03  0.20844961277E+03  0.00000000000E+00 0.  1.
</event>
<event>
 7    1  0.3765677E-009  0.1006368E+03  0.7561462E-02  0.1278962E+00
          2   -1    0    0  501    0  0.00000000000E+00  0.00000000000E+00  0.33662792365E+03  0.33662792365E+03  0.00000000000E+00 0. -1.
         -2   -1    0    0    0  501 -0.00000000000E+00 -0.00000000000E+00 -0.54402046051E+02  0.54402046051E+02  0.00000000000E+00 0.  1.
         25    2    1    2    0    0 -0.19243799713E+02 -0.55436706154E+02  0.75115159945E+02  0.15727221414E+03  0.12509480353E+03 0.  0.
          5    1    3    3  502    0 -0.15295316567E+02 -0.86319501645E+02  0.87101762703E+02  0.12364947448E+03  0.41800000000E+01 0.  1.
         -5    1    3    3    0  502 -0.39484831453E+01  0.30882795491E+02 -0.11986602758E+02  0.33622739659E+02  0.41800000000E+01 0.  1.
        -11    1    1    2    0    0  0.39824196943E+02  0.33788955883E+02  0.45064432902E+02  0.68981615772E+02  0.00000000000E+00 0.  1.
         11    1    1    2    0    0 -0.20580397230E+02  0.21647750271E+02  0.16204628475E+03  0.16477613979E+03  0.00000000000E+00 0. -1.
</event>
<event>
 7    1  0.2661133E-009  0.1106883E+03  0.7561462E-02  0.1259301E+00
          1   -1    0    0  501    0  0.00000000000E+00  0.00000000000E+00  0.63772705131E+02  0.63772705131E+02  0.00000000000E+00 0. -1.
         -1   -1    0    0    0  501 -0.00000000000E+00 -0.00000000000E+00 -0.25027553552E+03  0.25027553552E+03  0.00000000000E+00 0.  1.
         25    2    1    2    0    0 -0.17653593205E+02  0.46893107968E+02 -0.52323934222E+02  0.14455314516E+03  0.12508878749E+03 0.  0.
          5    1    3    3  502    0 -0.90221612249E+01  0.85541447999E+02 -0.58706947651E+02  0.10422435810E+03  0.41800000000E+01 0. -1.
         -5    1    3    3    0  502 -0.86314319797E+01 -0.38648340032E+02  0.63830134291E+01  0.40328787059E+02  0.41800000000E+01 0. -1.
        -11    1    1    2    0    0  0.22107265140E+02 -0.69223825345E+02 -0.12570710951E+03  0.14519967819E+03  0.00000000000E+00 0.  1.
         11    1    1    2    0    0 -0.44536719354E+01  0.22330717377E+02 -0.84717866558E+01  0.24295417293E+02  0.00000000000E+00 0. -1.
</event>
<event>
 6    1  0.2661133E-009  0.9779344E+02  0.7561462E-02  0.1285006E+00
          2   -1    0    0  501    0  0.00000000000E+00  0.00000000000E+00  0.14214118025E+04  0.14214118025E+04  0.00000000000E+00 0. -1.
         -2   -1    0    0    0  501 -0.00000000000E+00 -0.00000000000E+00 -0.10668376968E+02  0.10668376968E+02  0.00000000000E+00 0.  1.
          5    1    1    2  502    0 -0.35481474437E+02  0.55465222064E+01  0.77000910704E+03  0.77085744224E+03  0.41800000000E+01 0.  1.
         -5    1    1    2    0  502  0.23884155832E+02  0.49370489836E+02  0.15736841764E+03  0.16670389749E+03  0.41800000000E+01 0.  1.
        -11    1    1    2    0    0  0.32723137136E+02  0.11537128555E+02  0.16277078177E+03  0.16642787157E+03  0.00000000000E+00 0. -1.
         11    1    1    2    0    0 -0.21125818531E+02 -0.66454140597E+02  0.32059511909E+03  0.32809096817E+03  0.00000000000E+00 0.  1.
</event>
<event>
 7    1  0.2661133E-009  0.1424628E+03  0.7561462E-02  0.1210053E+00
         -2   -1    0    0    0  501 -0.00000000000E+00  0.00000000000E+00  0.30754221893E+02  0.30754221893E+02  0.00000000000E+00 0. -1.
          2   -1    0    0  501    0  0.00000000000E+00 -0.00000000000E+00 -0.79746351419E+03  0.79746351419E+03  0.00000000000E+00 0.  1.
         25    2    1    2    0    0 -0.23029069746E+02 -0.11235436961E+03 -0.39543134152E+03  0.43031066321E+03  0.12508988206E+03 0.  0.
          5    1    3    3  502    0  0.42476721168E+02 -0.14085387056E+02 -0.16927222433E+03  0.17513774094E+03  0.41800000000E+01 0.  1.
         -5    1    3    3    0  502 -0.65505790914E+02 -0.98268982556E+02 -0.22615911719E+03  0.25517292227E+03  0.41800000000E+01 0.  1.
        -11    1    1    2    0    0  0.31765158779E+02  0.52841564611E+02 -0.82847388406E+02  0.10327122556E+03  0.00000000000E+00 0. -1.
         11    1    1    2    0    0 -0.87360890333E+01  0.59512805001E+02 -0.28843056237E+03  0.29463584731E+03  0.00000000000E+00 0.  1.
</event>
<event>
 7    1  0.2661133E-009  0.1051812E+03  0.7561462E-02  0.1269763E+00
          2   -1    0    0  501    0  0.00000000000E+00  0.00000000000E+00  0.34598284516E+03  0.34598284516E+03  0.00000000000E+00 0.  1.
         -2   -1    0    0    0  501 -0.00000000000E+00 -0.00000000000E+00 -0.65989775189E+02  0.65989775189E+02  0.00000000000E+00 0. -1.
         25    2    1    2    0    0  0.65141003809E+02  0.35038728303E+01  0.39309218892E+02  0.14645677244E+03  0.12509493995E+03 0.  0.
          5    1    3    3  502    0 -0.32406634476E+02  0.19865161010E+02 -0.39024417859E+01  0.38438470727E+02  0.41800000000E+01 0. -1.
         -5    1    3    3    0  502  0.97547638284E+02 -0.16361288179E+02  0.43211660677E+02  0.10801830171E+03  0.41800000000E+01 0. -1.
        -11    1    1    2    0    0 -0.44627115191E+02 -0.17878415859E+02  0.23495129200E+03  0.23981936280E+03  0.00000000000E+00 0.  1.
         11    1    1    2    0    0 -0.20513888617E+02  0.14374543029E+02  0.57325590852E+01  0.25696485113E+02  0.00000000000E+00 0. -1.
</event>
<event>
 7    1  0.2661133E-009  0.1130201E+03  0.7561462E-02  0.1255077E+00
          2   -1    0    0  501    0  0.00000000000E+00  0.00000000000E+00  0.27646671648E+03  0.27646671648E+03  0.00000000000E+00 0. -1.
         -2   -1    0    0    0  501 -0.00000000000E+00 -0.00000000000E+00 -0.88150245446E+02  0.88150245446E+02  0.00000000000E+00 0.  1.
         25    2    1    2    0    0 -0.10755760140E+03  0.26839892297E+02  0.12083708042E+03  0.20624736708E+03  0.12508940397E+03 0.  0.
          5    1    3    3  502    0 -0.47052274618E+02  0.27153935518E+02 -0.15819895642E+02  0.56736181216E+02  0.41800000000E+01 0. -1.
         -5    1    3    3    0  502 -0.60505326779E+02 -0.31404322108E+00  0.13665697606E+03  0.14951118587E+03  0.41800000000E+01 0. -1.
        -11    1    1    2    0    0  0.84968731575E+02 -0.19826045097E+02  0.90255142497E+02  0.12553385263E+03  0.00000000000E+00 0. -1.
         11    1    1    2    0    0  0.22588869822E+02 -0.70138471999E+01 -0.22775751888E+02  0.32835742209E+02  0.00000000000E+00 0.  1.
</event>
<event>
 7    1  0.2661133E-009  0.1254554E+03  0.7561462E-02  0.1234359E+00
         -2   -1    0    0    0  501 -0.00000000000E+00  0.00000000000E+00  0.26364392260E+03  0.26364392260E+03  0.00000000000E+00 0. -1.
          2   -1    0    0  501    0  0.00000000000E+00 -0.00000000000E+00 -0.85303771615E+02  0.85303771615E+02  0.00000000000E+00 0.  1.
         25    2    1    2    0    0  0.63753420030E+02 -0.72691011921E+02  0.13733906484E+03  0.20942481144E+03  0.12509296997E+03 0.  0.
          5    1    3    3  502    0  0.74955562919E+02 -0.41370486245E+02  0.20861627623E+02  0.88218668386E+02  0.41800000000E+01 0.  1.
         -5    1    3    3    0  502 -0.11202142890E+02 -0.31320525676E+02  0.11647743721E+03  0.12120614305E+03  0.41800000000E+01 0.  1.
        -11    1    1    2    0    0  0.16775813355E+02  0.42457246534E+02  0.38120776989E+01  0.45810235028E+02  0.00000000000E+00 0. -1.
         11    1    1    2    0    0 -0.80529233384E+02  0.30233765387E+02  0.37189008452E+02  0.93712647751E+02  0.00000000000E+00 0.  1.
</event>
<event>
 7    1  0.2661133E-009  0.1206671E+03  0.7561462E-02  0.1242001E+00
         -2   -1    0    0    0  501 -0.00000000000E+00  0.00000000000E+00  0.53262535928E+03  0.53262535928E+03  0.00000000000E+00 0.  1.
          2   -1    0    0  501    0  0.00000000000E+00 -0.00000000000E+00 -0.27521683732E+02  0.27521683732E+02  0.00000000000E+00 0. -1.
         25    2    1    2    0    0 -0.21259506175E+02 -0.53107945421E+02  0.28829676382E+03  0.31942887982E+03  0.12508942708E+03 0.  0.
          5    1    3    3  502    0 -0.59506583097E+02  0.12606949836E+02  0.11576643127E+03  0.13084077203E+03  0.41800000000E+01 0. -1.
         -5    1    3    3    0  502  0.38247076922E+02 -0.65714895257E+02  0.17253033255E+03  0.18858810779E+03  0.41800000000E+01 0. -1.
        -11    1    1    2    0    0 -0.24813496816E+02  0.52576421961E+02  0.11066763786E+03  0.12500926302E+03  0.00000000000E+00 0.  1.
         11    1    1    2    0    0  0.46073002991E+02  0.53152346007E+00  0.10613927387E+03  0.11570890018E+03  0.00000000000E+00 0. -1.
</event>
<event>
 7    1  0.2661133E-009  0.1004000E+03  0.7561462E-02  0.1279457E+00
         -1   -1    0    0    0  501 -0.00000000000E+00  0.00000000000E+00  0.42628710908E+02  0.42628710908E+02  0.00000000000E+00 0.  1.
          1   -1    0    0  501    0  0.00000000000E+00 -0.00000000000E+00 -0.38634673582E+03  0.38634673582E+03  0.00000000000E+00 0. -1.
         25    2    1    2    0    0  0.46474838155E+02  0.48818380273E+02 -0.16164169701E+03  0.21521677670E+03  0.12508828052E+03 0.  0.
          5    1    3    3  502    0  0.63938762459E+02  0.28568498436E+01 -0.23136837702E+02  0.68184401403E+02  0.41800000000E+01 0. -1.
         -5    1    3    3    0  502 -0.17463924305E+02  0.45961530430E+02 -0.13850485931E+03  0.14703237529E+03  0.41800000000E+01 0. -1.
        -11    1    1    2    0    0 -0.55351690824E+02 -0.53755444816E+02 -0.18713024062E+03  0.20241339995E+03  0.00000000000E+00 0. -1.
         11    1    1    2    0    0  0.88768526697E+01  0.49370645432E+01  0.50539127152E+01  0.11345270087E+02  0.00000000000E+00 0.  1.
</event>
<event>
 7    1  0.2661133E-009  0.1109825E+03  0.7561462E-02  0.1258761E+00
         -4   -1    0    0    0  501 -0.00000000000E+00  0.00000000000E+00  0.52515911285E+02  0.52515911285E+02  0.00000000000E+00 0.  1.
          4   -1    0    0  501    0  0.00000000000E+00 -0.00000000000E+00 -0.24702029605E+03  0.24702029605E+03  0.00000000000E+00 0. -1.
         25    2    1    2    0    0 -0.20067278891E+02 -0.19873272641E+02 -0.97880156585E+02  0.16132335774E+03  0.12508820109E+03 0.  0.
          5    1    3    3  502    0 -0.59351727350E+02 -0.46588626520E+02 -0.37444199049E+02  0.84336635591E+02  0.41800000000E+01 0.  1.
         -5    1    3    3    0  502  0.39284448459E+02  0.26715353879E+02 -0.60435957536E+02  0.76986722147E+02  0.41800000000E+01 0.  1.
        -11    1    1    2    0    0  0.10349883475E+02 -0.38326783061E+02 -0.35539866341E+02  0.53283623069E+02  0.00000000000E+00 0.  1.
         11    1    1    2    0    0  0.97173954158E+01  0.58200055702E+02 -0.61084361842E+02  0.84929226530E+02  0.00000000000E+00 0. -1.
</event>
<event>
 7    1  0.2661133E-009  0.4299115E+03  0.7561462E-02  0.1033888E+00
          1   -1    0    0  501    0  0.00000000000E+00  0.00000000000E+00  0.33661910257E+03  0.33661910257E+03  0.00000000000E+00 0. -1.
         -1   -1    0    0    0  501 -0.00000000000E+00 -0.00000000000E+00 -0.59101874657E+03  0.59101874657E+03  0.00000000000E+00 0.  1.
         25    2    1    2    0    0  0.13599494508E+03  0.39736567201E+03 -0.23580385559E+03  0.49763989682E+03  0.12509159130E+03 0.  0.
          5    1    3    3  502    0 -0.11946586953E+02  0.14583746975E+03 -0.79036557313E+02  0.16635966553E+03  0.41800000000E+01 0. -1.
         -5    1    3    3    0  502  0.14794153204E+03  0.25152820226E+03 -0.15676729828E+03  0.33128023129E+03  0.41800000000E+01 0. -1.
        -11    1    1    2    0    0 -0.12165733472E+03 -0.30918851711E+03 -0.48516050734E+02  0.33578542759E+03  0.00000000000E+00 0.  1.
         11    1    1    2    0    0 -0.14337610365E+02 -0.88177154898E+02  0.29920262331E+02  0.94212524724E+02  0.00000000000E+00 0. -1.
</event>
<event>
 7    1  0.2661133E-009  0.1181034E+03  0.7561462E-02  0.1246259E+00
         -2   -1    0    0    0  501 -0.00000000000E+00  0.00000000000E+00  0.45297426153E+02  0.45297426153E+02  0.00000000000E+00 0. -1.
          2   -1    0    0  501    0  0.00000000000E+00 -0.00000000000E+00 -0.47422532512E+03  0.47422532512E+03  0.00000000000E+00 0.  1.
         25    2    1    2    0    0 -0.34865118404E+02 -0.27927702972E+02 -0.80074567581E+02  0.15508558578E+03  0.12507625462E+03 0.  0.
          5    1    3    3  502    0 -0.81515397975E+02 -0.23061839235E+02 -0.60007089176E+02  0.10389866066E+03  0.41800000000E+01 0.  1.
         -5    1    3    3    0  502  0.46650279571E+02 -0.48658637368E+01 -0.20067478405E+02  0.51186925122E+02  0.41800000000E+01 0.  1.
        -11    1    1    2    0    0  0.37301853115E+02 -0.29044120341E+02 -0.18498754311E+03  0.19093292088E+03  0.00000000000E+00 0.  1.
         11    1    1    2    0    0 -0.24367347107E+01  0.56971823313E+02 -0.16386578828E+03  0.17350424460E+03  0.00000000000E+00 0. -1.
</event>
<event>
 7    1  0.2661133E-009  0.1567874E+03  0.7561462E-02  0.1192372E+00
          2   -1    0    0  501    0  0.00000000000E+00  0.00000000000E+00  0.12856675001E+03  0.12856675001E+03  0.00000000000E+00 0. -1.
         -2   -1    0    0    0  501 -0.00000000000E+00 -0.00000000000E+00 -0.24949793493E+03  0.24949793493E+03  0.00000000000E+00 0.  1.
         25    2    1    2    0    0 -0.87777179110E+02  0.87013098467E+02  0.91577558381E+01  0.17608647371E+03  0.12508584754E+03 0.  0.
          5    1    3    3  502    0  0.23417017258E+02  0.10586371681E+02 -0.25787263779E+02  0.36645372639E+02  0.41800000000E+01 0.  1.
         -5    1    3    3    0  502 -0.11119419637E+03  0.76426726786E+02  0.34945019617E+02  0.13944110108E+03  0.41800000000E+01 0.  1.
        -11    1    1    2    0    0  0.65935088023E+02 -0.32851240836E+01 -0.40629660899E+02  0.77517721958E+02  0.00000000000E+00 0. -1.
         11    1    1    2    0    0  0.21842091087E+02 -0.83727974383E+02 -0.89459279859E+02  0.12446048927E+03  0.00000000000E+00 0.  1.
</event>
<event>
 6    1  0.2661133E-009  0.8714387E+02  0.7561462E-02  0.1309919E+00
         -2   -1    0    0    0  501 -0.00000000000E+00  0.00000000000E+00  0.49673949720E+02  0.49673949720E+02  0.00000000000E+00 0.  1.
          2   -1    0    0  501    0  0.00000000000E+00 -0.00000000000E+00 -0.37420837170E+03  0.37420837170E+03  0.00000000000E+00 0. -1.
          5    1    1    2  502    0 -0.73247178274E+01 -0.52870967912E+02 -0.25240369967E+02  0.59190703791E+02  0.41800000000E+01 0.  1.
         -5    1    1    2    0  502  0.25223014350E+02 -0.83116697076E+01 -0.23410162762E+03  0.23564025284E+03  0.41800000000E+01 0.  1.
        -11    1    1    2    0    0  0.20773801112E+02  0.49155762518E+02 -0.12711097088E+01  0.53380291506E+02  0.00000000000E+00 0.  1.
         11    1    1    2    0    0 -0.38672097635E+02  0.12026875101E+02 -0.63921314684E+02  0.75671073279E+02  0.00000000000E+00 0. -1.
</event>
<event>
 7    1  0.2661133E-009  0.1269802E+03  0.7561462E-02  0.1232007E+00
         -3   -1    0    0    0  501 -0.00000000000E+00  0.00000000000E+00  0.39232425613E+03  0.39232425613E+03  0.00000000000E+00 0.  1.
          3   -1    0    0  501    0  0.00000000000E+00 -0.00000000000E+00 -0.54539990579E+02  0.54539990579E+02  0.00000000000E+00 0. -1.
         25    2    1    2    0    0  0.78029005570E+02 -0.56487117232E+02  0.28408208172E+03  0.32500723050E+03  0.12509096930E+03 0.  0.
          5    1    3    3  502    0  0.75426627907E+02  0.22241289110E+02  0.13273630144E+03  0.15433810048E+03  0.41800000000E+01 0. -1.
         -5    1    3    3    0  502  0.26023776624E+01 -0.78728406341E+02  0.15134578028E+03  0.17066913002E+03  0.41800000000E+01 0. -1.
        -11    1    1    2    0    0 -0.28453660495E+02  0.20432490613E+02  0.49194229847E+02  0.60391801749E+02  0.00000000000E+00 0.  1.
         11    1    1    2    0    0 -0.49575345075E+02  0.36054626618E+02  0.45079539869E+01  0.61465214463E+02  0.00000000000E+00 0. -1.
</event>
<event>
 7    1  0.2661133E-009  0.7763773E+02  0.7561462E-02  0.1335892E+00
         -1   -1    0    0    0  501 -0.00000000000E+00  0.00000000000E+00  0.10185911073E+03  0.10185911073E+03  0.00000000000E+00 0.  1.
          1   -1    0    0  501    0  0.00000000000E+00 -0.00000000000E+00 -0.15001626236E+03  0.15001626236E+03  0.00000000000E+00 0. -1.
         25    2    1    2    0    0 -0.43607969942E+02 -0.38756123731E+02 -0.27718989308E+02  0.14077820726E+03  0.12508584693E+03 0.  0.
          5    1    3    3  502    0 -0.60702793700E+02 -0.44015926887E+02 -0.64933507099E+02  0.99277710121E+02  0.41800000000E+01 0.  1.
         -5    1    3    3    0  502  0.17094823758E+02  0.52598031560E+01  0.37214517790E+02  0.41500497141E+02  0.41800000000E+01 0.  1.
        -11    1    1    2    0    0  0.30882103946E+02  0.13859883333E+02 -0.56258211956E+02  0.65656584762E+02  0.00000000000E+00 0. -1.
         11    1    1    2    0    0  0.12725865996E+02  0.24896240398E+02  0.35820049641E+02  0.45440581065E+02  0.00000000000E+00 0.  1.
</event>
<event>
 7    1  0.2661133E-009  0.9201310E+02  0.7561462E-02  0.1298049E+00
          1   -1    0    0  501    0  0.00000000000E+00  0.00000000000E+00  0.12709948397E+04  0.12709948397E+04  0.00000000000E+00 0. -1.
         -1   -1    0    0    0  501 -0.00000000000E+00 -0.00000000000E+00 -0.11868098222E+02  0.11868098222E+02  0.00000000000E+00 0.  1.
         25    2    1    2    0    0  0.12679177000E+02  0.15954426728E+01  0.95483132944E+03  0.96307514175E+03  0.12509018352E+03 0.  0.
          5    1    3    3  502    0  0.17398672567E+02  0.44956696929E+02  0.16294651865E+03  0.16997899501E+03  0.41800000000E+01 0. -1.
         -5    1    3    3    0  502 -0.47194955674E+01 -0.43361254256E+02  0.79188481079E+03  0.79309614674E+03  0.41800000000E+01 0. -1.
        -11    1    1    2    0    0 -0.31331975451E+02 -0.38998660726E+02  0.10704224845E+03  0.11815511490E+03  0.00000000000E+00 0.  1.
         11    1    1    2    0    0  0.18652798451E+02  0.37403218053E+02  0.19725316362E+03  0.20163268130E+03  0.00000000000E+00 0. -1.
</event>
<event>
 7    1  0.2661133E-009  0.1074488E+03  0.7561462E-02  0.1265369E+00
         -1   -1    0    0    0  501 -0.00000000000E+00  0.00000000000E+00  0.14732997691E+02  0.14732997691E+02  0.00000000000E+00 0.  1.
          1   -1    0    0  501    0  0.00000000000E+00 -0.00000000000E+00 -0.82120032656E+03  0.82120032656E+03  0.00000000000E+00 0. -1.
         25    2    1    2    0    0  0.20115562684E+02  0.63843746982E+01 -0.51068712161E+03  0.52620713806E+03  0.12508884786E+03 0.  0.
          5    1    3    3  502    0 -0.47478984159E+02 -0.18731995681E+02 -0.15438150251E+03  0.16265381125E+03  0.41800000000E+01 0.  1.
         -5    1    3    3    0  502  0.67594546843E+02  0.25116370379E+02 -0.35630561911E+03  0.36355332681E+03  0.41800000000E+01 0.  1.
        -11    1    1    2    0    0  0.40745944832E+01 -0.45381799634E+02 -0.16247251719E+03  0.16874071500E+03  0.00000000000E+00 0. -1.
         11    1    1    2    0    0 -0.24190157167E+02  0.38997424936E+02 -0.13330769007E+03  0.14098547120E+03  0.00000000000E+00 0.  1.
</event>
<event>
 7    1  0.2661133E-009  0.1164655E+03  0.7561462E-02  0.1249044E+00
         -2   -1    0    0    0  501 -0.00000000000E+00  0.00000000000E+00  0.81404949299E+02  0.81404949299E+02  0.00000000000E+00 0.  1.
          2   -1    0    0  501    0  0.00000000000E+00 -0.00000000000E+00 -0.35725061977E+03  0.35725061977E+03  0.00000000000E+00 0. -1.
         25    2    1    2    0    0 -0.71114869105E+02  0.60516961373E+02 -0.28337239116E+03  0.32354261110E+03  0.12514104803E+03 0.  0.
          5    1    3    3  502    0  0.15541054200E+02  0.20572406335E+02 -0.17647082047E+01  0.26178901106E+02  0.41800000000E+01 0. -1.
         -5    1    3    3    0  502 -0.86655923305E+02  0.39944555037E+02 -0.28160768295E+03  0.29736370999E+03  0.41800000000E+01 0. -1.
        -11    1    1    2    0    0 -0.62378828488E+01 -0.25748812536E+02  0.14171642132E+02  0.30045764596E+02  0.00000000000E+00 0. -1.
         11    1    1    2    0    0  0.77352751954E+02 -0.34768148837E+02 -0.66449214465E+01  0.85067193379E+02  0.00000000000E+00 0.  1.
</event>
<event>
 7    1  0.2661133E-009  0.9897273E+02  0.7561462E-02  0.1282471E+00
          1   -1    0    0  501    0  0.00000000000E+00  0.00000000000E+00  0.70256698427E+03  0.70256698427E+03  0.00000000000E+00 0. -1.
         -1   -1    0    0    0  501 -0.00000000000E+00 -0.00000000000E+00 -0.23697775149E+02  0.23697775149E+02  0.00000000000E+00 0.  1.
         25    2    1    2    0    0 -0.26998017535E+02 -0.52641660377E+02  0.45271140571E+03  0.47338629306E+03  0.12508768221E+03 0.  0.
          5    1    3    3  502    0 -0.36865760445E+02  0.14651900584E+02  0.45488285908E+02  0.60501396998E+02  0.41800000000E+01 0.  1.
         -5    1    3    3    0  502  0.98677429099E+01 -0.67293560960E+02  0.40722311980E+03  0.41288489606E+03  0.41800000000E+01 0.  1.
        -11    1    1    2    0    0  0.43614827062E+02  0.10856531185E+02  0.36316763659E+02  0.57784294853E+02  0.00000000000E+00 0.  1.
         11    1    1    2    0    0 -0.16616809527E+02  0.41785129192E+02  0.18984103975E+03  0.19509417151E+03  0.00000000000E+00 0. -1.
</event>
<event>
 7    1  0.2661133E-009  0.8767583E+02  0.7561462E-02  0.1308580E+00
         -2   -1    0    0    0  501 -0.00000000000E+00  0.00000000000E+00  0.39814340140E+02  0.39814340140E+02  0.00000000000E+00 0.  1.
          2   -1    0    0  501    0  0.00000000000E+00 -0.00000000000E+00 -0.37952284231E+03  0.37952284231E+03  0.00000000000E+00 0. -1.
         25    2    1    2    0    0  0.75600389907E+01  0.43474291390E+02 -0.12648953155E+03  0.18328390302E+03  0.12508484845E+03 0.  0.
          5    1    3    3  502    0 -0.24721154805E+02  0.68783825950E+02 -0.31439786817E+02  0.79676111868E+02  0.41800000000E+01 0.  1.
         -5    1    3    3    0  502  0.32281193796E+02 -0.25309534560E+02 -0.95049744737E+02  0.10360779115E+03  0.41800000000E+01 0.  1.
        -11    1    1    2    0    0  0.17325348064E+02 -0.13590627874E+02 -0.29478323350E+01  0.22216268071E+02  0.00000000000E+00 0.  1.
         11    1    1    2    0    0 -0.24885387055E+02 -0.29883663517E+02 -0.21027113828E+03  0.21383701137E+03  0.00000000000E+00 0. -1.
</event>
<event>
 7    1  0.2661133E-009  0.7039238E+02  0.7561462E-02  0.1358764E+00
          2   -1    0    0  501    0  0.00000000000E+00  0.00000000000E+00  0.15793530902E+03  0.15793530902E+03  0.00000000000E+00 0. -1.
         -2   -1    0    0    0  501 -0.00000000000E+00 -0.00000000000E+00 -0.78469731695E+02  0.78469731695E+02  0.00000000000E+00 0.  1.
         25    2    1    2    0    0 -0.18425449410E+02  0.90605809278E+01  0.60526984406E+02  0.14047300518E+03  0.12509019957E+03 0.  0.
          5    1    3    3  502    0 -0.13200771587E+02  0.42288530999E+02  0.86831010107E+02  0.97568831810E+02  0.41800000000E+01 0. -1.
         -5    1    3    3    0  502 -0.52246778228E+01 -0.33227950071E+02 -0.26304025701E+02  0.42904173367E+02  0.41800000000E+01 0. -1.
        -11    1    1    2    0    0  0.18551095537E+02  0.23439140466E+02 -0.26580947474E+02  0.40001040237E+02  0.00000000000E+00 0.  1.
         11    1    1    2    0    0 -0.12564612738E+00 -0.32499721394E+02  0.45519540395E+02  0.55930995302E+02  0.00000000000E+00 0. -1.
</event>
<event>
 7    1  0.2661133E-009  0.9612665E+02  0.7561462E-02  0.1288659E+00
          1   -1    0    0  501    0  0.00000000000E+00  0.00000000000E+00  0.88604096049E+02  0.88604096049E+02  0.00000000000E+00 0. -1.
         -1   -1    0    0    0  501 -0.00000000000E+00 -0.00000000000E+00 -0.16518671624E+03  0.16518671624E+03  0.00000000000E+00 0.  1.
         25    2    1    2    0    0  0.15844479924E+02 -0.69121176822E+01 -0.96773827773E+02  0.15909574934E+03  0.12508980294E+03 0.  0.
          5    1    3    3  502    0  0.19899760788E+02 -0.64461477236E+02 -0.42950201885E+02  0.80084173023E+02  0.41800000000E+01 0. -1.
         -5    1    3    3    0  502 -0.40552808642E+01  0.57549359554E+02 -0.53823625888E+02  0.79011576315E+02  0.41800000000E+01 0. -1.
        -11    1    1    2    0    0 -0.88386128797E+01  0.35911808507E+02 -0.21991825918E+02  0.43028124234E+02  0.00000000000E+00 0.  1.
         11    1    1    2    0    0 -0.70058670444E+01 -0.28999690825E+02  0.42183033501E+02  0.51666938717E+02  0.00000000000E+00 0. -1.
</event>
<event>
 7    1  0.2661133E-009  0.1232607E+03  0.7561462E-02  0.1237813E+00
          1   -1    0    0  501    0  0.00000000000E+00  0.00000000000E+00  0.20783886115E+03  0.20783886115E+03  0.00000000000E+00 0. -1.
         -1   -1    0    0    0  501 -0.00000000000E+00 -0.00000000000E+00 -0.12684556027E+03  0.12684556027E+03  0.00000000000E+00 0.  1.
         25    2    1    2    0    0 -0.75262298486E+02  0.19121153542E+02 -0.51241771099E+02  0.15589550372E+03  0.12509059473E+03 0.  0.
          5    1    3    3  502    0  0.41463935989E+01 -0.37056671142E+02 -0.44634790238E+02  0.58310602429E+02  0.41800000000E+01 0. -1.
         -5    1    3    3    0  502 -0.79408692085E+02  0.56177824683E+02 -0.66069808602E+01  0.97584901296E+02  0.41800000000E+01 0. -1.
        -11    1    1    2    0    0  0.50087596385E+02 -0.50689567325E+02  0.49621426878E+02  0.86835969233E+02  0.00000000000E+00 0.  1.
         11    1    1    2    0    0  0.25174702101E+02  0.31568413783E+02  0.82613645104E+02  0.91952948469E+02  0.00000000000E+00 0. -1.
</event>
<event>
 7    1  0.2661133E-009  0.1515511E+03  0.7561462E-02  0.1198580E+00
          1   -1    0    0  501    0  0.00000000000E+00  0.00000000000E+00  0.70699293904E+02  0.70699293904E+02  0.00000000000E+00 0. -1.
         -1   -1    0    0    0  501 -0.00000000000E+00 -0.00000000000E+00 -0.51614081972E+03  0.51614081972E+03  0.00000000000E+00 0.  1.
         25    2    1    2    0    0 -0.13659312176E+03 -0.10468895033E+02 -0.11765004079E+03  0.21967157360E+03  0.12508712753E+03 0.  0.
          5    1    3    3  502    0 -0.16423035115E+02 -0.15757014811E+02 -0.94262615879E+02  0.97061386506E+02  0.41800000000E+01 0.  1.
         -5    1    3    3    0  502 -0.12017008665E+03  0.52881197782E+01 -0.23387424913E+02  0.12261018710E+03  0.41800000000E+01 0.  1.
        -11    1    1    2    0    0  0.24492923502E+02  0.37031558073E+02 -0.13984471748E+03  0.14672349710E+03  0.00000000000E+00 0. -1.
         11    1    1    2    0    0  0.11210019826E+03 -0.26562663040E+02 -0.18794676754E+03  0.22044504292E+03  0.00000000000E+00 0.  1.
</event>
<event>
 7    1  0.2661133E-009  0.1197579E+03  0.7561462E-02  0.1243497E+00
         -2   -1    0    0    0  501 -0.00000000000E+00  0.00000000000E+00  0.16289501012E+02  0.16289501012E+02  0.00000000000E+00 0.  1.
          2   -1    0    0  501    0  0.00000000000E+00 -0.00000000000E+00 -0.93816622002E+03  0.93816622002E+03  0.00000000000E+00 0. -1.
         25    2    1    2    0    0  0.59596907622E+02  0.56939232729E+01 -0.54981912933E+03  0.56703878588E+03  0.12509075728E+03 0.  0.
          5    1    3    3  502    0  0.15377166221E+02  0.60609231911E+02 -0.33781961941E+03  0.34358332890E+03  0.41800000000E+01 0. -1.
         -5    1    3    3    0  502  0.44219741401E+02 -0.54915308638E+02 -0.21199950992E+03  0.22345545699E+03  0.41800000000E+01 0. -1.
        -11    1    1    2    0    0 -0.12706825404E+02  0.39256322743E+02 -0.11165025812E+03  0.11903067851E+03  0.00000000000E+00 0. -1.
         11    1    1    2    0    0 -0.46890082218E+02 -0.44950246016E+02 -0.26040733156E+03  0.26838625664E+03  0.00000000000E+00 0.  1.
</event>
<event>
 6    1  0.2661133E-009  0.8141966E+02  0.7561462E-02  0.1325070E+00
          1   -1    0    0  501    0  0.00000000000E+00  0.00000000000E+00  0.86146521057E+02  0.86146521057E+02  0.00000000000E+00 0. -1.
         -1   -1    0    0    0  501 -0.00000000000E+00 -0.00000000000E+00 -0.16051122798E+03  0.16051122798E+03  0.00000000000E+00 0.  1.
          5    1    1    2  502    0 -0.61926915954E+01  0.63774348272E+02  0.20806291558E+02  0.67497341393E+02  0.41800000000E+01 0.  1.
         -5    1    1    2    0  502  0.36280991116E+02 -0.33047611531E+02 -0.45730001676E+02  0.67209823668E+02  0.41800000000E+01 0.  1.
        -11    1    1    2    0    0 -0.24924082105E+02 -0.81612753884E+01 -0.73815036493E+02  0.78335661720E+02  0.00000000000E+00 0.  1.
         11    1    1    2    0    0 -0.51642174149E+01 -0.22565461352E+02  0.24374039688E+02  0.33614922256E+02  0.00000000000E+00 0. -1.
</event>
<event>
 7    1  0.2661133E-009  0.5854070E+02  0.7561462E-02  0.1404060E+00
          1   -1    0    0  501    0  0.00000000000E+00  0.00000000000E+00  0.19859179176E+03  0.19859179176E+03  0.00000000000E+00 0. -1.
         -1   -1    0    0    0  501 -0.00000000000E+00 -0.00000000000E+00 -0.75319723971E+02  0.75319723971E+02  0.00000000000E+00 0.  1.
         25    2    1    2    0    0  0.26019184157E+02 -0.86173546395E+01  0.16837361511E+02  0.12915681092E+03  0.12508688309E+03 0.  0.
          5    1    3    3  502    0  0.42153045096E+01  0.20190881474E+02 -0.49341512491E+02  0.53642312979E+02  0.41800000000E+01 0. -1.
         -5    1    3    3    0  502  0.21803879648E+02 -0.28808236113E+02  0.66178874003E+02  0.75514497945E+02  0.41800000000E+01 0. -1.
        -11    1    1    2    0    0  0.83330258982E+01 -0.15565088593E+02  0.10083953472E+03  0.10237344903E+03  0.00000000000E+00 0. -1.
         11    1    1    2    0    0 -0.34352210055E+02  0.24182443233E+02  0.55951715549E+01  0.42381255776E+02  0.00000000000E+00 0.  1.
</event>
<event>
 7    1  0.2661133E-009  0.1437838E+03  0.7561462E-02  0.1208326E+00
          2   -1    0    0  501    0  0.00000000000E+00  0.00000000000E+00  0.25378606347E+03  0.25378606347E+03  0.00000000000E+00 0. -1.
         -2   -1    0    0    0  501 -0.00000000000E+00 -0.00000000000E+00 -0.85321612178E+02  0.85321612178E+02  0.00000000000E+00 0.  1.
         25    2    1    2    0    0  0.63205901847E+02 -0.74084497859E+02  0.68594455278E+02  0.17273860897E+03  0.12509967579E+03 0.  0.
          5    1    3    3  502    0  0.11137398686E+02  0.33856094431E+02  0.28880434532E+01  0.36001249625E+02  0.41800000000E+01 0. -1.
         -5    1    3    3    0  502  0.52068503161E+02 -0.10794059229E+03  0.65706411824E+02  0.13673735934E+03  0.41800000000E+01 0. -1.
        -11    1    1    2    0    0 -0.27974702496E+02  0.89159946457E+02  0.80947001162E+02  0.12363048584E+03  0.00000000000E+00 0. -1.
         11    1    1    2    0    0 -0.35231199351E+02 -0.15075448598E+02  0.18922994855E+02  0.42738580842E+02  0.00000000000E+00 0.  1.
</event>
<event>
 7    1  0.2661133E-009  0.1734766E+03  0.7561462E-02  0.1174270E+00
          2   -1    0    0  501    0  0.00000000000E+00  0.00000000000E+00  0.16811812754E+04  0.16811812754E+04  0.00000000000E+00 0. -1.
         -2   -1    0    0    0  501 -0.00000000000E+00 -0.00000000000E+00 -0.18654779688E+02  0.18654779688E+02  0.00000000000E+00 0.  1.
         25    2    1    2    0    0 -0.93469923906E+02 -0.10363131852E+03  0.82607490459E+03  0.84706746193E+03  0.12508980862E+03 0.  0.
          5    1    3    3  502    0 -0.12082380647E+03 -0.66746272408E+02  0.68024441320E+03  0.69412058836E+03  0.41800000000E+01 0.  1.
         -5    1    3    3    0  502  0.27353882564E+02 -0.36885046108E+02  0.14583049139E+03  0.15294687357E+03  0.41800000000E+01 0.  1.
        -11    1    1    2    0    0  0.10670274833E+03  0.72738252467E+02  0.72306349183E+03  0.73450469235E+03  0.00000000000E+00 0. -1.
         11    1    1    2    0    0 -0.13232824420E+02  0.30893066049E+02  0.11338809932E+03  0.11826390083E+03  0.00000000000E+00 0.  1.
</event>
<event>
 6    1  0.2661133E-009  0.1172169E+03  0.7561462E-02  0.1247760E+00
          1   -1    0    0  501    0  0.00000000000E+00  0.00000000000E+00  0.32426753138E+03  0.32426753138E+03  0.00000000000E+00 0. -1.
         -1   -1    0    0    0  501 -0.00000000000E+00 -0.00000000000E+00 -0.56527020391E+02  0.56527020391E+02  0.00000000000E+00 0.  1.
          5    1    1    2  502    0 -0.10356925284E+02 -0.23125971549E+02  0.69605890082E+02  0.74192511722E+02  0.41800000000E+01 0.  1.
         -5    1    1    2    0  502  0.29982971966E+02  0.99015611400E+02  0.46327043217E+02  0.11343164127E+03  0.41800000000E+01 0.  1.
        -11    1    1    2    0    0 -0.19554749270E+02  0.81407415771E+01  0.18350683463E+01  0.21260935263E+02  0.00000000000E+00 0.  1.
         11    1    1    2    0    0 -0.71297412193E-01 -0.84030381429E+02  0.14997250934E+03  0.17190946351E+03  0.00000000000E+00 0. -1.
</event>
<event>
 7    1  0.2661133E-009  0.9413101E+02  0.7561462E-02  0.1293145E+00
         -3   -1    0    0    0  501 -0.00000000000E+00  0.00000000000E+00  0.11277606942E+03  0.11277606942E+03  0.00000000000E+00 0.  1.
          3   -1    0    0  501    0  0.00000000000E+00 -0.00000000000E+00 -0.16428236839E+03  0.16428236839E+03  0.00000000000E+00 0. -1.
         25    2    1    2    0    0  0.36715310000E+02  0.36292099658E+02  0.37479832474E+02  0.14041887242E+03  0.12509033297E+03 0.  0.
          5    1    3    3  502    0  0.24997020476E+02  0.73190282213E+02  0.57661107771E+02  0.96560572661E+02  0.41800000000E+01 0.  1.
         -5    1    3    3    0  502  0.11718289523E+02 -0.36898182555E+02 -0.20181275297E+02  0.43858299760E+02  0.41800000000E+01 0.  1.
        -11    1    1    2    0    0  0.12492033098E+02 -0.44675291026E+01 -0.75301416089E+02  0.76461186050E+02  0.00000000000E+00 0. -1.
         11    1    1    2    0    0 -0.49207343097E+02 -0.31824570555E+02 -0.13684715351E+02  0.60178379340E+02  0.00000000000E+00 0.  1.
</event>
<event>
 7    1  0.2661133E-009  0.2179755E+03  0.7561462E-02  0.1135401E+00
         -2   -1    0    0    0  501 -0.00000000000E+00  0.00000000000E+00  0.38794291294E+02  0.38794291294E+02  0.00000000000E+00 0.  1.
          2   -1    0    0  501    0  0.00000000000E+00 -0.00000000000E+00 -0.13720387883E+04  0.13720387883E+04  0.00000000000E+00 0. -1.
         25    2    1    2    0    0 -0.17753698949E+03 -0.96481891634E+02 -0.62467308173E+03  0.66835005932E+03  0.12508878734E+03 0.  0.
          5    1    3    3  502    0 -0.15424937123E+03 -0.11631594556E+03 -0.43238909123E+03  0.47360327947E+03  0.41800000000E+01 0.  1.
         -5    1    3    3    0  502 -0.23287618252E+02  0.19834053930E+02 -0.19228399050E+03  0.19474677985E+03  0.41800000000E+01 0.  1.
        -11    1    1    2    0    0  0.11812312982E+03  0.96339851276E+02 -0.59613373997E+03  0.61531282830E+03  0.00000000000E+00 0.  1.
         11    1    1    2    0    0  0.59413859661E+02  0.14204035799E+00 -0.11243767530E+03  0.12717019196E+03  0.00000000000E+00 0. -1.
</event>
<event>
 7    1  0.2661133E-009  0.1070083E+03  0.7561462E-02  0.1266212E+00
         -2   -1    0    0    0  501 -0.00000000000E+00  0.00000000000E+00  0.54061011618E+03  0.54061011618E+03  0.00000000000E+00 0.  1.
          2   -1    0    0  501    0  0.00000000000E+00 -0.00000000000E+00 -0.28975842386E+02  0.28975842386E+02  0.00000000000E+00 0. -1.
         25    2    1    2    0    0  0.60873125604E+01  0.61366715067E+02  0.32619369906E+03  0.35475636458E+03  0.12508724881E+03 0.  0.
          5    1    3    3  502    0  0.10749309681E+02 -0.26671598096E+02  0.18018822022E+02  0.34191697101E+02  0.41800000000E+01 0.  1.
         -5    1    3    3    0  502 -0.46619971208E+01  0.88038313162E+02  0.30817487703E+03  0.32056466748E+03  0.41800000000E+01 0.  1.
        -11    1    1    2    0    0 -0.86161041248E+01 -0.78705269684E+02  0.99684946851E+02  0.12730218127E+03  0.00000000000E+00 0. -1.
         11    1    1    2    0    0  0.25287915644E+01  0.17338554618E+02  0.85755627885E+02  0.87527412717E+02  0.00000000000E+00 0.  1.
</event>
<event>
 7    1  0.2661133E-009  0.1492803E+03  0.7561462E-02  0.1201360E+00
         -2   -1    0    0    0  501 -0.00000000000E+00  0.00000000000E+00  0.14191094071E+03  0.14191094071E+03  0.00000000000E+00 0.  1.
          2   -1    0    0  501    0  0.00000000000E+00 -0.00000000000E+00 -0.23570894826E+03  0.23570894826E+03  0.00000000000E+00 0. -1.
         25    2    1    2    0    0 -0.11352732128E+03  0.75145939641E+01 -0.14493986076E+03  0.22271055362E+03  0.12508999025E+03 0.  0.
          5    1    3    3  502    0 -0.52975801535E+02 -0.56723847303E+02 -0.47184065293E+02  0.90927657062E+02  0.41800000000E+01 0.  1.
         -5    1    3    3    0  502 -0.60551519745E+02  0.64238441267E+02 -0.97755795462E+02  0.13178289656E+03  0.41800000000E+01 0.  1.
        -11    1    1    2    0    0  0.75861941017E+02  0.27828876253E+02 -0.19622975530E+01  0.80829023624E+02  0.00000000000E+00 0. -1.
         11    1    1    2    0    0  0.37665380262E+02 -0.35343470217E+02  0.53104150761E+02  0.74080311726E+02  0.00000000000E+00 0.  1.
</event>
<event>
 7    1  0.2661133E-009  0.1195316E+03  0.7561462E-02  0.1243872E+00
         -1   -1    0    0    0  501 -0.00000000000E+00  0.00000000000E+00  0.62272658466E+02  0.62272658466E+02  0.00000000000E+00 0.  1.
          1   -1    0    0  501    0  0.00000000000E+00 -0.00000000000E+00 -0.36348968885E+03  0.36348968885E+03  0.00000000000E+00 0. -1.
         25    2    1    2    0    0  0.96683889049E+02  0.43254880133E+02 -0.12327098806E+03  0.20509066953E+03  0.12509071577E+03 0.  0.
          5    1    3    3  502    0  0.36899692902E+01 -0.95293580556E+01  0.22026581291E+02  0.24638734174E+02  0.41800000000E+01 0.  1.
         -5    1    3    3    0  502  0.92993919759E+02  0.52784238189E+02 -0.14529756935E+03  0.18045193535E+03  0.41800000000E+01 0.  1.
        -11    1    1    2    0    0 -0.32052773781E+02 -0.46295070181E+02 -0.12489249883E+03  0.13699908793E+03  0.00000000000E+00 0.  1.
         11    1    1    2    0    0 -0.64631115269E+02  0.30401900479E+01 -0.53053543502E+02  0.83672589864E+02  0.00000000000E+00 0. -1.
</event>
<event>
 7    1  0.2661133E-009  0.3231610E+03  0.7561462E-02  0.1074204E+00
          1   -1    0    0  501    0  0.00000000000E+00  0.00000000000E+00  0.97791126254E+02  0.97791126254E+02  0.00000000000E+00 0. -1.
         -1   -1    0    0    0  501 -0.00000000000E+00 -0.00000000000E+00 -0.11336617985E+04  0.11336617985E+04  0.00000000000E+00 0.  1.
         25    2    1    2    0    0 -0.30854952225E+03  0.60095392070E+02 -0.53591168501E+03  0.63377113465E+03  0.12510097182E+03 0.  0.
          5    1    3    3  502    0 -0.80211705035E+02 -0.22023160258E+02 -0.22114242871E+03  0.23630569901E+03  0.41800000000E+01 0.  1.
         -5    1    3    3    0  502 -0.22833781722E+03  0.82118552327E+02 -0.31476925631E+03  0.39746543563E+03  0.41800000000E+01 0.  1.
        -11    1    1    2    0    0  0.17717452141E+03 -0.32629289135E+01 -0.33724940834E+03  0.38097063033E+03  0.00000000000E+00 0.  1.
         11    1    1    2    0    0  0.13137500084E+03 -0.56832463156E+02 -0.16270957892E+03  0.21671115981E+03  0.00000000000E+00 0. -1.
</event>
<event>
 7    1  0.2661133E-009  0.8710344E+02  0.7561462E-02  0.1310022E+00
          2   -1    0    0  501    0  0.00000000000E+00  0.00000000000E+00  0.48742024289E+02  0.48742024289E+02  0.00000000000E+00 0. -1.
         -2   -1    0    0    0  501 -0.00000000000E+00 -0.00000000000E+00 -0.25481994470E+03  0.25481994470E+03  0.00000000000E+00 0.  1.
         25    2    1    2    0    0 -0.58767867044E+01 -0.59227913523E+01 -0.79911667831E+02  0.14867099591E+03  0.12509026457E+03 0.  0.
          5    1    3    3  502    0  0.46952192073E+02 -0.31244305120E+02 -0.68519997270E+02  0.88843555584E+02  0.41800000000E+01 0. -1.
         -5    1    3    3    0  502 -0.52828978778E+02  0.25321513767E+02 -0.11391670561E+02  0.59827440329E+02  0.41800000000E+01 0. -1.
        -11    1    1    2    0    0  0.32249910683E+02  0.32679684419E+01 -0.74614051851E+01  0.33262725747E+02  0.00000000000E+00 0. -1.
         11    1    1    2    0    0 -0.26373123979E+02  0.26548229103E+01 -0.11870484739E+03  0.12162824733E+03  0.00000000000E+00 0.  1.
</event>
<event>
 7    1  0.2661133E-009  0.2698361E+03  0.7561462E-02  0.1101373E+00
          2   -1    0    0  501    0  0.00000000000E+00  0.00000000000E+00  0.31657199313E+03  0.31657199313E+03  0.00000000000E+00 0. -1.
         -2   -1    0    0    0  501 -0.00000000000E+00 -0.00000000000E+00 -0.39431731255E+03  0.39431731255E+03  0.00000000000E+00 0.  1.
         25    2    1    2    0    0 -0.25874428592E+03  0.56726143093E+02  0.16802744399E+03  0.33770999520E+03  0.12509339757E+03 0.  0.
          5    1    3    3  502    0 -0.17849795944E+03  0.72712459966E+02  0.59557068757E+02  0.20177497416E+03  0.41800000000E+01 0. -1.
         -5    1    3    3    0  502 -0.80246326473E+02 -0.15986316873E+02  0.10847037524E+03  0.13593502103E+03  0.41800000000E+01 0. -1.
        -11    1    1    2    0    0  0.54222281879E+02 -0.14390189727E+02 -0.79413822875E+01  0.56658617748E+02  0.00000000000E+00 0.  1.
         11    1    1    2    0    0  0.20452200404E+03 -0.42335953366E+02 -0.23783138112E+03  0.31652069273E+03  0.00000000000E+00 0. -1.
</event>
<event>
 7    1  0.2661133E-009  0.1683545E+03  0.7561462E-02  0.1179575E+00
         -2   -1    0    0    0  501 -0.00000000000E+00  0.00000000000E+00  0.13343796892E+03  0.13343796892E+03  0.00000000000E+00 0.  1.
          2   -1    0    0  501    0  0.00000000000E+00 -0.00000000000E+00 -0.24355185956E+03  0.24355185956E+03  0.00000000000E+00 0. -1.
         25    2    1    2    0    0 -0.15517156864E+02 -0.13795111851E+03 -0.86134825908E+02  0.20576164318E+03  0.12508937731E+03 0.  0.
          5    1    3    3  502    0 -0.53889412840E+02 -0.52782642975E+02 -0.82954223140E+02  0.11220049800E+03  0.41800000000E+01 0.  1.
         -5    1    3    3    0  502  0.38372255976E+02 -0.85168475530E+02 -0.31806027688E+01  0.93561145177E+02  0.41800000000E+01 0.  1.
        -11    1    1    2    0    0  0.24704014074E+02  0.15026952105E+03 -0.14051693743E+02  0.15293353905E+03  0.00000000000E+00 0.  1.
         11    1    1    2    0    0 -0.91868572101E+01 -0.12318402547E+02 -0.99273709847E+01  0.18294646249E+02  0.00000000000E+00 0. -1.
</event>
<event>
 7    1  0.2661133E-009  0.1078718E+03  0.7561462E-02  0.1264562E+00
          1   -1    0    0  501    0  0.00000000000E+00  0.00000000000E+00  0.12399425366E+04  0.12399425366E+04  0.00000000000E+00 0. -1.
         -1   -1    0    0    0  501 -0.00000000000E+00 -0.00000000000E+00 -0.10637957415E+02  0.10637957415E+02  0.00000000000E+00 0.  1.
         25    2    1    2    0    0  0.13645907894E+02 -0.30202752424E+02  0.77401022004E+03  0.78474823946E+03  0.12505823264E+03 0.  0.
          5    1    3    3  502    0 -0.46189293051E+02 -0.35057486016E+02  0.22270090807E+03  0.23016438685E+03  0.41800000000E+01 0.  1.
         -5    1    3    3    0  502  0.59835200945E+02  0.48547335919E+01  0.55130931197E+03  0.55458385261E+03  0.41800000000E+01 0.  1.
        -11    1    1    2    0    0  0.36971099782E+02  0.28676750442E+02  0.25343005677E+03  0.25771304179E+03  0.00000000000E+00 0. -1.
         11    1    1    2    0    0 -0.50617007676E+02  0.15260019824E+01  0.20186430235E+03  0.20811921274E+03  0.00000000000E+00 0.  1.
</event>
<event>
 7    1  0.2661133E-009  0.8544434E+02  0.7561462E-02  0.1314275E+00
          1   -1    0    0  501    0  0.00000000000E+00  0.00000000000E+00  0.10452591990E+04  0.10452591990E+04  0.00000000000E+00 0. -1.
         -1   -1    0    0    0  501 -0.00000000000E+00 -0.00000000000E+00 -0.14694005410E+02  0.14694005410E+02  0.00000000000E+00 0.  1.
         25    2    1    2    0    0  0.23450836597E+02  0.51554011266E+02  0.64908206269E+03  0.66344729250E+03  0.12508808096E+03 0.  0.
          5    1    3    3  502    0  0.18444098478E+02  0.10806043991E+02  0.59510149353E+03  0.59549997091E+03  0.41800000000E+01 0.  1.
         -5    1    3    3    0  502  0.50067381193E+01  0.40747967275E+02  0.53980569169E+02  0.67947321591E+02  0.41800000000E+01 0.  1.
        -11    1    1    2    0    0  0.15107510361E+02  0.20886426965E+02  0.79762151101E+02  0.83824104224E+02  0.00000000000E+00 0.  1.
         11    1    1    2    0    0 -0.38558346958E+02 -0.72440438231E+02  0.30172097984E+03  0.31268180773E+03  0.00000000000E+00 0. -1.
</event>
<event>
 7    1  0.2661133E-009  0.2878276E+03  0.7561462E-02  0.1091489E+00
          1   -1    0    0  501    0  0.00000000000E+00  0.00000000000E+00  0.12991787377E+04  0.12991787377E+04  0.00000000000E+00 0. -1.
         -1   -1    0    0    0  501 -0.00000000000E+00 -0.00000000000E+00 -0.65343748159E+02  0.65343748159E+02  0.00000000000E+00 0.  1.
         25    2    1    2    0    0  0.89904638319E+02 -0.25000688786E+03  0.64696624945E+03  0.71048760843E+03  0.12506408690E+03 0.  0.
          5    1    3    3  502    0  0.96820447289E+02 -0.93358164362E+02  0.34262411790E+03  0.36810148659E+03  0.41800000000E+01 0.  1.
         -5    1    3    3    0  502 -0.69158089699E+01 -0.15664872350E+03  0.30434213155E+03  0.34238612184E+03  0.41800000000E+01 0.  1.
        -11    1    1    2    0    0 -0.17556482147E+01  0.15357362476E+03  0.25927991550E+03  0.30135363794E+03  0.00000000000E+00 0.  1.
         11    1    1    2    0    0 -0.88148990104E+02  0.96433263104E+02  0.32758882463E+03  0.35268123952E+03  0.00000000000E+00 0. -1.
</event>
<event>
 7    1  0.2661133E-009  0.1118012E+03  0.7561462E-02  0.1257270E+00
          1   -1    0    0  501    0  0.00000000000E+00  0.00000000000E+00  0.78933517118E+03  0.78933517118E+03  0.00000000000E+00 0. -1.
         -1   -1    0    0    0  501 -0.00000000000E+00 -0.00000000000E+00 -0.17404188827E+02  0.17404188827E+02  0.00000000000E+00 0.  1.
         25    2    1    2    0    0  0.26324308485E+02  0.10047720779E+02  0.31803760365E+03  0.34291365148E+03  0.12509168288E+03 0.  0.
          5    1    3    3  502    0  0.11111133939E+02  0.67535405033E+02  0.16576523690E+03  0.17938805533E+03  0.41800000000E+01 0.  1.
         -5    1    3    3    0  502  0.15213174546E+02 -0.57487684254E+02  0.15227236676E+03  0.16352559616E+03  0.41800000000E+01 0.  1.
        -11    1    1    2    0    0  0.27585846361E+02 -0.27304205619E+02  0.17697235496E+03  0.18117867696E+03  0.00000000000E+00 0. -1.
         11    1    1    2    0    0 -0.53910154846E+02  0.17256484840E+02  0.27692102374E+03  0.28264703157E+03  0.00000000000E+00 0.  1.
</event>
<event>
 7    1  0.2661133E-009  0.7433651E+02  0.7561462E-02  0.1345938E+00
          3   -1    0    0  501    0  0.00000000000E+00  0.00000000000E+00  0.86441600579E+03  0.86441600579E+03  0.00000000000E+00 0. -1.
         -3   -1    0    0    0  501 -0.00000000000E+00 -0.00000000000E+00 -0.16831365975E+02  0.16831365975E+02  0.00000000000E+00 0.  1.
         25    2    1    2    0    0  0.20678202113E+02  0.19123136170E+02  0.43199166971E+03  0.45061933348E+03  0.12509076157E+03 0.  0.
          5    1    3    3  502    0 -0.41889469024E+00  0.14545419209E+02 -0.26941001638E+01  0.15377752385E+02  0.41800000000E+01 0.  1.
         -5    1    3    3    0  502  0.21097096803E+02  0.45777169616E+01  0.43468576987E+03  0.43524158110E+03  0.41800000000E+01 0.  1.
        -11    1    1    2    0    0  0.36941234932E+02  0.19893788626E+02  0.12644338895E+03  0.13322292698E+03  0.00000000000E+00 0. -1.
         11    1    1    2    0    0 -0.57619437045E+02 -0.39016924796E+02  0.28914958115E+03  0.29740511130E+03  0.00000000000E+00 0.  1.
</event>
<event>
 7    1  0.2661133E-009  0.8867650E+02  0.7561462E-02  0.1306089E+00
         -1   -1    0    0    0  501 -0.00000000000E+00  0.00000000000E+00  0.11556288918E+03  0.11556288918E+03  0.00000000000E+00 0.  1.
          1   -1    0    0  501    0  0.00000000000E+00 -0.00000000000E+00 -0.15077168064E+03  0.15077168064E+03  0.00000000000E+00 0. -1.
         25    2    1    2    0    0  0.88880643163E+01  0.73480995230E+02 -0.23954476473E+01  0.14536811316E+03  0.12509075028E+03 0.  0.
          5    1    3    3  502    0  0.15194144539E+02  0.68909214418E+02 -0.56532732883E+02  0.90513889250E+02  0.41800000000E+01 0.  1.
         -5    1    3    3    0  502 -0.63060802227E+01  0.45717808114E+01  0.54137285235E+02  0.54854223905E+02  0.41800000000E+01 0.  1.
        -11    1    1    2    0    0 -0.11308571770E+02  0.95240442014E+01  0.18246149901E+02  0.23484318164E+02  0.00000000000E+00 0.  1.
         11    1    1    2    0    0  0.24205074534E+01 -0.83005039431E+02 -0.51059493717E+02  0.97482138497E+02  0.00000000000E+00 0. -1.
</event>
<event>
 7    1  0.2661133E-009  0.7898760E+02  0.7561462E-02  0.1331949E+00
          2   -1    0    0  501    0  0.00000000000E+00  0.00000000000E+00  0.14711047355E+03  0.14711047355E+03  0.00000000000E+00 0. -1.
         -2   -1    0    0    0  501 -0.00000000000E+00 -0.00000000000E+00 -0.10015227781E+03  0.10015227781E+03  0.00000000000E+00 0.  1.
         25    2    1    2    0    0 -0.61136851712E+01 -0.40743304393E+02  0.62985174350E+02  0.14598167370E+03  0.12508446294E+03 0.  0.
          5    1    3    3  502    0 -0.20578365553E+02  0.12834763213E+02 -0.29268964438E+02  0.38240619174E+02  0.41800000000E+01 0. -1.
         -5    1    3    3    0  502  0.14464680382E+02 -0.53578067606E+02  0.92254138788E+02  0.10774105453E+03  0.41800000000E+01 0. -1.
        -11    1    1    2    0    0 -0.19116463262E+02 -0.96059804468E+01  0.24028037250E+02  0.32172357732E+02  0.00000000000E+00 0. -1.
         11    1    1    2    0    0  0.25230148433E+02  0.50349284840E+02 -0.40055015861E+02  0.69108719923E+02  0.00000000000E+00 0.  1.
</event>
<event>
 7    1  0.2661133E-009  0.1171846E+03  0.7561462E-02  0.1247815E+00
          1   -1    0    0  501    0  0.00000000000E+00  0.00000000000E+00  0.17759199003E+02  0.17759199003E+02  0.00000000000E+00 0. -1.
         -1   -1    0    0    0  501 -0.00000000000E+00 -0.00000000000E+00 -0.90993989982E+03  0.90993989982E+03  0.00000000000E+00 0.  1.
         25    2    1    2    0    0 -0.46182761363E+02 -0.20655673474E+02 -0.65617202271E+03  0.66990223299E+03  0.12509106321E+03 0.  0.
          5    1    3    3  502    0  0.11905866518E+02 -0.59479729571E+02 -0.22430773636E+03  0.23240271271E+03  0.41800000000E+01 0.  1.
         -5    1    3    3    0  502 -0.58088627881E+02  0.38824056097E+02 -0.43186428635E+03  0.43749952028E+03  0.41800000000E+01 0.  1.
        -11    1    1    2    0    0  0.27537898613E+02  0.56676374927E+02 -0.15036039631E+03  0.16303004666E+03  0.00000000000E+00 0. -1.
         11    1    1    2    0    0  0.18644862750E+02 -0.36020701453E+02 -0.85648281801E+02  0.94766819170E+02  0.00000000000E+00 0.  1.
</event>
<event>
 7    1  0.2661133E-009  0.1344791E+03  0.7561462E-02  0.1220957E+00
         -1   -1    0    0    0  501 -0.00000000000E+00  0.00000000000E+00  0.28470195670E+02  0.28470195670E+02  0.00000000000E+00 0.  1.
          1   -1    0    0  501    0  0.00000000000E+00 -0.00000000000E+00 -0.10354872616E+04  0.10354872616E+04  0.00000000000E+00 0. -1.
         25    2    1    2    0    0 -0.15553736162E+02 -0.76917776485E+02 -0.85965343933E+03  0.87224299766E+03  0.12508216567E+03 0.  0.
          5    1    3    3  502    0  0.16625058477E+02  0.30710224618E+02 -0.19308614069E+03  0.19626319215E+03  0.41800000000E+01 0. -1.
         -5    1    3    3    0  502 -0.32178794639E+02 -0.10762800110E+03 -0.66656729863E+03  0.67597980550E+03  0.41800000000E+01 0. -1.
        -11    1    1    2    0    0 -0.38842757043E+02  0.25097352418E+02 -0.69809590627E+02  0.83737780103E+02  0.00000000000E+00 0. -1.
         11    1    1    2    0    0  0.54396493205E+02  0.51820424067E+02 -0.77554036008E+02  0.10797667954E+03  0.00000000000E+00 0.  1.
</event>
<event>
 7    1  0.2661133E-009  0.1074483E+03  0.7561462E-02  0.1265370E+00
          3   -1    0    0  501    0  0.00000000000E+00  0.00000000000E+00  0.20606866337E+03  0.20606866337E+03  0.00000000000E+00 0. -1.
         -3   -1    0    0    0  501 -0.00000000000E+00 -0.00000000000E+00 -0.12653931426E+03  0.12653931426E+03  0.00000000000E+00 0.  1.
         25    2    1    2    0    0  0.47103425182E+02 -0.74353596590E+02  0.12235229194E+03  0.19587161091E+03  0.12509362345E+03 0.  0.
          5    1    3    3  502    0  0.55873216297E+02 -0.36049413165E+02  0.13810095809E+03  0.15333206943E+03  0.41800000000E+01 0.  1.
         -5    1    3    3    0  502 -0.87697911149E+01 -0.38304183425E+02 -0.15748666148E+02  0.42539541482E+02  0.41800000000E+01 0.  1.
        -11    1    1    2    0    0 -0.13604575653E+02  0.74014428037E+02 -0.62553001926E+02  0.97857539752E+02  0.00000000000E+00 0.  1.
         11    1    1    2    0    0 -0.33498849529E+02  0.33916855322E+00  0.19730059093E+02  0.38878826974E+02  0.00000000000E+00 0. -1.
</event>
<event>
 7    1  0.2661133E-009  0.3893302E+03  0.7561462E-02  0.1047538E+00
         -1   -1    0    0    0  501 -0.00000000000E+00  0.00000000000E+00  0.17317771369E+03  0.17317771369E+03  0.00000000000E+00 0.  1.
          1   -1    0    0  501    0  0.00000000000E+00 -0.00000000000E+00 -0.12644375832E+04  0.12644375832E+04  0.00000000000E+00 0. -1.
         25    2    1    2    0    0  0.33219129921E+03  0.19906136717E+03 -0.18332663995E+03  0.44634888679E+03  0.12506871974E+03 0.  0.
          5    1    3    3  502    0  0.16988367666E+03  0.12346779583E+03 -0.16344651631E+03  0.26615220513E+03  0.41800000000E+01 0. -1.
         -5    1    3    3    0  502  0.16230762255E+03  0.75593571336E+02 -0.19880123638E+02  0.18019668166E+03  0.41800000000E+01 0. -1.
        -11    1    1    2    0    0 -0.17889759883E+03 -0.13129130691E+03 -0.61450107109E+03  0.65334012927E+03  0.00000000000E+00 0.  1.
         11    1    1    2    0    0 -0.15329370039E+03 -0.67770060254E+02 -0.29343215842E+03  0.33792628078E+03  0.00000000000E+00 0. -1.
</event>
<event>
 7    1  0.2661133E-009  0.1406396E+03  0.7561462E-02  0.1212471E+00
         -1   -1    0    0    0  501 -0.00000000000E+00  0.00000000000E+00  0.60683536412E+02  0.60683536412E+02  0.00000000000E+00 0.  1.
          1   -1    0    0  501    0  0.00000000000E+00 -0.00000000000E+00 -0.49709473000E+03  0.49709473000E+03  0.00000000000E+00 0. -1.
         25    2    1    2    0    0 -0.24818498062E+02 -0.12446266304E+03 -0.30867292092E+03  0.35641679087E+03  0.12508814640E+03 0.  0.
          5    1    3    3  502    0  0.66252935513E+01 -0.17855362106E+02  0.77746857669E+01  0.20991107864E+02  0.41800000000E+01 0. -1.
         -5    1    3    3    0  502 -0.31443791614E+02 -0.10660730093E+03 -0.31644760669E+03  0.33542568301E+03  0.41800000000E+01 0. -1.
        -11    1    1    2    0    0 -0.28858780311E+02  0.28265867024E+02 -0.13325474903E+02  0.42536533957E+02  0.00000000000E+00 0.  1.
         11    1    1    2    0    0  0.53677278374E+02  0.96196796013E+02 -0.11441279776E+03  0.15882494158E+03  0.00000000000E+00 0. -1.
</event>
<event>
 7    1  0.2661133E-009  0.1019483E+03  0.7561462E-02  0.1276251E+00
          1   -1    0    0  501    0  0.00000000000E+00  0.00000000000E+00  0.40475869330E+03  0.40475869330E+03  0.00000000000E+00 0. -1.
         -1   -1    0    0    0  501 -0.00000000000E+00 -0.00000000000E+00 -0.45367221489E+02  0.45367221489E+02  0.00000000000E+00 0.  1.
         25    2    1    2    0    0  0.52305244685E+01  0.63510351462E+02  0.11798831165E+03  0.18338589180E+03  0.12509284749E+03 0.  0.
          5    1    3    3  502    0 -0.24633010239E+02 -0.25356658613E+02  0.68725639254E+02  0.77397876072E+02  0.41800000000E+01 0. -1.
         -5    1    3    3    0  502  0.29863534708E+02  0.88867010076E+02  0.49262672400E+02  0.10598801572E+03  0.41800000000E+01 0. -1.
        -11    1    1    2    0    0  0.90663437159E+01 -0.58661669147E+02  0.24426558884E+03  0.25137435809E+03  0.00000000000E+00 0. -1.
         11    1    1    2    0    0 -0.14296868184E+02 -0.48486823158E+01 -0.28624286783E+01  0.15365664907E+02  0.00000000000E+00 0.  1.
</event>
<event>
 7    1  0.2661133E-009  0.1252664E+03  0.7561462E-02  0.1234654E+00
         -1   -1    0    0    0  501 -0.00000000000E+00  0.00000000000E+00  0.87801092071E+02  0.87801092071E+02  0.00000000000E+00 0.  1.
          1   -1    0    0  501    0  0.00000000000E+00 -0.00000000000E+00 -0.24455172611E+03  0.24455172611E+03  0.00000000000E+00 0. -1.
         25    2    1    2    0    0 -0.19562019341E+02 -0.93173733969E+02 -0.10809186329E+03  0.19077638649E+03  0.12509101258E+03 0.  0.
          5    1    3    3  502    0  0.26431033569E+02 -0.72866539893E+02 -0.11613540183E+03  0.13968906947E+03  0.41800000000E+01 0.  1.
         -5    1    3    3    0  502 -0.45993052909E+02 -0.20307194076E+02  0.80435385432E+01  0.51087317012E+02  0.41800000000E+01 0.  1.
        -11    1    1    2    0    0  0.48730347630E+02  0.69551667404E+02 -0.58071318090E+02  0.10288031495E+03  0.00000000000E+00 0. -1.
         11    1    1    2    0    0 -0.29168328289E+02  0.23622066565E+02  0.94125473405E+01  0.38696116748E+02  0.00000000000E+00 0.  1.
</event>
<event>
 7    1  0.2661133E-009  0.1195742E+03  0.7561462E-02  0.1243801E+00
          1   -1    0    0  501    0  0.00000000000E+00  0.00000000000E+00  0.35757261542E+03  0.35757261542E+03  0.00000000000E+00 0. -1.
         -1   -1    0    0    0  501 -0.00000000000E+00 -0.00000000000E+00 -0.61633087592E+02  0.61633087592E+02  0.00000000000E+00 0.  1.
         25    2    1    2    0    0  0.12050387337E+02 -0.93078937553E+02  0.20998792431E+03  0.26182293855E+03  0.12508965723E+03 0.  0.
          5    1    3    3  502    0  0.28055206862E+02 -0.94682381468E+02  0.70641228738E+02  0.12148869738E+03  0.41800000000E+01 0.  1.
         -5    1    3    3    0  502 -0.16004819525E+02  0.16034439141E+01  0.13934669557E+03  0.14033424118E+03  0.41800000000E+01 0.  1.
        -11    1    1    2    0    0 -0.46614965669E+02  0.58450532742E+02  0.24166218908E+02  0.78571152075E+02  0.00000000000E+00 0.  1.
         11    1    1    2    0    0  0.34564578332E+02  0.34628404811E+02  0.61785384615E+02  0.78811612387E+02  0.00000000000E+00 0. -1.
</event>
<event>
 7    1  0.2661133E-009  0.1171122E+03  0.7561462E-02  0.1247938E+00
          1   -1    0    0  501    0  0.00000000000E+00  0.00000000000E+00  0.47866871801E+02  0.47866871801E+02  0.00000000000E+00 0. -1.
         -1   -1    0    0    0  501 -0.00000000000E+00 -0.00000000000E+00 -0.31699244935E+03  0.31699244935E+03  0.00000000000E+00 0.  1.
         25    2    1    2    0    0  0.36056459558E+02 -0.37272012281E+02 -0.17541476415E+03  0.22160212447E+03  0.12509153013E+03 0.  0.
          5    1    3    3  502    0 -0.39696484695E+02 -0.37725888388E+02 -0.46246538220E+02  0.71800196721E+02  0.41800000000E+01 0.  1.
         -5    1    3    3    0  502  0.75752944253E+02  0.45387610725E+00 -0.12916822593E+03  0.14980192775E+03  0.41800000000E+01 0.  1.
        -11    1    1    2    0    0  0.29980107142E+02  0.16415764318E+02 -0.52575959455E+02  0.62709773201E+02  0.00000000000E+00 0.  1.
         11    1    1    2    0    0 -0.66036566699E+02  0.20856247963E+02 -0.41134853940E+02  0.80547423480E+02  0.00000000000E+00 0. -1.
</event>
<event>
 7    1  0.2661133E-009  0.1324414E+03  0.7561462E-02  0.1223877E+00
         -2   -1    0    0    0  501 -0.00000000000E+00  0.00000000000E+00  0.18416053516E+02  0.18416053516E+02  0.00000000000E+00 0. -1.
          2   -1    0    0  501    0  0.00000000000E+00 -0.00000000000E+00 -0.10470737476E+04  0.10470737476E+04  0.00000000000E+00 0.  1.
         25    2    1    2    0    0  0.62124405351E+02  0.61369690823E+02 -0.56264660669E+03  0.58296201781E+03  0.12509128469E+03 0.  0.
          5    1    3    3  502    0  0.85856628027E+02  0.83486615570E+02 -0.43811926202E+03  0.45421067326E+03  0.41800000000E+01 0. -1.
         -5    1    3    3    0  502 -0.23732222676E+02 -0.22116924747E+02 -0.12452734467E+03  0.12875134455E+03  0.41800000000E+01 0. -1.
        -11    1    1    2    0    0 -0.42626938406E+02 -0.76561708731E+02 -0.43007749517E+03  0.43891389016E+03  0.00000000000E+00 0.  1.
         11    1    1    2    0    0 -0.19497466945E+02  0.15192017907E+02 -0.35933592265E+02  0.43613893181E+02  0.00000000000E+00 0. -1.
</event>
<event>
 7    1  0.2661133E-009  0.1481802E+03  0.7561462E-02  0.1202727E+00
          1   -1    0    0  501    0  0.00000000000E+00  0.00000000000E+00  0.99242925584E+03  0.99242925584E+03  0.00000000000E+00 0. -1.
         -1   -1    0    0    0  501 -0.00000000000E+00 -0.00000000000E+00 -0.29136900904E+02  0.29136900904E+02  0.00000000000E+00 0.  1.
         25    2    1    2    0    0  0.11947141072E+03 -0.75046669738E+00  0.35181207733E+03  0.39203802820E+03  0.12509235237E+03 0.  0.
          5    1    3    3  502    0  0.11796858313E+03  0.27849967876E+02  0.17528383141E+03  0.21315276510E+03  0.41800000000E+01 0. -1.
         -5    1    3    3    0  502  0.15028275953E+01 -0.28600434574E+02  0.17652824592E+03  0.17888526310E+03  0.41800000000E+01 0. -1.
        -11    1    1    2    0    0 -0.12587270636E+03 -0.17231017030E+02  0.56812954533E+03  0.58216151233E+03  0.00000000000E+00 0.  1.
         11    1    1    2    0    0  0.64012956384E+01  0.17981483727E+02  0.43350732272E+02  0.47366616213E+02  0.00000000000E+00 0. -1.
</event>
<event>
 7    1  0.3273747E-009  0.1470722E+03  0.7561462E-02  0.1204117E+00
          1   -1    0    0  501    0  0.00000000000E+00  0.00000000000E+00  0.14056934423E+03  0.14056934423E+03  0.00000000000E+00 0. -1.
         -1   -1    0    0    0  501 -0.00000000000E+00 -0.00000000000E+00 -0.16410992520E+03  0.16410992520E+03  0.00000000000E+00 0.  1.
         25    2    1    2    0    0  0.86432696812E+01 -0.10519790016E+03 -0.14582155154E+01  0.16367353921E+03  0.12508235981E+03 0.  0.
          5    1    3    3  502    0 -0.41012137501E+02  0.60270835412E+01  0.24339479027E+01  0.41733891033E+02  0.41800000000E+01 0.  1.
         -5    1    3    3    0  502  0.49655407182E+02 -0.11122498370E+03 -0.38921634181E+01  0.12193964818E+03  0.41800000000E+01 0.  1.
        -11    1    1    2    0    0  0.34191476693E+02  0.53126753078E+02 -0.35190214741E+02  0.72317772259E+02  0.00000000000E+00 0.  1.
         11    1    1    2    0    0 -0.42834746374E+02  0.52071147081E+02  0.13107849290E+02  0.68687957957E+02  0.00000000000E+00 0. -1.
</event>
<event>
 7    1  0.2661133E-009  0.8814577E+02  0.7561462E-02  0.1307405E+00
         -2   -1    0    0    0  501 -0.00000000000E+00  0.00000000000E+00  0.21701982545E+02  0.21701982545E+02  0.00000000000E+00 0.  1.
          2   -1    0    0  501    0  0.00000000000E+00 -0.00000000000E+00 -0.56852418580E+03  0.56852418580E+03  0.00000000000E+00 0. -1.
         25    2    1    2    0    0 -0.13671877602E+02 -0.13438273649E+02 -0.29290636108E+03  0.31907556042E+03  0.12509024525E+03 0.  0.
          5    1    3    3  502    0 -0.30242166785E+02 -0.52165191452E+02 -0.71341398981E+02  0.93503280475E+02  0.41800000000E+01 0. -1.
         -5    1    3    3    0  502  0.16570289184E+02  0.38726917803E+02 -0.22156496210E+03  0.22557227994E+03  0.41800000000E+01 0. -1.
        -11    1    1    2    0    0 -0.18330990368E+02  0.31739811545E+02 -0.40702486495E+02  0.54773472153E+02  0.00000000000E+00 0.  1.
         11    1    1    2    0    0  0.32002867970E+02 -0.18301537896E+02 -0.21321335567E+03  0.21637713577E+03  0.00000000000E+00 0. -1.
</event>
<event>
 7    1  0.2661133E-009  0.1618923E+03  0.7561462E-02  0.1186577E+00
          1   -1    0    0  501    0  0.00000000000E+00  0.00000000000E+00  0.62899506467E+03  0.62899506467E+03  0.00000000000E+00 0. -1.
         -1   -1    0    0    0  501 -0.00000000000E+00 -0.00000000000E+00 -0.66826316734E+02  0.66826316734E+02  0.00000000000E+00 0.  1.
         25    2    1    2    0    0 -0.12441825340E+03  0.41310309646E+02  0.49563591350E+03  0.52772077686E+03  0.12509123118E+03 0.  0.
          5    1    3    3  502    0 -0.14389957031E+03  0.26273531534E+02  0.46862346572E+03  0.49094073962E+03  0.41800000000E+01 0.  1.
         -5    1    3    3    0  502  0.19481316911E+02  0.15036778112E+02  0.27012447785E+02  0.36780037247E+02  0.41800000000E+01 0.  1.
        -11    1    1    2    0    0  0.11398848049E+03 -0.43399024646E+01  0.37944175284E+02  0.12021634197E+03  0.00000000000E+00 0.  1.
         11    1    1    2    0    0  0.10429772903E+02 -0.36970407182E+02  0.28588659150E+02  0.47884262571E+02  0.00000000000E+00 0. -1.
</event>
<event>
 7    1  0.2661133E-009  0.1108127E+03  0.7561462E-02  0.1259072E+00
         -1   -1    0    0    0  501 -0.00000000000E+00  0.00000000000E+00  0.71225637997E+03  0.71225637997E+03  0.00000000000E+00 0.  1.
          1   -1    0    0  501    0  0.00000000000E+00 -0.00000000000E+00 -0.19992438891E+02  0.19992438891E+02  0.00000000000E+00 0. -1.
         25    2    1    2    0    0  0.12715217209E+02 -0.33674764619E+02  0.51258128890E+03  0.52885111511E+03  0.12509299624E+03 0.  0.
          5    1    3    3  502    0  0.67169362749E+02 -0.51028618307E+01  0.23440815597E+03  0.24393117569E+03  0.41800000000E+01 0. -1.
         -5    1    3    3    0  502 -0.54454145540E+02 -0.28571902788E+02  0.27817313293E+03  0.28491993942E+03  0.41800000000E+01 0. -1.
        -11    1    1    2    0    0 -0.48481313649E+02  0.28823977820E+02  0.13240059984E+03  0.14391378776E+03  0.00000000000E+00 0.  1.
         11    1    1    2    0    0  0.35766096440E+02  0.48507867990E+01  0.47282052345E+02  0.59483915987E+02  0.00000000000E+00 0. -1.
</event>
<event>
 7    1  0.2661133E-009  0.1464495E+03  0.7561462E-02  0.1204905E+00
         -1   -1    0    0    0  501 -0.00000000000E+00  0.00000000000E+00  0.11672355710E+03  0.11672355710E+03  0.00000000000E+00 0.  1.
          1   -1    0    0  501    0  0.00000000000E+00 -0.00000000000E+00 -0.18404021432E+03  0.18404021432E+03  0.00000000000E+00 0. -1.
         25    2    1    2    0    0  0.46204199939E+02  0.86748881237E+02 -0.40537755435E+02  0.16416854314E+03  0.12509118456E+03 0.  0.
          5    1    3    3  502    0  0.68751296075E+02 -0.36936376581E+00 -0.14410464525E+02  0.70370526710E+02  0.41800000000E+01 0.  1.
         -5    1    3    3    0  502 -0.22547096137E+02  0.87118245002E+02 -0.26127290910E+02  0.93798016433E+02  0.41800000000E+01 0.  1.
        -11    1    1    2    0    0  0.22594948637E+02 -0.52342710900E+02 -0.12245079082E+02  0.58311517302E+02  0.00000000000E+00 0.  1.
         11    1    1    2    0    0 -0.68799148576E+02 -0.34406170336E+02 -0.14533822709E+02  0.78283710978E+02  0.00000000000E+00 0. -1.
</event>
<event>
 7    1  0.2661133E-009  0.1071186E+03  0.7561462E-02  0.1266001E+00
         -1   -1    0    0    0  501 -0.00000000000E+00  0.00000000000E+00  0.11259551164E+03  0.11259551164E+03  0.00000000000E+00 0.  1.
          1   -1    0    0  501    0  0.00000000000E+00 -0.00000000000E+00 -0.23263211004E+03  0.23263211004E+03  0.00000000000E+00 0. -1.
         25    2    1    2    0    0 -0.46269442779E+02 -0.21093924108E+02 -0.17930089178E+03  0.22446073084E+03  0.12509194589E+03 0.  0.
          5    1    3    3  502    0 -0.53104844857E+02 -0.59695913535E+02 -0.16342677261E+03  0.18196018533E+03  0.41800000000E+01 0. -1.
         -5    1    3    3    0  502  0.68354020778E+01  0.38601989426E+02 -0.15874119168E+02  0.42500545509E+02  0.41800000000E+01 0. -1.
        -11    1    1    2    0    0 -0.36261656040E+01  0.40945199962E+02  0.52447576438E+02  0.66636377086E+02  0.00000000000E+00 0.  1.
         11    1    1    2    0    0  0.49895608383E+02 -0.19851275854E+02  0.68167169413E+01  0.54130513750E+02  0.00000000000E+00 0. -1.
</event>
<event>
 7    1  0.2661133E-009  0.1298165E+03  0.7561462E-02  0.1227728E+00
         -1   -1    0    0    0  501 -0.00000000000E+00  0.00000000000E+00  0.13243236464E+03  0.13243236464E+03  0.00000000000E+00 0.  1.
          1   -1    0    0  501    0  0.00000000000E+00 -0.00000000000E+00 -0.15601725060E+03  0.15601725060E+03  0.00000000000E+00 0. -1.
         25    2    1    2    0    0  0.55652601704E+02  0.58480109287E+02  0.36830905391E+02  0.15336804426E+03  0.12509239045E+03 0.  0.
          5    1    3    3  502    0 -0.33980917288E+02 -0.79778047832E+01  0.19999709089E+02  0.40445134102E+02  0.41800000000E+01 0.  1.
         -5    1    3    3    0  502  0.89633518991E+02  0.66457914071E+02  0.16831196302E+02  0.11292291016E+03  0.41800000000E+01 0.  1.
        -11    1    1    2    0    0 -0.16629413183E+02 -0.70144017181E+02 -0.60870337346E+02  0.94349978791E+02  0.00000000000E+00 0. -1.
         11    1    1    2    0    0 -0.39023188521E+02  0.11663907894E+02  0.45454599501E+00  0.40731592183E+02  0.00000000000E+00 0.  1.
</event>
<event>
 7    1  0.2661133E-009  0.1378284E+03  0.7561462E-02  0.1216281E+00
         -2   -1    0    0    0  501 -0.00000000000E+00  0.00000000000E+00  0.86158335256E+02  0.86158335256E+02  0.00000000000E+00 0.  1.
          2   -1    0    0  501    0  0.00000000000E+00 -0.00000000000E+00 -0.36457664320E+03  0.36457664320E+03  0.00000000000E+00 0. -1.
         25    2    1    2    0    0 -0.97987954412E+02 -0.96314408136E+02 -0.11260695756E+03  0.21727033641E+03  0.12509183734E+03 0.  0.
          5    1    3    3  502    0 -0.77962669720E+02 -0.69987189073E+02 -0.13944688887E+03  0.17446859809E+03  0.41800000000E+01 0. -1.
         -5    1    3    3    0  502 -0.20025284693E+02 -0.26327219063E+02  0.26839931307E+02  0.42801738320E+02  0.41800000000E+01 0. -1.
        -11    1    1    2    0    0  0.82128474840E+02  0.78450905730E+02 -0.67127565663E+02  0.13193081922E+03  0.00000000000E+00 0.  1.
         11    1    1    2    0    0  0.15859479573E+02  0.17863502407E+02 -0.98683784719E+02  0.10153382282E+03  0.00000000000E+00 0. -1.
</event>
<event>
 7    1  0.2661133E-009  0.1670756E+03  0.7561462E-02  0.1180932E+00
          2   -1    0    0  501    0  0.00000000000E+00  0.00000000000E+00  0.51881555204E+03  0.51881555204E+03  0.00000000000E+00 0.  1.
         -2   -1    0    0    0  501 -0.00000000000E+00 -0.00000000000E+00 -0.68290443376E+02  0.68290443376E+02  0.00000000000E+00 0. -1.
         25    2    1    2    0    0  0.16365495511E+02 -0.13740034527E+03  0.13226802702E+03  0.22866825013E+03  0.12509058047E+03 0.  0.
          5    1    3    3  502    0 -0.47163103753E+02 -0.98764485463E+02  0.59950588787E+02  0.12486123274E+03  0.41800000000E+01 0.  1.
         -5    1    3    3    0  502  0.63528599264E+02 -0.38635859804E+02  0.72317438237E+02  0.10380701739E+03  0.41800000000E+01 0.  1.
        -11    1    1    2    0    0  0.15195815470E+02  0.10029230581E+03  0.27564151299E+03  0.29371364132E+03  0.00000000000E+00 0.  1.
         11    1    1    2    0    0 -0.31561310981E+02  0.37108039458E+02  0.42615568653E+02  0.64724103971E+02  0.00000000000E+00 0. -1.
</event>
<event>
 7    1  0.2661133E-009  0.1604416E+03  0.7561462E-02  0.1188199E+00
          2   -1    0    0  501    0  0.00000000000E+00  0.00000000000E+00  0.24845937194E+04  0.24845937194E+04  0.00000000000E+00 0. -1.
         -2   -1    0    0    0  501 -0.00000000000E+00 -0.00000000000E+00 -0.13663624391E+02  0.13663624391E+02  0.00000000000E+00 0.  1.
         25    2    1    2    0    0  0.82103022557E+02  0.11619218904E+03  0.15778982975E+04  0.15892292217E+04  0.12507977758E+03 0.  0.
          5    1    3    3  502    0  0.47068320248E+02  0.24927386452E+02  0.17623923841E+03  0.18415901531E+03  0.41800000000E+01 0. -1.
         -5    1    3    3    0  502  0.35034702309E+02  0.91264802588E+02  0.14016590590E+04  0.14050702063E+04  0.41800000000E+01 0. -1.
        -11    1    1    2    0    0 -0.82227124307E+02 -0.36578024730E+02  0.49427101109E+03  0.50239733705E+03  0.00000000000E+00 0.  1.
         11    1    1    2    0    0  0.12410174985E+00 -0.79614164310E+02  0.39876078651E+03  0.40663078513E+03  0.00000000000E+00 0. -1.
</event>
<event>
 7    1  0.2661133E-009  0.9646041E+02  0.7561462E-02  0.1287920E+00
         -1   -1    0    0    0  501 -0.00000000000E+00  0.00000000000E+00  0.28203701034E+02  0.28203701034E+02  0.00000000000E+00 0.  1.
          1   -1    0    0  501    0  0.00000000000E+00 -0.00000000000E+00 -0.50539419047E+03  0.50539419047E+03  0.00000000000E+00 0. -1.
         25    2    1    2    0    0 -0.33835221368E+02 -0.27601418280E+02 -0.32628869269E+03  0.35216597869E+03  0.12509958062E+03 0.  0.
          5    1    3    3  502    0 -0.37162770920E+02 -0.73817307329E+02 -0.16950544696E+03  0.18862564871E+03  0.41800000000E+01 0.  1.
         -5    1    3    3    0  502  0.33275495511E+01  0.46215889049E+02 -0.15678324573E+03  0.16354032997E+03  0.41800000000E+01 0.  1.
        -11    1    1    2    0    0  0.10150956445E+02  0.36849044978E+02 -0.15124921029E+03  0.15600390266E+03  0.00000000000E+00 0. -1.
         11    1    1    2    0    0  0.23684264923E+02 -0.92476266980E+01  0.34741353670E+00  0.25428010159E+02  0.00000000000E+00 0.  1.
</event>
<event>
 7    1  0.2661133E-009  0.1286618E+03  0.7561462E-02  0.1229455E+00
         -2   -1    0    0    0  501 -0.00000000000E+00  0.00000000000E+00  0.15633776767E+03  0.15633776767E+03  0.00000000000E+00 0.  1.
          2   -1    0    0  501    0  0.00000000000E+00 -0.00000000000E+00 -0.18389781709E+03  0.18389781709E+03  0.00000000000E+00 0. -1.
         25    2    1    2    0    0 -0.10120609232E+03  0.37161733314E+02  0.59119856505E+02  0.17539008827E+03  0.12507141194E+03 0.  0.
          5    1    3    3  502    0 -0.90850171132E+02  0.82081290039E+01  0.92384219566E+02  0.12989781908E+03  0.41800000000E+01 0.  1.
         -5    1    3    3    0  502 -0.10355921185E+02  0.28953604310E+02 -0.33264363061E+02  0.45492269189E+02  0.41800000000E+01 0.  1.
        -11    1    1    2    0    0  0.10147113627E+03 -0.37272982300E+01 -0.44089076949E+02  0.11069837828E+03  0.00000000000E+00 0. -1.
         11    1    1    2    0    0 -0.26504395029E+00 -0.33434435084E+02 -0.42590828977E+02  0.54147118212E+02  0.00000000000E+00 0.  1.
</event>
<event>
 7    1  0.2661133E-009  0.8334370E+02  0.7561462E-02  0.1319822E+00
         -2   -1    0    0    0  501 -0.00000000000E+00  0.00000000000E+00  0.13042629361E+03  0.13042629361E+03  0.00000000000E+00 0.  1.
          2   -1    0    0  501    0  0.00000000000E+00 -0.00000000000E+00 -0.97926797751E+02  0.97926797751E+02  0.00000000000E+00 0. -1.
         25    2    1    2    0    0 -0.19144835285E+02 -0.20179284337E+02  0.30244929179E+02  0.13166567684E+03  0.12508943393E+03 0.  0.
          5    1    3    3  502    0 -0.32861494222E+02  0.43311554171E+02  0.37492452868E+02  0.66173445953E+02  0.41800000000E+01 0. -1.
         -5    1    3    3    0  502  0.13716658937E+02 -0.63490838508E+02 -0.72475236887E+01  0.65492230887E+02  0.41800000000E+01 0. -1.
        -11    1    1    2    0    0  0.28108923359E+02  0.37548973275E+01  0.43195845294E+02  0.51672931764E+02  0.00000000000E+00 0.  1.
         11    1    1    2    0    0 -0.89640880743E+01  0.16424387010E+02 -0.40941278612E+02  0.45014482759E+02  0.00000000000E+00 0. -1.
</event>
<event>
 7    1  0.2661133E-009  0.8089287E+02  0.7561462E-02  0.1326537E+00
          2   -1    0    0  501    0  0.00000000000E+00  0.00000000000E+00  0.49079381732E+03  0.49079381732E+03  0.00000000000E+00 0. -1.
         -2   -1    0    0    0  501 -0.00000000000E+00 -0.00000000000E+00 -0.26267031224E+02  0.26267031224E+02  0.00000000000E+00 0.  1.
         25    2    1    2    0    0  0.28710864111E+02 -0.19492134595E+02  0.28262557430E+03  0.31101262505E+03  0.12508949060E+03 0.  0.
          5    1    3    3  502    0 -0.16385149590E+02 -0.40482202447E+01  0.25533653749E+03  0.25592788240E+03  0.41800000000E+01 0. -1.
         -5    1    3    3    0  502  0.45096013700E+02 -0.15443914350E+02  0.27289036816E+02  0.55084742646E+02  0.41800000000E+01 0. -1.
        -11    1    1    2    0    0  0.27963662260E+02 -0.13412352624E+02  0.65361474681E+02  0.72346250646E+02  0.00000000000E+00 0. -1.
         11    1    1    2    0    0 -0.56674526371E+02  0.32904487219E+02  0.11653973712E+03  0.13370197286E+03  0.00000000000E+00 0.  1.
</event>
<event>
 7    1  0.2789384E-009  0.1512200E+03  0.7561462E-02  0.1198982E+00
         -1   -1    0    0    0  501 -0.00000000000E+00  0.00000000000E+00  0.18828715767E+03  0.18828715767E+03  0.00000000000E+00 0.  1.
          1   -1    0    0  501    0  0.00000000000E+00 -0.00000000000E+00 -0.14573463826E+03  0.14573463826E+03  0.00000000000E+00 0. -1.
         25    2    1    2    0    0  0.46428262836E+02  0.11293652469E+03 -0.38735906033E+01  0.17484806341E+03  0.12508636366E+03 0.  0.
          5    1    3    3  502    0 -0.13292239795E+02 -0.76136641856E+01 -0.33461096300E+02  0.37037398487E+02  0.41800000000E+01 0.  1.
         -5    1    3    3    0  502  0.59720502631E+02  0.12055018888E+03  0.29587505697E+02  0.13781066492E+03  0.41800000000E+01 0.  1.
        -11    1    1    2    0    0  0.12839690356E+02 -0.85842149983E+02  0.31349584688E+02  0.92285041161E+02  0.00000000000E+00 0.  1.
         11    1    1    2    0    0 -0.59267953192E+02 -0.27094374712E+02  0.15076525328E+02  0.66888691365E+02  0.00000000000E+00 0. -1.
</event>
<event>
 7    1  0.2661133E-009  0.1496886E+03  0.7561462E-02  0.1200856E+00
         -1   -1    0    0    0  501 -0.00000000000E+00  0.00000000000E+00  0.55568074874E+02  0.55568074874E+02  0.00000000000E+00 0.  1.
          1   -1    0    0  501    0  0.00000000000E+00 -0.00000000000E+00 -0.66508878734E+03  0.66508878734E+03  0.00000000000E+00 0. -1.
         25    2    1    2    0    0  0.86722957225E+02 -0.11734997780E+03 -0.21352106373E+03  0.28728077726E+03  0.12508841563E+03 0.  0.
          5    1    3    3  502    0  0.92027247167E+02 -0.10900863673E+03 -0.22816460848E+03  0.26912535753E+03  0.41800000000E+01 0.  1.
         -5    1    3    3    0  502 -0.53042899416E+01 -0.83413410716E+01  0.14643544748E+02  0.18155419727E+02  0.41800000000E+01 0.  1.
        -11    1    1    2    0    0 -0.75913557853E+02  0.10197735960E+03 -0.39455172775E+03  0.41452782296E+03  0.00000000000E+00 0. -1.
         11    1    1    2    0    0 -0.10809399372E+02  0.15372618198E+02 -0.14479209792E+01  0.18848261994E+02  0.00000000000E+00 0.  1.
</event>
<event>
 7    1  0.2661133E-009  0.9845407E+02  0.7561462E-02  0.1283581E+00
         -2   -1    0    0    0  501 -0.00000000000E+00  0.00000000000E+00  0.28627149779E+02  0.28627149779E+02  0.00000000000E+00 0. -1.
          2   -1    0    0  501    0  0.00000000000E+00 -0.00000000000E+00 -0.44628200647E+03  0.44628200647E+03  0.00000000000E+00 0.  1.
         25    2    1    2    0    0  0.23065861072E+02  0.24868184257E+02 -0.22519326609E+03  0.25982552692E+03  0.12508731674E+03 0.  0.
          5    1    3    3  502    0  0.25845407811E+02  0.65674313440E+02 -0.70816126705E+02  0.10006746101E+03  0.41800000000E+01 0.  1.
         -5    1    3    3    0  502 -0.27795467391E+01 -0.40806129183E+02 -0.15437713939E+03  0.15975806591E+03  0.41800000000E+01 0.  1.
        -11    1    1    2    0    0  0.25072519628E+02 -0.27079931469E+02 -0.13568196981E+03  0.14061134684E+03  0.00000000000E+00 0.  1.
         11    1    1    2    0    0 -0.48138380700E+02  0.22117472113E+01 -0.56779620784E+02  0.74472282484E+02  0.00000000000E+00 0. -1.
</event>
<event>
 7    1  0.2661133E-009  0.1019631E+03  0.7561462E-02  0.1276221E+00
          2   -1    0    0  501    0  0.00000000000E+00  0.00000000000E+00  0.93770201939E+03  0.93770201939E+03  0.00000000000E+00 0. -1.
         -2   -1    0    0    0  501 -0.00000000000E+00 -0.00000000000E+00 -0.20077532030E+02  0.20077532030E+02  0.00000000000E+00 0.  1.
         25    2    1    2    0    0  0.44260370670E+01  0.17021893489E+01  0.79397122550E+03  0.80377933330E+03  0.12509365476E+03 0.  0.
          5    1    3    3  502    0 -0.45773321681E+02  0.29584816334E+02  0.21076155946E+03  0.21773462215E+03  0.41800000000E+01 0. -1.
         -5    1    3    3    0  502  0.50199358748E+02 -0.27882626985E+02  0.58320966604E+03  0.58604471115E+03  0.41800000000E+01 0. -1.
        -11    1    1    2    0    0  0.41410703783E+02 -0.14868225370E+02  0.63000517030E+02  0.76843839438E+02  0.00000000000E+00 0.  1.
         11    1    1    2    0    0 -0.45836740850E+02  0.13166036021E+02  0.60652744829E+02  0.77156378683E+02  0.00000000000E+00 0. -1.
</event>
<event>
 7    1  0.2853590E-009  0.1114618E+03  0.7561462E-02  0.1257887E+00
          1   -1    0    0  501    0  0.00000000000E+00  0.00000000000E+00  0.13454563568E+03  0.13454563568E+03  0.00000000000E+00 0. -1.
         -1   -1    0    0    0  501 -0.00000000000E+00 -0.00000000000E+00 -0.11971634362E+03  0.11971634362E+03  0.00000000000E+00 0.  1.
         25    2    1    2    0    0  0.14617258424E+02  0.56166088524E+02  0.40153830624E+02  0.14362312009E+03  0.12508787617E+03 0.  0.
          5    1    3    3  502    0  0.53542679515E+02 -0.90368234637E+01 -0.57936578106E+01  0.54767888208E+02  0.41800000000E+01 0.  1.
         -5    1    3    3    0  502 -0.38925421090E+02  0.65202911988E+02  0.45947488434E+02  0.88855231878E+02  0.41800000000E+01 0.  1.
        -11    1    1    2    0    0 -0.24274158208E+02 -0.70817463682E+02 -0.42499750464E+02  0.86084706589E+02  0.00000000000E+00 0.  1.
         11    1    1    2    0    0  0.96568997837E+01  0.14651375158E+02  0.17175211903E+02  0.24554152630E+02  0.00000000000E+00 0. -1.
</event>
<event>
 7    1  0.2661133E-009  0.1160146E+03  0.7561462E-02  0.1249820E+00
          4   -1    0    0  501    0  0.00000000000E+00  0.00000000000E+00  0.47682192164E+03  0.47682192164E+03  0.00000000000E+00 0. -1.
         -4   -1    0    0    0  501 -0.00000000000E+00 -0.00000000000E+00 -0.43832826531E+02  0.43832826531E+02  0.00000000000E+00 0.  1.
         25    2    1    2    0    0  0.86600337042E+01  0.88128881664E+02  0.21681592049E+03  0.26551561921E+03  0.12509078582E+03 0.  0.
          5    1    3    3  502    0 -0.20825839999E+02  0.67629843250E+02  0.21810834862E+03  0.22933869156E+03  0.41800000000E+01 0. -1.
         -5    1    3    3    0  502  0.29485873703E+02  0.20499038414E+02 -0.12924281215E+01  0.36176927652E+02  0.41800000000E+01 0. -1.
        -11    1    1    2    0    0  0.15229533233E+02 -0.97973235493E+02  0.12054977236E+03  0.15608632602E+03  0.00000000000E+00 0.  1.
         11    1    1    2    0    0 -0.23889566938E+02  0.98443538286E+01  0.95623402257E+02  0.99052802938E+02  0.00000000000E+00 0. -1.
</event>
<event>
 7    1  0.2661133E-009  0.9037842E+02  0.7561462E-02  0.1301938E+00
         -2   -1    0    0    0  501 -0.00000000000E+00  0.00000000000E+00  0.44805653678E+02  0.44805653678E+02  0.00000000000E+00 0.  1.
          2   -1    0    0  501    0  0.00000000000E+00 -0.00000000000E+00 -0.50676352517E+03  0.50676352517E+03  0.00000000000E+00 0. -1.
         25    2    1    2    0    0  0.14429009764E+01 -0.70159639991E+02 -0.39530149257E+03  0.42051695719E+03  0.12508710650E+03 0.  0.
          5    1    3    3  502    0 -0.33291986228E+02 -0.66813032216E+02 -0.10966315052E+03  0.13272458929E+03  0.41800000000E+01 0. -1.
         -5    1    3    3    0  502  0.34734887204E+02 -0.33466077756E+01 -0.28563834205E+03  0.28779236790E+03  0.41800000000E+01 0. -1.
        -11    1    1    2    0    0 -0.42574268369E+01  0.14405116217E+02 -0.73308649473E+02  0.74831752245E+02  0.00000000000E+00 0. -1.
         11    1    1    2    0    0  0.28145258605E+01  0.55754523774E+02  0.66522705517E+01  0.56220469409E+02  0.00000000000E+00 0.  1.
</event>
<event>
 7    1  0.2661133E-009  0.1116035E+03  0.7561462E-02  0.1257629E+00
         -2   -1    0    0    0  501 -0.00000000000E+00  0.00000000000E+00  0.18652638391E+02  0.18652638391E+02  0.00000000000E+00 0. -1.
          2   -1    0    0  501    0  0.00000000000E+00 -0.00000000000E+00 -0.12012305837E+04  0.12012305837E+04  0.00000000000E+00 0.  1.
         25    2    1    2    0    0 -0.22355250925E+02 -0.21465988652E+01 -0.97584247795E+03  0.98408374297E+03  0.12509159149E+03 0.  0.
          5    1    3    3  502    0 -0.66968613303E+01 -0.62064457525E+02 -0.58604456444E+03  0.58937470997E+03  0.41800000000E+01 0.  1.
         -5    1    3    3    0  502 -0.15658389594E+02  0.59917858660E+02 -0.38979791351E+03  0.39470903300E+03  0.41800000000E+01 0.  1.
        -11    1    1    2    0    0 -0.36426472084E+02  0.13228999150E+02 -0.14397213213E+03  0.14909684476E+03  0.00000000000E+00 0.  1.
         11    1    1    2    0    0  0.58781723009E+02 -0.11082400285E+02 -0.62763335196E+02  0.86702634336E+02  0.00000000000E+00 0. -1.
</event>
<event>
 7    1  0.2661133E-009  0.1000881E+03  0.7561462E-02  0.1280111E+00
          2   -1    0    0  501    0  0.00000000000E+00  0.00000000000E+00  0.21986298121E+03  0.21986298121E+03  0.00000000000E+00 0. -1.
         -2   -1    0    0    0  501 -0.00000000000E+00 -0.00000000000E+00 -0.59552054834E+02  0.59552054834E+02  0.00000000000E+00 0.  1.
         25    2    1    2    0    0  0.32236629915E+02  0.17165117559E+02  0.11638407417E+03  0.17472285588E+03  0.12509589154E+03 0.  0.
          5    1    3    3  502    0 -0.12983442059E+02  0.60205471282E+02  0.84077549351E+02  0.10430616111E+03  0.41800000000E+01 0.  1.
         -5    1    3    3    0  502  0.45220071974E+02 -0.43040353723E+02  0.32306524814E+02  0.70416694778E+02  0.41800000000E+01 0.  1.
        -11    1    1    2    0    0 -0.52901755568E+02 -0.90246241586E+01 -0.19715438003E+01  0.53702202640E+02  0.00000000000E+00 0.  1.
         11    1    1    2    0    0  0.20665125653E+02 -0.81404934008E+01  0.45898396008E+02  0.50989977517E+02  0.00000000000E+00 0. -1.
</event>
<event>
 7    1  0.2661133E-009  0.1129589E+03  0.7561462E-02  0.1255186E+00
          2   -1    0    0  501    0  0.00000000000E+00  0.00000000000E+00  0.16547215199E+03  0.16547215199E+03  0.00000000000E+00 0. -1.
         -2   -1    0    0    0  501 -0.00000000000E+00 -0.00000000000E+00 -0.12076949763E+03  0.12076949763E+03  0.00000000000E+00 0.  1.
         25    2    1    2    0    0 -0.67427707953E+02  0.56621536535E+02  0.42680478282E+02  0.15881430862E+03  0.12509143534E+03 0.  0.
          5    1    3    3  502    0  0.26551830498E+02  0.21222068197E+02 -0.20672083273E+02  0.40002291287E+02  0.41800000000E+01 0. -1.
         -5    1    3    3    0  502 -0.93979538451E+02  0.35399468338E+02  0.63352561555E+02  0.11881201733E+03  0.41800000000E+01 0. -1.
        -11    1    1    2    0    0  0.23165251494E+02 -0.60293978911E+01 -0.41100621351E+02  0.47563048590E+02  0.00000000000E+00 0.  1.
         11    1    1    2    0    0  0.44262456459E+02 -0.50592138644E+02  0.43122797435E+02  0.79864292415E+02  0.00000000000E+00 0. -1.
</event>
<event>
 7    1  0.2661133E-009  0.5844811E+02  0.7561462E-02  0.1404462E+00
         -1   -1    0    0    0  501 -0.00000000000E+00  0.00000000000E+00  0.10005616067E+03  0.10005616067E+03  0.00000000000E+00 0.  1.
          1   -1    0    0  501    0  0.00000000000E+00 -0.00000000000E+00 -0.11886797239E+03  0.11886797239E+03  0.00000000000E+00 0. -1.
         25    2    1    2    0    0  0.14026339801E+02 -0.15156154089E+02 -0.15843414568E+02  0.12776753943E+03  0.12508830134E+03 0.  0.
          5    1    3    3  502    0 -0.54083298960E+01 -0.36776624630E+02 -0.62381105250E+02  0.72736819038E+02  0.41800000000E+01 0.  1.
         -5    1    3    3    0  502  0.19434669697E+02  0.21620470542E+02  0.46537690683E+02  0.55030720391E+02  0.41800000000E+01 0.  1.
        -11    1    1    2    0    0 -0.30592087326E+02  0.59432199832E+01 -0.39312484377E+02  0.50166414050E+02  0.00000000000E+00 0. -1.
         11    1    1    2    0    0  0.16565747526E+02  0.92129341057E+01  0.36344087219E+02  0.40990179577E+02  0.00000000000E+00 0.  1.
</event>
<event>
 7    1  0.2661133E-009  0.1282445E+03  0.7561462E-02  0.1230084E+00
         -1   -1    0    0    0  501 -0.00000000000E+00  0.00000000000E+00  0.33922862488E+02  0.33922862488E+02  0.00000000000E+00 0.  1.
          1   -1    0    0  501    0  0.00000000000E+00 -0.00000000000E+00 -0.59406461311E+03  0.59406461311E+03  0.00000000000E+00 0. -1.
         25    2    1    2    0    0 -0.56906853283E+02  0.71002922975E+02 -0.28448932010E+03  0.32382463518E+03  0.12509362922E+03 0.  0.
          5    1    3    3  502    0 -0.87660842101E+02  0.13020343210E+02 -0.17145963966E+03  0.19305396398E+03  0.41800000000E+01 0. -1.
         -5    1    3    3    0  502  0.30753988819E+02  0.57982579765E+02 -0.11302968044E+03  0.13077067120E+03  0.41800000000E+01 0. -1.
        -11    1    1    2    0    0  0.41008305369E+01 -0.41124206468E+02 -0.29844319934E+02  0.50977451889E+02  0.00000000000E+00 0.  1.
         11    1    1    2    0    0  0.52806022746E+02 -0.29878716507E+02 -0.24580811059E+03  0.25318538854E+03  0.00000000000E+00 0. -1.
</event>
<event>
 7    1  0.2661133E-009  0.1201887E+03  0.7561462E-02  0.1242786E+00
          1   -1    0    0  501    0  0.00000000000E+00  0.00000000000E+00  0.97092487299E+02  0.97092487299E+02  0.00000000000E+00 0. -1.
         -1   -1    0    0    0  501 -0.00000000000E+00 -0.00000000000E+00 -0.29280664262E+03  0.29280664262E+03  0.00000000000E+00 0.  1.
         25    2    1    2    0    0 -0.36908060555E+02  0.10950124530E+03 -0.35537517844E+02  0.17396107401E+03  0.12508721934E+03 0.  0.
          5    1    3    3  502    0 -0.34122838606E+02  0.60778113693E+02 -0.81131935956E+02  0.10704303177E+03  0.41800000000E+01 0.  1.
         -5    1    3    3    0  502 -0.27852219495E+01  0.48723131604E+02  0.45594418112E+02  0.66918042243E+02  0.41800000000E+01 0.  1.
        -11    1    1    2    0    0 -0.34518217563E+01 -0.47270500811E+02 -0.99954421836E+01  0.48438870598E+02  0.00000000000E+00 0. -1.
         11    1    1    2    0    0  0.40359882311E+02 -0.62230744486E+02 -0.15018119529E+03  0.16749918531E+03  0.00000000000E+00 0.  1.
</event>
<event>
 7    1  0.2661133E-009  0.8752742E+02  0.7561462E-02  0.1308952E+00
         -3   -1    0    0    0  501 -0.00000000000E+00  0.00000000000E+00  0.38722982123E+03  0.38722982123E+03  0.00000000000E+00 0.  1.
          3   -1    0    0  501    0  0.00000000000E+00 -0.00000000000E+00 -0.56230712108E+02  0.56230712108E+02  0.00000000000E+00 0. -1.
         25    2    1    2    0    0 -0.94027939713E+01 -0.19757786614E+01  0.33000627848E+03  0.35304889797E+03  0.12508822602E+03 0.  0.
          5    1    3    3  502    0  0.57606768305E+02 -0.62848029985E+01  0.15920899555E+03  0.16947865697E+03  0.41800000000E+01 0.  1.
         -5    1    3    3    0  502 -0.67009562277E+02  0.43090243371E+01  0.17079728292E+03  0.18357024100E+03  0.41800000000E+01 0.  1.
        -11    1    1    2    0    0  0.21694113271E+02  0.18892377368E+02  0.38146545612E+02  0.47777771143E+02  0.00000000000E+00 0.  1.
         11    1    1    2    0    0 -0.12291319300E+02 -0.16916598707E+02 -0.37153714973E+02  0.42633864219E+02  0.00000000000E+00 0. -1.
</event>
<event>
 7    1  0.2661133E-009  0.1126378E+03  0.7561462E-02  0.1255762E+00
         -2   -1    0    0    0  501 -0.00000000000E+00  0.00000000000E+00  0.29126835242E+02  0.29126835242E+02  0.00000000000E+00 0.  1.
          2   -1    0    0  501    0  0.00000000000E+00 -0.00000000000E+00 -0.57520652620E+03  0.57520652620E+03  0.00000000000E+00 0. -1.
         25    2    1    2    0    0 -0.66134901898E+02  0.28355809502E+02 -0.31131826655E+03  0.34313906352E+03  0.12508987427E+03 0.  0.
          5    1    3    3  502    0 -0.25569179252E+02 -0.30702584086E+02 -0.23574195102E+02  0.46579466204E+02  0.41800000000E+01 0.  1.
         -5    1    3    3    0  502 -0.40565722646E+02  0.59058393588E+02 -0.28774407145E+03  0.29655959732E+03  0.41800000000E+01 0.  1.
        -11    1    1    2    0    0  0.39651597328E+02 -0.60093441044E+02 -0.16639637703E+03  0.18130423358E+03  0.00000000000E+00 0.  1.
         11    1    1    2    0    0  0.26483304570E+02  0.31737631542E+02 -0.68365047382E+02  0.79890064340E+02  0.00000000000E+00 0. -1.
</event>
<event>
 7    1  0.2661133E-009  0.2453542E+03  0.7561462E-02  0.1116277E+00
          2   -1    0    0  501    0  0.00000000000E+00  0.00000000000E+00  0.17916962040E+04  0.17916962040E+04  0.00000000000E+00 0.  1.
         -2   -1    0    0    0  501 -0.00000000000E+00 -0.00000000000E+00 -0.35422550491E+02  0.35422550491E+02  0.00000000000E+00 0. -1.
         25    2    1    2    0    0  0.89639743382E+02 -0.20076362894E+03  0.11025230361E+04  0.11311698938E+04  0.12508783003E+03 0.  0.
          5    1    3    3  502    0  0.29060471496E+02 -0.18879677014E+03  0.83461957418E+03  0.85621027641E+03  0.41800000000E+01 0.  1.
         -5    1    3    3    0  502  0.60579271886E+02 -0.11966858799E+02  0.26790346192E+03  0.27495961740E+03  0.41800000000E+01 0.  1.
        -11    1    1    2    0    0 -0.87481946379E+02  0.85027803284E+02  0.36559140481E+03  0.38540873569E+03  0.00000000000E+00 0. -1.
         11    1    1    2    0    0 -0.21577970029E+01  0.11573582566E+03  0.28815921261E+03  0.31054012501E+03  0.00000000000E+00 0.  1.
</event>
<event>
 7    1  0.2661133E-009  0.1389206E+03  0.7561462E-02  0.1214789E+00
          1   -1    0    0  501    0  0.00000000000E+00  0.00000000000E+00  0.13078533288E+04  0.13078533288E+04  0.00000000000E+00 0. -1.
         -1   -1    0    0    0  501 -0.00000000000E+00 -0.00000000000E+00 -0.21998238314E+02  0.21998238314E+02  0.00000000000E+00 0.  1.
         25    2    1    2    0    0 -0.12064673815E+03  0.18133902553E+02  0.86880702039E+03  0.88620398765E+03  0.12508954872E+03 0.  0.
          5    1    3    3  502    0 -0.20623080645E+02  0.15940711660E+02  0.24615874217E+02  0.36094755949E+02  0.41800000000E+01 0.  1.
         -5    1    3    3    0  502 -0.10002365750E+03  0.21931908927E+01  0.84419114618E+03  0.85010923171E+03  0.41800000000E+01 0.  1.
        -11    1    1    2    0    0  0.75078338786E+02 -0.54692027529E+02  0.25647766983E+03  0.27277970957E+03  0.00000000000E+00 0. -1.
         11    1    1    2    0    0  0.45568399362E+02  0.36558124976E+02  0.16057040028E+03  0.17086786991E+03  0.00000000000E+00 0.  1.
</event>
<event>
 7    1  0.2661133E-009  0.8065297E+02  0.7561462E-02  0.1327209E+00
          1   -1    0    0  501    0  0.00000000000E+00  0.00000000000E+00  0.50702965204E+02  0.50702965204E+02  0.00000000000E+00 0. -1.
         -1   -1    0    0    0  501 -0.00000000000E+00 -0.00000000000E+00 -0.19221859227E+03  0.19221859227E+03  0.00000000000E+00 0.  1.
         25    2    1    2    0    0 -0.27392007150E+01 -0.19831945584E+02 -0.54920420617E+02  0.13807325734E+03  0.12508861861E+03 0.  0.
          5    1    3    3  502    0  0.46351719005E+02  0.79003303162E+01 -0.65315374053E+02  0.80588259452E+02  0.41800000000E+01 0.  1.
         -5    1    3    3    0  502 -0.49090919720E+02 -0.27732275900E+02  0.10394953436E+02  0.57484997890E+02  0.41800000000E+01 0.  1.
        -11    1    1    2    0    0 -0.11241821215E+02  0.35102634331E+02 -0.43344644091E+02  0.56897554013E+02  0.00000000000E+00 0. -1.
         11    1    1    2    0    0  0.13981021930E+02 -0.15270688748E+02 -0.43250562356E+02  0.47950746117E+02  0.00000000000E+00 0.  1.
</event>
<event>
 7    1  0.2661133E-009  0.1224070E+03  0.7561462E-02  0.1239178E+00
         -1   -1    0    0    0  501 -0.00000000000E+00  0.00000000000E+00  0.12879900524E+02  0.12879900524E+02  0.00000000000E+00 0.  1.
          1   -1    0    0  501    0  0.00000000000E+00 -0.00000000000E+00 -0.12540035327E+04  0.12540035327E+04  0.00000000000E+00 0. -1.
         25    2    1    2    0    0  0.55238123205E+02  0.26553059815E+02 -0.82672566565E+03  0.83837936598E+03  0.12509324451E+03 0.  0.
          5    1    3    3  502    0  0.59020905878E+01 -0.47568639219E+02 -0.22498999172E+03  0.23007733240E+03  0.41800000000E+01 0.  1.
         -5    1    3    3    0  502  0.49336032617E+02  0.74121699034E+02 -0.60173567393E+03  0.60830203358E+03  0.41800000000E+01 0.  1.
        -11    1    1    2    0    0 -0.72929579952E+02  0.31397897995E+01 -0.24630808195E+03  0.25689735917E+03  0.00000000000E+00 0.  1.
         11    1    1    2    0    0  0.17691456747E+02 -0.29692849614E+02 -0.16808988462E+03  0.17160670812E+03  0.00000000000E+00 0. -1.
</event>
<event>
 7    1  0.2661133E-009  0.1505177E+03  0.7561462E-02  0.1199838E+00
          2   -1    0    0  501    0  0.00000000000E+00  0.00000000000E+00  0.49226651530E+03  0.49226651530E+03  0.00000000000E+00 0. -1.
         -2   -1    0    0    0  501 -0.00000000000E+00 -0.00000000000E+00 -0.15931786081E+03  0.15931786081E+03  0.00000000000E+00 0.  1.
         25    2    1    2    0    0 -0.10764215817E+03  0.17811260940E+02  0.44220719347E+03  0.47232823153E+03  0.12507070446E+03 0.  0.
          5    1    3    3  502    0 -0.13225368020E+03  0.23242909708E+02  0.31290844561E+03  0.34052964116E+03  0.41800000000E+01 0. -1.
         -5    1    3    3    0  502  0.24611522025E+02 -0.54316487685E+01  0.12929874786E+03  0.13179859037E+03  0.41800000000E+01 0. -1.
        -11    1    1    2    0    0  0.37827776049E+02 -0.51277484966E+02 -0.39001084953E+02  0.74708806259E+02  0.00000000000E+00 0. -1.
         11    1    1    2    0    0  0.69814382121E+02  0.33466224026E+02 -0.70257454030E+02  0.10454733831E+03  0.00000000000E+00 0.  1.
</event>
<event>
 7    1  0.2661133E-009  0.1052359E+03  0.7561462E-02  0.1269655E+00
         -1   -1    0    0    0  501 -0.00000000000E+00  0.00000000000E+00  0.14428370759E+02  0.14428370759E+02  0.00000000000E+00 0.  1.
          1   -1    0    0  501    0  0.00000000000E+00 -0.00000000000E+00 -0.89916476240E+03  0.89916476240E+03  0.00000000000E+00 0. -1.
         25    2    1    2    0    0 -0.27757433004E+02  0.88923776362E+00 -0.60740049342E+03  0.62077379720E+03  0.12511387632E+03 0.  0.
          5    1    3    3  502    0  0.20967225964E+02  0.50910271155E+02 -0.33577036885E+03  0.34028031573E+03  0.41800000000E+01 0. -1.
         -5    1    3    3    0  502 -0.48724658968E+02 -0.50021033391E+02 -0.27163012457E+03  0.28049348147E+03  0.41800000000E+01 0. -1.
        -11    1    1    2    0    0 -0.26558804915E+02 -0.13121210417E+02 -0.44780485626E+02  0.53691974952E+02  0.00000000000E+00 0.  1.
         11    1    1    2    0    0  0.54316237918E+02  0.12231972653E+02 -0.23255541260E+03  0.23912736101E+03  0.00000000000E+00 0. -1.
</event>
<event>
 7    1  0.2661133E-009  0.1403101E+03  0.7561462E-02  0.1212912E+00
         -2   -1    0    0    0  501 -0.00000000000E+00  0.00000000000E+00  0.16289329709E+02  0.16289329709E+02  0.00000000000E+00 0.  1.
          2   -1    0    0  501    0  0.00000000000E+00 -0.00000000000E+00 -0.18448060686E+04  0.18448060686E+04  0.00000000000E+00 0. -1.
         25    2    1    2    0    0 -0.59674273883E+02  0.11161203180E+03 -0.12184044016E+04  0.12313306222E+04  0.12509016994E+03 0.  0.
          5    1    3    3  502    0 -0.44169954305E+02  0.89730207704E+02 -0.39523756570E+03  0.40771644654E+03  0.41800000000E+01 0.  1.
         -5    1    3    3    0  502 -0.15504319578E+02  0.21881824093E+02 -0.82316683594E+03  0.82361417566E+03  0.41800000000E+01 0.  1.
        -11    1    1    2    0    0  0.59682945316E+02 -0.12577432616E+03 -0.58021018088E+03  0.59667837993E+03  0.00000000000E+00 0. -1.
         11    1    1    2    0    0 -0.86714333295E-02  0.14162294364E+02 -0.29902156407E+02  0.33086396217E+02  0.00000000000E+00 0.  1.
</event>
<event>
 7    1  0.2661133E-009  0.7207493E+02  0.7561462E-02  0.1353176E+00
          1   -1    0    0  501    0  0.00000000000E+00  0.00000000000E+00  0.51226277271E+03  0.51226277271E+03  0.00000000000E+00 0. -1.
         -1   -1    0    0    0  501 -0.00000000000E+00 -0.00000000000E+00 -0.30317468001E+02  0.30317468001E+02  0.00000000000E+00 0.  1.
         25    2    1    2    0    0 -0.59244365464E+02 -0.15730898302E+02  0.25522032987E+03  0.29076061902E+03  0.12508782833E+03 0.  0.
          5    1    3    3  502    0 -0.18520492907E+01 -0.20749752452E+02  0.22418242722E+03  0.22518706755E+03  0.41800000000E+01 0.  1.
         -5    1    3    3    0  502 -0.57392316174E+02  0.50188541505E+01  0.31037902642E+02  0.65573551476E+02  0.41800000000E+01 0.  1.
        -11    1    1    2    0    0  0.31206440353E+02  0.19577402859E+02  0.21955606045E+03  0.22262520141E+03  0.00000000000E+00 0. -1.
         11    1    1    2    0    0  0.28037925111E+02 -0.38465045574E+01  0.71689143912E+01  0.29194420278E+02  0.00000000000E+00 0.  1.
</event>
<event>
 7    1  0.2661133E-009  0.1151915E+03  0.7561462E-02  0.1251247E+00
         -1   -1    0    0    0  501 -0.00000000000E+00  0.00000000000E+00  0.53486970189E+02  0.53486970189E+02  0.00000000000E+00 0.  1.
          1   -1    0    0  501    0  0.00000000000E+00 -0.00000000000E+00 -0.43269388537E+03  0.43269388537E+03  0.00000000000E+00 0. -1.
         25    2    1    2    0    0  0.37750567079E+02 -0.34469817072E+02 -0.55235695098E+02  0.14598568558E+03  0.12509022654E+03 0.  0.
          5    1    3    3  502    0 -0.21362511981E+02 -0.58725960327E+02 -0.19156066787E+01  0.62659694249E+02  0.41800000000E+01 0.  1.
         -5    1    3    3    0  502  0.59113079060E+02  0.24256143256E+02 -0.53320088419E+02  0.83325991327E+02  0.41800000000E+01 0.  1.
        -11    1    1    2    0    0  0.25542619841E+02 -0.88379861446E+01 -0.90581894646E+02  0.94528382326E+02  0.00000000000E+00 0.  1.
         11    1    1    2    0    0 -0.63293186920E+02  0.43307803216E+02 -0.23338932543E+03  0.24566678765E+03  0.00000000000E+00 0. -1.
</event>
<event>
 7    1  0.2661133E-009  0.1330392E+03  0.7561462E-02  0.1223015E+00
          2   -1    0    0  501    0  0.00000000000E+00  0.00000000000E+00  0.42076868784E+03  0.42076868784E+03  0.00000000000E+00 0.  1.
         -2   -1    0    0    0  501 -0.00000000000E+00 -0.00000000000E+00 -0.49109247116E+02  0.49109247116E+02  0.00000000000E+00 0. -1.
         25    2    1    2    0    0  0.28385867552E+02  0.86466888872E+02  0.23740059232E+03  0.28335393557E+03  0.12509249067E+03 0.  0.
          5    1    3    3  502    0  0.32077420376E+02  0.11744346000E+03  0.17193959414E+03  0.21071930055E+03  0.41800000000E+01 0.  1.
         -5    1    3    3    0  502 -0.36915528234E+01 -0.30976571126E+02  0.65460998179E+02  0.72634635014E+02  0.41800000000E+01 0.  1.
        -11    1    1    2    0    0 -0.50398299369E+02 -0.60904699547E+02  0.13050640546E+03  0.15258208569E+03  0.00000000000E+00 0.  1.
         11    1    1    2    0    0  0.22012431817E+02 -0.25562189325E+02  0.37524429477E+01  0.33941913701E+02  0.00000000000E+00 0. -1.
</event>
<event>
 7    1  0.2661133E-009  0.2006829E+03  0.7561462E-02  0.1149164E+00
          1   -1    0    0  501    0  0.00000000000E+00  0.00000000000E+00  0.51595218173E+03  0.51595218173E+03  0.00000000000E+00 0.  1.
         -1   -1    0    0    0  501 -0.00000000000E+00 -0.00000000000E+00 -0.88213390925E+02  0.88213390925E+02  0.00000000000E+00 0. -1.
         25    2    1    2    0    0 -0.15612849908E+03 -0.65156121218E+02  0.12267654910E+03  0.24355725232E+03  0.12509664704E+03 0.  0.
          5    1    3    3  502    0 -0.18979677353E+02  0.35275126971E+02  0.20705980649E+02  0.45285458702E+02  0.41800000000E+01 0.  1.
         -5    1    3    3    0  502 -0.13714882173E+03 -0.10043124819E+03  0.10197056845E+03  0.19827179362E+03  0.41800000000E+01 0.  1.
        -11    1    1    2    0    0 -0.16773245209E+01 -0.14280954322E+02  0.13664332074E+02  0.19836154993E+02  0.00000000000E+00 0.  1.
         11    1    1    2    0    0  0.15780582360E+03  0.79437075540E+02  0.29139790963E+03  0.34077216534E+03  0.00000000000E+00 0. -1.
</event>
<event>
 7    1  0.2661133E-009  0.2676392E+03  0.7561462E-02  0.1102638E+00
          2   -1    0    0  501    0  0.00000000000E+00  0.00000000000E+00  0.11606626667E+04  0.11606626667E+04  0.00000000000E+00 0. -1.
         -2   -1    0    0    0  501 -0.00000000000E+00 -0.00000000000E+00 -0.74317017706E+02  0.74317017706E+02  0.00000000000E+00 0.  1.
         25    2    1    2    0    0 -0.50448794885E+02 -0.25480860663E+03  0.72911344479E+03  0.78403956379E+03  0.12505644844E+03 0.  0.
          5    1    3    3  502    0  0.91604920192E+01 -0.72521348031E+02  0.86103519602E+02  0.11302455053E+03  0.41800000000E+01 0.  1.
         -5    1    3    3    0  502 -0.59609286904E+02 -0.18228725860E+03  0.64300992518E+03  0.67101501326E+03  0.41800000000E+01 0.  1.
        -11    1    1    2    0    0  0.69332571257E+02  0.17537919896E+03  0.20749103948E+03  0.28038794612E+03  0.00000000000E+00 0.  1.
         11    1    1    2    0    0 -0.18883776372E+02  0.79429407673E+02  0.14974116472E+03  0.17055217450E+03  0.00000000000E+00 0. -1.
</event>
<event>
 7    1  0.2661133E-009  0.1092333E+03  0.7561462E-02  0.1261996E+00
         -2   -1    0    0    0  501 -0.00000000000E+00  0.00000000000E+00  0.27170747346E+02  0.27170747346E+02  0.00000000000E+00 0.  1.
          2   -1    0    0  501    0  0.00000000000E+00 -0.00000000000E+00 -0.46979500192E+03  0.46979500192E+03  0.00000000000E+00 0. -1.
         25    2    1    2    0    0  0.25298723843E+01 -0.30143090307E+02 -0.21880738806E+03  0.25384987686E+03  0.12509228898E+03 0.  0.
          5    1    3    3  502    0  0.29702282690E+02  0.41753194136E+02 -0.96410186918E+02  0.10926093245E+03  0.41800000000E+01 0. -1.
         -5    1    3    3    0  502 -0.27172410306E+02 -0.71896284442E+02 -0.12239720114E+03  0.14458894441E+03  0.41800000000E+01 0. -1.
        -11    1    1    2    0    0  0.27681168278E+02 -0.18162695597E+02 -0.48100586523E+02  0.58393467207E+02  0.00000000000E+00 0.  1.
         11    1    1    2    0    0 -0.30211040662E+02  0.48305785903E+02 -0.17571627999E+03  0.18472240520E+03  0.00000000000E+00 0. -1.
</event>
<event>
 7    1  0.2661133E-009  0.1624141E+03  0.7561462E-02  0.1185998E+00
          1   -1    0    0  501    0  0.00000000000E+00  0.00000000000E+00  0.32882747781E+03  0.32882747781E+03  0.00000000000E+00 0. -1.
         -1   -1    0    0    0  501 -0.00000000000E+00 -0.00000000000E+00 -0.10719348206E+03  0.10719348206E+03  0.00000000000E+00 0.  1.
         25    2    1    2    0    0 -0.72741909548E+02 -0.13394916676E+03  0.10271596684E+03  0.22233254682E+03  0.12508967524E+03 0.  0.
          5    1    3    3  502    0 -0.27425318137E+02 -0.54860871447E+02 -0.24159078905E+02  0.66052984675E+02  0.41800000000E+01 0.  1.
         -5    1    3    3    0  502 -0.45316591410E+02 -0.79088295313E+02  0.12687504575E+03  0.15627956215E+03  0.41800000000E+01 0.  1.
        -11    1    1    2    0    0  0.78271291300E+02  0.61757000972E+02  0.42393137260E+02  0.10833974477E+03  0.00000000000E+00 0. -1.
         11    1    1    2    0    0 -0.55293817528E+01  0.72192165789E+02  0.76524891651E+02  0.10534866827E+03  0.00000000000E+00 0.  1.
</event>
<event>
 7    1  0.2661133E-009  0.9244641E+02  0.7561462E-02  0.1297033E+00
         -1   -1    0    0    0  501 -0.00000000000E+00  0.00000000000E+00  0.24595922511E+02  0.24595922511E+02  0.00000000000E+00 0.  1.
          1   -1    0    0  501    0  0.00000000000E+00 -0.00000000000E+00 -0.57785304241E+03  0.57785304241E+03  0.00000000000E+00 0. -1.
         25    2    1    2    0    0  0.47023012464E+01  0.10291261808E+02 -0.43055287551E+03  0.44849827543E+03  0.12508758031E+03 0.  0.
          5    1    3    3  502    0 -0.29619948987E+02  0.58815623900E+02 -0.23114181716E+03  0.24037602009E+03  0.41800000000E+01 0. -1.
         -5    1    3    3    0  502  0.34322250233E+02 -0.48524362091E+02 -0.19941105835E+03  0.20812225534E+03  0.41800000000E+01 0. -1.
        -11    1    1    2    0    0 -0.16394040611E+02 -0.31270509475E+02 -0.72746866590E+01  0.36048999936E+02  0.00000000000E+00 0.  1.
         11    1    1    2    0    0  0.11691739365E+02  0.20979247667E+02 -0.11542955773E+03  0.11790168955E+03  0.00000000000E+00 0. -1.
</event>
<event>
 7    1  0.2661133E-009  0.1627328E+03  0.7561462E-02  0.1185646E+00
          2   -1    0    0  501    0  0.00000000000E+00  0.00000000000E+00  0.20120368768E+02  0.20120368768E+02  0.00000000000E+00 0. -1.
         -2   -1    0    0    0  501 -0.00000000000E+00 -0.00000000000E+00 -0.23324008889E+04  0.23324008889E+04  0.00000000000E+00 0.  1.
         25    2    1    2    0    0  0.69233390769E+02  0.11467339581E+03 -0.19064871740E+04  0.19152764220E+04  0.12508868057E+03 0.  0.
          5    1    3    3  502    0  0.33711425747E+02  0.13669019773E+03 -0.14110334566E+04  0.14180456827E+04  0.41800000000E+01 0. -1.
         -5    1    3    3    0  502  0.35521965022E+02 -0.22016801920E+02 -0.49545371739E+03  0.49723073924E+03  0.41800000000E+01 0. -1.
        -11    1    1    2    0    0  0.15197824465E+01 -0.38963443851E+02 -0.35524170376E+02  0.52748709712E+02  0.00000000000E+00 0. -1.
         11    1    1    2    0    0 -0.70753173216E+02 -0.75709951963E+02 -0.37026917576E+03  0.38449612594E+03  0.00000000000E+00 0.  1.
</event>
<event>
 7    1  0.2661133E-009  0.9131160E+02  0.7561462E-02  0.1299706E+00
          4   -1    0    0  501    0  0.00000000000E+00  0.00000000000E+00  0.10007982198E+03  0.10007982198E+03  0.00000000000E+00 0. -1.
         -4   -1    0    0    0  501 -0.00000000000E+00 -0.00000000000E+00 -0.14333276311E+03  0.14333276311E+03  0.00000000000E+00 0.  1.
         25    2    1    2    0    0 -0.25996917464E+02  0.45519560617E+02 -0.36452575913E+02  0.14044220700E+03  0.12508938044E+03 0.  0.
          5    1    3    3  502    0 -0.31605291349E+02 -0.36050231965E+02  0.55210314415E+01  0.48440353572E+02  0.41800000000E+01 0. -1.
         -5    1    3    3    0  502  0.56083738850E+01  0.81569792582E+02 -0.41973607355E+02  0.92001853426E+02  0.41800000000E+01 0. -1.
        -11    1    1    2    0    0  0.57615083318E+01 -0.14394016060E+02  0.40194198163E+02  0.43080810607E+02  0.00000000000E+00 0. -1.
         11    1    1    2    0    0  0.20235409132E+02 -0.31125544557E+02 -0.46994563378E+02  0.59889567487E+02  0.00000000000E+00 0.  1.
</event>
<event>
 7    1  0.2661133E-009  0.2647066E+03  0.7561462E-02  0.1104348E+00
         -2   -1    0    0    0  501 -0.00000000000E+00  0.00000000000E+00  0.24084758685E+03  0.24084758685E+03  0.00000000000E+00 0.  1.
          2   -1    0    0  501    0  0.00000000000E+00 -0.00000000000E+00 -0.33717089956E+03  0.33717089956E+03  0.00000000000E+00 0. -1.
         25    2    1    2    0    0  0.22528801284E+03 -0.11670056510E+03  0.21304965308E+02  0.28368081271E+03  0.12508873382E+03 0.  0.
          5    1    3    3  502    0  0.11206970415E+03 -0.10280118387E+03  0.59438830507E+02  0.16333446962E+03  0.41800000000E+01 0. -1.
         -5    1    3    3    0  502  0.11321830868E+03 -0.13899381228E+02 -0.38133865200E+02  0.12034634309E+03  0.41800000000E+01 0. -1.
        -11    1    1    2    0    0 -0.11511960678E+03  0.20617202044E+02 -0.20250120179E+02  0.11869144979E+03  0.00000000000E+00 0.  1.
         11    1    1    2    0    0 -0.11016840606E+03  0.96083363051E+02 -0.97378157845E+02  0.17564622391E+03  0.00000000000E+00 0. -1.
</event>
<event>
 7    1  0.2661133E-009  0.8461586E+02  0.7561462E-02  0.1316440E+00
          1   -1    0    0  501    0  0.00000000000E+00  0.00000000000E+00  0.46015041359E+02  0.46015041359E+02  0.00000000000E+00 0. -1.
         -1   -1    0    0    0  501 -0.00000000000E+00 -0.00000000000E+00 -0.35929432122E+03  0.35929432122E+03  0.00000000000E+00 0.  1.
         25    2    1    2    0    0  0.46471426131E+02  0.18392363107E+02 -0.30268853032E+03  0.33130828976E+03  0.12508782519E+03 0.  0.
          5    1    3    3  502    0  0.70579753003E+02 -0.13019290630E+01 -0.28814455717E+03  0.29669505351E+03  0.41800000000E+01 0. -1.
         -5    1    3    3    0  502 -0.24108326871E+02  0.19694292170E+02 -0.14543973151E+02  0.34613236249E+02  0.41800000000E+01 0. -1.
        -11    1    1    2    0    0 -0.12386127591E+02 -0.28896986238E+02 -0.19811613068E+02  0.37161162289E+02  0.00000000000E+00 0.  1.
         11    1    1    2    0    0 -0.34085298540E+02  0.10504623131E+02  0.92208635248E+01  0.36839910530E+02  0.00000000000E+00 0. -1.
</event>
<event>
 7    1  0.2661133E-009  0.1335354E+03  0.7561462E-02  0.1222302E+00
         -2   -1    0    0    0  501 -0.00000000000E+00  0.00000000000E+00  0.82812762036E+03  0.82812762036E+03  0.00000000000E+00 0.  1.
          2   -1    0    0  501    0  0.00000000000E+00 -0.00000000000E+00 -0.30403635174E+02  0.30403635174E+02  0.00000000000E+00 0. -1.
         25    2    1    2    0    0  0.91372882833E+02  0.50949413211E+02  0.56267115426E+03  0.58582537233E+03  0.12509073750E+03 0.  0.
          5    1    3    3  502    0  0.13942460143E+01 -0.35052102201E+02  0.17882983629E+03  0.18228597460E+03  0.41800000000E+01 0. -1.
         -5    1    3    3    0  502  0.89978636818E+02  0.86001515411E+02  0.38384131798E+03  0.40353939773E+03  0.41800000000E+01 0. -1.
        -11    1    1    2    0    0 -0.12616414024E+02  0.13129158815E+01 -0.58169130393E+01  0.13954717061E+02  0.00000000000E+00 0. -1.
         11    1    1    2    0    0 -0.78756468809E+02 -0.52262329092E+02  0.24086974396E+03  0.25875116614E+03  0.00000000000E+00 0.  1.
</event>
<event>
 7    1  0.2661133E-009  0.9494834E+02  0.7561462E-02  0.1291292E+00
          2   -1    0    0  501    0  0.00000000000E+00  0.00000000000E+00  0.55791176784E+03  0.55791176784E+03  0.00000000000E+00 0. -1.
         -2   -1    0    0    0  501 -0.00000000000E+00 -0.00000000000E+00 -0.31893233701E+02  0.31893233701E+02  0.00000000000E+00 0.  1.
         25    2    1    2    0    0  0.30467740530E+02  0.42843665087E+01  0.13332696577E+03  0.18539226067E+03  0.12509025344E+03 0.  0.
          5    1    3    3  502    0 -0.87094203424E+01  0.39930062445E+02  0.12504336604E+03  0.13161907035E+03  0.41800000000E+01 0.  1.
         -5    1    3    3    0  502  0.39177160873E+02 -0.35645695936E+02  0.82835997343E+01  0.53773190322E+02  0.41800000000E+01 0.  1.
        -11    1    1    2    0    0 -0.61351121634E+02 -0.14705758516E+02  0.28486210811E+03  0.29176469988E+03  0.00000000000E+00 0. -1.
         11    1    1    2    0    0  0.30883381104E+02  0.10421392007E+02  0.10782946025E+03  0.11264804099E+03  0.00000000000E+00 0.  1.
</event>
<event>
 7    1  0.2661133E-009  0.1010704E+03  0.7561462E-02  0.1278061E+00
          2   -1    0    0  501    0  0.00000000000E+00  0.00000000000E+00  0.92284850094E+02  0.92284850094E+02  0.00000000000E+00 0. -1.
         -2   -1    0    0    0  501 -0.00000000000E+00 -0.00000000000E+00 -0.22717638750E+03  0.22717638750E+03  0.00000000000E+00 0.  1.
         25    2    1    2    0    0 -0.20180925502E+02 -0.26208211079E+02  0.27994014773E+02  0.13237220382E+03  0.12507835704E+03 0.  0.
          5    1    3    3  502    0 -0.30336998172E+02  0.44902131247E+02  0.26346539055E+02  0.60399895437E+02  0.41800000000E+01 0.  1.
         -5    1    3    3    0  502  0.10156072670E+02 -0.71110342326E+02  0.16474757179E+01  0.71972308383E+02  0.41800000000E+01 0.  1.
        -11    1    1    2    0    0  0.41302732911E+01  0.48329573431E+02 -0.14846329635E+03  0.15618629001E+03  0.00000000000E+00 0.  1.
         11    1    1    2    0    0  0.16050652211E+02 -0.22121362352E+02 -0.14422255830E+02  0.30902743760E+02  0.00000000000E+00 0. -1.
</event>
<event>
 7    1  0.2661133E-009  0.4603414E+03  0.7561462E-02  0.1024682E+00
          1   -1    0    0  501    0  0.00000000000E+00  0.00000000000E+00  0.52108373499E+03  0.52108373499E+03  0.00000000000E+00 0. -1.
         -1   -1    0    0    0  501 -0.00000000000E+00 -0.00000000000E+00 -0.58441195594E+03  0.58441195594E+03  0.00000000000E+00 0.  1.
         25    2    1    2    0    0  0.10677843405E+03 -0.43529489964E+03  0.27290275320E+03  0.53944963471E+03  0.12508681810E+03 0.  0.
          5    1    3    3  502    0  0.58125980766E+02 -0.40203771021E+03  0.23926158413E+03  0.47146211737E+03  0.41800000000E+01 0.  1.
         -5    1    3    3    0  502  0.48652453279E+02 -0.33257189425E+02  0.33641169064E+02  0.67987517344E+02  0.41800000000E+01 0.  1.
        -11    1    1    2    0    0 -0.48961280148E+02  0.69430300746E+02 -0.62039089061E+02  0.10519801418E+03  0.00000000000E+00 0.  1.
         11    1    1    2    0    0 -0.57817153897E+02  0.36586459889E+03 -0.27419188508E+03  0.46084804204E+03  0.00000000000E+00 0. -1.
</event>
<event>
 7    1  0.2661133E-009  0.1087288E+03  0.7561462E-02  0.1262942E+00
          2   -1    0    0  501    0  0.00000000000E+00  0.00000000000E+00  0.67235325912E+02  0.67235325912E+02  0.00000000000E+00 0. -1.
         -2   -1    0    0    0  501 -0.00000000000E+00 -0.00000000000E+00 -0.25846695853E+03  0.25846695853E+03  0.00000000000E+00 0.  1.
         25    2    1    2    0    0  0.46941581680E+02 -0.57471221506E+02 -0.98090103626E+02  0.17542975167E+03  0.12508987150E+03 0.  0.
          5    1    3    3  502    0  0.47691014436E+02 -0.60148649300E+01  0.15481263075E+02  0.50673004297E+02  0.41800000000E+01 0.  1.
         -5    1    3    3    0  502 -0.74943275664E+00 -0.51456356576E+02 -0.11357136670E+03  0.12475674738E+03  0.41800000000E+01 0.  1.
        -11    1    1    2    0    0  0.26552635434E+02  0.27437384336E+02 -0.35761881317E+02  0.52314096217E+02  0.00000000000E+00 0.  1.
         11    1    1    2    0    0 -0.73494217114E+02  0.30033837169E+02 -0.57379647676E+02  0.97958436552E+02  0.00000000000E+00 0. -1.
</event>
<event>
 7    1  0.2661133E-009  0.1132622E+03  0.7561462E-02  0.1254645E+00
          1   -1    0    0  501    0  0.00000000000E+00  0.00000000000E+00  0.38906865740E+02  0.38906865740E+02  0.00000000000E+00 0. -1.
         -1   -1    0    0    0  501 -0.00000000000E+00 -0.00000000000E+00 -0.47257847778E+03  0.47257847778E+03  0.00000000000E+00 0.  1.
         25    2    1    2    0    0  0.16893372910E+02 -0.69644194542E+02 -0.31935471541E+03  0.35038744487E+03  0.12509287506E+03 0.  0.
          5    1    3    3  502    0 -0.97641057427E+00 -0.88047590332E+02 -0.31074774435E+03  0.32300923293E+03  0.41800000000E+01 0.  1.
         -5    1    3    3    0  502  0.17869783484E+02  0.18403395790E+02 -0.86069710597E+01  0.27378211943E+02  0.41800000000E+01 0.  1.
        -11    1    1    2    0    0 -0.20390434026E+02  0.89718009705E+02 -0.84089385629E+02  0.12464395629E+03  0.00000000000E+00 0. -1.
         11    1    1    2    0    0  0.34970611167E+01 -0.20073815163E+02 -0.30227511005E+02  0.36453942355E+02  0.00000000000E+00 0.  1.
</event>
<event>
 7    1  0.2661133E-009  0.9153925E+02  0.7561462E-02  0.1299166E+00
          2   -1    0    0  501    0  0.00000000000E+00  0.00000000000E+00  0.46339579446E+02  0.46339579446E+02  0.00000000000E+00 0. -1.
         -2   -1    0    0    0  501 -0.00000000000E+00 -0.00000000000E+00 -0.41936010980E+03  0.41936010980E+03  0.00000000000E+00 0.  1.
         25    2    1    2    0    0  0.46095083442E+02 -0.72934494306E+02 -0.19363244692E+03  0.24614417268E+03  0.12509689072E+03 0.  0.
          5    1    3    3  502    0  0.35834979027E+02 -0.26977276104E+02 -0.19370088077E+03  0.19887036671E+03  0.41800000000E+01 0.  1.
         -5    1    3    3    0  502  0.10260104414E+02 -0.45957218202E+02  0.68433842788E-01  0.47273805967E+02  0.41800000000E+01 0.  1.
        -11    1    1    2    0    0 -0.96906260919E+01  0.41629603251E+02 -0.16348020160E+03  0.16897546691E+03  0.00000000000E+00 0.  1.
         11    1    1    2    0    0 -0.36404457350E+02  0.31304891055E+02 -0.15907881830E+02  0.50580049656E+02  0.00000000000E+00 0. -1.
</event>
<event>
 6    1  0.2661133E-009  0.1576714E+03  0.7561462E-02  0.1191351E+00
         -2   -1    0    0    0  501 -0.00000000000E+00  0.00000000000E+00  0.29517766713E+02  0.29517766713E+02  0.00000000000E+00 0.  1.
          2   -1    0    0  501    0  0.00000000000E+00 -0.00000000000E+00 -0.10678534409E+04  0.10678534409E+04  0.00000000000E+00 0. -1.
          5    1    1    2  502    0 -0.11142084722E+03 -0.10149122790E+03 -0.66996047993E+03  0.68671652929E+03  0.41800000000E+01 0. -1.
         -5    1    1    2    0  502  0.18247343115E+02  0.15461804994E+02 -0.62067554709E+02  0.66647480762E+02  0.41800000000E+01 0. -1.
        -11    1    1    2    0    0  0.67902207744E+02  0.21877147833E+02 -0.78869152823E+02  0.10634689784E+03  0.00000000000E+00 0. -1.
         11    1    1    2    0    0  0.25271296357E+02  0.64152275074E+02 -0.22743848672E+03  0.23766029971E+03  0.00000000000E+00 0.  1.
</event>
<event>
 7    1  0.2661133E-009  0.1086687E+03  0.7561462E-02  0.1263055E+00
         -2   -1    0    0    0  501 -0.00000000000E+00  0.00000000000E+00  0.68758685866E+02  0.68758685866E+02  0.00000000000E+00 0.  1.
          2   -1    0    0  501    0  0.00000000000E+00 -0.00000000000E+00 -0.20956123987E+03  0.20956123987E+03  0.00000000000E+00 0. -1.
         25    2    1    2    0    0 -0.10953147055E+02 -0.48178531041E+01 -0.13723406767E+03  0.18607880003E+03  0.12509575274E+03 0.  0.
          5    1    3    3  502    0 -0.58754713560E+02 -0.35402745301E+02 -0.72716900147E+02  0.10005343926E+03  0.41800000000E+01 0.  1.
         -5    1    3    3    0  502  0.47801566504E+02  0.30584892197E+02 -0.64517167523E+02  0.86025360773E+02  0.41800000000E+01 0.  1.
        -11    1    1    2    0    0 -0.18023177674E+02  0.41335544291E+02 -0.63606849479E+01  0.45540316955E+02  0.00000000000E+00 0. -1.
         11    1    1    2    0    0  0.28976324729E+02 -0.36517691187E+02  0.27921986171E+01  0.46700808746E+02  0.00000000000E+00 0.  1.
</event>
<event>
 7    1  0.2661133E-009  0.1112067E+03  0.7561462E-02  0.1258351E+00
         -2   -1    0    0    0  501 -0.00000000000E+00  0.00000000000E+00  0.59903767985E+03  0.59903767985E+03  0.00000000000E+00 0.  1.
          2   -1    0    0  501    0  0.00000000000E+00 -0.00000000000E+00 -0.33793674263E+02  0.33793674263E+02  0.00000000000E+00 0. -1.
         25    2    1    2    0    0 -0.54125850007E+02  0.72349073858E+02  0.31766570778E+03  0.35316060489E+03  0.12508762857E+03 0.  0.
          5    1    3    3  502    0 -0.92839636978E+01  0.25704481160E+02  0.27307106047E+03  0.27446709967E+03  0.41800000000E+01 0. -1.
         -5    1    3    3    0  502 -0.44841886309E+02  0.46644592699E+02  0.44594647310E+02  0.78693505224E+02  0.41800000000E+01 0. -1.
        -11    1    1    2    0    0  0.59906635286E+02 -0.26246092107E+01  0.12101899190E+03  0.13506031958E+03  0.00000000000E+00 0.  1.
         11    1    1    2    0    0 -0.57807852794E+01 -0.69724464648E+02  0.12655930590E+03  0.14461042964E+03  0.00000000000E+00 0. -1.
</event>
<event>
 7    1  0.2673416E-009  0.2045552E+03  0.7561462E-02  0.1145952E+00
         -2   -1    0    0    0  501 -0.00000000000E+00  0.00000000000E+00  0.61095102918E+02  0.61095102918E+02  0.00000000000E+00 0.  1.
          2   -1    0    0  501    0  0.00000000000E+00 -0.00000000000E+00 -0.81111750529E+03  0.81111750529E+03  0.00000000000E+00 0. -1.
         25    2    1    2    0    0 -0.18472688698E+03 -0.43566824564E+02 -0.31008424448E+03  0.38447705910E+03  0.12509308262E+03 0.  0.
          5    1    3    3  502    0 -0.17018776656E+02 -0.29093527727E+02 -0.14405900331E+03  0.14800858404E+03  0.41800000000E+01 0. -1.
         -5    1    3    3    0  502 -0.16770811033E+03 -0.14473296837E+02 -0.16602524118E+03  0.23646847506E+03  0.41800000000E+01 0. -1.
        -11    1    1    2    0    0  0.10498501271E+03 -0.17358559501E+02 -0.27233469098E+03  0.29238562960E+03  0.00000000000E+00 0. -1.
         11    1    1    2    0    0  0.79741874269E+02  0.60925384065E+02 -0.16760346691E+03  0.19534991952E+03  0.00000000000E+00 0.  1.
</event>
<event>
 7    1  0.2661133E-009  0.7176484E+02  0.7561462E-02  0.1354192E+00
         -3   -1    0    0    0  501 -0.00000000000E+00  0.00000000000E+00  0.32805206540E+03  0.32805206540E+03  0.00000000000E+00 0.  1.
          3   -1    0    0  501    0  0.00000000000E+00 -0.00000000000E+00 -0.38453908015E+02  0.38453908015E+02  0.00000000000E+00 0. -1.
         25    2    1    2    0    0  0.10175017015E+02  0.21635745633E+02  0.14494916041E+03  0.19294940154E+03  0.12509027136E+03 0.  0.
          5    1    3    3  502    0 -0.24937197718E+02  0.27854333120E+02  0.15180593898E+03  0.15639770847E+03  0.41800000000E+01 0.  1.
         -5    1    3    3    0  502  0.35112214733E+02 -0.62185874870E+01 -0.68567785751E+01  0.36551693069E+02  0.41800000000E+01 0.  1.
        -11    1    1    2    0    0  0.15727305435E+02 -0.36781147279E+02  0.18836481439E+02  0.44215539852E+02  0.00000000000E+00 0. -1.
         11    1    1    2    0    0 -0.25902322450E+02  0.15145401646E+02  0.12581251554E+03  0.12934103203E+03  0.00000000000E+00 0.  1.
</event>
<event>
 7    1  0.2661133E-009  0.1704800E+03  0.7561462E-02  0.1177348E+00
         -2   -1    0    0    0  501 -0.00000000000E+00  0.00000000000E+00  0.58352833821E+02  0.58352833821E+02  0.00000000000E+00 0.  1.
          2   -1    0    0  501    0  0.00000000000E+00 -0.00000000000E+00 -0.59018409503E+03  0.59018409503E+03  0.00000000000E+00 0. -1.
         25    2    1    2    0    0 -0.64976990059E+02 -0.13426740600E+03 -0.29643478781E+03  0.35464249128E+03  0.12509183686E+03 0.  0.
          5    1    3    3  502    0 -0.85674770088E+02 -0.42316882803E+02 -0.18784202766E+03  0.21079132941E+03  0.41800000000E+01 0.  1.
         -5    1    3    3    0  502  0.20697780029E+02 -0.91950523201E+02 -0.10859276015E+03  0.14385116188E+03  0.41800000000E+01 0.  1.
        -11    1    1    2    0    0  0.31560606344E+02  0.39985199582E+02 -0.16201772395E+03  0.16983707173E+03  0.00000000000E+00 0.  1.
         11    1    1    2    0    0  0.33416383715E+02  0.94282206422E+02 -0.73378749442E+02  0.12405736584E+03  0.00000000000E+00 0. -1.
</event>
<event>
 7    1  0.2661133E-009  0.2227777E+03  0.7561462E-02  0.1131829E+00
         -1   -1    0    0    0  501 -0.00000000000E+00  0.00000000000E+00  0.22051457815E+03  0.22051457815E+03  0.00000000000E+00 0.  1.
          1   -1    0    0  501    0  0.00000000000E+00 -0.00000000000E+00 -0.24976649485E+03  0.24976649485E+03  0.00000000000E+00 0. -1.
         25    2    1    2    0    0  0.17671231583E+02  0.20401841986E+03 -0.51125436257E+02  0.24535123844E+03  0.12509049486E+03 0.  0.
          5    1    3    3  502    0 -0.36769913134E+02  0.64352487345E+02 -0.59531223270E+02  0.95156229872E+02  0.41800000000E+01 0. -1.
         -5    1    3    3    0  502  0.54441144717E+02  0.13966593251E+03  0.84057870124E+01  0.15019500856E+03  0.41800000000E+01 0. -1.
        -11    1    1    2    0    0 -0.51779334876E+02 -0.12193271364E+03 -0.34056126194E+01  0.13251522317E+03  0.00000000000E+00 0.  1.
         11    1    1    2    0    0  0.34108103293E+02 -0.82085706219E+02  0.25279132176E+02  0.92414611396E+02  0.00000000000E+00 0. -1.
</event>
<event>
 7    1  0.2661133E-009  0.9540247E+02  0.7561462E-02  0.1290272E+00
         -1   -1    0    0    0  501 -0.00000000000E+00  0.00000000000E+00  0.10559655655E+02  0.10559655655E+02  0.00000000000E+00 0.  1.
          1   -1    0    0  501    0  0.00000000000E+00 -0.00000000000E+00 -0.18109461048E+04  0.18109461048E+04  0.00000000000E+00 0. -1.
         25    2    1    2    0    0 -0.62895918620E+02  0.16772963782E+02 -0.13704060201E+04  0.13776417230E+04  0.12508728176E+03 0.  0.
          5    1    3    3  502    0 -0.46128571805E+02 -0.21027434045E+02 -0.19576733054E+03  0.20226793672E+03  0.41800000000E+01 0.  1.
         -5    1    3    3    0  502 -0.16767346815E+02  0.37800397826E+02 -0.11746386896E+04  0.11753737862E+04  0.41800000000E+01 0.  1.
        -11    1    1    2    0    0  0.61308687755E+02 -0.41219343019E+02 -0.39030227990E+03  0.39723250009E+03  0.00000000000E+00 0. -1.
         11    1    1    2    0    0  0.15872308648E+01  0.24446379237E+02 -0.39678149131E+02  0.46631537376E+02  0.00000000000E+00 0.  1.
</event>
<event>
 7    1  0.2661133E-009  0.1411536E+03  0.7561462E-02  0.1211785E+00
          1   -1    0    0  501    0  0.00000000000E+00  0.00000000000E+00  0.45623376088E+03  0.45623376088E+03  0.00000000000E+00 0. -1.
         -1   -1    0    0    0  501 -0.00000000000E+00 -0.00000000000E+00 -0.52648150458E+02  0.52648150458E+02  0.00000000000E+00 0.  1.
         25    2    1    2    0    0  0.10168731575E+03  0.44848971467E+02  0.21652184213E+03  0.27363996280E+03  0.12508149621E+03 0.  0.
          5    1    3    3  502    0 -0.28962910325E+02  0.16630449019E+01  0.45009214415E+02  0.53711429650E+02  0.41800000000E+01 0.  1.
         -5    1    3    3    0  502  0.13065022607E+03  0.43185926565E+02  0.17151262772E+03  0.21992853315E+03  0.41800000000E+01 0.  1.
        -11    1    1    2    0    0 -0.78540858725E+02 -0.19342680063E+02  0.18359590241E+03  0.20062467730E+03  0.00000000000E+00 0. -1.
         11    1    1    2    0    0 -0.23146457024E+02 -0.25506291404E+02  0.34678658772E+01  0.34617271234E+02  0.00000000000E+00 0.  1.
</event>
<event>
 7    1  0.2930485E-009  0.1635602E+03  0.7561462E-02  0.1184735E+00
         -1   -1    0    0    0  501 -0.00000000000E+00  0.00000000000E+00  0.46188787992E+02  0.46188787992E+02  0.00000000000E+00 0.  1.
          1   -1    0    0  501    0  0.00000000000E+00 -0.00000000000E+00 -0.70437682963E+03  0.70437682963E+03  0.00000000000E+00 0. -1.
         25    2    1    2    0    0 -0.74815206265E+02 -0.12272845181E+03 -0.36971753140E+03  0.41593354581E+03  0.12510025390E+03 0.  0.
          5    1    3    3  502    0 -0.77069382211E+02 -0.23624436973E+02 -0.99788213404E+02  0.12834704372E+03  0.41800000000E+01 0. -1.
         -5    1    3    3    0  502  0.22541759455E+01 -0.99104014840E+02 -0.26992931800E+03  0.28758650209E+03  0.41800000000E+01 0. -1.
        -11    1    1    2    0    0  0.62795156629E+00  0.22392649622E+02 -0.23988854340E+01  0.22529530212E+02  0.00000000000E+00 0.  1.
         11    1    1    2    0    0  0.74187254699E+02  0.10033580219E+03 -0.28607162480E+03  0.31210254161E+03  0.00000000000E+00 0. -1.
</event>
<event>
 7    1  0.2661133E-009  0.9905448E+02  0.7561462E-02  0.1282297E+00
         -3   -1    0    0    0  501 -0.00000000000E+00  0.00000000000E+00  0.83597762621E+01  0.83597762621E+01  0.00000000000E+00 0. -1.
          3   -1    0    0  501    0  0.00000000000E+00 -0.00000000000E+00 -0.23065111116E+04  0.23065111116E+04  0.00000000000E+00 0.  1.
         25    2    1    2    0    0  0.37383588974E+02 -0.52573844331E+02 -0.17284604184E+04  0.17341811334E+04  0.12508894319E+03 0.  0.
          5    1    3    3  502    0 -0.90069473694E+01  0.56649207200E+01 -0.13888963029E+02  0.17988666479E+02  0.41800000000E+01 0. -1.
         -5    1    3    3    0  502  0.46390536343E+02 -0.58238765051E+02 -0.17145714553E+04  0.17161924669E+04  0.41800000000E+01 0. -1.
        -11    1    1    2    0    0 -0.25781493991E+02  0.79075819938E+02 -0.40079086939E+03  0.40932993015E+03  0.00000000000E+00 0. -1.
         11    1    1    2    0    0 -0.11602094983E+02 -0.26501975607E+02 -0.16890004763E+03  0.17135982437E+03  0.00000000000E+00 0.  1.
</event>
<event>
 7    1  0.2661133E-009  0.1010083E+03  0.7561462E-02  0.1278190E+00
         -1   -1    0    0    0  501 -0.00000000000E+00  0.00000000000E+00  0.35226581986E+03  0.35226581986E+03  0.00000000000E+00 0.  1.
          1   -1    0    0  501    0  0.00000000000E+00 -0.00000000000E+00 -0.35759177010E+02  0.35759177010E+02  0.00000000000E+00 0. -1.
         25    2    1    2    0    0 -0.12682788769E+02 -0.18982508227E+02  0.22703013309E+03  0.26021400093E+03  0.12508979255E+03 0.  0.
          5    1    3    3  502    0 -0.32421086670E+02 -0.66864754241E+02  0.11939127689E+03  0.14069033946E+03  0.41800000000E+01 0.  1.
         -5    1    3    3    0  502  0.19738297900E+02  0.47882246014E+02  0.10763885619E+03  0.11952366147E+03  0.41800000000E+01 0.  1.
        -11    1    1    2    0    0  0.37253399213E+02 -0.90662755399E+01  0.93971762946E+01  0.39475562408E+02  0.00000000000E+00 0. -1.
         11    1    1    2    0    0 -0.24570610444E+02  0.28048783767E+02  0.80079333469E+02  0.88335433531E+02  0.00000000000E+00 0.  1.
</event>
<event>
 7    1  0.2661133E-009  0.1116387E+03  0.7561462E-02  0.1257565E+00
          3   -1    0    0  501    0  0.00000000000E+00  0.00000000000E+00  0.17485790402E+03  0.17485790402E+03  0.00000000000E+00 0. -1.
         -3   -1    0    0    0  501 -0.00000000000E+00 -0.00000000000E+00 -0.11309937870E+03  0.11309937870E+03  0.00000000000E+00 0.  1.
         25    2    1    2    0    0 -0.36129013093E+02 -0.73626158476E+02  0.71512358178E+02  0.16578993664E+03  0.12508464702E+03 0.  0.
          5    1    3    3  502    0 -0.22870777288E+02 -0.89462506544E+02  0.12573685054E+01  0.92442770980E+02  0.41800000000E+01 0. -1.
         -5    1    3    3    0  502 -0.13258235805E+02  0.15836348068E+02  0.70254989673E+02  0.73347165662E+02  0.41800000000E+01 0. -1.
        -11    1    1    2    0    0  0.54517643600E+02  0.29546429074E+02 -0.31657208605E+02  0.69622868308E+02  0.00000000000E+00 0.  1.
         11    1    1    2    0    0 -0.18388630507E+02  0.44079729401E+02  0.21903375746E+02  0.52544477779E+02  0.00000000000E+00 0. -1.
</event>
<event>
 7    1  0.2661133E-009  0.1646823E+03  0.7561462E-02  0.1183510E+00
          2   -1    0    0  501    0  0.00000000000E+00  0.00000000000E+00  0.21935647850E+03  0.21935647850E+03  0.00000000000E+00 0.  1.
         -2   -1    0    0    0  501 -0.00000000000E+00 -0.00000000000E+00 -0.19928314691E+03  0.19928314691E+03  0.00000000000E+00 0. -1.
         25    2    1    2    0    0  0.49000940368E+02 -0.13377051391E+03 -0.95727946034E+02  0.21238735051E+03  0.12509558129E+03 0.  0.
          5    1    3    3  502    0  0.63206613571E+02 -0.65473132309E+02 -0.10815162017E+03  0.14140739867E+03  0.41800000000E+01 0. -1.
         -5    1    3    3    0  502 -0.14205673203E+02 -0.68297381602E+02  0.12423674133E+02  0.70979951844E+02  0.41800000000E+01 0. -1.
        -11    1    1    2    0    0  0.53965849615E+01 -0.11801239827E+02  0.94495019938E+00  0.13010969279E+02  0.00000000000E+00 0.  1.
         11    1    1    2    0    0 -0.54397525330E+02  0.14557175374E+03  0.11485632743E+03  0.19324130562E+03  0.00000000000E+00 0. -1.
</event>
<event>
 7    1  0.2661133E-009  0.1073202E+03  0.7561462E-02  0.1265614E+00
          1   -1    0    0  501    0  0.00000000000E+00  0.00000000000E+00  0.52202751821E+03  0.52202751821E+03  0.00000000000E+00 0. -1.
         -1   -1    0    0    0  501 -0.00000000000E+00 -0.00000000000E+00 -0.30178290162E+02  0.30178290162E+02  0.00000000000E+00 0.  1.
         25    2    1    2    0    0 -0.48815096713E+01  0.50655169613E+02  0.18204662955E+03  0.22666782855E+03  0.12509018277E+03 0.  0.
          5    1    3    3  502    0 -0.25609302583E+02 -0.25480456666E+02  0.12233561212E+03  0.12762666040E+03  0.41800000000E+01 0. -1.
         -5    1    3    3    0  502  0.20727792912E+02  0.76135626278E+02  0.59711017427E+02  0.99041168157E+02  0.41800000000E+01 0. -1.
        -11    1    1    2    0    0  0.70907403577E+01 -0.74737216383E+02  0.25007143836E+03  0.26109702103E+03  0.00000000000E+00 0.  1.
         11    1    1    2    0    0 -0.22092306864E+01  0.24082046771E+02  0.59731160143E+02  0.64440958783E+02  0.00000000000E+00 0. -1.
</event>
<event>
 7    1  0.2661133E-009  0.9978004E+02  0.7561462E-02  0.1280759E+00
          2   -1    0    0  501    0  0.00000000000E+00  0.00000000000E+00  0.73910379554E+03  0.73910379554E+03  0.00000000000E+00 0. -1.
         -2   -1    0    0    0  501 -0.00000000000E+00 -0.00000000000E+00 -0.31513707147E+02  0.31513707147E+02  0.00000000000E+00 0.  1.
         25    2    1    2    0    0  0.85971677696E+01  0.77325443403E+02  0.56432113770E+03  0.58323170290E+03  0.12509091626E+03 0.  0.
          5    1    3    3  502    0  0.16961548367E+02  0.69057918979E+02  0.56615286606E+03  0.57061653538E+03  0.41800000000E+01 0.  1.
         -5    1    3    3    0  502 -0.83643805974E+01  0.82675244237E+01 -0.18317283664E+01  0.12615167525E+02  0.41800000000E+01 0.  1.
        -11    1    1    2    0    0  0.38560385890E+02 -0.41290024102E+02  0.96507090350E+02  0.11182749187E+03  0.00000000000E+00 0. -1.
         11    1    1    2    0    0 -0.47157553660E+02 -0.36035419301E+02  0.46761860344E+02  0.75558307910E+02  0.00000000000E+00 0.  1.
</event>
<event>
 7    1  0.2661133E-009  0.8370925E+02  0.7561462E-02  0.1318843E+00
         -1   -1    0    0    0  501 -0.00000000000E+00  0.00000000000E+00  0.59165395825E+02  0.59165395825E+02  0.00000000000E+00 0.  1.
          1   -1    0    0  501    0  0.00000000000E+00 -0.00000000000E+00 -0.18587724998E+03  0.18587724998E+03  0.00000000000E+00 0. -1.
         25    2    1    2    0    0 -0.21514707259E+02  0.12997449001E+02 -0.48246684204E+02  0.13640969511E+03  0.12509215033E+03 0.  0.
          5    1    3    3  502    0 -0.16234665226E+02  0.67645324095E+02 -0.41042876384E+02  0.80879195896E+02  0.41800000000E+01 0.  1.
         -5    1    3    3    0  502 -0.52800420334E+01 -0.54647875094E+02 -0.72038078198E+01  0.55530499217E+02  0.41800000000E+01 0.  1.
        -11    1    1    2    0    0  0.15941444931E+02 -0.24875383039E+02 -0.47716872272E+00  0.29548976934E+02  0.00000000000E+00 0.  1.
         11    1    1    2    0    0  0.55732623275E+01  0.11877934038E+02 -0.77988001227E+02  0.79083973758E+02  0.00000000000E+00 0. -1.
</event>
<event>
 7    1  0.2661133E-009  0.1728014E+03  0.7561462E-02  0.1174957E+00
          2   -1    0    0  501    0  0.00000000000E+00  0.00000000000E+00  0.33231877992E+04  0.33231877992E+04  0.00000000000E+00 0. -1.
         -2   -1    0    0    0  501 -0.00000000000E+00 -0.00000000000E+00 -0.42325377952E+02  0.42325377952E+02  0.00000000000E+00 0.  1.
         25    2    1    2    0    0 -0.11482407197E+03 -0.12893857618E+03  0.30513331512E+04  0.30587729382E+04  0.12509262057E+03 0.  0.
          5    1    3    3  502    0 -0.58355766346E+02 -0.63361460729E+02  0.62828504122E+03  0.63417634424E+03  0.41800000000E+01 0. -1.
         -5    1    3    3    0  502 -0.56468305621E+02 -0.65577115449E+02  0.24230481100E+04  0.24245965940E+04  0.41800000000E+01 0. -1.
        -11    1    1    2    0    0  0.81616125342E+02  0.94872628918E+02  0.22686247571E+03  0.25909185730E+03  0.00000000000E+00 0. -1.
         11    1    1    2    0    0  0.33207946624E+02  0.34065947260E+02  0.26667942980E+01  0.47648381647E+02  0.00000000000E+00 0.  1.
</event>
<event>
 7    1  0.2661133E-009  0.1140650E+03  0.7561462E-02  0.1253222E+00
          1   -1    0    0  501    0  0.00000000000E+00  0.00000000000E+00  0.67446065807E+02  0.67446065807E+02  0.00000000000E+00 0. -1.
         -1   -1    0    0    0  501 -0.00000000000E+00 -0.00000000000E+00 -0.35295226100E+03  0.35295226100E+03  0.00000000000E+00 0.  1.
         25    2    1    2    0    0  0.71500278406E+02  0.33318546609E+02 -0.25672598562E+03  0.29627345163E+03  0.12508921251E+03 0.  0.
          5    1    3    3  502    0  0.23657857052E+02  0.73892226253E+02 -0.94817253999E+02  0.12258686454E+03  0.41800000000E+01 0. -1.
         -5    1    3    3    0  502  0.47842421354E+02 -0.40573679644E+02 -0.16190873162E+03  0.17368658709E+03  0.41800000000E+01 0. -1.
        -11    1    1    2    0    0 -0.46117410681E+02 -0.40289868280E+02 -0.58315260617E+02  0.84562158645E+02  0.00000000000E+00 0.  1.
         11    1    1    2    0    0 -0.25382867726E+02  0.69713216719E+01  0.29535051040E+02  0.39562716537E+02  0.00000000000E+00 0. -1.
</event>
<event>
 7    1  0.2661133E-009  0.9367585E+02  0.7561462E-02  0.1294187E+00
          2   -1    0    0  501    0  0.00000000000E+00  0.00000000000E+00  0.75317302800E+03  0.75317302800E+03  0.00000000000E+00 0. -1.
         -2   -1    0    0    0  501 -0.00000000000E+00 -0.00000000000E+00 -0.23665454151E+02  0.23665454151E+02  0.00000000000E+00 0.  1.
         25    2    1    2    0    0 -0.65560707175E+02  0.43999922176E+02  0.39362720300E+03  0.42050547671E+03  0.12509309144E+03 0.  0.
          5    1    3    3  502    0 -0.55741972612E+02  0.10283401677E+02  0.37729389981E+03  0.38155088140E+03  0.41800000000E+01 0.  1.
         -5    1    3    3    0  502 -0.98187345627E+01  0.33716520499E+02  0.16333303191E+02  0.38954595315E+02  0.41800000000E+01 0.  1.
        -11    1    1    2    0    0 -0.88367877709E+01 -0.10020291078E+02  0.31892376938E+01  0.13735584751E+02  0.00000000000E+00 0.  1.
         11    1    1    2    0    0  0.74397494945E+02 -0.33979631098E+02  0.33269113316E+03  0.34259742069E+03  0.00000000000E+00 0. -1.
</event>
<event>
 7    1  0.2661133E-009  0.9436018E+02  0.7561462E-02  0.1292624E+00
          2   -1    0    0  501    0  0.00000000000E+00  0.00000000000E+00  0.59452632974E+03  0.59452632974E+03  0.00000000000E+00 0. -1.
         -2   -1    0    0    0  501 -0.00000000000E+00 -0.00000000000E+00 -0.30202854588E+02  0.30202854588E+02  0.00000000000E+00 0.  1.
         25    2    1    2    0    0 -0.49552229528E+02  0.51651439485E+02  0.38212290415E+03  0.40839807283E+03  0.12509107629E+03 0.  0.
          5    1    3    3  502    0 -0.29413934795E+02  0.31490744848E+02  0.37659050997E+03  0.37907087883E+03  0.41800000000E+01 0.  1.
         -5    1    3    3    0  502 -0.20138294734E+02  0.20160694637E+02  0.55323941733E+01  0.29327194007E+02  0.41800000000E+01 0.  1.
        -11    1    1    2    0    0 -0.25296419170E+02  0.66705128582E+00  0.39049359855E+02  0.46531777156E+02  0.00000000000E+00 0. -1.
         11    1    1    2    0    0  0.74848648698E+02 -0.52318490771E+02  0.14315121115E+03  0.16979933434E+03  0.00000000000E+00 0.  1.
</event>
<event>
 7    1  0.2661133E-009  0.2166056E+03  0.7561462E-02  0.1136439E+00
          1   -1    0    0  501    0  0.00000000000E+00  0.00000000000E+00  0.49143974494E+02  0.49143974494E+02  0.00000000000E+00 0. -1.
         -1   -1    0    0    0  501 -0.00000000000E+00 -0.00000000000E+00 -0.12431181516E+04  0.12431181516E+04  0.00000000000E+00 0.  1.
         25    2    1    2    0    0 -0.15723415061E+03 -0.13187255256E+03 -0.39540106287E+03  0.46271120894E+03  0.12508682635E+03 0.  0.
          5    1    3    3  502    0 -0.28237098094E+02 -0.74962907404E+01 -0.10436299796E+01  0.29531163999E+02  0.41800000000E+01 0.  1.
         -5    1    3    3    0  502 -0.12899705252E+03 -0.12437626182E+03 -0.39435743289E+03  0.43318004494E+03  0.41800000000E+01 0.  1.
        -11    1    1    2    0    0  0.13275225637E+03  0.54848467905E+02 -0.52397653595E+03  0.54330739570E+03  0.00000000000E+00 0.  1.
         11    1    1    2    0    0  0.24481894246E+02  0.77024084653E+02 -0.27459657828E+03  0.28624352144E+03  0.00000000000E+00 0. -1.
</event>
<event>
 7    1  0.2661133E-009  0.1214439E+03  0.7561462E-02  0.1240734E+00
         -2   -1    0    0    0  501 -0.00000000000E+00  0.00000000000E+00  0.19746812851E+02  0.19746812851E+02  0.00000000000E+00 0.  1.
          2   -1    0    0  501    0  0.00000000000E+00 -0.00000000000E+00 -0.10069962822E+04  0.10069962822E+04  0.00000000000E+00 0. -1.
         25    2    1    2    0    0 -0.23774464992E+02 -0.83780179002E+02 -0.47512036215E+03  0.49897294881E+03  0.12510116523E+03 0.  0.
          5    1    3    3  502    0 -0.38648143059E+02 -0.91454838869E+02 -0.47082144157E+03  0.48119431497E+03  0.41800000000E+01 0.  1.
         -5    1    3    3    0  502  0.14873678068E+02  0.76746598663E+01 -0.42989205763E+01  0.17778633846E+02  0.41800000000E+01 0.  1.
        -11    1    1    2    0    0 -0.10538882209E+02  0.90656819788E+02 -0.33456119375E+03  0.34678656170E+03  0.00000000000E+00 0.  1.
         11    1    1    2    0    0  0.34313347200E+02 -0.68766407854E+01 -0.17756791347E+03  0.18098358455E+03  0.00000000000E+00 0. -1.
</event>
<event>
 7    1  0.2661133E-009  0.1503273E+03  0.7561462E-02  0.1200071E+00
         -1   -1    0    0    0  501 -0.00000000000E+00  0.00000000000E+00  0.16599258310E+03  0.16599258310E+03  0.00000000000E+00 0.  1.
          1   -1    0    0  501    0  0.00000000000E+00 -0.00000000000E+00 -0.19406202898E+03  0.19406202898E+03  0.00000000000E+00 0. -1.
         25    2    1    2    0    0  0.68305180146E+02  0.10490073531E+03  0.54827482393E+02  0.18527265507E+03  0.12510052752E+03 0.  0.
          5    1    3    3  502    0 -0.27609485388E+01 -0.25950157272E+02  0.17521535418E+02  0.31709779291E+02  0.41800000000E+01 0.  1.
         -5    1    3    3    0  502  0.71066128685E+02  0.13085089259E+03  0.37305946975E+02  0.15356287578E+03  0.41800000000E+01 0.  1.
        -11    1    1    2    0    0 -0.51963604028E+02 -0.76099658432E+02 -0.10126392303E+03  0.13691514257E+03  0.00000000000E+00 0. -1.
         11    1    1    2    0    0 -0.16341576118E+02 -0.28801076882E+02  0.18366994754E+02  0.37866814441E+02  0.00000000000E+00 0.  1.
</event>
<event>
 7    1  0.2661133E-009  0.1612744E+03  0.7561462E-02  0.1187265E+00
          1   -1    0    0  501    0  0.00000000000E+00  0.00000000000E+00  0.73158598998E+03  0.73158598998E+03  0.00000000000E+00 0. -1.
         -1   -1    0    0    0  501 -0.00000000000E+00 -0.00000000000E+00 -0.42961472158E+02  0.42961472158E+02  0.00000000000E+00 0.  1.
         25    2    1    2    0    0 -0.92076239041E+01 -0.13604793609E+03  0.29930238302E+03  0.35188530551E+03  0.12509008952E+03 0.  0.
          5    1    3    3  502    0 -0.45102712539E+02 -0.74600221242E+02  0.70370181792E+02  0.11211102788E+03  0.41800000000E+01 0.  1.
         -5    1    3    3    0  502  0.35895088635E+02 -0.61447714845E+02  0.22893220123E+03  0.23977427762E+03  0.41800000000E+01 0.  1.
        -11    1    1    2    0    0 -0.23707357632E+02 -0.31382081070E+00  0.69357781385E+02  0.73298288711E+02  0.00000000000E+00 0.  1.
         11    1    1    2    0    0  0.32914981537E+02  0.13636175690E+03  0.31996435341E+03  0.34936386792E+03  0.00000000000E+00 0. -1.
</event>
<event>
 7    1  0.2661133E-009  0.6536572E+02  0.7561462E-02  0.1376601E+00
         -1   -1    0    0    0  501 -0.00000000000E+00  0.00000000000E+00  0.10152101021E+04  0.10152101021E+04  0.00000000000E+00 0.  1.
          1   -1    0    0  501    0  0.00000000000E+00 -0.00000000000E+00 -0.15062285749E+02  0.15062285749E+02  0.00000000000E+00 0. -1.
         25    2    1    2    0    0  0.77561122078E+01  0.77361108170E+01  0.81544480338E+03  0.82505531921E+03  0.12508416253E+03 0.  0.
          5    1    3    3  502    0  0.20942613995E+02 -0.63315734368E+01  0.79916749383E+03  0.79947785304E+03  0.41800000000E+01 0.  1.
         -5    1    3    3    0  502 -0.13186501787E+02  0.14067684254E+02  0.16277309544E+02  0.25577466169E+02  0.41800000000E+01 0.  1.
        -11    1    1    2    0    0 -0.30639751872E+02 -0.39242655724E+02  0.11626199070E+03  0.12647383487E+03  0.00000000000E+00 0.  1.
         11    1    1    2    0    0  0.22883639664E+02  0.31506544908E+02  0.68441022300E+02  0.78743233803E+02  0.00000000000E+00 0. -1.
</event>
<event>
 7    1  0.2661133E-009  0.1031869E+03  0.7561462E-02  0.1273734E+00
         -2   -1    0    0    0  501 -0.00000000000E+00  0.00000000000E+00  0.12074970851E+03  0.12074970851E+03  0.00000000000E+00 0.  1.
          2   -1    0    0  501    0  0.00000000000E+00 -0.00000000000E+00 -0.12331639008E+03  0.12331639008E+03  0.00000000000E+00 0. -1.
         25    2    1    2    0    0 -0.27526020479E+02 -0.65554222850E+01 -0.39284239124E+02  0.13413500041E+03  0.12509313142E+03 0.  0.
          5    1    3    3  502    0 -0.34994570215E+02  0.48533383581E+02 -0.49117303335E+02  0.77524777673E+02  0.41800000000E+01 0.  1.
         -5    1    3    3    0  502  0.74685497357E+01 -0.55088805866E+02  0.98330642110E+01  0.56610222740E+02  0.41800000000E+01 0.  1.
        -11    1    1    2    0    0 -0.29892034763E+02 -0.88883871681E+01  0.39596620397E+02  0.50402673695E+02  0.00000000000E+00 0.  1.
         11    1    1    2    0    0  0.57418055242E+02  0.15443809453E+02 -0.28790628414E+01  0.59528424480E+02  0.00000000000E+00 0. -1.
</event>
<event>
 7    1  0.2661133E-009  0.1306666E+03  0.7561462E-02  0.1226470E+00
          2   -1    0    0  501    0  0.00000000000E+00  0.00000000000E+00  0.24350425991E+02  0.24350425991E+02  0.00000000000E+00 0. -1.
         -2   -1    0    0    0  501 -0.00000000000E+00 -0.00000000000E+00 -0.10953459136E+04  0.10953459136E+04  0.00000000000E+00 0.  1.
         25    2    1    2    0    0 -0.14869310180E+02 -0.85517344244E+02 -0.86864897003E+03  0.88189155159E+03  0.12508942028E+03 0.  0.
          5    1    3    3  502    0  0.42723068450E+02 -0.41932224484E+01 -0.42428339206E+03  0.42647006093E+03  0.41800000000E+01 0. -1.
         -5    1    3    3    0  502 -0.57592378630E+02 -0.81324121796E+02 -0.44436557797E+03  0.45542149065E+03  0.41800000000E+01 0. -1.
        -11    1    1    2    0    0 -0.56717574412E+01 -0.14911850684E+02 -0.74790331791E+01  0.17620103875E+02  0.00000000000E+00 0. -1.
         11    1    1    2    0    0  0.20541067622E+02  0.10042919493E+03 -0.19486748444E+03  0.22018468418E+03  0.00000000000E+00 0.  1.
</event>
<event>
 7    1  0.2661133E-009  0.1478921E+03  0.7561462E-02  0.1203087E+00
         -1   -1    0    0    0  501 -0.00000000000E+00  0.00000000000E+00  0.59932792517E+03  0.59932792517E+03  0.00000000000E+00 0.  1.
          1   -1    0    0  501    0  0.00000000000E+00 -0.00000000000E+00 -0.54986630239E+02  0.54986630239E+02  0.00000000000E+00 0. -1.
         25    2    1    2    0    0  0.85367991897E+02 -0.71006035210E+02  0.11845366391E+03  0.20495864900E+03  0.12508887331E+03 0.  0.
          5    1    3    3  502    0  0.38173246661E+02  0.31508241695E+02  0.15223197831E+02  0.51953673668E+02  0.41800000000E+01 0.  1.
         -5    1    3    3    0  502  0.47194745236E+02 -0.10251427691E+03  0.10323046608E+03  0.15300497533E+03  0.41800000000E+01 0.  1.
        -11    1    1    2    0    0 -0.45003061711E+02  0.80030526648E+02  0.20490203401E+03  0.22453285795E+03  0.00000000000E+00 0.  1.
         11    1    1    2    0    0 -0.40364930186E+02 -0.90244914385E+01  0.22098559700E+03  0.22482304846E+03  0.00000000000E+00 0. -1.
</event>
<event>
 7    1  0.2661133E-009  0.1390007E+03  0.7561462E-02  0.1214680E+00
          2   -1    0    0  501    0  0.00000000000E+00  0.00000000000E+00  0.76759981223E+03  0.76759981223E+03  0.00000000000E+00 0. -1.
         -2   -1    0    0    0  501 -0.00000000000E+00 -0.00000000000E+00 -0.29801785297E+02  0.29801785297E+02  0.00000000000E+00 0.  1.
         25    2    1    2    0    0  0.52668572139E+01  0.95758586462E+02  0.47342425526E+03  0.49897508355E+03  0.12509261318E+03 0.  0.
          5    1    3    3  502    0  0.47905171712E+02 -0.77542996097E-01  0.20931856521E+03  0.21477114711E+03  0.41800000000E+01 0.  1.
         -5    1    3    3    0  502 -0.42638314499E+02  0.95836129458E+02  0.26410569005E+03  0.28420393644E+03  0.41800000000E+01 0.  1.
        -11    1    1    2    0    0  0.32783523120E+02 -0.15811093587E+02  0.14678875788E+03  0.15123389008E+03  0.00000000000E+00 0. -1.
         11    1    1    2    0    0 -0.38050380334E+02 -0.79947492875E+02  0.11758501380E+03  0.14719262390E+03  0.00000000000E+00 0.  1.
</event>
<event>
 7    1  0.2661133E-009  0.1187224E+03  0.7561462E-02  0.1245220E+00
         -3   -1    0    0    0  501 -0.00000000000E+00  0.00000000000E+00  0.19567298347E+03  0.19567298347E+03  0.00000000000E+00 0.  1.
          3   -1    0    0  501    0  0.00000000000E+00 -0.00000000000E+00 -0.94106823696E+02  0.94106823696E+02  0.00000000000E+00 0. -1.
         25    2    1    2    0    0  0.42421714173E+02 -0.61645680131E+02  0.18385368587E+02  0.14691852028E+03  0.12508892082E+03 0.  0.
          5    1    3    3  502    0  0.72213140873E+02  0.51202859349E+01  0.10307249505E+02  0.73243885992E+02  0.41800000000E+01 0. -1.
         -5    1    3    3    0  502 -0.29791426700E+02 -0.66765966065E+02  0.80781190822E+01  0.73674634287E+02  0.41800000000E+01 0. -1.
        -11    1    1    2    0    0  0.12653000607E+02  0.91596324171E+01 -0.12934188181E+02  0.20280298673E+02  0.00000000000E+00 0. -1.
         11    1    1    2    0    0 -0.55074714780E+02  0.52486047713E+02  0.96114979373E+02  0.12258098822E+03  0.00000000000E+00 0.  1.
</event>
<event>
 7    1  0.2661133E-009  0.1056522E+03  0.7561462E-02  0.1268840E+00
         -2   -1    0    0    0  501 -0.00000000000E+00  0.00000000000E+00  0.82494056973E+02  0.82494056973E+02  0.00000000000E+00 0.  1.
          2   -1    0    0  501    0  0.00000000000E+00 -0.00000000000E+00 -0.25273265090E+03  0.25273265090E+03  0.00000000000E+00 0. -1.
         25    2    1    2    0    0 -0.21089968384E+02  0.69389348383E+02 -0.16745213121E+03  0.22124225965E+03  0.12509297650E+03 0.  0.
          5    1    3    3  502    0 -0.47935549909E+02  0.19084987398E+02 -0.86757391672E+01  0.52486136638E+02  0.41800000000E+01 0.  1.
         -5    1    3    3    0  502  0.26845581525E+02  0.50304360985E+02 -0.15877639205E+03  0.16875612301E+03  0.41800000000E+01 0.  1.
        -11    1    1    2    0    0 -0.20679018806E+02  0.79545362623E+00  0.20425333834E+02  0.29076602750E+02  0.00000000000E+00 0. -1.
         11    1    1    2    0    0  0.41768987190E+02 -0.70184802009E+02 -0.23211796544E+02  0.84907845472E+02  0.00000000000E+00 0.  1.
</event>
<event>
 7    1  0.2661133E-009  0.1607275E+03  0.7561462E-02  0.1187878E+00
         -2   -1    0    0    0  501 -0.00000000000E+00  0.00000000000E+00  0.18079118612E+02  0.18079118612E+02  0.00000000000E+00 0.  1.
          2   -1    0    0  501    0  0.00000000000E+00 -0.00000000000E+00 -0.22961344406E+04  0.22961344406E+04  0.00000000000E+00 0. -1.
         25    2    1    2    0    0  0.99651691802E+02  0.90999584357E+02 -0.17898561410E+04  0.17992902011E+04  0.12509531761E+03 0.  0.
          5    1    3    3  502    0 -0.17596789720E+02  0.29044215557E+02 -0.78074012275E+03  0.78148949138E+03  0.41800000000E+01 0.  1.
         -5    1    3    3    0  502  0.11724848152E+03  0.61955368801E+02 -0.10091160182E+04  0.10178007097E+04  0.41800000000E+01 0.  1.
        -11    1    1    2    0    0 -0.93797313613E+02 -0.37937865448E+02 -0.39260859633E+03  0.40543646554E+03  0.00000000000E+00 0. -1.
         11    1    1    2    0    0 -0.58543781884E+01 -0.53061718910E+02 -0.95590584683E+02  0.10948689254E+03  0.00000000000E+00 0.  1.
</event>
<event>
 7    1  0.2661133E-009  0.1495832E+03  0.7561462E-02  0.1200986E+00
          1   -1    0    0  501    0  0.00000000000E+00  0.00000000000E+00  0.73964605996E+02  0.73964605996E+02  0.00000000000E+00 0. -1.
         -1   -1    0    0    0  501 -0.00000000000E+00 -0.00000000000E+00 -0.43982629385E+03  0.43982629385E+03  0.00000000000E+00 0.  1.
         25    2    1    2    0    0  0.10869470425E+03  0.61776592740E+02 -0.95041465447E+02  0.20077636931E+03  0.12508950466E+03 0.  0.
          5    1    3    3  502    0  0.95156932630E+02  0.18881653921E+02 -0.17442374271E+01  0.97117832794E+02  0.41800000000E+01 0.  1.
         -5    1    3    3    0  502  0.13537771621E+02  0.42894938819E+02 -0.93297228020E+02  0.10365853652E+03  0.41800000000E+01 0.  1.
        -11    1    1    2    0    0  0.94714565084E+01 -0.34283179721E+02 -0.57715010420E+02  0.67794301589E+02  0.00000000000E+00 0. -1.
         11    1    1    2    0    0 -0.11816616076E+03 -0.27493413019E+02 -0.21310521199E+03  0.24522022895E+03  0.00000000000E+00 0.  1.
</event>
<event>
 7    1  0.2661133E-009  0.1783118E+03  0.7561462E-02  0.1169447E+00
         -2   -1    0    0    0  501 -0.00000000000E+00  0.00000000000E+00  0.23452828139E+02  0.23452828139E+02  0.00000000000E+00 0. -1.
          2   -1    0    0  501    0  0.00000000000E+00 -0.00000000000E+00 -0.13935797780E+04  0.13935797780E+04  0.00000000000E+00 0.  1.
         25    2    1    2    0    0 -0.10174401574E+03  0.10069207520E+03 -0.67461459748E+03  0.70088740749E+03  0.12509022382E+03 0.  0.
          5    1    3    3  502    0 -0.11832599014E+03  0.11400800510E+03 -0.63269065503E+03  0.65369243726E+03  0.41800000000E+01 0.  1.
         -5    1    3    3    0  502  0.16581974399E+02 -0.13315929904E+02 -0.41923942447E+02  0.47194970225E+02  0.41800000000E+01 0.  1.
        -11    1    1    2    0    0  0.11766446912E+03 -0.10037286324E+03 -0.63676171400E+03  0.65527484263E+03  0.00000000000E+00 0.  1.
         11    1    1    2    0    0 -0.15920453375E+02 -0.31921195699E+00 -0.58750638423E+02  0.60870356061E+02  0.00000000000E+00 0. -1.
</event>
<event>
 7    1  0.2661133E-009  0.4964345E+02  0.7561462E-02  0.1447274E+00
          4   -1    0    0  501    0  0.00000000000E+00  0.00000000000E+00  0.59934451680E+02  0.59934451680E+02  0.00000000000E+00 0. -1.
         -4   -1    0    0    0  501 -0.00000000000E+00 -0.00000000000E+00 -0.22234513615E+03  0.22234513615E+03  0.00000000000E+00 0.  1.
         25    2    1    2    0    0  0.31704731707E+02  0.78253102530E+00 -0.12442756762E+03  0.17926187008E+03  0.12508715407E+03 0.  0.
          5    1    3    3  502    0  0.36322305649E+01 -0.26250820083E+02  0.17493229102E+02  0.32027864717E+02  0.41800000000E+01 0. -1.
         -5    1    3    3    0  502  0.28072501142E+02  0.27033351109E+02 -0.14192079672E+03  0.14723400536E+03  0.41800000000E+01 0. -1.
        -11    1    1    2    0    0 -0.17552234881E+02 -0.54187340728E+01 -0.67500922656E+02  0.69955830263E+02  0.00000000000E+00 0.  1.
         11    1    1    2    0    0 -0.14152496825E+02  0.46362030475E+01  0.29517805803E+02  0.33061887492E+02  0.00000000000E+00 0. -1.
</event>
<event>
 7    1  0.2661133E-009  0.1191550E+03  0.7561462E-02  0.1244498E+00
         -3   -1    0    0    0  501 -0.00000000000E+00  0.00000000000E+00  0.11935674317E+03  0.11935674317E+03  0.00000000000E+00 0.  1.
          3   -1    0    0  501    0  0.00000000000E+00 -0.00000000000E+00 -0.19832122454E+03  0.19832122454E+03  0.00000000000E+00 0. -1.
         25    2    1    2    0    0  0.68373587960E+02  0.78929403066E+02 -0.10498284255E+02  0.16328824643E+03  0.12509212306E+03 0.  0.
          5    1    3    3  502    0  0.47226037863E+02  0.91776309007E+02 -0.51339585368E+02  0.11535343503E+03  0.41800000000E+01 0. -1.
         -5    1    3    3    0  502  0.21147550098E+02 -0.12846905941E+02  0.40841301113E+02  0.47934811401E+02  0.41800000000E+01 0. -1.
        -11    1    1    2    0    0  0.22237444776E+01 -0.13434268852E+02  0.19618430333E+02  0.23881110272E+02  0.00000000000E+00 0.  1.
         11    1    1    2    0    0 -0.70597332438E+02 -0.65495134214E+02 -0.88084627446E+02  0.13050861100E+03  0.00000000000E+00 0. -1.
</event>
<event>
 7    1  0.2661133E-009  0.1497270E+03  0.7561462E-02  0.1200809E+00
          2   -1    0    0  501    0  0.00000000000E+00  0.00000000000E+00  0.89942123345E+03  0.89942123345E+03  0.00000000000E+00 0. -1.
         -2   -1    0    0    0  501 -0.00000000000E+00 -0.00000000000E+00 -0.27492766399E+02  0.27492766399E+02  0.00000000000E+00 0.  1.
         25    2    1    2    0    0 -0.17770092526E+02  0.11040600428E+03  0.50596652718E+03  0.53306202081E+03  0.12509088472E+03 0.  0.
          5    1    3    3  502    0  0.10199043058E+02  0.12668703946E+03  0.32158090943E+03  0.34581119148E+03  0.41800000000E+01 0.  1.
         -5    1    3    3    0  502 -0.27969135584E+02 -0.16281035179E+02  0.18438561775E+03  0.18725082933E+03  0.41800000000E+01 0.  1.
        -11    1    1    2    0    0  0.25984605015E+02  0.28164538129E+01  0.12204666232E+03  0.12481394110E+03  0.00000000000E+00 0. -1.
         11    1    1    2    0    0 -0.82145124881E+01 -0.11322245809E+03  0.24391527756E+03  0.26903803794E+03  0.00000000000E+00 0.  1.
</event>
<event>
 7    1  0.2661133E-009  0.9779138E+02  0.7561462E-02  0.1285010E+00
         -1   -1    0    0    0  501 -0.00000000000E+00  0.00000000000E+00  0.48789979303E+02  0.48789979303E+02  0.00000000000E+00 0.  1.
          1   -1    0    0  501    0  0.00000000000E+00 -0.00000000000E+00 -0.40053953822E+03  0.40053953822E+03  0.00000000000E+00 0. -1.
         25    2    1    2    0    0  0.13262024818E+02  0.65015073175E+02 -0.95255266337E+02  0.17065633916E+03  0.12508868569E+03 0.  0.
          5    1    3    3  502    0 -0.72448499682E+01  0.73089655921E+02 -0.11777962188E+03  0.13886719333E+03  0.41800000000E+01 0.  1.
         -5    1    3    3    0  502  0.20506874786E+02 -0.80745827459E+01  0.22524355540E+02  0.31789145829E+02  0.41800000000E+01 0.  1.
        -11    1    1    2    0    0 -0.33158215429E+02 -0.16839185262E+01 -0.14637108195E+03  0.15008929497E+03  0.00000000000E+00 0. -1.
         11    1    1    2    0    0  0.19896190611E+02 -0.63331154649E+02 -0.11012321062E+03  0.12858388339E+03  0.00000000000E+00 0.  1.
</event>
<event>
 7    1  0.2661133E-009  0.2569762E+03  0.7561462E-02  0.1108974E+00
         -2   -1    0    0    0  501 -0.00000000000E+00  0.00000000000E+00  0.88490456423E+02  0.88490456423E+02  0.00000000000E+00 0. -1.
          2   -1    0    0  501    0  0.00000000000E+00 -0.00000000000E+00 -0.12022877569E+04  0.12022877569E+04  0.00000000000E+00 0.  1.
         25    2    1    2    0    0 -0.34992128765E+02 -0.23894425974E+03 -0.18916919752E+03  0.33128749687E+03  0.12509041512E+03 0.  0.
          5    1    3    3  502    0 -0.11919135289E+02 -0.24023175122E+03 -0.19178800158E+03  0.30765804074E+03  0.41800000000E+01 0.  1.
         -5    1    3    3    0  502 -0.23072993475E+02  0.12874914804E+01  0.26188040669E+01  0.23629456129E+02  0.41800000000E+01 0.  1.
        -11    1    1    2    0    0 -0.19061287847E+02  0.67697813465E+02 -0.17388457135E+03  0.18756910939E+03  0.00000000000E+00 0. -1.
         11    1    1    2    0    0  0.54053416612E+02  0.17124644627E+03 -0.75074353166E+03  0.77192160712E+03  0.00000000000E+00 0.  1.
</event>
<event>
 7    1  0.2661133E-009  0.9181051E+02  0.7561462E-02  0.1298526E+00
         -2   -1    0    0    0  501 -0.00000000000E+00  0.00000000000E+00  0.18991806203E+02  0.18991806203E+02  0.00000000000E+00 0.  1.
          2   -1    0    0  501    0  0.00000000000E+00 -0.00000000000E+00 -0.18121087926E+04  0.18121087926E+04  0.00000000000E+00 0. -1.
         25    2    1    2    0    0 -0.16769134238E+02 -0.60159225184E+02 -0.16200541903E+04  0.16260761532E+04  0.12509092813E+03 0.  0.
          5    1    3    3  502    0 -0.87097547121E+01 -0.64143019153E+02 -0.34862483057E+03  0.35460813812E+03  0.41800000000E+01 0.  1.
         -5    1    3    3    0  502 -0.80593795258E+01  0.39837939697E+01 -0.12714293597E+04  0.12714680151E+04  0.41800000000E+01 0.  1.
        -11    1    1    2    0    0 -0.23243809419E+02  0.64530513105E+02 -0.94713207009E+02  0.11694038387E+03  0.00000000000E+00 0. -1.
         11    1    1    2    0    0  0.40012943656E+02 -0.43712879213E+01 -0.78349589049E+02  0.88084061682E+02  0.00000000000E+00 0.  1.
</event>
<event>
 7    1  0.2661133E-009  0.1228486E+03  0.7561462E-02  0.1238470E+00
         -2   -1    0    0    0  501 -0.00000000000E+00  0.00000000000E+00  0.57151296008E+02  0.57151296008E+02  0.00000000000E+00 0.  1.
          2   -1    0    0  501    0  0.00000000000E+00 -0.00000000000E+00 -0.27760362743E+03  0.27760362743E+03  0.00000000000E+00 0. -1.
         25    2    1    2    0    0  0.30611064677E+02 -0.56644644070E+02 -0.15801254448E+03  0.21156587899E+03  0.12508598626E+03 0.  0.
          5    1    3    3  502    0 -0.11688054122E+02  0.36102858802E+02 -0.35462856992E+02  0.52106752431E+02  0.41800000000E+01 0.  1.
         -5    1    3    3    0  502  0.42299118799E+02 -0.92747502873E+02 -0.12254968749E+03  0.15945912656E+03  0.41800000000E+01 0.  1.
        -11    1    1    2    0    0 -0.37124174154E+02 -0.10069260948E+02 -0.16096968318E+02  0.41697802241E+02  0.00000000000E+00 0.  1.
         11    1    1    2    0    0  0.65131094777E+01  0.66713905019E+02 -0.46342818620E+02  0.81491242201E+02  0.00000000000E+00 0. -1.
</event>
<event>
 7    1  0.3149771E-009  0.1223664E+03  0.7561462E-02  0.1239243E+00
         -1   -1    0    0    0  501 -0.00000000000E+00  0.00000000000E+00  0.68665438408E+02  0.68665438408E+02  0.00000000000E+00 0.  1.
          1   -1    0    0  501    0  0.00000000000E+00 -0.00000000000E+00 -0.33925719538E+03  0.33925719538E+03  0.00000000000E+00 0. -1.
         25    2    1    2    0    0  0.59600144732E+02 -0.85759658045E+02 -0.11464520903E+03  0.19924741699E+03  0.12509641491E+03 0.  0.
          5    1    3    3  502    0 -0.21251244901E+02 -0.42760844082E+02  0.53641912342E+01  0.48232272847E+02  0.41800000000E+01 0. -1.
         -5    1    3    3    0  502  0.80851389633E+02 -0.42998813964E+02 -0.12000940026E+03  0.15101514414E+03  0.41800000000E+01 0. -1.
        -11    1    1    2    0    0 -0.16492257991E+02  0.33858150064E+02  0.11758497811E+01  0.37679590259E+02  0.00000000000E+00 0.  1.
         11    1    1    2    0    0 -0.43107886741E+02  0.51901507981E+02 -0.15712239773E+03  0.17099562655E+03  0.00000000000E+00 0. -1.
</event>
<event>
 7    1  0.2661133E-009  0.1733727E+03  0.7561462E-02  0.1174376E+00
         -2   -1    0    0    0  501 -0.00000000000E+00  0.00000000000E+00  0.39688004668E+02  0.39688004668E+02  0.00000000000E+00 0.  1.
          2   -1    0    0  501    0  0.00000000000E+00 -0.00000000000E+00 -0.88875665657E+03  0.88875665657E+03  0.00000000000E+00 0. -1.
         25    2    1    2    0    0  0.75368478105E+02 -0.11336626817E+03 -0.27625148397E+03  0.33240495350E+03  0.12508338205E+03 0.  0.
          5    1    3    3  502    0  0.55121497529E+02 -0.13993245606E+03 -0.23666113807E+03  0.28043794041E+03  0.41800000000E+01 0.  1.
         -5    1    3    3    0  502  0.20246980576E+02  0.26566187886E+02 -0.39590345900E+02  0.51967013092E+02  0.41800000000E+01 0.  1.
        -11    1    1    2    0    0 -0.68968658217E+02  0.23989963946E+02 -0.21046365448E+03  0.22277150635E+03  0.00000000000E+00 0.  1.
         11    1    1    2    0    0 -0.63998198877E+01  0.89376304226E+02 -0.36235351346E+03  0.37326820139E+03  0.00000000000E+00 0. -1.
</event>
<event>
 7    1  0.2661133E-009  0.1274206E+03  0.7561462E-02  0.1231334E+00
          2   -1    0    0  501    0  0.00000000000E+00  0.00000000000E+00  0.14572420550E+03  0.14572420550E+03  0.00000000000E+00 0. -1.
         -2   -1    0    0    0  501 -0.00000000000E+00 -0.00000000000E+00 -0.15031367679E+03  0.15031367679E+03  0.00000000000E+00 0.  1.
         25    2    1    2    0    0  0.94937842713E+02 -0.21578368469E+02 -0.27990047126E+02  0.16096317250E+03  0.12508749018E+03 0.  0.
          5    1    3    3  502    0  0.51000789847E+02  0.29685134188E+02 -0.61618464508E+02  0.85420110777E+02  0.41800000000E+01 0.  1.
         -5    1    3    3    0  502  0.43937052866E+02 -0.51263502657E+02  0.33628417382E+02  0.75543061725E+02  0.41800000000E+01 0.  1.
        -11    1    1    2    0    0 -0.10599036133E+03  0.34094930067E+02  0.32595527416E+02  0.11601245346E+03  0.00000000000E+00 0. -1.
         11    1    1    2    0    0  0.11052518612E+02 -0.12516561598E+02 -0.91949515734E+01  0.19062256329E+02  0.00000000000E+00 0.  1.
</event>
<event>
 7    1  0.2661133E-009  0.1064910E+03  0.7561462E-02  0.1267209E+00
          1   -1    0    0  501    0  0.00000000000E+00  0.00000000000E+00  0.36626650561E+03  0.36626650561E+03  0.00000000000E+00 0. -1.
         -1   -1    0    0    0  501 -0.00000000000E+00 -0.00000000000E+00 -0.43165154407E+02  0.43165154407E+02  0.00000000000E+00 0.  1.
         25    2    1    2    0    0  0.32401929588E+02 -0.43839448585E+02  0.12897509399E+03  0.18775544233E+03  0.12508296831E+03 0.  0.
          5    1    3    3  502    0 -0.43677449531E+02 -0.32392390151E+02  0.29739795075E+02  0.62120160563E+02  0.41800000000E+01 0.  1.
         -5    1    3    3    0  502  0.76079379119E+02 -0.11447058434E+02  0.99235298917E+02  0.12563528177E+03  0.41800000000E+01 0.  1.
        -11    1    1    2    0    0  0.16727167027E+02  0.21981355580E+02  0.92359479845E+01  0.29125261287E+02  0.00000000000E+00 0.  1.
         11    1    1    2    0    0 -0.49129096615E+02  0.21858093005E+02  0.18489030923E+03  0.19255095640E+03  0.00000000000E+00 0. -1.
</event>
<event>
 7    1  0.2661133E-009  0.1283078E+03  0.7561462E-02  0.1229988E+00
          1   -1    0    0  501    0  0.00000000000E+00  0.00000000000E+00  0.14587306049E+04  0.14587306049E+04  0.00000000000E+00 0. -1.
         -1   -1    0    0    0  501 -0.00000000000E+00 -0.00000000000E+00 -0.18308647694E+02  0.18308647694E+02  0.00000000000E+00 0.  1.
         25    2    1    2    0    0  0.72468457448E+02 -0.87306711005E+02  0.97294076163E+03  0.98749041133E+03  0.12509775268E+03 0.  0.
          5    1    3    3  502    0  0.59934025005E+02 -0.74856525755E+02  0.96095342221E+03  0.96573523228E+03  0.41800000000E+01 0. -1.
         -5    1    3    3    0  502  0.12534432443E+02 -0.12450185250E+02  0.11987339414E+02  0.21755179053E+02  0.41800000000E+01 0. -1.
        -11    1    1    2    0    0  0.84817698406E+01  0.54458787501E+02  0.22992087498E+03  0.23643457596E+03  0.00000000000E+00 0. -1.
         11    1    1    2    0    0 -0.80950227289E+02  0.32847923504E+02  0.23756032055E+03  0.25311426526E+03  0.00000000000E+00 0.  1.
</event>
<event>
 7    1  0.2661133E-009  0.2187101E+03  0.7561462E-02  0.1134848E+00
         -1   -1    0    0    0  501 -0.00000000000E+00  0.00000000000E+00  0.67536568877E+02  0.67536568877E+02  0.00000000000E+00 0.  1.
          1   -1    0    0  501    0  0.00000000000E+00 -0.00000000000E+00 -0.28686669545E+04  0.28686669545E+04  0.00000000000E+00 0. -1.
         25    2    1    2    0    0 -0.21173636014E+03  0.59116079331E+01 -0.26464918436E+04  0.26579002636E+04  0.12508996659E+03 0.  0.
          5    1    3    3  502    0 -0.12545876744E+03  0.28074435086E+02 -0.21208847241E+04  0.21247817680E+04  0.41800000000E+01 0.  1.
         -5    1    3    3    0  502 -0.86277592703E+02 -0.22162827153E+02 -0.52560711948E+03  0.53311849561E+03  0.41800000000E+01 0.  1.
        -11    1    1    2    0    0  0.82616419276E+02 -0.30700057780E+02 -0.10661747577E+03  0.13833022960E+03  0.00000000000E+00 0. -1.
         11    1    1    2    0    0  0.12911994086E+03  0.24788449847E+02 -0.48021066275E+02  0.13997303019E+03  0.00000000000E+00 0.  1.
</event>
<event>
 7    1  0.2661133E-009  0.1672099E+03  0.7561462E-02  0.1180789E+00
         -3   -1    0    0    0  501 -0.00000000000E+00  0.00000000000E+00  0.64872627667E+02  0.64872627667E+02  0.00000000000E+00 0.  1.
          3   -1    0    0  501    0  0.00000000000E+00 -0.00000000000E+00 -0.72880128988E+03  0.72880128988E+03  0.00000000000E+00 0. -1.
         25    2    1    2    0    0  0.10214954144E+03  0.11683862578E+03 -0.15048195774E+03  0.24975568797E+03  0.12508913132E+03 0.  0.
          5    1    3    3  502    0  0.37084328484E+02  0.10522018168E+03 -0.14542430090E+03  0.18333639504E+03  0.41800000000E+01 0. -1.
         -5    1    3    3    0  502  0.65065212961E+02  0.11618444102E+02 -0.50576568378E+01  0.66419292933E+02  0.41800000000E+01 0. -1.
        -11    1    1    2    0    0 -0.33511991487E+02 -0.53649464847E+02 -0.35042405374E+03  0.35608753993E+03  0.00000000000E+00 0. -1.
         11    1    1    2    0    0 -0.68637549957E+02 -0.63189160932E+02 -0.16302265073E+03  0.18783068965E+03  0.00000000000E+00 0.  1.
</event>
<event>
 7    1  0.2661133E-009  0.1240767E+03  0.7561462E-02  0.1236519E+00
         -2   -1    0    0    0  501 -0.00000000000E+00  0.00000000000E+00  0.31088987056E+02  0.31088987056E+02  0.00000000000E+00 0. -1.
          2   -1    0    0  501    0  0.00000000000E+00 -0.00000000000E+00 -0.67628968557E+03  0.67628968557E+03  0.00000000000E+00 0.  1.
         25    2    1    2    0    0  0.84814868098E+02 -0.44122388243E+02 -0.35537845987E+03  0.38869075227E+03  0.12508518766E+03 0.  0.
          5    1    3    3  502    0  0.59743862406E+02 -0.63857921231E+02 -0.34335141132E+03  0.35433716607E+03  0.41800000000E+01 0. -1.
         -5    1    3    3    0  502  0.25071005691E+02  0.19735532987E+02 -0.12027048543E+02  0.34353586208E+02  0.41800000000E+01 0. -1.
        -11    1    1    2    0    0 -0.81918502138E+02 -0.22635872022E+01 -0.22042067223E+03  0.23516172640E+03  0.00000000000E+00 0.  1.
         11    1    1    2    0    0 -0.28963659593E+01  0.46385975446E+02 -0.69401566423E+02  0.83526193950E+02  0.00000000000E+00 0. -1.
</event>
<event>
 7    1  0.2661133E-009  0.8882967E+02  0.7561462E-02  0.1305711E+00
         -2   -1    0    0    0  501 -0.00000000000E+00  0.00000000000E+00  0.59271196628E+02  0.59271196628E+02  0.00000000000E+00 0.  1.
          2   -1    0    0  501    0  0.00000000000E+00 -0.00000000000E+00 -0.23765639595E+03  0.23765639595E+03  0.00000000000E+00 0. -1.
         25    2    1    2    0    0  0.24746346541E+02 -0.18621593778E+02 -0.14883001735E+03  0.19686730350E+03  0.12508883124E+03 0.  0.
          5    1    3    3  502    0 -0.44616750374E+02 -0.17344696733E+02 -0.23348148310E+02  0.53423790096E+02  0.41800000000E+01 0.  1.
         -5    1    3    3    0  502  0.69363096915E+02 -0.12768970446E+01 -0.12548186904E+03  0.14344351340E+03  0.41800000000E+01 0.  1.
        -11    1    1    2    0    0 -0.26081010453E+02 -0.12524447497E+02  0.24332985175E+02  0.37804431736E+02  0.00000000000E+00 0.  1.
         11    1    1    2    0    0  0.13346639122E+01  0.31146041275E+02 -0.53888167146E+02  0.62255857341E+02  0.00000000000E+00 0. -1.
</event>
<event>
 7    1  0.2661133E-009  0.6504375E+02  0.7561462E-02  0.1377807E+00
          2   -1    0    0  501    0  0.00000000000E+00  0.00000000000E+00  0.46643750059E+03  0.46643750059E+03  0.00000000000E+00 0. -1.
         -2   -1    0    0    0  501 -0.00000000000E+00 -0.00000000000E+00 -0.38494648178E+02  0.38494648178E+02  0.00000000000E+00 0.  1.
         25    2    1    2    0    0 -0.29263305764E+02  0.11504000535E+02  0.37090641021E+03  0.39269284783E+03  0.12508966587E+03 0.  0.
          5    1    3    3  502    0 -0.99243440395E+01  0.42106051180E+02  0.37801815296E+02  0.57600883589E+02  0.41800000000E+01 0.  1.
         -5    1    3    3    0  502 -0.19338961724E+02 -0.30602050645E+02  0.33310459492E+03  0.33509196424E+03  0.41800000000E+01 0.  1.
        -11    1    1    2    0    0  0.11353863453E+02 -0.25199543713E+02 -0.18599426133E+02  0.33314649497E+02  0.00000000000E+00 0.  1.
         11    1    1    2    0    0  0.17909442311E+02  0.13695543178E+02  0.75635868329E+02  0.78924651439E+02  0.00000000000E+00 0. -1.
</event>
<event>
 7    1  0.2661133E-009  0.7953140E+02  0.7561462E-02  0.1330387E+00
         -2   -1    0    0    0  501 -0.00000000000E+00  0.00000000000E+00  0.59557075988E+02  0.59557075988E+02  0.00000000000E+00 0.  1.
          2   -1    0    0  501    0  0.00000000000E+00 -0.00000000000E+00 -0.27308882189E+03  0.27308882189E+03  0.00000000000E+00 0. -1.
         25    2    1    2    0    0 -0.90890593487E+01  0.14975638376E+02 -0.20692667664E+03  0.24243204160E+03  0.12509102503E+03 0.  0.
          5    1    3    3  502    0  0.28704815201E+02  0.24587848390E+01 -0.19962939374E+03  0.20174087162E+03  0.41800000000E+01 0. -1.
         -5    1    3    3    0  502 -0.37793874550E+02  0.12516853537E+02 -0.72972828987E+01  0.40691169972E+02  0.41800000000E+01 0. -1.
        -11    1    1    2    0    0  0.32759279991E+02 -0.42472265554E+02 -0.54440168632E+01  0.53913830196E+02  0.00000000000E+00 0. -1.
         11    1    1    2    0    0 -0.23670220642E+02  0.27496627178E+02 -0.11610524023E+01  0.36300026089E+02  0.00000000000E+00 0.  1.
</event>
<event>
 7    1  0.2661133E-009  0.1939248E+03  0.7561462E-02  0.1154968E+00
         -1   -1    0    0    0  501 -0.00000000000E+00  0.00000000000E+00  0.30038109903E+03  0.30038109903E+03  0.00000000000E+00 0.  1.
          1   -1    0    0  501    0  0.00000000000E+00 -0.00000000000E+00 -0.14478617221E+03  0.14478617221E+03  0.00000000000E+00 0. -1.
         25    2    1    2    0    0 -0.28256860780E+02  0.17145722808E+03  0.46563130558E+02  0.21912115375E+03  0.12509965487E+03 0.  0.
          5    1    3    3  502    0  0.49584293833E+02  0.57957757468E+02  0.14659621424E+02  0.77782264983E+02  0.41800000000E+01 0.  1.
         -5    1    3    3    0  502 -0.77841154613E+02  0.11349947062E+03  0.31903509135E+02  0.14133888876E+03  0.41800000000E+01 0.  1.
        -11    1    1    2    0    0  0.63308684297E+01 -0.38713533546E+02 -0.16010440210E+02  0.42369231412E+02  0.00000000000E+00 0. -1.
         11    1    1    2    0    0  0.21925992350E+02 -0.13274369454E+03  0.12504223646E+03  0.18367688608E+03  0.00000000000E+00 0.  1.
</event>
<event>
 7    1  0.2661133E-009  0.1277778E+03  0.7561462E-02  0.1230791E+00
          2   -1    0    0  501    0  0.00000000000E+00  0.00000000000E+00  0.10613687497E+03  0.10613687497E+03  0.00000000000E+00 0.  1.
         -2   -1    0    0    0  501 -0.00000000000E+00 -0.00000000000E+00 -0.27311894800E+03  0.27311894800E+03  0.00000000000E+00 0. -1.
         25    2    1    2    0    0 -0.19078773111E+02  0.76028514856E+02  0.27957065520E+02  0.15024062466E+03  0.12508522348E+03 0.  0.
          5    1    3    3  502    0 -0.32376905948E+02  0.10134126897E+03  0.46205842323E+02  0.11606364246E+03  0.41800000000E+01 0.  1.
         -5    1    3    3    0  502  0.13298132837E+02 -0.25312754117E+02 -0.18248776803E+02  0.34176982206E+02  0.41800000000E+01 0.  1.
        -11    1    1    2    0    0  0.55484560901E+02 -0.36308640989E+02 -0.10865371447E+03  0.12728897665E+03  0.00000000000E+00 0.  1.
         11    1    1    2    0    0 -0.36405787790E+02 -0.39719873867E+02 -0.86285424078E+02  0.10172622166E+03  0.00000000000E+00 0. -1.
</event>
<event>
 7    1  0.2661133E-009  0.1716321E+03  0.7561462E-02  0.1176156E+00
          1   -1    0    0  501    0  0.00000000000E+00  0.00000000000E+00  0.13965500461E+03  0.13965500461E+03  0.00000000000E+00 0. -1.
         -1   -1    0    0    0  501 -0.00000000000E+00 -0.00000000000E+00 -0.24283190842E+03  0.24283190842E+03  0.00000000000E+00 0.  1.
         25    2    1    2    0    0 -0.17751252476E+02  0.13791290301E+03 -0.10911592331E+03  0.21653873214E+03  0.12509061521E+03 0.  0.
          5    1    3    3  502    0  0.51323421598E+02  0.63582140096E+02 -0.70111267214E+02  0.10774898762E+03  0.41800000000E+01 0. -1.
         -5    1    3    3    0  502 -0.69074674075E+02  0.74330762915E+02 -0.39004656100E+02  0.10878974451E+03  0.41800000000E+01 0. -1.
        -11    1    1    2    0    0  0.32277494526E+02 -0.14093871373E+02  0.19978131389E+02  0.40491969537E+02  0.00000000000E+00 0. -1.
         11    1    1    2    0    0 -0.14526242050E+02 -0.12381903164E+03 -0.14039111887E+02  0.12545621135E+03  0.00000000000E+00 0.  1.
</event>
<event>
 7    1  0.2661133E-009  0.2383015E+03  0.7561462E-02  0.1120930E+00
         -2   -1    0    0    0  501 -0.00000000000E+00  0.00000000000E+00  0.59995390287E+02  0.59995390287E+02  0.00000000000E+00 0.  1.
          2   -1    0    0  501    0  0.00000000000E+00 -0.00000000000E+00 -0.10646590028E+04  0.10646590028E+04  0.00000000000E+00 0. -1.
         25    2    1    2    0    0 -0.16584945295E+03 -0.14666139966E+03 -0.62810975167E+03  0.67763219333E+03  0.12509165480E+03 0.  0.
          5    1    3    3  502    0 -0.16702768429E+03 -0.82046674593E+02 -0.51042436922E+03  0.54330508301E+03  0.41800000000E+01 0. -1.
         -5    1    3    3    0  502  0.11782313371E+01 -0.64614725068E+02 -0.11768538245E+03  0.13432711032E+03  0.41800000000E+01 0. -1.
        -11    1    1    2    0    0  0.55677165220E+02  0.23433743226E+02 -0.18182191036E+03  0.19159408690E+03  0.00000000000E+00 0. -1.
         11    1    1    2    0    0  0.11017228773E+03  0.12322765643E+03 -0.19473195045E+03  0.25542811283E+03  0.00000000000E+00 0.  1.
</event>
<event>
 7    1  0.2661133E-009  0.1043585E+03  0.7561462E-02  0.1271389E+00
         -2   -1    0    0    0  501 -0.00000000000E+00  0.00000000000E+00  0.17055634579E+03  0.17055634579E+03  0.00000000000E+00 0.  1.
          2   -1    0    0  501    0  0.00000000000E+00 -0.00000000000E+00 -0.12095709678E+03  0.12095709678E+03  0.00000000000E+00 0. -1.
         25    2    1    2    0    0 -0.62649022433E+02 -0.53013970104E+02 -0.16657267197E+02  0.15052835110E+03  0.12508372755E+03 0.  0.
          5    1    3    3  502    0 -0.49025777713E+02  0.18938376423E+02 -0.47493945405E+02  0.70960103101E+02  0.41800000000E+01 0. -1.
         -5    1    3    3    0  502 -0.13623244720E+02 -0.71952346527E+02  0.30836678208E+02  0.79568248003E+02  0.41800000000E+01 0. -1.
        -11    1    1    2    0    0  0.13069259532E+02  0.16610394249E+02  0.75843431212E+02  0.78733327123E+02  0.00000000000E+00 0.  1.
         11    1    1    2    0    0  0.49579762901E+02  0.36403575855E+02 -0.95869150030E+01  0.62251764341E+02  0.00000000000E+00 0. -1.
</event>
<event>
 7    1  0.2661133E-009  0.1403062E+03  0.7561462E-02  0.1212918E+00
          2   -1    0    0  501    0  0.00000000000E+00  0.00000000000E+00  0.33600362904E+03  0.33600362904E+03  0.00000000000E+00 0. -1.
         -2   -1    0    0    0  501 -0.00000000000E+00 -0.00000000000E+00 -0.77444836530E+02  0.77444836530E+02  0.00000000000E+00 0.  1.
         25    2    1    2    0    0 -0.44761440104E+02  0.78223633087E+02  0.24030252189E+03  0.28549005333E+03  0.12504697209E+03 0.  0.
          5    1    3    3  502    0 -0.44496623365E+02  0.11174571953E+03  0.18658592467E+03  0.22203340967E+03  0.41800000000E+01 0. -1.
         -5    1    3    3    0  502 -0.26481673896E+00 -0.33522086443E+02  0.53716597217E+02  0.63456643655E+02  0.41800000000E+01 0. -1.
        -11    1    1    2    0    0  0.63883680960E+02 -0.22770767048E+02  0.13107069111E+02  0.69075522333E+02  0.00000000000E+00 0.  1.
         11    1    1    2    0    0 -0.19122240855E+02 -0.55452866039E+02  0.51492015015E+01  0.58882889904E+02  0.00000000000E+00 0. -1.
</event>
<event>
 7    1  0.2661133E-009  0.1267492E+03  0.7561462E-02  0.1232361E+00
          2   -1    0    0  501    0  0.00000000000E+00  0.00000000000E+00  0.48995253757E+03  0.48995253757E+03  0.00000000000E+00 0. -1.
         -2   -1    0    0    0  501 -0.00000000000E+00 -0.00000000000E+00 -0.11221874653E+03  0.11221874653E+03  0.00000000000E+00 0.  1.
         25    2    1    2    0    0  0.29911875927E+02  0.10736202362E+03 -0.29732755925E+02  0.17015944234E+03  0.12509546197E+03 0.  0.
          5    1    3    3  502    0  0.30685237391E+01  0.57751737653E+02 -0.77039678872E+02  0.96422318789E+02  0.41800000000E+01 0. -1.
         -5    1    3    3    0  502  0.26843352188E+02  0.49610285971E+02  0.47306922947E+02  0.73737123551E+02  0.41800000000E+01 0. -1.
        -11    1    1    2    0    0  0.16111166463E+02  0.55348522126E+01  0.96643537468E+02  0.98133468338E+02  0.00000000000E+00 0.  1.
         11    1    1    2    0    0 -0.46023042390E+02 -0.11289687584E+03  0.31082300949E+03  0.33387837342E+03  0.00000000000E+00 0. -1.
</event>
<event>
 7    1  0.2661133E-009  0.1400247E+03  0.7561462E-02  0.1213296E+00
         -4   -1    0    0    0  501 -0.00000000000E+00  0.00000000000E+00  0.33834764903E+03  0.33834764903E+03  0.00000000000E+00 0.  1.
          4   -1    0    0  501    0  0.00000000000E+00 -0.00000000000E+00 -0.62137062905E+02  0.62137062905E+02  0.00000000000E+00 0. -1.
         25    2    1    2    0    0 -0.44987221480E+02 -0.84111455693E+02  0.14148152854E+03  0.21157327628E+03  0.12509053219E+03 0.  0.
          5    1    3    3  502    0 -0.87919047096E+02 -0.46811479837E+02  0.98678049712E+02  0.14027082156E+03  0.41800000000E+01 0.  1.
         -5    1    3    3    0  502  0.42931825616E+02 -0.37299975856E+02  0.42803478824E+02  0.71302454720E+02  0.41800000000E+01 0.  1.
        -11    1    1    2    0    0  0.36828883932E+02 -0.19538451088E+01  0.11986326346E+02  0.38779585114E+02  0.00000000000E+00 0. -1.
         11    1    1    2    0    0  0.81583375479E+01  0.86065300802E+02  0.12274273124E+03  0.15013185054E+03  0.00000000000E+00 0.  1.
</event>
<event>
 7    1  0.2661133E-009  0.7620370E+02  0.7561462E-02  0.1340184E+00
         -4   -1    0    0    0  501 -0.00000000000E+00  0.00000000000E+00  0.21502843250E+03  0.21502843250E+03  0.00000000000E+00 0.  1.
          4   -1    0    0  501    0  0.00000000000E+00 -0.00000000000E+00 -0.79611347309E+02  0.79611347309E+02  0.00000000000E+00 0. -1.
         25    2    1    2    0    0 -0.37083920048E+02 -0.63512280444E+02  0.81834427835E+02  0.16659497164E+03  0.12509190263E+03 0.  0.
          5    1    3    3  502    0 -0.28663135291E+02 -0.22215568875E+02 -0.29846464004E+02  0.47152843379E+02  0.41800000000E+01 0. -1.
         -5    1    3    3    0  502 -0.84207847565E+01 -0.41296711569E+02  0.11168089184E+03  0.11944212826E+03  0.41800000000E+01 0. -1.
        -11    1    1    2    0    0  0.23770142178E+02  0.41391097517E+02 -0.18719957629E+02  0.51270648782E+02  0.00000000000E+00 0. -1.
         11    1    1    2    0    0  0.13313777870E+02  0.22121182926E+02  0.72302614987E+02  0.76774159384E+02  0.00000000000E+00 0.  1.
</event>
<event>
 7    1  0.2661133E-009  0.1191125E+03  0.7561462E-02  0.1244568E+00
          1   -1    0    0  501    0  0.00000000000E+00  0.00000000000E+00  0.11970475415E+03  0.11970475415E+03  0.00000000000E+00 0.  1.
         -1   -1    0    0    0  501 -0.00000000000E+00 -0.00000000000E+00 -0.13337025034E+03  0.13337025034E+03  0.00000000000E+00 0. -1.
         25    2    1    2    0    0  0.55500185727E+01 -0.48638418543E+02  0.30545012206E+02  0.13775603477E+03  0.12508888392E+03 0.  0.
          5    1    3    3  502    0 -0.17057062778E+02  0.38137128585E+02  0.22478342706E+02  0.47624912158E+02  0.41800000000E+01 0. -1.
         -5    1    3    3    0  502  0.22607081350E+02 -0.86775547127E+02  0.80666694993E+01  0.90131122612E+02  0.41800000000E+01 0. -1.
        -11    1    1    2    0    0  0.99058694467E+01 -0.27264688461E+02 -0.13434184005E+02  0.31968215249E+02  0.00000000000E+00 0.  1.
         11    1    1    2    0    0 -0.15455888019E+02  0.75903107003E+02 -0.30776324398E+02  0.83350754470E+02  0.00000000000E+00 0. -1.
</event>
<event>
 7    1  0.2661133E-009  0.1205128E+03  0.7561462E-02  0.1242254E+00
          1   -1    0    0  501    0  0.00000000000E+00  0.00000000000E+00  0.89686038551E+02  0.89686038551E+02  0.00000000000E+00 0. -1.
         -1   -1    0    0    0  501 -0.00000000000E+00 -0.00000000000E+00 -0.24089833227E+03  0.24089833227E+03  0.00000000000E+00 0.  1.
         25    2    1    2    0    0 -0.85135662860E+02  0.42662490781E+02 -0.11779366882E+03  0.19644490272E+03  0.12508829753E+03 0.  0.
          5    1    3    3  502    0  0.24153886538E+02  0.23482943922E+02 -0.65358834489E+02  0.73648547412E+02  0.41800000000E+01 0.  1.
         -5    1    3    3    0  502 -0.10928954940E+03  0.19179546858E+02 -0.52434834333E+02  0.12279635531E+03  0.41800000000E+01 0.  1.
        -11    1    1    2    0    0  0.22475705553E+02 -0.17632701943E+02  0.30081160516E+02  0.41484282999E+02  0.00000000000E+00 0. -1.
         11    1    1    2    0    0  0.62659957306E+02 -0.25029788838E+02 -0.63499785415E+02  0.92655185104E+02  0.00000000000E+00 0.  1.
</event>
<event>
 7    1  0.2661133E-009  0.1040629E+03  0.7561462E-02  0.1271977E+00
         -2   -1    0    0    0  501 -0.00000000000E+00  0.00000000000E+00  0.21986169884E+02  0.21986169884E+02  0.00000000000E+00 0.  1.
          2   -1    0    0  501    0  0.00000000000E+00 -0.00000000000E+00 -0.85194110107E+03  0.85194110107E+03  0.00000000000E+00 0. -1.
         25    2    1    2    0    0 -0.18555681105E+02  0.84916717051E+02 -0.40205344279E+03  0.42994209359E+03  0.12509224932E+03 0.  0.
          5    1    3    3  502    0 -0.31831099320E+02  0.14680932366E+02 -0.31613338184E+03  0.31809831212E+03  0.41800000000E+01 0. -1.
         -5    1    3    3    0  502  0.13275418216E+02  0.70235784685E+02 -0.85920060955E+02  0.11184378147E+03  0.41800000000E+01 0. -1.
        -11    1    1    2    0    0  0.36774357509E+02 -0.59587648301E+02 -0.38274948442E+03  0.38910179777E+03  0.00000000000E+00 0. -1.
         11    1    1    2    0    0 -0.18218676404E+02 -0.25329068750E+02 -0.45152003967E+02  0.54883379596E+02  0.00000000000E+00 0.  1.
</event>
<event>
 7    1  0.2661133E-009  0.1723439E+03  0.7561462E-02  0.1175425E+00
          2   -1    0    0  501    0  0.00000000000E+00  0.00000000000E+00  0.29509512058E+03  0.29509512058E+03  0.00000000000E+00 0. -1.
         -2   -1    0    0    0  501 -0.00000000000E+00 -0.00000000000E+00 -0.10395489318E+03  0.10395489318E+03  0.00000000000E+00 0.  1.
         25    2    1    2    0    0  0.90848995266E+01  0.12332059500E+03  0.71463669863E+02  0.18985579450E+03  0.12509061533E+03 0.  0.
          5    1    3    3  502    0 -0.55573442986E+02  0.69387799961E+02  0.52903904328E+02  0.10353438966E+03  0.41800000000E+01 0. -1.
         -5    1    3    3    0  502  0.64658342513E+02  0.53932795043E+02  0.18559765534E+02  0.86321404845E+02  0.41800000000E+01 0. -1.
        -11    1    1    2    0    0  0.53123636449E+02 -0.78204612208E+02  0.70928175619E+02  0.11819005126E+03  0.00000000000E+00 0. -1.
         11    1    1    2    0    0 -0.62208535975E+02 -0.45115982796E+02  0.48748381921E+02  0.91004167991E+02  0.00000000000E+00 0.  1.
</event>
<event>
 7    1  0.2661133E-009  0.1019318E+03  0.7561462E-02  0.1276285E+00
         -1   -1    0    0    0  501 -0.00000000000E+00  0.00000000000E+00  0.26256041180E+02  0.26256041180E+02  0.00000000000E+00 0.  1.
          1   -1    0    0  501    0  0.00000000000E+00 -0.00000000000E+00 -0.56174366876E+03  0.56174366876E+03  0.00000000000E+00 0. -1.
         25    2    1    2    0    0 -0.13509896624E+01  0.53068634823E+02 -0.31673952327E+03  0.34465759860E+03  0.12508728751E+03 0.  0.
          5    1    3    3  502    0 -0.27305453812E+02  0.63834090767E+02 -0.79120888345E+02  0.10534688569E+03  0.41800000000E+01 0.  1.
         -5    1    3    3    0  502  0.25954464149E+02 -0.10765455944E+02 -0.23761863492E+03  0.23931071291E+03  0.41800000000E+01 0.  1.
        -11    1    1    2    0    0  0.38896980698E+02  0.23426362026E+01 -0.94342172520E+02  0.10207305505E+03  0.00000000000E+00 0. -1.
         11    1    1    2    0    0 -0.37545991036E+02 -0.55411271026E+02 -0.12440593179E+03  0.14126905629E+03  0.00000000000E+00 0.  1.
</event>
<event>
 7    1  0.2661133E-009  0.8035641E+02  0.7561462E-02  0.1328043E+00
         -1   -1    0    0    0  501 -0.00000000000E+00  0.00000000000E+00  0.28478389619E+02  0.28478389619E+02  0.00000000000E+00 0.  1.
          1   -1    0    0  501    0  0.00000000000E+00 -0.00000000000E+00 -0.47403051877E+03  0.47403051877E+03  0.00000000000E+00 0. -1.
         25    2    1    2    0    0  0.49310639699E+01 -0.27140306361E+02 -0.32409994372E+03  0.34848908831E+03  0.12507181750E+03 0.  0.
          5    1    3    3  502    0  0.54554345126E+02 -0.49983529411E+01 -0.72015956038E+02  0.90581071027E+02  0.41800000000E+01 0.  1.
         -5    1    3    3    0  502 -0.49623281157E+02 -0.22141953420E+02 -0.25208398768E+03  0.25790801729E+03  0.41800000000E+01 0.  1.
        -11    1    1    2    0    0 -0.23716264315E+02  0.96508095453E+01 -0.12545667051E+03  0.12804286584E+03  0.00000000000E+00 0. -1.
         11    1    1    2    0    0  0.18785200345E+02  0.17489496815E+02  0.40044850724E+01  0.25976954240E+02  0.00000000000E+00 0.  1.
</event>
<event>
 7    1  0.2661133E-009  0.9175170E+02  0.7561462E-02  0.1298664E+00
          2   -1    0    0  501    0  0.00000000000E+00  0.00000000000E+00  0.81544300779E+02  0.81544300779E+02  0.00000000000E+00 0. -1.
         -2   -1    0    0    0  501 -0.00000000000E+00 -0.00000000000E+00 -0.15529411577E+03  0.15529411577E+03  0.00000000000E+00 0.  1.
         25    2    1    2    0    0 -0.50665351909E+01 -0.20208519939E+02 -0.28472437945E+02  0.12996968073E+03  0.12508950448E+03 0.  0.
          5    1    3    3  502    0  0.40077079065E+02  0.36240864528E+02 -0.15954555384E+02  0.56494183467E+02  0.41800000000E+01 0.  1.
         -5    1    3    3    0  502 -0.45143614256E+02 -0.56449384467E+02 -0.12517882561E+02  0.73475497267E+02  0.41800000000E+01 0.  1.
        -11    1    1    2    0    0 -0.20952242240E+02  0.22552647547E+02 -0.66455250376E+02  0.73238778450E+02  0.00000000000E+00 0.  1.
         11    1    1    2    0    0  0.26018777431E+02 -0.23441276082E+01  0.21177873334E+02  0.33629957363E+02  0.00000000000E+00 0. -1.
</event>
<event>
 7    1  0.2661133E-009  0.2814664E+03  0.7561462E-02  0.1094891E+00
          1   -1    0    0  501    0  0.00000000000E+00  0.00000000000E+00  0.10098248333E+04  0.10098248333E+04  0.00000000000E+00 0. -1.
         -1   -1    0    0    0  501 -0.00000000000E+00 -0.00000000000E+00 -0.90829785753E+02  0.90829785753E+02  0.00000000000E+00 0.  1.
         25    2    1    2    0    0  0.50301167693E+02 -0.26956133445E+03  0.34560316878E+03  0.45856526410E+03  0.12508809162E+03 0.  0.
          5    1    3    3  502    0  0.39754644051E+02 -0.96810764121E+02  0.50147949142E+02  0.11612512638E+03  0.41800000000E+01 0.  1.
         -5    1    3    3    0  502  0.10546523643E+02 -0.17275057033E+03  0.29545521964E+03  0.34244013772E+03  0.41800000000E+01 0.  1.
        -11    1    1    2    0    0 -0.40343201471E+02  0.45584110151E+02  0.83506758383E+02  0.10333858766E+03  0.00000000000E+00 0.  1.
         11    1    1    2    0    0 -0.99579662223E+01  0.22397722430E+03  0.48988512038E+03  0.53875076730E+03  0.00000000000E+00 0. -1.
</event>
<event>
 7    1  0.2661133E-009  0.1122356E+03  0.7561462E-02  0.1256485E+00
          1   -1    0    0  501    0  0.00000000000E+00  0.00000000000E+00  0.55726051159E+02  0.55726051159E+02  0.00000000000E+00 0. -1.
         -1   -1    0    0    0  501 -0.00000000000E+00 -0.00000000000E+00 -0.33744855862E+03  0.33744855862E+03  0.00000000000E+00 0.  1.
         25    2    1    2    0    0 -0.81404850207E+02  0.75204651053E+01 -0.13256612126E+03  0.19976315284E+03  0.12509290026E+03 0.  0.
          5    1    3    3  502    0 -0.10843511610E+03  0.20797144304E+02 -0.12787864942E+03  0.16900034613E+03  0.41800000000E+01 0. -1.
         -5    1    3    3    0  502  0.27030265889E+02 -0.13276679199E+02 -0.46874718417E+01  0.30762806713E+02  0.41800000000E+01 0. -1.
        -11    1    1    2    0    0  0.36520355144E+02 -0.12068528914E+02 -0.93261863985E+00  0.38474088781E+02  0.00000000000E+00 0. -1.
         11    1    1    2    0    0  0.44884495063E+02  0.45480638091E+01 -0.14822376756E+03  0.15493736816E+03  0.00000000000E+00 0.  1.
</event>
<event>
 6    1  0.2661133E-009  0.1755357E+03  0.7561462E-02  0.1172195E+00
         -1   -1    0    0    0  501 -0.00000000000E+00  0.00000000000E+00  0.53795250551E+03  0.53795250551E+03  0.00000000000E+00 0.  1.
          1   -1    0    0  501    0  0.00000000000E+00 -0.00000000000E+00 -0.80047757504E+02  0.80047757504E+02  0.00000000000E+00 0. -1.
          5    1    1    2  502    0 -0.20451692453E+02 -0.15693209872E+03  0.20320759694E+03  0.25759804966E+03  0.41800000000E+01 0. -1.
         -5    1    1    2    0  502 -0.45633622069E+01 -0.13651927869E+02 -0.18899662239E+02  0.24121961817E+02  0.41800000000E+01 0. -1.
        -11    1    1    2    0    0  0.37484276907E+02  0.12374000557E+03  0.12445960195E+03  0.17946267721E+03  0.00000000000E+00 0. -1.
         11    1    1    2    0    0 -0.12469222247E+02  0.46844021021E+02  0.14913721135E+03  0.15681757433E+03  0.00000000000E+00 0.  1.
</event>
<event>
 7    1  0.2661133E-009  0.2468016E+03  0.7561462E-02  0.1115343E+00
         -2   -1    0    0    0  501 -0.00000000000E+00  0.00000000000E+00  0.24158687923E+03  0.24158687923E+03  0.00000000000E+00 0.  1.
          2   -1    0    0  501    0  0.00000000000E+00 -0.00000000000E+00 -0.48643856261E+03  0.48643856261E+03  0.00000000000E+00 0. -1.
         25    2    1    2    0    0 -0.18018016175E+03 -0.13195321464E+03  0.12641885083E+03  0.28549272546E+03  0.12509128228E+03 0.  0.
          5    1    3    3  502    0 -0.29798190763E+02 -0.92480783526E+02  0.27114440333E+02  0.10096183818E+03  0.41800000000E+01 0.  1.
         -5    1    3    3    0  502 -0.15038197099E+03 -0.39472431117E+02  0.99304410494E+02  0.18453088728E+03  0.41800000000E+01 0.  1.
        -11    1    1    2    0    0  0.11059683028E+03  0.13071316012E+03 -0.26395950796E+03  0.31463027658E+03  0.00000000000E+00 0.  1.
         11    1    1    2    0    0  0.69583331475E+02  0.12400545277E+01 -0.10731102624E+03  0.12790243980E+03  0.00000000000E+00 0. -1.
</event>
<event>
 7    1  0.2661133E-009  0.7714672E+02  0.7561462E-02  0.1337349E+00
         -2   -1    0    0    0  501 -0.00000000000E+00  0.00000000000E+00  0.27878574336E+02  0.27878574336E+02  0.00000000000E+00 0.  1.
          2   -1    0    0  501    0  0.00000000000E+00 -0.00000000000E+00 -0.57677039974E+03  0.57677039974E+03  0.00000000000E+00 0. -1.
         25    2    1    2    0    0  0.54086637679E+01  0.49481567218E+02 -0.20345086453E+03  0.24396515856E+03  0.12509622367E+03 0.  0.
          5    1    3    3  502    0  0.71274656547E+01  0.29128339261E+02 -0.21699884331E+03  0.21910096146E+03  0.41800000000E+01 0.  1.
         -5    1    3    3    0  502 -0.17188018868E+01  0.20353227957E+02  0.13547978784E+02  0.24864197098E+02  0.41800000000E+01 0.  1.
        -11    1    1    2    0    0  0.11395094709E+02  0.24649054510E+02 -0.75042760591E+02  0.79805012304E+02  0.00000000000E+00 0.  1.
         11    1    1    2    0    0 -0.16803758476E+02 -0.74130621728E+02 -0.27039820028E+03  0.28087880321E+03  0.00000000000E+00 0. -1.
</event>
<event>
 7    1  0.3933727E-009  0.1289530E+03  0.7561462E-02  0.1229018E+00
         -1   -1    0    0    0  501 -0.00000000000E+00  0.00000000000E+00  0.54330304232E+02  0.54330304232E+02  0.00000000000E+00 0. -1.
          1   -1    0    0  501    0  0.00000000000E+00 -0.00000000000E+00 -0.46552521273E+03  0.46552521273E+03  0.00000000000E+00 0.  1.
         25    2    1    2    0    0 -0.20949318322E+02 -0.83364511012E+02 -0.93754814591E+02  0.17839765991E+03  0.12508894503E+03 0.  0.
          5    1    3    3  502    0 -0.55146281751E+02 -0.92547552990E+02 -0.42337431811E+02  0.11582785713E+03  0.41800000000E+01 0.  1.
         -5    1    3    3    0  502  0.34196963429E+02  0.91830419783E+01 -0.51417382780E+02  0.62569802778E+02  0.41800000000E+01 0.  1.
        -11    1    1    2    0    0  0.40017476073E+02  0.13834317767E+02 -0.55680588965E+02  0.69950802189E+02  0.00000000000E+00 0. -1.
         11    1    1    2    0    0 -0.19068157751E+02  0.69530193245E+02 -0.26175950494E+03  0.27150705486E+03  0.00000000000E+00 0.  1.
</event>
<event>
 7    1  0.2661133E-009  0.1074753E+03  0.7561462E-02  0.1265318E+00
          2   -1    0    0  501    0  0.00000000000E+00  0.00000000000E+00  0.40599187135E+03  0.40599187135E+03  0.00000000000E+00 0. -1.
         -2   -1    0    0    0  501 -0.00000000000E+00 -0.00000000000E+00 -0.34626149653E+02  0.34626149653E+02  0.00000000000E+00 0.  1.
         25    2    1    2    0    0  0.20854476446E+02  0.13236696631E+02  0.28820733750E+03  0.31515273083E+03  0.12509058734E+03 0.  0.
          5    1    3    3  502    0 -0.27691090896E+02 -0.42584962372E+02  0.14864853233E+03  0.15714367343E+03  0.41800000000E+01 0. -1.
         -5    1    3    3    0  502  0.48545567341E+02  0.55821659003E+02  0.13955880516E+03  0.15800905740E+03  0.41800000000E+01 0. -1.
        -11    1    1    2    0    0  0.39704735416E+01  0.35218822990E+02  0.51401153170E+02  0.62435636460E+02  0.00000000000E+00 0. -1.
         11    1    1    2    0    0 -0.24824949987E+02 -0.48455519620E+02  0.31757231026E+02  0.63029653704E+02  0.00000000000E+00 0.  1.
</event>
<event>
 7    1  0.2661133E-009  0.1083949E+03  0.7561462E-02  0.1263572E+00
          2   -1    0    0  501    0  0.00000000000E+00  0.00000000000E+00  0.10742284926E+04  0.10742284926E+04  0.00000000000E+00 0. -1.
         -2   -1    0    0    0  501 -0.00000000000E+00 -0.00000000000E+00 -0.13373876858E+02  0.13373876858E+02  0.00000000000E+00 0.  1.
         25    2    1    2    0    0  0.52013893799E+02  0.66058088434E+01  0.55158820220E+03  0.56802013030E+03  0.12509293251E+03 0.  0.
          5    1    3    3  502    0  0.14674999837E+02 -0.48365954353E+02  0.10626982541E+03  0.11775130298E+03  0.41800000000E+01 0. -1.
         -5    1    3    3    0  502  0.37338893962E+02  0.54971763197E+02  0.44531837679E+03  0.45026882732E+03  0.41800000000E+01 0. -1.
        -11    1    1    2    0    0  0.21149897636E+02  0.11561068099E+02  0.73731143645E+02  0.77570986901E+02  0.00000000000E+00 0.  1.
         11    1    1    2    0    0 -0.73163791435E+02 -0.18166876942E+02  0.43553526988E+03  0.44201125223E+03  0.00000000000E+00 0. -1.
</event>
<event>
 7    1  0.5640862E-009  0.1375819E+03  0.7561462E-02  0.1216620E+00
         -2   -1    0    0    0  501 -0.00000000000E+00  0.00000000000E+00  0.30977889915E+02  0.30977889915E+02  0.00000000000E+00 0.  1.
          2   -1    0    0  501    0  0.00000000000E+00 -0.00000000000E+00 -0.82862389926E+03  0.82862389926E+03  0.00000000000E+00 0. -1.
         25    2    1    2    0    0 -0.33830785764E+02  0.10631942121E+03 -0.52574368940E+03  0.55181753282E+03  0.12509125147E+03 0.  0.
          5    1    3    3  502    0 -0.23238730194E+02  0.12349813781E+03 -0.30203120767E+03  0.32715768588E+03  0.41800000000E+01 0. -1.
         -5    1    3    3    0  502 -0.10592055570E+02 -0.17178716605E+02 -0.22371248174E+03  0.22465984695E+03  0.41800000000E+01 0. -1.
        -11    1    1    2    0    0 -0.19266542565E+02 -0.34316902430E+02 -0.28871424048E+02  0.48809922981E+02  0.00000000000E+00 0.  1.
         11    1    1    2    0    0  0.53097328329E+02 -0.72002518776E+02 -0.24303089589E+03  0.25897433337E+03  0.00000000000E+00 0. -1.
</event>
<event>
 7    1  0.2661133E-009  0.6234861E+02  0.7561462E-02  0.1388232E+00
          2   -1    0    0  501    0  0.00000000000E+00  0.00000000000E+00  0.49479720174E+02  0.49479720174E+02  0.00000000000E+00 0. -1.
         -2   -1    0    0    0  501 -0.00000000000E+00 -0.00000000000E+00 -0.29423649652E+03  0.29423649652E+03  0.00000000000E+00 0.  1.
         25    2    1    2    0    0 -0.32401217583E+02 -0.43014397273E+02 -0.13541858164E+03  0.19205550388E+03  0.12508815709E+03 0.  0.
          5    1    3    3  502    0 -0.34667974896E+01 -0.44565051820E+01  0.24233770682E+02  0.25231471712E+02  0.41800000000E+01 0.  1.
         -5    1    3    3    0  502 -0.28934420093E+02 -0.38557892091E+02 -0.15965235232E+03  0.16682403217E+03  0.41800000000E+01 0.  1.
        -11    1    1    2    0    0  0.23911508613E+02 -0.15086657804E+01 -0.10317264369E+03  0.10591803776E+03  0.00000000000E+00 0.  1.
         11    1    1    2    0    0  0.84897089700E+01  0.44523063054E+02 -0.61655510230E+01  0.45742675058E+02  0.00000000000E+00 0. -1.
</event>
<event>
 7    1  0.2661133E-009  0.2913241E+03  0.7561462E-02  0.1089660E+00
          1   -1    0    0  501    0  0.00000000000E+00  0.00000000000E+00  0.32658037940E+03  0.32658037940E+03  0.00000000000E+00 0. -1.
         -1   -1    0    0    0  501 -0.00000000000E+00 -0.00000000000E+00 -0.28454196968E+03  0.28454196968E+03  0.00000000000E+00 0.  1.
         25    2    1    2    0    0 -0.20518410907E+02 -0.28241634964E+03 -0.70784617150E+01  0.30964154295E+03  0.12509108989E+03 0.  0.
          5    1    3    3  502    0 -0.29710586638E+02 -0.20733774053E+03 -0.59184592775E+02  0.21769691323E+03  0.41800000000E+01 0.  1.
         -5    1    3    3    0  502  0.91921757311E+01 -0.75078609108E+02  0.52106131060E+02  0.91944629720E+02  0.41800000000E+01 0.  1.
        -11    1    1    2    0    0  0.55484498034E+02  0.13643175902E+03  0.21384717042E+02  0.14882694821E+03  0.00000000000E+00 0. -1.
         11    1    1    2    0    0 -0.34966087126E+02  0.14598459063E+03  0.27732154390E+02  0.15265385791E+03  0.00000000000E+00 0.  1.
</event>
<event>
 7    1  0.2661133E-009  0.2268150E+03  0.7561462E-02  0.1128902E+00
          3   -1    0    0  501    0  0.00000000000E+00  0.00000000000E+00  0.15223960971E+03  0.15223960971E+03  0.00000000000E+00 0. -1.
         -3   -1    0    0    0  501 -0.00000000000E+00 -0.00000000000E+00 -0.38028882181E+03  0.38028882181E+03  0.00000000000E+00 0.  1.
         25    2    1    2    0    0  0.10783493063E+03  0.18541697619E+03 -0.11800373112E+03  0.27491821047E+03  0.12508922642E+03 0.  0.
          5    1    3    3  502    0  0.18798265111E+02 -0.88354654940E+01 -0.43837191827E+02  0.48688931072E+02  0.41800000000E+01 0.  1.
         -5    1    3    3    0  502  0.89036665522E+02  0.19425244168E+03 -0.74166539293E+02  0.22622927940E+03  0.41800000000E+01 0.  1.
        -11    1    1    2    0    0 -0.42595387058E+02 -0.36347529461E+02 -0.70721782230E+02  0.90205766879E+02  0.00000000000E+00 0.  1.
         11    1    1    2    0    0 -0.65239543575E+02 -0.14906944673E+03 -0.39323698754E+02  0.16740445417E+03  0.00000000000E+00 0. -1.
</event>
<event>
 7    1  0.2661133E-009  0.1283574E+03  0.7561462E-02  0.1229914E+00
          2   -1    0    0  501    0  0.00000000000E+00  0.00000000000E+00  0.78285911657E+03  0.78285911657E+03  0.00000000000E+00 0. -1.
         -2   -1    0    0    0  501 -0.00000000000E+00 -0.00000000000E+00 -0.33960134460E+02  0.33960134460E+02  0.00000000000E+00 0.  1.
         25    2    1    2    0    0  0.53079580361E+01  0.95064168694E+02  0.21171800045E+03  0.26369952944E+03  0.12509020556E+03 0.  0.
          5    1    3    3  502    0 -0.16049063550E+01 -0.16011259346E+02  0.11500038657E+03  0.11619594426E+03  0.41800000000E+01 0.  1.
         -5    1    3    3    0  502  0.69128643910E+01  0.11107542804E+03  0.96717613873E+02  0.14750358518E+03  0.41800000000E+01 0.  1.
        -11    1    1    2    0    0 -0.19618745724E+02 -0.10779550568E+03  0.49188945468E+03  0.50394444322E+03  0.00000000000E+00 0. -1.
         11    1    1    2    0    0  0.14310787688E+02  0.12731336990E+02  0.45291526982E+02  0.49175278364E+02  0.00000000000E+00 0.  1.
</event>
<event>
 7    1  0.2661133E-009  0.7999430E+02  0.7561462E-02  0.1329068E+00
         -2   -1    0    0    0  501 -0.00000000000E+00  0.00000000000E+00  0.93421995079E+02  0.93421995079E+02  0.00000000000E+00 0.  1.
          2   -1    0    0  501    0  0.00000000000E+00 -0.00000000000E+00 -0.14914826827E+03  0.14914826827E+03  0.00000000000E+00 0. -1.
         25    2    1    2    0    0  0.13713053309E+01  0.46626478981E+02 -0.41384337964E+02  0.13977390563E+03  0.12509265464E+03 0.  0.
          5    1    3    3  502    0  0.24766985015E+02  0.30923151564E+02 -0.81416847059E+02  0.90641161921E+02  0.41800000000E+01 0. -1.
         -5    1    3    3    0  502 -0.23395679684E+02  0.15703327417E+02  0.40032509094E+02  0.49132743708E+02  0.41800000000E+01 0. -1.
        -11    1    1    2    0    0  0.37617510910E+02 -0.33934307848E+02 -0.30031946217E+02  0.58894245643E+02  0.00000000000E+00 0. -1.
         11    1    1    2    0    0 -0.38988816241E+02 -0.12692171132E+02  0.15690010991E+02  0.43902112077E+02  0.00000000000E+00 0.  1.
</event>
<event>
 7    1  0.2661133E-009  0.1343636E+03  0.7561462E-02  0.1221121E+00
          1   -1    0    0  501    0  0.00000000000E+00  0.00000000000E+00  0.25467021346E+03  0.25467021346E+03  0.00000000000E+00 0. -1.
         -1   -1    0    0    0  501 -0.00000000000E+00 -0.00000000000E+00 -0.97740181900E+02  0.97740181900E+02  0.00000000000E+00 0.  1.
         25    2    1    2    0    0 -0.87817205724E+02 -0.73788646785E+02  0.90585734432E+02  0.19237997676E+03  0.12509058381E+03 0.  0.
          5    1    3    3  502    0 -0.37912042967E+02 -0.72410363217E+02 -0.75569071059E+01  0.82189798321E+02  0.41800000000E+01 0.  1.
         -5    1    3    3    0  502 -0.49905162758E+02 -0.13782835686E+01  0.98142641538E+02  0.11019017843E+03  0.41800000000E+01 0.  1.
        -11    1    1    2    0    0  0.84333033472E+02  0.25121715179E+02  0.15114850102E+02  0.89283928014E+02  0.00000000000E+00 0.  1.
         11    1    1    2    0    0  0.34841722526E+01  0.48666931606E+02  0.51229447026E+02  0.70746490591E+02  0.00000000000E+00 0. -1.
</event>
<event>
 7    1  0.2661133E-009  0.1478846E+03  0.7561462E-02  0.1203097E+00
          1   -1    0    0  501    0  0.00000000000E+00  0.00000000000E+00  0.95410415465E+03  0.95410415465E+03  0.00000000000E+00 0. -1.
         -1   -1    0    0    0  501 -0.00000000000E+00 -0.00000000000E+00 -0.43109357948E+02  0.43109357948E+02  0.00000000000E+00 0.  1.
         25    2    1    2    0    0  0.40446426293E+02  0.10301653636E+03  0.15490142214E+03  0.22780122767E+03  0.12510247233E+03 0.  0.
          5    1    3    3  502    0 -0.14343261940E+02  0.98008308325E+02  0.54236719848E+02  0.11300642390E+03  0.41800000000E+01 0. -1.
         -5    1    3    3    0  502  0.54789688233E+02  0.50082280370E+01  0.10066470229E+03  0.11479480377E+03  0.41800000000E+01 0. -1.
        -11    1    1    2    0    0 -0.36966085723E+02  0.13855348081E+01  0.15865952639E+03  0.16291487506E+03  0.00000000000E+00 0.  1.
         11    1    1    2    0    0 -0.34803405708E+01 -0.10440207117E+03  0.59743384817E+03  0.60649740987E+03  0.00000000000E+00 0. -1.
</event>
<event>
 7    1  0.2661133E-009  0.1000938E+03  0.7561462E-02  0.1280099E+00
          3   -1    0    0  501    0  0.00000000000E+00  0.00000000000E+00  0.23686539643E+02  0.23686539643E+02  0.00000000000E+00 0. -1.
         -3   -1    0    0    0  501 -0.00000000000E+00 -0.00000000000E+00 -0.62377250102E+03  0.62377250102E+03  0.00000000000E+00 0.  1.
         25    2    1    2    0    0 -0.46448878172E+02  0.10674001567E+02 -0.41863013660E+03  0.43951131684E+03  0.12509026248E+03 0.  0.
          5    1    3    3  502    0 -0.26955781667E+02 -0.40746481099E+02 -0.64032551093E+02  0.80650665755E+02  0.41800000000E+01 0.  1.
         -5    1    3    3    0  502 -0.19493096504E+02  0.51420482666E+02 -0.35459758551E+03  0.35886065108E+03  0.41800000000E+01 0.  1.
        -11    1    1    2    0    0 -0.14907138166E+02 -0.28454460082E+02 -0.31673033633E+02  0.45111640697E+02  0.00000000000E+00 0. -1.
         11    1    1    2    0    0  0.61356016337E+02  0.17780458515E+02 -0.14978279115E+03  0.16283608313E+03  0.00000000000E+00 0.  1.
</event>
<event>
 7    1  0.2661133E-009  0.9097639E+02  0.7561462E-02  0.1300504E+00
          2   -1    0    0  501    0  0.00000000000E+00  0.00000000000E+00  0.58726190746E+03  0.58726190746E+03  0.00000000000E+00 0. -1.
         -2   -1    0    0    0  501 -0.00000000000E+00 -0.00000000000E+00 -0.25433087680E+02  0.25433087680E+02  0.00000000000E+00 0.  1.
         25    2    1    2    0    0  0.34089387303E+02 -0.44504239907E+02  0.28430002648E+03  0.31562095491E+03  0.12508944170E+03 0.  0.
          5    1    3    3  502    0 -0.21411726513E+02  0.60127287937E+01  0.11439929501E+01  0.22658244850E+02  0.41800000000E+01 0. -1.
         -5    1    3    3    0  502  0.55501113816E+02 -0.50516968701E+02  0.28315603353E+03  0.29296271006E+03  0.41800000000E+01 0. -1.
        -11    1    1    2    0    0 -0.50294234793E+02  0.18640981436E+02  0.25090138828E+03  0.25657065865E+03  0.00000000000E+00 0. -1.
         11    1    1    2    0    0  0.16204847490E+02  0.25863258470E+02  0.26627405024E+02  0.40503381577E+02  0.00000000000E+00 0.  1.
</event>
<event>
 7    1  0.2661133E-009  0.6733429E+02  0.7561462E-02  0.1369400E+00
          2   -1    0    0  501    0  0.00000000000E+00  0.00000000000E+00  0.36038134342E+03  0.36038134342E+03  0.00000000000E+00 0.  1.
         -2   -1    0    0    0  501 -0.00000000000E+00 -0.00000000000E+00 -0.35860688054E+02  0.35860688054E+02  0.00000000000E+00 0. -1.
         25    2    1    2    0    0  0.19158299950E+02 -0.28382264266E+02  0.19330046824E+03  0.23277391400E+03  0.12508409426E+03 0.  0.
          5    1    3    3  502    0  0.81266458617E+01 -0.21887773619E+02 -0.12309856999E+02  0.26723060945E+02  0.41800000000E+01 0. -1.
         -5    1    3    3    0  502  0.11031654089E+02 -0.64944906476E+01  0.20561032524E+03  0.20605085305E+03  0.41800000000E+01 0. -1.
        -11    1    1    2    0    0  0.36981325177E+02  0.13882369615E+02  0.53482349068E+02  0.66488346797E+02  0.00000000000E+00 0.  1.
         11    1    1    2    0    0 -0.56139625127E+02  0.14499894651E+02  0.77737838060E+02  0.96979770677E+02  0.00000000000E+00 0. -1.
</event>
<event>
 7    1  0.2661133E-009  0.7091971E+02  0.7561462E-02  0.1356993E+00
         -3   -1    0    0    0  501 -0.00000000000E+00  0.00000000000E+00  0.42012562734E+02  0.42012562734E+02  0.00000000000E+00 0.  1.
          3   -1    0    0  501    0  0.00000000000E+00 -0.00000000000E+00 -0.32094047082E+03  0.32094047082E+03  0.00000000000E+00 0. -1.
         25    2    1    2    0    0  0.47497339774E+01 -0.38190411964E+02 -0.12904200445E+03  0.18379368115E+03  0.12508881158E+03 0.  0.
          5    1    3    3  502    0  0.18416060134E+00 -0.61756127851E+02 -0.10510337847E+02  0.62783698871E+02  0.41800000000E+01 0.  1.
         -5    1    3    3    0  502  0.45655733761E+01  0.23565715888E+02 -0.11853166660E+03  0.12100998228E+03  0.41800000000E+01 0.  1.
        -11    1    1    2    0    0  0.17533261099E+02  0.21460411636E+02 -0.10441495377E+01  0.27731836589E+02  0.00000000000E+00 0.  1.
         11    1    1    2    0    0 -0.22282995076E+02  0.16730000328E+02 -0.14884175410E+03  0.15142751581E+03  0.00000000000E+00 0. -1.
</event>
<event>
 7    1  0.2661133E-009  0.3814856E+03  0.7561462E-02  0.1050386E+00
          2   -1    0    0  501    0  0.00000000000E+00  0.00000000000E+00  0.69506664566E+03  0.69506664566E+03  0.00000000000E+00 0. -1.
         -2   -1    0    0    0  501 -0.00000000000E+00 -0.00000000000E+00 -0.36909179694E+03  0.36909179694E+03  0.00000000000E+00 0.  1.
         25    2    1    2    0    0 -0.33776987019E+03 -0.14288724305E+03  0.51344270256E+03  0.64325543674E+03  0.12509555807E+03 0.  0.
          5    1    3    3  502    0 -0.29924558643E+03 -0.16479250921E+03  0.43575383264E+03  0.55371776850E+03  0.41800000000E+01 0.  1.
         -5    1    3    3    0  502 -0.38524283756E+02  0.21905266160E+02  0.77688869923E+02  0.89537668243E+02  0.41800000000E+01 0.  1.
        -11    1    1    2    0    0  0.19783770811E+03  0.12902872568E+03 -0.12035852176E+03  0.26509308660E+03  0.00000000000E+00 0.  1.
         11    1    1    2    0    0  0.13993216208E+03  0.13858517370E+02 -0.67109332084E+02  0.15580991926E+03  0.00000000000E+00 0. -1.
</event>
<event>
 7    1  0.2661133E-009  0.1220179E+03  0.7561462E-02  0.1239805E+00
          3   -1    0    0  501    0  0.00000000000E+00  0.00000000000E+00  0.51078683523E+02  0.51078683523E+02  0.00000000000E+00 0. -1.
         -3   -1    0    0    0  501 -0.00000000000E+00 -0.00000000000E+00 -0.30089482644E+03  0.30089482644E+03  0.00000000000E+00 0.  1.
         25    2    1    2    0    0 -0.15613373317E+02  0.60628194750E+02 -0.12977930989E+03  0.19081506064E+03  0.12509261636E+03 0.  0.
          5    1    3    3  502    0  0.27005625243E+02 -0.27350961935E+02 -0.19226350194E+02  0.43179901057E+02  0.41800000000E+01 0. -1.
         -5    1    3    3    0  502 -0.42618998560E+02  0.87979156685E+02 -0.11055295969E+03  0.14763515959E+03  0.41800000000E+01 0. -1.
        -11    1    1    2    0    0 -0.32867966556E+02 -0.46654762466E+02 -0.62755981508E+02  0.84825015775E+02  0.00000000000E+00 0.  1.
         11    1    1    2    0    0  0.48481339874E+02 -0.13973432285E+02 -0.57280851525E+02  0.76333433548E+02  0.00000000000E+00 0. -1.
</event>
<event>
 7    1  0.2661133E-009  0.9415533E+02  0.7561462E-02  0.1293090E+00
         -2   -1    0    0    0  501 -0.00000000000E+00  0.00000000000E+00  0.47393614723E+02  0.47393614723E+02  0.00000000000E+00 0.  1.
          2   -1    0    0  501    0  0.00000000000E+00 -0.00000000000E+00 -0.31899534467E+03  0.31899534467E+03  0.00000000000E+00 0. -1.
         25    2    1    2    0    0 -0.98234729266E+01  0.46240432609E+02 -0.10923427052E+03  0.17266953219E+03  0.12509181933E+03 0.  0.
          5    1    3    3  502    0  0.43322903817E+02 -0.17346635342E+02 -0.60207975781E+02  0.76290579370E+02  0.41800000000E+01 0. -1.
         -5    1    3    3    0  502 -0.53146376744E+02  0.63587067951E+02 -0.49026294739E+02  0.96378952824E+02  0.41800000000E+01 0. -1.
        -11    1    1    2    0    0  0.22715048424E+02 -0.26510537276E+02 -0.16621279667E+03  0.16983955896E+03  0.00000000000E+00 0. -1.
         11    1    1    2    0    0 -0.12891575497E+02 -0.19729895332E+02  0.38453372408E+01  0.23879868239E+02  0.00000000000E+00 0.  1.
</event>
<event>
 6    1  0.2661133E-009  0.1066364E+03  0.7561462E-02  0.1266929E+00
         -1   -1    0    0    0  501 -0.00000000000E+00  0.00000000000E+00  0.24576575835E+02  0.24576575835E+02  0.00000000000E+00 0.  1.
          1   -1    0    0  501    0  0.00000000000E+00 -0.00000000000E+00 -0.78392856300E+03  0.78392856300E+03  0.00000000000E+00 0. -1.
          5    1    1    2  502    0  0.68177047178E+01 -0.26618999438E+02 -0.32715538775E+02  0.42928208745E+02  0.41800000000E+01 0.  1.
         -5    1    1    2    0  502  0.28373387556E+02  0.92484679212E+02 -0.50226746815E+03  0.51151593032E+03  0.41800000000E+01 0.  1.
        -11    1    1    2    0    0  0.10740836806E+02 -0.24840956821E+02 -0.67459441171E+01  0.27891691829E+02  0.00000000000E+00 0.  1.
         11    1    1    2    0    0 -0.45931929079E+02 -0.41024722953E+02 -0.21762303612E+03  0.22616930794E+03  0.00000000000E+00 0. -1.
</event>
<event>
 7    1  0.2661133E-009  0.9597312E+02  0.7561462E-02  0.1288999E+00
          2   -1    0    0  501    0  0.00000000000E+00  0.00000000000E+00  0.19838857018E+03  0.19838857018E+03  0.00000000000E+00 0. -1.
         -2   -1    0    0    0  501 -0.00000000000E+00 -0.00000000000E+00 -0.55452823687E+02  0.55452823687E+02  0.00000000000E+00 0.  1.
         25    2    1    2    0    0 -0.31043259850E+02  0.17311668315E+01  0.12287900683E+03  0.17808268842E+03  0.12509001828E+03 0.  0.
          5    1    3    3  502    0 -0.53254117013E+02  0.51045459230E+02  0.61180167216E+02  0.95927707923E+02  0.41800000000E+01 0. -1.
         -5    1    3    3    0  502  0.22210857163E+02 -0.49314292398E+02  0.61698839611E+02  0.82154980494E+02  0.41800000000E+01 0. -1.
        -11    1    1    2    0    0  0.46812898997E+02 -0.66772785375E+01 -0.30098712366E+01  0.47382411146E+02  0.00000000000E+00 0.  1.
         11    1    1    2    0    0 -0.15769639147E+02  0.49461117060E+01  0.23066610906E+02  0.28376294306E+02  0.00000000000E+00 0. -1.
</event>
<event>
 7    1  0.2661133E-009  0.1481719E+03  0.7561462E-02  0.1202737E+00
          1   -1    0    0  501    0  0.00000000000E+00  0.00000000000E+00  0.99133009570E+03  0.99133009570E+03  0.00000000000E+00 0. -1.
         -1   -1    0    0    0  501 -0.00000000000E+00 -0.00000000000E+00 -0.27627046459E+02  0.27627046459E+02  0.00000000000E+00 0.  1.
         25    2    1    2    0    0 -0.93677766859E+02  0.81528321132E+02  0.55049667798E+03  0.57802805308E+03  0.12508975392E+03 0.  0.
          5    1    3    3  502    0 -0.10276532653E+03  0.16499801676E+02  0.25823796667E+03  0.27845515909E+03  0.41800000000E+01 0.  1.
         -5    1    3    3    0  502  0.90875596666E+01  0.65028519456E+02  0.29225871131E+03  0.29957289400E+03  0.41800000000E+01 0.  1.
        -11    1    1    2    0    0  0.70117398069E+02 -0.73281825551E+02  0.40006152032E+03  0.41271769469E+03  0.00000000000E+00 0. -1.
         11    1    1    2    0    0  0.23560368790E+02 -0.82464955811E+01  0.13144850939E+02  0.28211394384E+02  0.00000000000E+00 0.  1.
</event>
<event>
 7    1  0.2661133E-009  0.8319887E+02  0.7561462E-02  0.1320211E+00
         -2   -1    0    0    0  501 -0.00000000000E+00  0.00000000000E+00  0.28657384807E+02  0.28657384807E+02  0.00000000000E+00 0.  1.
          2   -1    0    0  501    0  0.00000000000E+00 -0.00000000000E+00 -0.51604984145E+03  0.51604984145E+03  0.00000000000E+00 0. -1.
         25    2    1    2    0    0 -0.45722820578E+02  0.16556092988E+02 -0.21753311871E+03  0.25559565004E+03  0.12507516959E+03 0.  0.
          5    1    3    3  502    0 -0.24289603300E+02 -0.13354666797E+02  0.62901406245E+01  0.28729257262E+02  0.41800000000E+01 0.  1.
         -5    1    3    3    0  502 -0.21433217278E+02  0.29910759785E+02 -0.22382325933E+03  0.22686639278E+03  0.41800000000E+01 0.  1.
        -11    1    1    2    0    0 -0.11249859830E+02 -0.38628060729E+02 -0.78100917898E+02  0.87854651547E+02  0.00000000000E+00 0.  1.
         11    1    1    2    0    0  0.56972680408E+02  0.22071967741E+02 -0.19175842003E+03  0.20125692467E+03  0.00000000000E+00 0. -1.
</event>
<event>
 7    1  0.2661133E-009  0.1475410E+03  0.7561462E-02  0.1203528E+00
          2   -1    0    0  501    0  0.00000000000E+00  0.00000000000E+00  0.66434548571E+02  0.66434548571E+02  0.00000000000E+00 0. -1.
         -2   -1    0    0    0  501 -0.00000000000E+00 -0.00000000000E+00 -0.41484200680E+03  0.41484200680E+03  0.00000000000E+00 0.  1.
         25    2    1    2    0    0  0.79202213207E+02  0.92046908412E+02 -0.22734000742E+03  0.28649296058E+03  0.12509641707E+03 0.  0.
          5    1    3    3  502    0  0.59191579485E+02  0.18958367557E+01 -0.16405141117E+03  0.17446367870E+03  0.41800000000E+01 0.  1.
         -5    1    3    3    0  502  0.20010633722E+02  0.90151071657E+02 -0.63288596247E+02  0.11202928188E+03  0.41800000000E+01 0.  1.
        -11    1    1    2    0    0 -0.20820858627E+02 -0.81283426738E+02 -0.36603477730E+02  0.91544077898E+02  0.00000000000E+00 0.  1.
         11    1    1    2    0    0 -0.58381354580E+02 -0.10763481674E+02 -0.84463973082E+02  0.10323951690E+03  0.00000000000E+00 0. -1.
</event>
<event>
 7    1  0.2661133E-009  0.1891347E+03  0.7561462E-02  0.1159244E+00
         -2   -1    0    0    0  501 -0.00000000000E+00  0.00000000000E+00  0.37495528015E+02  0.37495528015E+02  0.00000000000E+00 0. -1.
          2   -1    0    0  501    0  0.00000000000E+00 -0.00000000000E+00 -0.97447514896E+03  0.97447514896E+03  0.00000000000E+00 0.  1.
         25    2    1    2    0    0 -0.14621531451E+03  0.56045155538E+02 -0.52554706582E+03  0.56246353672E+03  0.12508210943E+03 0.  0.
          5    1    3    3  502    0 -0.15492102404E+03  0.12358927012E+02 -0.39726021059E+03  0.42659865692E+03  0.41800000000E+01 0. -1.
         -5    1    3    3    0  502  0.87057095263E+01  0.43686228526E+02 -0.12828685523E+03  0.13586487981E+03  0.41800000000E+01 0. -1.
        -11    1    1    2    0    0  0.36492635204E+02 -0.57760766509E+02 -0.19906007434E+03  0.21045886004E+03  0.00000000000E+00 0.  1.
         11    1    1    2    0    0  0.10972267931E+03  0.17156109713E+01 -0.21237248079E+03  0.23904828021E+03  0.00000000000E+00 0. -1.
</event>
<event>
 7    1  0.2661133E-009  0.1024101E+03  0.7561462E-02  0.1275308E+00
          1   -1    0    0  501    0  0.00000000000E+00  0.00000000000E+00  0.23621426995E+02  0.23621426995E+02  0.00000000000E+00 0. -1.
         -1   -1    0    0    0  501 -0.00000000000E+00 -0.00000000000E+00 -0.91975267931E+03  0.91975267931E+03  0.00000000000E+00 0.  1.
         25    2    1    2    0    0 -0.11021358331E+02 -0.88379809070E+02 -0.63717242981E+03  0.65541452720E+03  0.12508811360E+03 0.  0.
          5    1    3    3  502    0 -0.36645888595E+02 -0.62899002730E+02 -0.14895942921E+03  0.16584809208E+03  0.41800000000E+01 0. -1.
         -5    1    3    3    0  502  0.25624530264E+02 -0.25480806341E+02 -0.48821300060E+03  0.48956643512E+03  0.41800000000E+01 0. -1.
        -11    1    1    2    0    0 -0.12542993103E+02  0.34894605495E+02 -0.20351174704E+02  0.42298114384E+02  0.00000000000E+00 0. -1.
         11    1    1    2    0    0  0.23564351434E+02  0.53485203575E+02 -0.23860764780E+03  0.24566146472E+03  0.00000000000E+00 0.  1.
</event>
<event>
 7    1  0.2661133E-009  0.1016989E+03  0.7561462E-02  0.1276763E+00
          2   -1    0    0  501    0  0.00000000000E+00  0.00000000000E+00  0.17962231839E+03  0.17962231839E+03  0.00000000000E+00 0. -1.
         -2   -1    0    0    0  501 -0.00000000000E+00 -0.00000000000E+00 -0.10233292573E+03  0.10233292573E+03  0.00000000000E+00 0.  1.
         25    2    1    2    0    0  0.15106423443E+02  0.68934809820E+02  0.78666940003E+02  0.16375533009E+03  0.12508840334E+03 0.  0.
          5    1    3    3  502    0  0.32737732961E+02  0.49980057866E+02 -0.18837734257E+02  0.62786128847E+02  0.41800000000E+01 0.  1.
         -5    1    3    3    0  502 -0.17631309518E+02  0.18954751954E+02  0.97504674260E+02  0.10096920124E+03  0.41800000000E+01 0.  1.
        -11    1    1    2    0    0 -0.47436634331E+02 -0.77293302821E+01  0.66352741540E+01  0.48518075872E+02  0.00000000000E+00 0.  1.
         11    1    1    2    0    0  0.32330210888E+02 -0.61205479538E+02 -0.80128214935E+01  0.69681838163E+02  0.00000000000E+00 0. -1.
</event>
<event>
 7    1  0.2661133E-009  0.7945948E+02  0.7561462E-02  0.1330592E+00
          2   -1    0    0  501    0  0.00000000000E+00  0.00000000000E+00  0.28483345628E+02  0.28483345628E+02  0.00000000000E+00 0. -1.
         -2   -1    0    0    0  501 -0.00000000000E+00 -0.00000000000E+00 -0.45966668499E+03  0.45966668499E+03  0.00000000000E+00 0.  1.
         25    2    1    2    0    0  0.32505392187E+02  0.11896310905E+02 -0.27576443918E+03  0.30478115272E+03  0.12508957752E+03 0.  0.
          5    1    3    3  502    0 -0.89041378656E+01  0.19576722019E+02  0.36227887762E+01  0.22206501630E+02  0.41800000000E+01 0.  1.
         -5    1    3    3    0  502  0.41409530053E+02 -0.76804111140E+01 -0.27938722796E+03  0.28257465109E+03  0.41800000000E+01 0.  1.
        -11    1    1    2    0    0  0.25062772434E+02 -0.25264823791E+02 -0.38924705294E+02  0.52740748625E+02  0.00000000000E+00 0. -1.
         11    1    1    2    0    0 -0.57568164621E+02  0.13368512886E+02 -0.11649419488E+03  0.13062812927E+03  0.00000000000E+00 0.  1.
</event>
<event>
 7    1  0.2661133E-009  0.1172713E+03  0.7561462E-02  0.1247668E+00
          2   -1    0    0  501    0  0.00000000000E+00  0.00000000000E+00  0.32769309073E+02  0.32769309073E+02  0.00000000000E+00 0.  1.
         -2   -1    0    0    0  501 -0.00000000000E+00 -0.00000000000E+00 -0.68989114350E+03  0.68989114350E+03  0.00000000000E+00 0. -1.
         25    2    1    2    0    0 -0.10042452423E+03  0.20664292388E+00 -0.29109845214E+03  0.33237110453E+03  0.12508842680E+03 0.  0.
          5    1    3    3  502    0 -0.57454400401E+02  0.18214546115E+02 -0.27700332115E+03  0.28351559065E+03  0.41800000000E+01 0.  1.
         -5    1    3    3    0  502 -0.42970123825E+02 -0.18007903191E+02 -0.14095130997E+02  0.48855513882E+02  0.41800000000E+01 0.  1.
        -11    1    1    2    0    0  0.61348446491E+02 -0.38668290458E+02 -0.13948043467E+03  0.15720578943E+03  0.00000000000E+00 0.  1.
         11    1    1    2    0    0  0.39076077734E+02  0.38461647534E+02 -0.22654294761E+03  0.23308355861E+03  0.00000000000E+00 0. -1.
</event>
<event>
 7    1  0.2661133E-009  0.1367251E+03  0.7561462E-02  0.1217805E+00
         -4   -1    0    0    0  501 -0.00000000000E+00  0.00000000000E+00  0.28021156648E+03  0.28021156648E+03  0.00000000000E+00 0. -1.
          4   -1    0    0  501    0  0.00000000000E+00 -0.00000000000E+00 -0.76684473951E+02  0.76684473951E+02  0.00000000000E+00 0.  1.
         25    2    1    2    0    0 -0.42583651901E+02 -0.88837628025E+02  0.10716692321E+03  0.19192295885E+03  0.12507670103E+03 0.  0.
          5    1    3    3  502    0  0.38666538555E+02 -0.62718322772E+00  0.21123789581E+02  0.44262641684E+02  0.41800000000E+01 0.  1.
         -5    1    3    3    0  502 -0.81250190455E+02 -0.88210444798E+02  0.86043133632E+02  0.14766031717E+03  0.41800000000E+01 0.  1.
        -11    1    1    2    0    0  0.12188267116E+02  0.82637461796E+02  0.25048466188E+02  0.87206247515E+02  0.00000000000E+00 0.  1.
         11    1    1    2    0    0  0.30395384785E+02  0.62001662299E+01  0.71311703133E+02  0.77766834070E+02  0.00000000000E+00 0. -1.
</event>
<event>
 7    1  0.2661133E-009  0.1480875E+03  0.7561462E-02  0.1202843E+00
          2   -1    0    0  501    0  0.00000000000E+00  0.00000000000E+00  0.70706820399E+03  0.70706820399E+03  0.00000000000E+00 0. -1.
         -2   -1    0    0    0  501 -0.00000000000E+00 -0.00000000000E+00 -0.41573771262E+02  0.41573771262E+02  0.00000000000E+00 0.  1.
         25    2    1    2    0    0 -0.95400504116E+02  0.88314775234E+02  0.39507304449E+03  0.43431677599E+03  0.12509035020E+03 0.  0.
          5    1    3    3  502    0 -0.80050706698E+02  0.20982802710E+02  0.93602363502E+02  0.12500907369E+03  0.41800000000E+01 0. -1.
         -5    1    3    3    0  502 -0.15349797417E+02  0.67331972524E+02  0.30147068099E+03  0.30930770230E+03  0.41800000000E+01 0. -1.
        -11    1    1    2    0    0  0.62201730455E+02 -0.15501680320E+02  0.54807637284E+02  0.84339993295E+02  0.00000000000E+00 0.  1.
         11    1    1    2    0    0  0.33198773661E+02 -0.72813094914E+02  0.21561375095E+03  0.22998520597E+03  0.00000000000E+00 0. -1.
</event>
<event>
 7    1  0.2661133E-009  0.1077498E+03  0.7561462E-02  0.1264795E+00
         -2   -1    0    0    0  501 -0.00000000000E+00  0.00000000000E+00  0.33798643203E+03  0.33798643203E+03  0.00000000000E+00 0. -1.
          2   -1    0    0  501    0  0.00000000000E+00 -0.00000000000E+00 -0.56360896068E+02  0.56360896068E+02  0.00000000000E+00 0.  1.
         25    2    1    2    0    0 -0.30970883864E+02  0.25994686934E+02  0.26181111791E+03  0.29297053956E+03  0.12510697900E+03 0.  0.
          5    1    3    3  502    0 -0.75059979456E+02  0.64003791044E+01  0.20429479345E+03  0.21778154283E+03  0.41800000000E+01 0.  1.
         -5    1    3    3    0  502  0.44089095592E+02  0.19594307830E+02  0.57516324460E+02  0.75188996727E+02  0.41800000000E+01 0.  1.
        -11    1    1    2    0    0 -0.27414155866E+02  0.70484153201E+00 -0.11752628071E+02  0.29835499158E+02  0.00000000000E+00 0.  1.
         11    1    1    2    0    0  0.58385039731E+02 -0.26699528466E+02  0.31567046120E+02  0.71541289375E+02  0.00000000000E+00 0. -1.
</event>
<event>
 7    1  0.3387691E-009  0.1952183E+03  0.7561462E-02  0.1153837E+00
         -1   -1    0    0    0  501 -0.00000000000E+00  0.00000000000E+00  0.23103112414E+02  0.23103112414E+02  0.00000000000E+00 0.  1.
          1   -1    0    0  501    0  0.00000000000E+00 -0.00000000000E+00 -0.19683907569E+04  0.19683907569E+04  0.00000000000E+00 0. -1.
         25    2    1    2    0    0 -0.15468995918E+03 -0.92743663616E+02 -0.11616265396E+04  0.11821819687E+04  0.12509044282E+03 0.  0.
          5    1    3    3  502    0 -0.16927108172E+03 -0.80106286327E+02 -0.87243135677E+03  0.89231365612E+03  0.41800000000E+01 0. -1.
         -5    1    3    3    0  502  0.14581122537E+02 -0.12637377289E+02 -0.28919518286E+03  0.28986831256E+03  0.41800000000E+01 0. -1.
        -11    1    1    2    0    0  0.71530432022E+02  0.62183945422E+02 -0.57288364312E+03  0.58067126184E+03  0.00000000000E+00 0. -1.
         11    1    1    2    0    0  0.83159527157E+02  0.30559718194E+02 -0.21077746177E+03  0.22864063882E+03  0.00000000000E+00 0.  1.
</event>
<event>
 7    1  0.2661133E-009  0.1013434E+03  0.7561462E-02  0.1277496E+00
          2   -1    0    0  501    0  0.00000000000E+00  0.00000000000E+00  0.16274539239E+03  0.16274539239E+03  0.00000000000E+00 0. -1.
         -2   -1    0    0    0  501 -0.00000000000E+00 -0.00000000000E+00 -0.97992977038E+02  0.97992977038E+02  0.00000000000E+00 0.  1.
         25    2    1    2    0    0 -0.55150194945E+01  0.64926295570E+01  0.10261858910E+03  0.16199622134E+03  0.12505851119E+03 0.  0.
          5    1    3    3  502    0  0.53396154019E+02 -0.24003769711E+02  0.52552671849E+02  0.78781888419E+02  0.41800000000E+01 0.  1.
         -5    1    3    3    0  502 -0.58911173513E+02  0.30496399268E+02  0.50065917249E+02  0.83214332919E+02  0.41800000000E+01 0.  1.
        -11    1    1    2    0    0  0.52288792298E+01  0.35323839669E+02 -0.43793721225E+02  0.56506679655E+02  0.00000000000E+00 0.  1.
         11    1    1    2    0    0  0.28614026463E+00 -0.41816469226E+02  0.59275474777E+01  0.42235468434E+02  0.00000000000E+00 0. -1.
</event>
<event>
 7    1  0.2661133E-009  0.1086677E+03  0.7561462E-02  0.1263057E+00
          1   -1    0    0  501    0  0.00000000000E+00  0.00000000000E+00  0.58785822628E+03  0.58785822628E+03  0.00000000000E+00 0. -1.
         -1   -1    0    0    0  501 -0.00000000000E+00 -0.00000000000E+00 -0.25108427384E+02  0.25108427384E+02  0.00000000000E+00 0.  1.
         25    2    1    2    0    0 -0.23467253741E+02 -0.37558314547E+01  0.43818416093E+03  0.45630882168E+03  0.12509022179E+03 0.  0.
          5    1    3    3  502    0 -0.11972819057E+02  0.58449861342E+02  0.15556412283E+03  0.16666554352E+03  0.41800000000E+01 0. -1.
         -5    1    3    3    0  502 -0.11494434685E+02 -0.62205692796E+02  0.28262003810E+03  0.28964327815E+03  0.41800000000E+01 0. -1.
        -11    1    1    2    0    0  0.37504550451E+02  0.40257851898E+02  0.62183424493E+02  0.83030501779E+02  0.00000000000E+00 0.  1.
         11    1    1    2    0    0 -0.14037296710E+02 -0.36502020443E+02  0.62382213479E+02  0.73627330210E+02  0.00000000000E+00 0. -1.
</event>
<event>
 7    1  0.2661133E-009  0.1327443E+03  0.7561462E-02  0.1223440E+00
          2   -1    0    0  501    0  0.00000000000E+00  0.00000000000E+00  0.88045116957E+03  0.88045116957E+03  0.00000000000E+00 0. -1.
         -2   -1    0    0    0  501 -0.00000000000E+00 -0.00000000000E+00 -0.26643936738E+02  0.26643936738E+02  0.00000000000E+00 0.  1.
         25    2    1    2    0    0 -0.71478387200E+02  0.76483266661E+02  0.52497311529E+03  0.54972955179E+03  0.12508780284E+03 0.  0.
          5    1    3    3  502    0  0.10785725886E+02  0.28476381916E+02  0.21994700717E+02  0.37795177861E+02  0.41800000000E+01 0.  1.
         -5    1    3    3    0  502 -0.82264113086E+02  0.48006884744E+02  0.50297841458E+03  0.51193437393E+03  0.41800000000E+01 0.  1.
        -11    1    1    2    0    0  0.27226401735E+02  0.19654989156E+02  0.66785463714E+02  0.74752215443E+02  0.00000000000E+00 0.  1.
         11    1    1    2    0    0  0.44251985465E+02 -0.96138255816E+02  0.26204865382E+03  0.28261333907E+03  0.00000000000E+00 0. -1.
</event>
<event>
 7    1  0.2661133E-009  0.7350217E+02  0.7561462E-02  0.1348573E+00
          1   -1    0    0  501    0  0.00000000000E+00  0.00000000000E+00  0.10351196766E+03  0.10351196766E+03  0.00000000000E+00 0. -1.
         -1   -1    0    0    0  501 -0.00000000000E+00 -0.00000000000E+00 -0.16127116431E+03  0.16127116431E+03  0.00000000000E+00 0.  1.
         25    2    1    2    0    0 -0.54426999861E+02  0.21991334922E+02  0.10525602039E+02  0.13858020787E+03  0.12509104120E+03 0.  0.
          5    1    3    3  502    0  0.11487558501E+02 -0.77741459113E+01  0.52767355907E+02  0.54719901264E+02  0.41800000000E+01 0. -1.
         -5    1    3    3    0  502 -0.65914558363E+02  0.29765480833E+02 -0.42241753868E+02  0.83860306601E+02  0.41800000000E+01 0. -1.
        -11    1    1    2    0    0  0.31642732881E+02 -0.19461863078E+02  0.14818914878E+02  0.39995335938E+02  0.00000000000E+00 0. -1.
         11    1    1    2    0    0  0.22784266980E+02 -0.25294718440E+01 -0.83103713569E+02  0.86207588173E+02  0.00000000000E+00 0.  1.
</event>
<event>
 7    1  0.2661133E-009  0.1009516E+03  0.7561462E-02  0.1278307E+00
          1   -1    0    0  501    0  0.00000000000E+00  0.00000000000E+00  0.51832793605E+03  0.51832793605E+03  0.00000000000E+00 0. -1.
         -1   -1    0    0    0  501 -0.00000000000E+00 -0.00000000000E+00 -0.33139331615E+02  0.33139331615E+02  0.00000000000E+00 0.  1.
         25    2    1    2    0    0 -0.53293410825E+02  0.49687662660E+02  0.26446698326E+03  0.30149765937E+03  0.12509597079E+03 0.  0.
          5    1    3    3  502    0  0.22531297458E+02 -0.14924651194E+02  0.11642744808E+02  0.29722558521E+02  0.41800000000E+01 0.  1.
         -5    1    3    3    0  502 -0.75824708283E+02  0.64612313853E+02  0.25282423846E+03  0.27177510084E+03  0.41800000000E+01 0.  1.
        -11    1    1    2    0    0  0.33045019298E+02 -0.19106119866E+02  0.20750038949E+03  0.21098205790E+03  0.00000000000E+00 0. -1.
         11    1    1    2    0    0  0.20248391527E+02 -0.30581542794E+02  0.13221231681E+02  0.38987550401E+02  0.00000000000E+00 0.  1.
</event>
<event>
 7    1  0.2661133E-009  0.1921036E+03  0.7561462E-02  0.1156578E+00
          1   -1    0    0  501    0  0.00000000000E+00  0.00000000000E+00  0.38572942537E+03  0.38572942537E+03  0.00000000000E+00 0. -1.
         -1   -1    0    0    0  501 -0.00000000000E+00 -0.00000000000E+00 -0.10596699682E+03  0.10596699682E+03  0.00000000000E+00 0.  1.
         25    2    1    2    0    0 -0.16367716613E+03 -0.70640669597E+01  0.91204073583E+02  0.22540105058E+03  0.12508930733E+03 0.  0.
          5    1    3    3  502    0 -0.16888009950E+03 -0.38345447185E+02  0.84417700405E+02  0.19270361146E+03  0.41800000000E+01 0.  1.
         -5    1    3    3    0  502  0.52029333649E+01  0.31281380226E+02  0.67863731779E+01  0.32697439125E+02  0.41800000000E+01 0.  1.
        -11    1    1    2    0    0  0.49426960398E+02  0.35985172908E+02  0.28308875092E+02  0.67374694748E+02  0.00000000000E+00 0.  1.
         11    1    1    2    0    0  0.11425020574E+03 -0.28921105948E+02  0.16024947988E+03  0.19892067686E+03  0.00000000000E+00 0. -1.
</event>
<event>
 7    1  0.2661133E-009  0.2989645E+03  0.7561462E-02  0.1085759E+00
          2   -1    0    0  501    0  0.00000000000E+00  0.00000000000E+00  0.10947731466E+04  0.10947731466E+04  0.00000000000E+00 0. -1.
         -2   -1    0    0    0  501 -0.00000000000E+00 -0.00000000000E+00 -0.16646606155E+03  0.16646606155E+03  0.00000000000E+00 0.  1.
         25    2    1    2    0    0 -0.27205241949E+03 -0.74618662690E+02  0.23909209828E+02  0.30951734516E+03  0.12509545503E+03 0.  0.
          5    1    3    3  502    0 -0.18781770762E+03  0.66221303820E+01  0.37318794828E+02  0.19164944235E+03  0.41800000000E+01 0. -1.
         -5    1    3    3    0  502 -0.84234711869E+02 -0.81240793072E+02 -0.13409585000E+02  0.11786790281E+03  0.41800000000E+01 0. -1.
        -11    1    1    2    0    0  0.25014392241E+03  0.42140367357E+02  0.72502298977E+03  0.76811856388E+03  0.00000000000E+00 0.  1.
         11    1    1    2    0    0  0.21908497079E+02  0.32478295333E+02  0.17937488541E+03  0.18360329907E+03  0.00000000000E+00 0. -1.
</event>
<event>
 7    1  0.2661133E-009  0.7708899E+02  0.7561462E-02  0.1337521E+00
         -2   -1    0    0    0  501 -0.00000000000E+00  0.00000000000E+00  0.15421697019E+03  0.15421697019E+03  0.00000000000E+00 0.  1.
          2   -1    0    0  501    0  0.00000000000E+00 -0.00000000000E+00 -0.81072599826E+02  0.81072599826E+02  0.00000000000E+00 0. -1.
         25    2    1    2    0    0 -0.21043291088E+02 -0.70711965524E+01  0.61864668454E+02  0.14130202803E+03  0.12508478725E+03 0.  0.
          5    1    3    3  502    0  0.38693403271E+01 -0.29887537949E+02  0.91340145278E+02  0.96274250237E+02  0.41800000000E+01 0.  1.
         -5    1    3    3    0  502 -0.24912631415E+02  0.22816341397E+02 -0.29475476824E+02  0.45027777791E+02  0.41800000000E+01 0.  1.
        -11    1    1    2    0    0  0.72785475517E+00 -0.39185157463E+02  0.17805281718E+02  0.43046886008E+02  0.00000000000E+00 0.  1.
         11    1    1    2    0    0  0.20315436333E+02  0.46256354016E+02 -0.65255798059E+01  0.50940655983E+02  0.00000000000E+00 0. -1.
</event>
<event>
 7    1  0.2661133E-009  0.2312422E+03  0.7561462E-02  0.1125769E+00
         -1   -1    0    0    0  501 -0.00000000000E+00  0.00000000000E+00  0.80451101702E+02  0.80451101702E+02  0.00000000000E+00 0.  1.
          1   -1    0    0  501    0  0.00000000000E+00 -0.00000000000E+00 -0.89153122104E+03  0.89153122104E+03  0.00000000000E+00 0. -1.
         25    2    1    2    0    0  0.71056196402E+02  0.20367883203E+03 -0.20904119255E+03  0.32539202212E+03  0.12509075990E+03 0.  0.
          5    1    3    3  502    0  0.10105804374E+03  0.11949280396E+03 -0.15782310188E+03  0.22229903799E+03  0.41800000000E+01 0. -1.
         -5    1    3    3    0  502 -0.30001847334E+02  0.84186028069E+02 -0.51218090663E+02  0.10309298413E+03  0.41800000000E+01 0. -1.
        -11    1    1    2    0    0 -0.45817232524E+02 -0.15498672134E+03 -0.54056154781E+03  0.56420465219E+03  0.00000000000E+00 0. -1.
         11    1    1    2    0    0 -0.25238963878E+02 -0.48692110692E+02 -0.61477378987E+02  0.82385648437E+02  0.00000000000E+00 0.  1.
</event>
<event>
 7    1  0.2661133E-009  0.1409261E+03  0.7561462E-02  0.1212088E+00
         -3   -1    0    0    0  501 -0.00000000000E+00  0.00000000000E+00  0.15442335825E+04  0.15442335825E+04  0.00000000000E+00 0.  1.
          3   -1    0    0  501    0  0.00000000000E+00 -0.00000000000E+00 -0.18336696374E+02  0.18336696374E+02  0.00000000000E+00 0. -1.
         25    2    1    2    0    0 -0.70479035679E+02  0.86568033545E+02  0.11096748546E+04  0.11222688031E+04  0.12509062487E+03 0.  0.
          5    1    3    3  502    0 -0.55757171874E+02 -0.12975428968E+02  0.23936202132E+03  0.24614807256E+03  0.41800000000E+01 0.  1.
         -5    1    3    3    0  502 -0.14721863805E+02  0.99543462513E+02  0.87031283332E+03  0.87612073052E+03  0.41800000000E+01 0.  1.
        -11    1    1    2    0    0  0.10469694540E+02 -0.54895478967E+02  0.30451482164E+03  0.30960039521E+03  0.00000000000E+00 0.  1.
         11    1    1    2    0    0  0.60009341139E+02 -0.31672554578E+02  0.11170720987E+03  0.13070108062E+03  0.00000000000E+00 0. -1.
</event>
<event>
 7    1  0.2661133E-009  0.1782998E+03  0.7561462E-02  0.1169459E+00
         -3   -1    0    0    0  501 -0.00000000000E+00  0.00000000000E+00  0.12649583606E+03  0.12649583606E+03  0.00000000000E+00 0.  1.
          3   -1    0    0  501    0  0.00000000000E+00 -0.00000000000E+00 -0.35431297763E+03  0.35431297763E+03  0.00000000000E+00 0. -1.
         25    2    1    2    0    0  0.26230205877E+02 -0.17078326619E+03 -0.18433763262E+03  0.28192625661E+03  0.12508838336E+03 0.  0.
          5    1    3    3  502    0  0.29652734626E+02 -0.10162169284E+03 -0.18427008824E+03  0.21255397184E+03  0.41800000000E+01 0.  1.
         -5    1    3    3    0  502 -0.34225287488E+01 -0.69161573348E+02 -0.67544383393E-01  0.69372284763E+02  0.41800000000E+01 0.  1.
        -11    1    1    2    0    0  0.16695526068E+02  0.33208658528E+02  0.19072567687E+02  0.41777008391E+02  0.00000000000E+00 0.  1.
         11    1    1    2    0    0 -0.42925731945E+02  0.13757460766E+03 -0.62552076638E+02  0.15710554869E+03  0.00000000000E+00 0. -1.
</event>
<event>
 7    1  0.2661133E-009  0.8239253E+02  0.7561462E-02  0.1322396E+00
         -2   -1    0    0    0  501 -0.00000000000E+00  0.00000000000E+00  0.57897679648E+02  0.57897679648E+02  0.00000000000E+00 0. -1.
          2   -1    0    0  501    0  0.00000000000E+00 -0.00000000000E+00 -0.32177372248E+03  0.32177372248E+03  0.00000000000E+00 0.  1.
         25    2    1    2    0    0  0.34670804408E+02  0.33797232097E+02 -0.51590856417E+02  0.14371003864E+03  0.12508653470E+03 0.  0.
          5    1    3    3  502    0 -0.67607100529E+01  0.32788625426E+02 -0.84266099392E+02  0.90769207689E+02  0.41800000000E+01 0. -1.
         -5    1    3    3    0  502  0.41431514461E+02  0.10086066710E+01  0.32675242976E+02  0.52940830948E+02  0.41800000000E+01 0. -1.
        -11    1    1    2    0    0  0.18905099519E+02  0.88893214016E+01 -0.11557669131E+03  0.11744953979E+03  0.00000000000E+00 0.  1.
         11    1    1    2    0    0 -0.53575903928E+02 -0.42686553498E+02 -0.96708495112E+02  0.11851182371E+03  0.00000000000E+00 0. -1.
</event>
<event>
 7    1  0.2661133E-009  0.1756271E+03  0.7561462E-02  0.1172104E+00
          1   -1    0    0  501    0  0.00000000000E+00  0.00000000000E+00  0.68318068970E+03  0.68318068970E+03  0.00000000000E+00 0.  1.
         -1   -1    0    0    0  501 -0.00000000000E+00 -0.00000000000E+00 -0.50425376630E+02  0.50425376630E+02  0.00000000000E+00 0. -1.
         25    2    1    2    0    0  0.10802867982E+03  0.92047111440E+02  0.43461742754E+03  0.47400854797E+03  0.12509567875E+03 0.  0.
          5    1    3    3  502    0  0.54337579320E+02 -0.24790260515E+02  0.12009701499E+03  0.13419349817E+03  0.41800000000E+01 0. -1.
         -5    1    3    3    0  502  0.53691100495E+02  0.11683737195E+03  0.31452041255E+03  0.33981504980E+03  0.41800000000E+01 0. -1.
        -11    1    1    2    0    0 -0.54717117008E+02  0.18578205212E+01  0.38745961797E+02  0.67072080230E+02  0.00000000000E+00 0. -1.
         11    1    1    2    0    0 -0.53311562807E+02 -0.93904931961E+02  0.15939192374E+03  0.19252543813E+03  0.00000000000E+00 0.  1.
</event>
<event>
 7    1  0.2661133E-009  0.1744401E+03  0.7561462E-02  0.1173295E+00
         -2   -1    0    0    0  501 -0.00000000000E+00  0.00000000000E+00  0.35403086902E+02  0.35403086902E+02  0.00000000000E+00 0.  1.
          2   -1    0    0  501    0  0.00000000000E+00 -0.00000000000E+00 -0.11198616048E+04  0.11198616048E+04  0.00000000000E+00 0. -1.
         25    2    1    2    0    0 -0.14299618230E+03 -0.56821657197E+02 -0.38285928823E+03  0.43116882297E+03  0.12509480579E+03 0.  0.
          5    1    3    3  502    0 -0.15315762405E+03 -0.48004375291E+02 -0.24711032216E+03  0.29469078976E+03  0.41800000000E+01 0. -1.
         -5    1    3    3    0  502  0.10161441751E+02 -0.88172819060E+01 -0.13574896607E+03  0.13647803321E+03  0.41800000000E+01 0. -1.
        -11    1    1    2    0    0  0.71268903868E+02 -0.14888729633E+02 -0.21359220004E+03  0.22566027308E+03  0.00000000000E+00 0.  1.
         11    1    1    2    0    0  0.71727278429E+02  0.71710386830E+02 -0.48800702962E+03  0.49843559565E+03  0.00000000000E+00 0. -1.
</event>
<event>
 7    1  0.2661133E-009  0.2050487E+03  0.7561462E-02  0.1145548E+00
         -2   -1    0    0    0  501 -0.00000000000E+00  0.00000000000E+00  0.21228489561E+03  0.21228489561E+03  0.00000000000E+00 0.  1.
          2   -1    0    0  501    0  0.00000000000E+00 -0.00000000000E+00 -0.21006607429E+03  0.21006607429E+03  0.00000000000E+00 0. -1.
         25    2    1    2    0    0 -0.11110330922E+03 -0.14058472074E+03 -0.68949436356E+01  0.21863614088E+03  0.12508482253E+03 0.  0.
          5    1    3    3  502    0  0.62209248989E+01 -0.79901950935E+02 -0.27606843716E+02  0.84868320885E+02  0.41800000000E+01 0. -1.
         -5    1    3    3    0  502 -0.11732423412E+03 -0.60682769802E+02  0.20711900081E+02  0.13376782000E+03  0.41800000000E+01 0. -1.
        -11    1    1    2    0    0  0.66501203827E+02  0.13779266732E+03 -0.13563809670E+02  0.15360080147E+03  0.00000000000E+00 0. -1.
         11    1    1    2    0    0  0.44602105389E+02  0.27920534148E+01  0.22677574622E+02  0.50114027558E+02  0.00000000000E+00 0.  1.
</event>
<event>
 7    1  0.2661133E-009  0.8395241E+02  0.7561462E-02  0.1318195E+00
         -1   -1    0    0    0  501 -0.00000000000E+00  0.00000000000E+00  0.11018910802E+03  0.11018910802E+03  0.00000000000E+00 0.  1.
          1   -1    0    0  501    0  0.00000000000E+00 -0.00000000000E+00 -0.12427012516E+03  0.12427012516E+03  0.00000000000E+00 0. -1.
         25    2    1    2    0    0  0.46952274572E+01 -0.42435613661E+02  0.21639750131E+01  0.13219420957E+03  0.12509116591E+03 0.  0.
          5    1    3    3  502    0 -0.37425837483E+02  0.11487874354E+02  0.38104975064E+02  0.54791660799E+02  0.41800000000E+01 0. -1.
         -5    1    3    3    0  502  0.42121064940E+02 -0.53923488015E+02 -0.35941000051E+02  0.77402548770E+02  0.41800000000E+01 0. -1.
        -11    1    1    2    0    0  0.18439662455E+02  0.24731566005E+02  0.32921256643E+02  0.45116301349E+02  0.00000000000E+00 0.  1.
         11    1    1    2    0    0 -0.23134889912E+02  0.17704047656E+02 -0.49166248795E+02  0.57148722254E+02  0.00000000000E+00 0. -1.
</event>
<event>
 7    1  0.2661133E-009  0.1719050E+03  0.7561462E-02  0.1175876E+00
          1   -1    0    0  501    0  0.00000000000E+00  0.00000000000E+00  0.15347840415E+03  0.15347840415E+03  0.00000000000E+00 0. -1.
         -1   -1    0    0    0  501 -0.00000000000E+00 -0.00000000000E+00 -0.21530016841E+03  0.21530016841E+03  0.00000000000E+00 0.  1.
         25    2    1    2    0    0  0.71061849894E+02 -0.11584430027E+03 -0.79965868143E+02  0.20124804884E+03  0.12504618619E+03 0.  0.
          5    1    3    3  502    0  0.74442896043E+02 -0.13721135622E+03 -0.86170732903E+02  0.17835797895E+03  0.41800000000E+01 0.  1.
         -5    1    3    3    0  502 -0.33810461492E+01  0.21367055949E+02  0.62048647594E+01  0.22890069892E+02  0.41800000000E+01 0.  1.
        -11    1    1    2    0    0 -0.23993673363E+02 -0.13808960826E+02 -0.35218603250E+01  0.27906760125E+02  0.00000000000E+00 0.  1.
         11    1    1    2    0    0 -0.47068176531E+02  0.12965326110E+03  0.21665964212E+02  0.13962376359E+03  0.00000000000E+00 0. -1.
</event>
<event>
 7    1  0.2661133E-009  0.1248105E+03  0.7561462E-02  0.1235366E+00
         -1   -1    0    0    0  501 -0.00000000000E+00  0.00000000000E+00  0.18319037441E+03  0.18319037441E+03  0.00000000000E+00 0. -1.
          1   -1    0    0  501    0  0.00000000000E+00 -0.00000000000E+00 -0.12055582434E+03  0.12055582434E+03  0.00000000000E+00 0.  1.
         25    2    1    2    0    0  0.24898050293E+02  0.54404951644E+02  0.11302069806E+03  0.17888151224E+03  0.12508039638E+03 0.  0.
          5    1    3    3  502    0 -0.22978364808E+02 -0.30519651925E+02  0.17142506763E+02  0.42080783512E+02  0.41800000000E+01 0. -1.
         -5    1    3    3    0  502  0.47876415100E+02  0.84924603569E+02  0.95878191296E+02  0.13680072873E+03  0.41800000000E+01 0. -1.
        -11    1    1    2    0    0  0.31018570528E+02  0.56774343772E+01 -0.82065117577E+01  0.32584226459E+02  0.00000000000E+00 0. -1.
         11    1    1    2    0    0 -0.55916620821E+02 -0.60082386021E+02 -0.42179636235E+02  0.92280460050E+02  0.00000000000E+00 0.  1.
</event>
<event>
 7    1  0.2661133E-009  0.1166788E+03  0.7561462E-02  0.1248679E+00
         -1   -1    0    0    0  501 -0.00000000000E+00  0.00000000000E+00  0.20475321163E+03  0.20475321163E+03  0.00000000000E+00 0.  1.
          1   -1    0    0  501    0  0.00000000000E+00 -0.00000000000E+00 -0.94047807228E+02  0.94047807228E+02  0.00000000000E+00 0. -1.
         25    2    1    2    0    0  0.41306970048E+02 -0.63810242716E+02  0.22646386259E+02  0.14811558912E+03  0.12508939236E+03 0.  0.
          5    1    3    3  502    0  0.80291501634E+02 -0.69996135787E+02  0.18682484283E+02  0.10822519059E+03  0.41800000000E+01 0. -1.
         -5    1    3    3    0  502 -0.38984531586E+02  0.61858930707E+01  0.39639019756E+01  0.39890398531E+02  0.41800000000E+01 0. -1.
        -11    1    1    2    0    0 -0.33948488412E+02  0.14014074501E+02  0.93113822557E+02  0.10009534505E+03  0.00000000000E+00 0.  1.
         11    1    1    2    0    0 -0.73584816357E+01  0.49796168215E+02 -0.50548044114E+01  0.50590084686E+02  0.00000000000E+00 0. -1.
</event>
<event>
 7    1  0.2661133E-009  0.1329871E+03  0.7561462E-02  0.1223090E+00
          1   -1    0    0  501    0  0.00000000000E+00  0.00000000000E+00  0.37227794882E+03  0.37227794882E+03  0.00000000000E+00 0. -1.
         -1   -1    0    0    0  501 -0.00000000000E+00 -0.00000000000E+00 -0.74406351105E+02  0.74406351105E+02  0.00000000000E+00 0.  1.
         25    2    1    2    0    0 -0.83075973845E+02  0.81761359035E+02  0.95695044184E+02  0.19593608591E+03  0.12508745349E+03 0.  0.
          5    1    3    3  502    0 -0.71608990999E+02  0.95194266642E+02  0.23492447430E+02  0.12148729761E+03  0.41800000000E+01 0.  1.
         -5    1    3    3    0  502 -0.11466982845E+02 -0.13432907607E+02  0.72202596754E+02  0.74448788307E+02  0.41800000000E+01 0.  1.
        -11    1    1    2    0    0  0.18600675978E+02  0.61667809448E+01 -0.15724980235E+01  0.19659274760E+02  0.00000000000E+00 0.  1.
         11    1    1    2    0    0  0.64475297867E+02 -0.87928139980E+02  0.20374905156E+03  0.23108893925E+03  0.00000000000E+00 0. -1.
</event>
<event>
 7    1  0.2661133E-009  0.1231712E+03  0.7561462E-02  0.1237955E+00
         -4   -1    0    0    0  501 -0.00000000000E+00  0.00000000000E+00  0.30240239577E+03  0.30240239577E+03  0.00000000000E+00 0.  1.
          4   -1    0    0  501    0  0.00000000000E+00 -0.00000000000E+00 -0.94572046554E+02  0.94572046554E+02  0.00000000000E+00 0. -1.
         25    2    1    2    0    0  0.20530953494E+01 -0.86744097715E+02 -0.29558423297E+01  0.15225572518E+03  0.12507723676E+03 0.  0.
          5    1    3    3  502    0  0.11819909743E+02  0.18309140536E+02 -0.35412770011E+02  0.41790807283E+02  0.41800000000E+01 0. -1.
         -5    1    3    3    0  502 -0.97668143936E+01 -0.10505323825E+03  0.32456927682E+02  0.11046491789E+03  0.41800000000E+01 0. -1.
        -11    1    1    2    0    0  0.30474261633E+02  0.79636631548E+02  0.18085478253E+03  0.19994780837E+03  0.00000000000E+00 0.  1.
         11    1    1    2    0    0 -0.32527356982E+02  0.71074661675E+01  0.29931409018E+02  0.44770908784E+02  0.00000000000E+00 0. -1.
</event>
<event>
 7    1  0.2661133E-009  0.1599325E+03  0.7561462E-02  0.1188773E+00
         -1   -1    0    0    0  501 -0.00000000000E+00  0.00000000000E+00  0.51369643001E+02  0.51369643001E+02  0.00000000000E+00 0.  1.
          1   -1    0    0  501    0  0.00000000000E+00 -0.00000000000E+00 -0.55142869639E+03  0.55142869639E+03  0.00000000000E+00 0. -1.
         25    2    1    2    0    0  0.11369722059E+02  0.12027305682E+03 -0.34656498193E+03  0.38774880023E+03  0.12508783555E+03 0.  0.
          5    1    3    3  502    0  0.25801403195E+01  0.14438895310E+03 -0.26097984885E+03  0.29829981698E+03  0.41800000000E+01 0. -1.
         -5    1    3    3    0  502  0.87895817391E+01 -0.24115896284E+02 -0.85585133076E+02  0.89448983250E+02  0.41800000000E+01 0. -1.
        -11    1    1    2    0    0 -0.19218253942E+02 -0.13302875181E+03 -0.14546698923E+03  0.19805715096E+03  0.00000000000E+00 0. -1.
         11    1    1    2    0    0  0.78485318833E+01  0.12755694995E+02 -0.80270822348E+01  0.16992388200E+02  0.00000000000E+00 0.  1.
</event>
<event>
 7    1  0.2661133E-009  0.9874204E+02  0.7561462E-02  0.1282964E+00
          3   -1    0    0  501    0  0.00000000000E+00  0.00000000000E+00  0.43080187003E+02  0.43080187003E+02  0.00000000000E+00 0.  1.
         -3   -1    0    0    0  501 -0.00000000000E+00 -0.00000000000E+00 -0.28352086376E+03  0.28352086376E+03  0.00000000000E+00 0. -1.
         25    2    1    2    0    0 -0.10775627016E+02  0.19046136955E+02 -0.10707693996E+03  0.16609741851E+03  0.12507602445E+03 0.  0.
          5    1    3    3  502    0 -0.90140523411E+01  0.64659248414E+02 -0.21225861028E+02  0.68775585213E+02  0.41800000000E+01 0.  1.
         -5    1    3    3    0  502 -0.17615746746E+01 -0.45613111458E+02 -0.85851078932E+02  0.97321833295E+02  0.41800000000E+01 0.  1.
        -11    1    1    2    0    0  0.46627775484E+02 -0.19067051647E+02 -0.97762096946E+02  0.10997785916E+03  0.00000000000E+00 0. -1.
         11    1    1    2    0    0 -0.35852148468E+02  0.20914692029E-01 -0.35601639853E+02  0.50525773101E+02  0.00000000000E+00 0.  1.
</event>
<event>
 7    1  0.2661133E-009  0.7771540E+02  0.7561462E-02  0.1335663E+00
          2   -1    0    0  501    0  0.00000000000E+00  0.00000000000E+00  0.62267300114E+02  0.62267300114E+02  0.00000000000E+00 0. -1.
         -2   -1    0    0    0  501 -0.00000000000E+00 -0.00000000000E+00 -0.22820370074E+03  0.22820370074E+03  0.00000000000E+00 0.  1.
         25    2    1    2    0    0 -0.44907123189E+02  0.14113576535E+02 -0.77072853466E+02  0.15428424758E+03  0.12509021367E+03 0.  0.
          5    1    3    3  502    0 -0.13871693903E+02 -0.59330732226E+01 -0.10601541893E+03  0.10716513752E+03  0.41800000000E+01 0.  1.
         -5    1    3    3    0  502 -0.31035429286E+02  0.20046649758E+02  0.28942565463E+02  0.47119110062E+02  0.41800000000E+01 0.  1.
        -11    1    1    2    0    0 -0.58967483449E+00  0.35368490880E+02 -0.23788819257E+02  0.42628462148E+02  0.00000000000E+00 0. -1.
         11    1    1    2    0    0  0.45496798024E+02 -0.49482067415E+02 -0.65074727905E+02  0.93558291124E+02  0.00000000000E+00 0.  1.
</event>
<event>
 7    1  0.2661133E-009  0.2375554E+03  0.7561462E-02  0.1121432E+00
         -1   -1    0    0    0  501 -0.00000000000E+00  0.00000000000E+00  0.35309995291E+03  0.35309995291E+03  0.00000000000E+00 0.  1.
          1   -1    0    0  501    0  0.00000000000E+00 -0.00000000000E+00 -0.21743575953E+03  0.21743575953E+03  0.00000000000E+00 0. -1.
         25    2    1    2    0    0 -0.22956763750E+03 -0.18254228680E+01 -0.43802408104E+02  0.26508485561E+03  0.12508675934E+03 0.  0.
          5    1    3    3  502    0 -0.16545795806E+03  0.16156307379E+02  0.26239292010E+02  0.16835478905E+03  0.41800000000E+01 0.  1.
         -5    1    3    3    0  502 -0.64109679440E+02 -0.17981730247E+02 -0.70041700113E+02  0.96730066553E+02  0.41800000000E+01 0.  1.
        -11    1    1    2    0    0  0.14387297001E+03 -0.36183067477E+02  0.79139575685E+02  0.16814195881E+03  0.00000000000E+00 0. -1.
         11    1    1    2    0    0  0.85694667483E+02  0.38008490345E+02  0.10032702580E+03  0.13730889803E+03  0.00000000000E+00 0.  1.
</event>
<event>
 7    1  0.2661133E-009  0.1145622E+03  0.7561462E-02  0.1252347E+00
          1   -1    0    0  501    0  0.00000000000E+00  0.00000000000E+00  0.36431702780E+03  0.36431702780E+03  0.00000000000E+00 0. -1.
         -1   -1    0    0    0  501 -0.00000000000E+00 -0.00000000000E+00 -0.11491139157E+03  0.11491139157E+03  0.00000000000E+00 0.  1.
         25    2    1    2    0    0 -0.23629177369E+01 -0.65943796745E+02 -0.56620029496E+02  0.15233980543E+03  0.12508965132E+03 0.  0.
          5    1    3    3  502    0  0.16304529371E+02 -0.91228763134E+02 -0.71683788983E+02  0.11723720785E+03  0.41800000000E+01 0.  1.
         -5    1    3    3    0  502 -0.18667447108E+02  0.25284966388E+02  0.15063759487E+02  0.35102597577E+02  0.41800000000E+01 0.  1.
        -11    1    1    2    0    0  0.18630431163E+02 -0.13850096697E+02  0.24205186755E+02  0.33538175408E+02  0.00000000000E+00 0.  1.
         11    1    1    2    0    0 -0.16267513426E+02  0.79793893443E+02  0.28182047897E+03  0.29335043854E+03  0.00000000000E+00 0. -1.
</event>
<event>
 7    1  0.2661133E-009  0.1425629E+03  0.7561462E-02  0.1209921E+00
         -2   -1    0    0    0  501 -0.00000000000E+00  0.00000000000E+00  0.44785873695E+02  0.44785873695E+02  0.00000000000E+00 0.  1.
          2   -1    0    0  501    0  0.00000000000E+00 -0.00000000000E+00 -0.59745383403E+03  0.59745383403E+03  0.00000000000E+00 0. -1.
         25    2    1    2    0    0 -0.10576731941E+03  0.46170338817E+02 -0.37453278845E+03  0.41139932145E+03  0.12512460201E+03 0.  0.
          5    1    3    3  502    0 -0.10853158168E+03 -0.12618246103E+02 -0.27112297692E+03  0.29234135077E+03  0.41800000000E+01 0.  1.
         -5    1    3    3    0  502  0.27642622745E+01  0.58788584919E+02 -0.10340981152E+03  0.11905797068E+03  0.41800000000E+01 0.  1.
        -11    1    1    2    0    0  0.27521072575E+02 -0.20894004623E+02 -0.13222305617E+03  0.13666347518E+03  0.00000000000E+00 0. -1.
         11    1    1    2    0    0  0.78246246831E+02 -0.25276334194E+02 -0.45912115720E+02  0.94176911095E+02  0.00000000000E+00 0.  1.
</event>
<event>
 7    1  0.2661133E-009  0.9881800E+02  0.7561462E-02  0.1282801E+00
         -2   -1    0    0    0  501 -0.00000000000E+00  0.00000000000E+00  0.25148692949E+02  0.25148692949E+02  0.00000000000E+00 0.  1.
          2   -1    0    0  501    0  0.00000000000E+00 -0.00000000000E+00 -0.60355730492E+03  0.60355730492E+03  0.00000000000E+00 0. -1.
         25    2    1    2    0    0  0.49449730822E+02  0.31785889358E+02 -0.32501678869E+03  0.35318433605E+03  0.12509054184E+03 0.  0.
          5    1    3    3  502    0  0.17021342595E+02 -0.40773026097E+02 -0.20089775001E+03  0.20574144969E+03  0.41800000000E+01 0.  1.
         -5    1    3    3    0  502  0.32428388227E+02  0.72558915455E+02 -0.12411903867E+03  0.14744288635E+03  0.41800000000E+01 0.  1.
        -11    1    1    2    0    0 -0.33733523851E+02  0.45896311870E+01 -0.21491861771E+02  0.40260594484E+02  0.00000000000E+00 0.  1.
         11    1    1    2    0    0 -0.15716206971E+02 -0.36375520545E+02 -0.23189996151E+03  0.23526106734E+03  0.00000000000E+00 0. -1.
</event>
<event>
 7    1  0.2661133E-009  0.1482852E+03  0.7561462E-02  0.1202596E+00
         -2   -1    0    0    0  501 -0.00000000000E+00  0.00000000000E+00  0.10565596124E+03  0.10565596124E+03  0.00000000000E+00 0.  1.
          2   -1    0    0  501    0  0.00000000000E+00 -0.00000000000E+00 -0.29230837399E+03  0.29230837399E+03  0.00000000000E+00 0. -1.
         25    2    1    2    0    0 -0.12133632933E+03 -0.43643042966E+02 -0.42565945746E+02  0.18462565960E+03  0.12509018519E+03 0.  0.
          5    1    3    3  502    0 -0.22908015596E+02  0.29226928126E+02  0.24742892364E+02  0.44818228756E+02  0.41800000000E+01 0. -1.
         -5    1    3    3    0  502 -0.98428313729E+02 -0.72869971092E+02 -0.67308838111E+02  0.13980743084E+03  0.41800000000E+01 0. -1.
        -11    1    1    2    0    0  0.50739679634E+02 -0.49174074575E+01 -0.10978369062E+03  0.12104195434E+03  0.00000000000E+00 0. -1.
         11    1    1    2    0    0  0.70596649691E+02  0.48560450424E+02 -0.34302776389E+02  0.92296721291E+02  0.00000000000E+00 0.  1.
</event>
<event>
 7    1  0.2661133E-009  0.2028629E+03  0.7561462E-02  0.1147346E+00
         -4   -1    0    0    0  501 -0.00000000000E+00  0.00000000000E+00  0.50035565158E+02  0.50035565158E+02  0.00000000000E+00 0.  1.
          4   -1    0    0  501    0  0.00000000000E+00 -0.00000000000E+00 -0.85599042183E+03  0.85599042183E+03  0.00000000000E+00 0. -1.
         25    2    1    2    0    0 -0.15109726003E+03  0.82249147437E+02 -0.33902161850E+03  0.40022240126E+03  0.12508800267E+03 0.  0.
          5    1    3    3  502    0 -0.11122066182E+03  0.11544967821E+03 -0.24682335665E+03  0.29434317659E+03  0.41800000000E+01 0. -1.
         -5    1    3    3    0  502 -0.39876598203E+02 -0.33200530773E+02 -0.92198261855E+02  0.10587922467E+03  0.41800000000E+01 0. -1.
        -11    1    1    2    0    0  0.88802994726E+02 -0.94653719474E+02 -0.28682984805E+03  0.31482798512E+03  0.00000000000E+00 0.  1.
         11    1    1    2    0    0  0.62294265301E+02  0.12404572037E+02 -0.18010339011E+03  0.19097560060E+03  0.00000000000E+00 0. -1.
</event>
<event>
 7    1  0.2661133E-009  0.8534914E+02  0.7561462E-02  0.1314522E+00
          3   -1    0    0  501    0  0.00000000000E+00  0.00000000000E+00  0.10504936711E+03  0.10504936711E+03  0.00000000000E+00 0. -1.
         -3   -1    0    0    0  501 -0.00000000000E+00 -0.00000000000E+00 -0.12863636623E+03  0.12863636623E+03  0.00000000000E+00 0.  1.
         25    2    1    2    0    0 -0.27661544566E+02  0.13457080888E+02  0.13068822359E+02  0.12947758628E+03  0.12508955654E+03 0.  0.
          5    1    3    3  502    0 -0.72594727518E+02 -0.35547710791E+01 -0.14055047845E+02  0.74146123504E+02  0.41800000000E+01 0. -1.
         -5    1    3    3    0  502  0.44933182952E+02  0.17011851968E+02  0.27123870204E+02  0.55331462771E+02  0.41800000000E+01 0. -1.
        -11    1    1    2    0    0  0.18371223306E+02  0.12419575154E+02  0.26958228104E+02  0.34906929903E+02  0.00000000000E+00 0. -1.
         11    1    1    2    0    0  0.92903212596E+01 -0.25876656042E+02 -0.63614049581E+02  0.69301217169E+02  0.00000000000E+00 0.  1.
</event>
<event>
 7    1  0.2661133E-009  0.1099960E+03  0.7561462E-02  0.1260577E+00
         -1   -1    0    0    0  501 -0.00000000000E+00  0.00000000000E+00  0.30830605318E+03  0.30830605318E+03  0.00000000000E+00 0.  1.
          1   -1    0    0  501    0  0.00000000000E+00 -0.00000000000E+00 -0.61152952591E+02  0.61152952591E+02  0.00000000000E+00 0. -1.
         25    2    1    2    0    0 -0.18879406728E+01  0.18907584616E+02  0.40338378217E+02  0.13279947144E+03  0.12508978288E+03 0.  0.
          5    1    3    3  502    0 -0.59964666627E+02  0.92517150800E+01  0.41735199402E+02  0.73760794090E+02  0.41800000000E+01 0.  1.
         -5    1    3    3    0  502  0.58076725955E+02  0.96558695358E+01 -0.13968211847E+01  0.59038677352E+02  0.41800000000E+01 0.  1.
        -11    1    1    2    0    0 -0.23768827489E+02 -0.52647862775E+02  0.17314648249E+03  0.18252796776E+03  0.00000000000E+00 0.  1.
         11    1    1    2    0    0  0.25656768162E+02  0.33740278159E+02  0.33668239884E+02  0.54131566573E+02  0.00000000000E+00 0. -1.
</event>
<event>
 7    1  0.2661133E-009  0.1173019E+03  0.7561462E-02  0.1247616E+00
         -2   -1    0    0    0  501 -0.00000000000E+00  0.00000000000E+00  0.81672343489E+01  0.81672343489E+01  0.00000000000E+00 0.  1.
          2   -1    0    0  501    0  0.00000000000E+00 -0.00000000000E+00 -0.21867783368E+04  0.21867783368E+04  0.00000000000E+00 0. -1.
         25    2    1    2    0    0  0.53373103945E+02  0.32739792604E+02 -0.15674279607E+04  0.15736575662E+04  0.12508853478E+03 0.  0.
          5    1    3    3  502    0  0.71977163112E+02  0.57283375375E+02 -0.14203345056E+04  0.14233164361E+04  0.41800000000E+01 0.  1.
         -5    1    3    3    0  502 -0.18604059167E+02 -0.24543582771E+02 -0.14709345502E+03  0.15034113005E+03  0.41800000000E+01 0.  1.
        -11    1    1    2    0    0  0.22304908483E+02 -0.27741334567E+02 -0.21095857703E+03  0.21394067357E+03  0.00000000000E+00 0. -1.
         11    1    1    2    0    0 -0.75678012428E+02 -0.49984580370E+01 -0.40022456479E+03  0.40734733141E+03  0.00000000000E+00 0.  1.
</event>
<event>
 7    1  0.2661133E-009  0.6772874E+02  0.7561462E-02  0.1367991E+00
         -2   -1    0    0    0  501 -0.00000000000E+00  0.00000000000E+00  0.75668739502E+02  0.75668739502E+02  0.00000000000E+00 0.  1.
          2   -1    0    0  501    0  0.00000000000E+00 -0.00000000000E+00 -0.18394664992E+03  0.18394664992E+03  0.00000000000E+00 0. -1.
         25    2    1    2    0    0  0.19717776908E+01  0.24966807036E+02 -0.10299793606E+03  0.16396057546E+03  0.12508903273E+03 0.  0.
          5    1    3    3  502    0 -0.32303314284E+02 -0.18113557796E+01 -0.11426893184E+03  0.11883453332E+03  0.41800000000E+01 0. -1.
         -5    1    3    3    0  502  0.34275091975E+02  0.26778162816E+02  0.11270995780E+02  0.45126042144E+02  0.41800000000E+01 0. -1.
        -11    1    1    2    0    0 -0.47444698667E+01 -0.41805193709E+02  0.33177529277E+02  0.53581084948E+02  0.00000000000E+00 0.  1.
         11    1    1    2    0    0  0.27726921759E+01  0.16838386672E+02 -0.38457503626E+02  0.42073729009E+02  0.00000000000E+00 0. -1.
</event>
<event>
 7    1  0.2661133E-009  0.1127900E+03  0.7561462E-02  0.1255489E+00
          2   -1    0    0  501    0  0.00000000000E+00  0.00000000000E+00  0.23525768245E+03  0.23525768245E+03  0.00000000000E+00 0. -1.
         -2   -1    0    0    0  501 -0.00000000000E+00 -0.00000000000E+00 -0.93222371804E+02  0.93222371804E+02  0.00000000000E+00 0.  1.
         25    2    1    2    0    0 -0.99545167757E+02  0.54611903273E+01  0.69436643994E+02  0.17438361370E+03  0.12509649146E+03 0.  0.
          5    1    3    3  502    0 -0.75362906889E+02  0.34960719848E+02 -0.12300882919E+02  0.84086882376E+02  0.41800000000E+01 0. -1.
         -5    1    3    3    0  502 -0.24182260867E+02 -0.29499529521E+02  0.81737526913E+02  0.90296731328E+02  0.41800000000E+01 0. -1.
        -11    1    1    2    0    0  0.12876116177E+02 -0.11338540784E+02  0.64624429427E+02  0.66863097099E+02  0.00000000000E+00 0. -1.
         11    1    1    2    0    0  0.86669051580E+02  0.58773504568E+01  0.79742372245E+01  0.87233343450E+02  0.00000000000E+00 0.  1.
</event>
<event>
 7    1  0.2661133E-009  0.1428494E+03  0.7561462E-02  0.1209545E+00
          2   -1    0    0  501    0  0.00000000000E+00  0.00000000000E+00  0.57775023463E+03  0.57775023463E+03  0.00000000000E+00 0. -1.
         -2   -1    0    0    0  501 -0.00000000000E+00 -0.00000000000E+00 -0.47613125922E+02  0.47613125922E+02  0.00000000000E+00 0.  1.
         25    2    1    2    0    0 -0.94680541210E+01  0.12186905076E+03  0.33666356622E+03  0.37938096140E+03  0.12508336208E+03 0.  0.
          5    1    3    3  502    0 -0.41480572334E+02  0.44180387610E+02  0.44379440318E+02  0.75229991715E+02  0.41800000000E+01 0. -1.
         -5    1    3    3    0  502  0.32012518213E+02  0.77688663150E+02  0.29228412590E+03  0.30415096968E+03  0.41800000000E+01 0. -1.
        -11    1    1    2    0    0  0.34807085613E+02 -0.31414777573E+02  0.11280800632E+03  0.12216410172E+03  0.00000000000E+00 0. -1.
         11    1    1    2    0    0 -0.25339031492E+02 -0.90454273187E+02  0.80665536171E+02  0.12381829744E+03  0.00000000000E+00 0.  1.
</event>
<event>
 7    1  0.2661133E-009  0.9925112E+02  0.7561462E-02  0.1281879E+00
          2   -1    0    0  501    0  0.00000000000E+00  0.00000000000E+00  0.39262279828E+03  0.39262279828E+03  0.00000000000E+00 0. -1.
         -2   -1    0    0    0  501 -0.00000000000E+00 -0.00000000000E+00 -0.35773742834E+02  0.35773742834E+02  0.00000000000E+00 0.  1.
         25    2    1    2    0    0 -0.42469950119E+02 -0.46472651299E+01  0.19642682482E+03  0.23676334734E+03  0.12509233148E+03 0.  0.
          5    1    3    3  502    0 -0.80170034455E+02  0.14853997894E+02  0.16395895659E+03  0.18316082420E+03  0.41800000000E+01 0. -1.
         -5    1    3    3    0  502  0.37700084336E+02 -0.19501263024E+02  0.32467868237E+02  0.53602523134E+02  0.41800000000E+01 0. -1.
        -11    1    1    2    0    0 -0.65346370982E+01  0.21435645384E+02 -0.66772253644E+00  0.22419505535E+02  0.00000000000E+00 0.  1.
         11    1    1    2    0    0  0.49004587217E+02 -0.16788380254E+02  0.16108995315E+03  0.16921368824E+03  0.00000000000E+00 0. -1.
</event>
<event>
 7    1  0.2661133E-009  0.1190733E+03  0.7561462E-02  0.1244634E+00
          1   -1    0    0  501    0  0.00000000000E+00  0.00000000000E+00  0.88073133562E+02  0.88073133562E+02  0.00000000000E+00 0. -1.
         -1   -1    0    0    0  501 -0.00000000000E+00 -0.00000000000E+00 -0.36324269652E+03  0.36324269652E+03  0.00000000000E+00 0.  1.
         25    2    1    2    0    0  0.24122698753E+02  0.80210821675E+02 -0.28900895395E+03  0.32586633815E+03  0.12508802648E+03 0.  0.
          5    1    3    3  502    0 -0.44314355652E+02 -0.36743506715E+00 -0.77587998794E+02  0.89449802025E+02  0.41800000000E+01 0.  1.
         -5    1    3    3    0  502  0.68437054405E+02  0.80578256742E+02 -0.21142095515E+03  0.23641653612E+03  0.41800000000E+01 0.  1.
        -11    1    1    2    0    0  0.57645222672E+01 -0.10347427035E+02  0.42588599633E+02  0.44205065116E+02  0.00000000000E+00 0. -1.
         11    1    1    2    0    0 -0.29887221020E+02 -0.69863394640E+02 -0.28749208640E+02  0.81244426814E+02  0.00000000000E+00 0.  1.
</event>
<event>
 7    1  0.2661133E-009  0.7244057E+02  0.7561462E-02  0.1351985E+00
         -2   -1    0    0    0  501 -0.00000000000E+00  0.00000000000E+00  0.18500241549E+02  0.18500241549E+02  0.00000000000E+00 0.  1.
          2   -1    0    0  501    0  0.00000000000E+00 -0.00000000000E+00 -0.87374513448E+03  0.87374513448E+03  0.00000000000E+00 0. -1.
         25    2    1    2    0    0 -0.27981001459E+02 -0.33304031075E+02 -0.29869834885E+03  0.32674350725E+03  0.12509404862E+03 0.  0.
          5    1    3    3  502    0 -0.20938353206E+02 -0.28130050645E+02 -0.84224134324E+01  0.36305975160E+02  0.41800000000E+01 0. -1.
         -5    1    3    3    0  502 -0.70426482533E+01 -0.51739804301E+01 -0.29027593541E+03  0.29043753209E+03  0.41800000000E+01 0. -1.
        -11    1    1    2    0    0  0.23969746247E+02  0.64300806058E+02 -0.40393512774E+03  0.40972274750E+03  0.00000000000E+00 0.  1.
         11    1    1    2    0    0  0.40112552120E+01 -0.30996774983E+02 -0.15261141634E+03  0.15577912128E+03  0.00000000000E+00 0. -1.
</event>
<event>
 7    1  0.2661133E-009  0.1387924E+03  0.7561462E-02  0.1214963E+00
          1   -1    0    0  501    0  0.00000000000E+00  0.00000000000E+00  0.43579481603E+03  0.43579481603E+03  0.00000000000E+00 0. -1.
         -1   -1    0    0    0  501 -0.00000000000E+00 -0.00000000000E+00 -0.49263800438E+02  0.49263800438E+02  0.00000000000E+00 0.  1.
         25    2    1    2    0    0  0.71813813873E+02 -0.61920063790E+02  0.26770326328E+03  0.31032651632E+03  0.12508473687E+03 0.  0.
          5    1    3    3  502    0 -0.73370994569E+01  0.28566095250E+02  0.22927336645E+02  0.37589759136E+02  0.41800000000E+01 0.  1.
         -5    1    3    3    0  502  0.79150913330E+02 -0.90486159040E+02  0.24477592663E+03  0.27273675718E+03  0.41800000000E+01 0.  1.
        -11    1    1    2    0    0 -0.90787486376E+02  0.42122012549E+02  0.99918833153E+02  0.14142278756E+03  0.00000000000E+00 0.  1.
         11    1    1    2    0    0  0.18973672503E+02  0.19798051241E+02  0.18908919164E+02  0.33309312589E+02  0.00000000000E+00 0. -1.
</event>
<event>
 7    1  0.2661133E-009  0.1215158E+03  0.7561462E-02  0.1240617E+00
          2   -1    0    0  501    0  0.00000000000E+00  0.00000000000E+00  0.92633789457E+03  0.92633789457E+03  0.00000000000E+00 0. -1.
         -2   -1    0    0    0  501 -0.00000000000E+00 -0.00000000000E+00 -0.24506169255E+02  0.24506169255E+02  0.00000000000E+00 0.  1.
         25    2    1    2    0    0 -0.58013648265E+02  0.82616104016E+02  0.55686555993E+03  0.57960132539E+03  0.12508972995E+03 0.  0.
          5    1    3    3  502    0 -0.66303561993E+02  0.11694615486E+02  0.12678444087E+03  0.14361299805E+03  0.41800000000E+01 0. -1.
         -5    1    3    3    0  502  0.82899137275E+01  0.70921488531E+02  0.43008111906E+03  0.43598832734E+03  0.41800000000E+01 0. -1.
        -11    1    1    2    0    0  0.37593450287E+02 -0.31646320347E+02  0.28784947875E+03  0.29201383446E+03  0.00000000000E+00 0. -1.
         11    1    1    2    0    0  0.20420197978E+02 -0.50969783669E+02  0.57116686639E+02  0.79228903977E+02  0.00000000000E+00 0.  1.
</event>
<event>
 7    1  0.2661133E-009  0.1071581E+03  0.7561462E-02  0.1265925E+00
          2   -1    0    0  501    0  0.00000000000E+00  0.00000000000E+00  0.21950546493E+04  0.21950546493E+04  0.00000000000E+00 0. -1.
         -2   -1    0    0    0  501 -0.00000000000E+00 -0.00000000000E+00 -0.10155211222E+02  0.10155211222E+02  0.00000000000E+00 0.  1.
         25    2    1    2    0    0 -0.47295373596E+02 -0.26427919411E+02  0.18822892459E+04  0.18872189866E+04  0.12508961182E+03 0.  0.
          5    1    3    3  502    0 -0.19402754844E+02 -0.69230798360E+02  0.67273467368E+03  0.67657873445E+03  0.41800000000E+01 0. -1.
         -5    1    3    3    0  502 -0.27892618752E+02  0.42802878948E+02  0.12095545722E+04  0.12106402522E+04  0.41800000000E+01 0. -1.
        -11    1    1    2    0    0  0.92760021167E+01 -0.25238599601E+02  0.15088916030E+03  0.15326633623E+03  0.00000000000E+00 0. -1.
         11    1    1    2    0    0  0.38019371480E+02  0.51666519012E+02  0.15172103192E+03  0.16472453770E+03  0.00000000000E+00 0.  1.
</event>
<event>
 7    1  0.2661133E-009  0.1260326E+03  0.7561462E-02  0.1233464E+00
          2   -1    0    0  501    0  0.00000000000E+00  0.00000000000E+00  0.52492904444E+03  0.52492904444E+03  0.00000000000E+00 0. -1.
         -2   -1    0    0    0  501 -0.00000000000E+00 -0.00000000000E+00 -0.42222673984E+02  0.42222673984E+02  0.00000000000E+00 0.  1.
         25    2    1    2    0    0 -0.48729684472E+02 -0.80935436294E+02  0.15533860168E+03  0.22068862454E+03  0.12509300872E+03 0.  0.
          5    1    3    3  502    0  0.23637362045E+02 -0.59594715380E+02  0.22894443920E+02  0.68204713533E+02  0.41800000000E+01 0.  1.
         -5    1    3    3    0  502 -0.72367046517E+02 -0.21340720914E+02  0.13244415776E+03  0.15248391101E+03  0.41800000000E+01 0.  1.
        -11    1    1    2    0    0  0.29396488102E+02  0.36728073659E+00  0.65377759238E+02  0.71683609081E+02  0.00000000000E+00 0.  1.
         11    1    1    2    0    0  0.19333196370E+02  0.80568155558E+02  0.26199000953E+03  0.27477948480E+03  0.00000000000E+00 0. -1.
</event>
<event>
 7    1  0.2661133E-009  0.1674123E+03  0.7561462E-02  0.1180574E+00
          2   -1    0    0  501    0  0.00000000000E+00  0.00000000000E+00  0.15282865236E+04  0.15282865236E+04  0.00000000000E+00 0. -1.
         -2   -1    0    0    0  501 -0.00000000000E+00 -0.00000000000E+00 -0.23583149460E+02  0.23583149460E+02  0.00000000000E+00 0.  1.
         25    2    1    2    0    0 -0.15604538010E+03 -0.16063738534E+02  0.92917443745E+03  0.95058950940E+03  0.12508827218E+03 0.  0.
          5    1    3    3  502    0 -0.14523868924E+03 -0.24838162824E+02  0.50267221355E+03  0.52383970626E+03  0.41800000000E+01 0.  1.
         -5    1    3    3    0  502 -0.10806690854E+02  0.87744242899E+01  0.42650222390E+03  0.42674980314E+03  0.41800000000E+01 0.  1.
        -11    1    1    2    0    0  0.42584741409E+02 -0.28220892463E+02  0.20385019554E+03  0.21015418434E+03  0.00000000000E+00 0.  1.
         11    1    1    2    0    0  0.11346063869E+03  0.44284630997E+02  0.37167874115E+03  0.39112597932E+03  0.00000000000E+00 0. -1.
</event>
<event>
 7    1  0.2661133E-009  0.1120569E+03  0.7561462E-02  0.1256808E+00
          2   -1    0    0  501    0  0.00000000000E+00  0.00000000000E+00  0.11072702549E+04  0.11072702549E+04  0.00000000000E+00 0. -1.
         -2   -1    0    0    0  501 -0.00000000000E+00 -0.00000000000E+00 -0.12813009900E+02  0.12813009900E+02  0.00000000000E+00 0.  1.
         25    2    1    2    0    0 -0.20701948890E+02  0.20137316282E+02  0.79772966040E+03  0.80799383474E+03  0.12508934287E+03 0.  0.
          5    1    3    3  502    0 -0.52499119367E+02 -0.35895695464E+02  0.38174454898E+03  0.38702846351E+03  0.41800000000E+01 0.  1.
         -5    1    3    3    0  502  0.31797170477E+02  0.56033011747E+02  0.41598511142E+03  0.42096537123E+03  0.41800000000E+01 0.  1.
        -11    1    1    2    0    0  0.13905698131E+02  0.36351752180E+02  0.10026997834E+03  0.10755876014E+03  0.00000000000E+00 0.  1.
         11    1    1    2    0    0  0.67962507586E+01 -0.56489068463E+02  0.19645760629E+03  0.20453066995E+03  0.00000000000E+00 0. -1.
</event>
<event>
 7    1  0.2661133E-009  0.1310523E+03  0.7561462E-02  0.1225903E+00
          2   -1    0    0  501    0  0.00000000000E+00  0.00000000000E+00  0.70222988418E+03  0.70222988418E+03  0.00000000000E+00 0. -1.
         -2   -1    0    0    0  501 -0.00000000000E+00 -0.00000000000E+00 -0.33087154240E+02  0.33087154240E+02  0.00000000000E+00 0.  1.
         25    2    1    2    0    0  0.76897323496E+02  0.51354738465E+02  0.50592296435E+03  0.52929829359E+03  0.12509248663E+03 0.  0.
          5    1    3    3  502    0  0.41850096845E+02 -0.38778297337E+02  0.22531690389E+03  0.23246583948E+03  0.41800000000E+01 0.  1.
         -5    1    3    3    0  502  0.35047226651E+02  0.90133035803E+02  0.28060606047E+03  0.29683245410E+03  0.41800000000E+01 0.  1.
        -11    1    1    2    0    0 -0.45923295952E+01 -0.33246130225E+02  0.10844309960E+03  0.11351784228E+03  0.00000000000E+00 0. -1.
         11    1    1    2    0    0 -0.72304993901E+02 -0.18108608240E+02  0.54776665987E+02  0.92500902547E+02  0.00000000000E+00 0.  1.
</event>
<event>
 7    1  0.2661133E-009  0.1661503E+03  0.7561462E-02  0.1181923E+00
         -2   -1    0    0    0  501 -0.00000000000E+00  0.00000000000E+00  0.26716963981E+03  0.26716963981E+03  0.00000000000E+00 0.  1.
          2   -1    0    0  501    0  0.00000000000E+00 -0.00000000000E+00 -0.12255264199E+03  0.12255264199E+03  0.00000000000E+00 0. -1.
         25    2    1    2    0    0  0.11109546125E+03  0.76066984165E+02  0.19013329106E+02  0.18476247638E+03  0.12508908188E+03 0.  0.
          5    1    3    3  502    0  0.87254717392E+02  0.10255650819E+03 -0.14712878004E+02  0.13551813258E+03  0.41800000000E+01 0. -1.
         -5    1    3    3    0  502  0.23840743859E+02 -0.26489524021E+02  0.33726207110E+02  0.49244343803E+02  0.41800000000E+01 0. -1.
        -11    1    1    2    0    0 -0.18335619241E+02 -0.65879532617E+02  0.47385734089E+02  0.83196848173E+02  0.00000000000E+00 0.  1.
         11    1    1    2    0    0 -0.92759842010E+02 -0.10187451548E+02  0.78217934629E+02  0.12176295724E+03  0.00000000000E+00 0. -1.
</event>
<event>
 7    1  0.2661133E-009  0.7318320E+02  0.7561462E-02  0.1349591E+00
         -4   -1    0    0    0  501 -0.00000000000E+00  0.00000000000E+00  0.96282132164E+02  0.96282132164E+02  0.00000000000E+00 0.  1.
          4   -1    0    0  501    0  0.00000000000E+00 -0.00000000000E+00 -0.19713929372E+03  0.19713929372E+03  0.00000000000E+00 0. -1.
         25    2    1    2    0    0  0.60272899234E+02 -0.11064241439E+02  0.71285848109E+01  0.13948229940E+03  0.12509698359E+03 0.  0.
          5    1    3    3  502    0  0.11765391896E+02 -0.92801743150E+01  0.63266597682E+02  0.65151215369E+02  0.41800000000E+01 0. -1.
         -5    1    3    3    0  502  0.48507507338E+02 -0.17840671241E+01 -0.56138012871E+02  0.74331084028E+02  0.41800000000E+01 0. -1.
        -11    1    1    2    0    0 -0.55157161597E+02  0.29782893102E+02 -0.11685261804E+03  0.13260417617E+03  0.00000000000E+00 0. -1.
         11    1    1    2    0    0 -0.51157376373E+01 -0.18718651663E+02  0.88668716693E+01  0.21334950313E+02  0.00000000000E+00 0.  1.
</event>
<event>
 7    1  0.2661133E-009  0.9050656E+02  0.7561462E-02  0.1301630E+00
         -4   -1    0    0    0  501 -0.00000000000E+00  0.00000000000E+00  0.35323631171E+03  0.35323631171E+03  0.00000000000E+00 0.  1.
          4   -1    0    0  501    0  0.00000000000E+00 -0.00000000000E+00 -0.35382593481E+02  0.35382593481E+02  0.00000000000E+00 0. -1.
         25    2    1    2    0    0 -0.26617324314E+02 -0.99720406236E+01  0.17885822434E+03  0.22010286604E+03  0.12508830353E+03 0.  0.
          5    1    3    3  502    0  0.42226848435E+02  0.26540176357E+02  0.75759842337E+02  0.90799305067E+02  0.41800000000E+01 0. -1.
         -5    1    3    3    0  502 -0.68844172749E+02 -0.36512216980E+02  0.10309838200E+03  0.12930356098E+03  0.41800000000E+01 0. -1.
        -11    1    1    2    0    0 -0.88517730022E+01 -0.90643702054E+01 -0.87418037221E+01  0.15392719864E+02  0.00000000000E+00 0. -1.
         11    1    1    2    0    0  0.35469097316E+02  0.19036410829E+02  0.14773729762E+03  0.15312331928E+03  0.00000000000E+00 0.  1.
</event>
<event>
 7    1  0.2661133E-009  0.8797101E+02  0.7561462E-02  0.1307841E+00
          1   -1    0    0  501    0  0.00000000000E+00  0.00000000000E+00  0.10545871581E+03  0.10545871581E+03  0.00000000000E+00 0. -1.
         -1   -1    0    0    0  501 -0.00000000000E+00 -0.00000000000E+00 -0.12438356288E+03  0.12438356288E+03  0.00000000000E+00 0.  1.
         25    2    1    2    0    0  0.37518087838E+02  0.55373898121E+01 -0.86363526136E+01  0.13103187143E+03  0.12512591715E+03 0.  0.
          5    1    3    3  502    0  0.72625060265E+02 -0.21991854417E+02 -0.29604866306E+02  0.81559558288E+02  0.41800000000E+01 0.  1.
         -5    1    3    3    0  502 -0.35106972426E+02  0.27529244229E+02  0.20968513693E+02  0.49472313138E+02  0.41800000000E+01 0.  1.
        -11    1    1    2    0    0 -0.80022487868E+01  0.16475366554E+02  0.35564341330E+02  0.40003700616E+02  0.00000000000E+00 0. -1.
         11    1    1    2    0    0 -0.29515839052E+02 -0.22012756366E+02 -0.45852835779E+02  0.58806706647E+02  0.00000000000E+00 0.  1.
</event>
<event>
 7    1  0.2661133E-009  0.1708164E+03  0.7561462E-02  0.1176999E+00
         -2   -1    0    0    0  501 -0.00000000000E+00  0.00000000000E+00  0.93493968076E+02  0.93493968076E+02  0.00000000000E+00 0.  1.
          2   -1    0    0  501    0  0.00000000000E+00 -0.00000000000E+00 -0.35427932479E+03  0.35427932479E+03  0.00000000000E+00 0. -1.
         25    2    1    2    0    0  0.26633310628E+01  0.14125923877E+03 -0.92685017004E+02  0.21024072608E+03  0.12509750059E+03 0.  0.
          5    1    3    3  502    0  0.48188418184E+02  0.32326650866E+02 -0.68110790434E+02  0.89575042154E+02  0.41800000000E+01 0. -1.
         -5    1    3    3    0  502 -0.45525087121E+02  0.10893258791E+03 -0.24574226569E+02  0.12066568392E+03  0.41800000000E+01 0. -1.
        -11    1    1    2    0    0 -0.25217550100E+02 -0.31891402070E+01 -0.12627278452E+02  0.28382100159E+02  0.00000000000E+00 0.  1.
         11    1    1    2    0    0  0.22554219037E+02 -0.13807009857E+03 -0.15547306126E+03  0.20915046663E+03  0.00000000000E+00 0. -1.
</event>
<event>
 7    1  0.2752708E-009  0.1137622E+03  0.7561462E-02  0.1253757E+00
          1   -1    0    0  501    0  0.00000000000E+00  0.00000000000E+00  0.18250718466E+03  0.18250718466E+03  0.00000000000E+00 0. -1.
         -1   -1    0    0    0  501 -0.00000000000E+00 -0.00000000000E+00 -0.74729923698E+02  0.74729923698E+02  0.00000000000E+00 0.  1.
         25    2    1    2    0    0 -0.94031721578E+01 -0.41338182861E+02  0.73513517176E+02  0.15115807179E+03  0.12508901012E+03 0.  0.
          5    1    3    3  502    0 -0.46359434894E+02  0.27188709166E+02  0.34182155034E+02  0.63830362936E+02  0.41800000000E+01 0.  1.
         -5    1    3    3    0  502  0.36956262736E+02 -0.68526892027E+02  0.39331362142E+02  0.87327708857E+02  0.41800000000E+01 0.  1.
        -11    1    1    2    0    0  0.47134609573E+02  0.31382631261E+02  0.41318863609E+01  0.56776874248E+02  0.00000000000E+00 0.  1.
         11    1    1    2    0    0 -0.37731437416E+02  0.99555515999E+01  0.30131857422E+02  0.49302162314E+02  0.00000000000E+00 0. -1.
</event>
<event>
 7    1  0.2661133E-009  0.1440808E+03  0.7561462E-02  0.1207941E+00
          2   -1    0    0  501    0  0.00000000000E+00  0.00000000000E+00  0.11132802217E+03  0.11132802217E+03  0.00000000000E+00 0. -1.
         -2   -1    0    0    0  501 -0.00000000000E+00 -0.00000000000E+00 -0.23092311263E+03  0.23092311263E+03  0.00000000000E+00 0.  1.
         25    2    1    2    0    0  0.42327226184E+02 -0.93049128734E+02 -0.10100174267E+02  0.16185916982E+03  0.12508654164E+03 0.  0.
          5    1    3    3  502    0 -0.20326308411E+02 -0.96408084784E+02 -0.80288982458E+01  0.98942474360E+02  0.41800000000E+01 0. -1.
         -5    1    3    3    0  502  0.62653534594E+02  0.33589560500E+01 -0.20712760215E+01  0.62916695457E+02  0.41800000000E+01 0. -1.
        -11    1    1    2    0    0 -0.61773480404E+02  0.50169391019E+02 -0.24566171339E+02  0.83285217480E+02  0.00000000000E+00 0.  1.
         11    1    1    2    0    0  0.19446254221E+02  0.42879737715E+02 -0.84928744845E+02  0.97106747503E+02  0.00000000000E+00 0. -1.
</event>
<event>
 7    1  0.2661133E-009  0.1071567E+03  0.7561462E-02  0.1265928E+00
          1   -1    0    0  501    0  0.00000000000E+00  0.00000000000E+00  0.23227514964E+03  0.23227514964E+03  0.00000000000E+00 0. -1.
         -1   -1    0    0    0  501 -0.00000000000E+00 -0.00000000000E+00 -0.95849818392E+02  0.95849818392E+02  0.00000000000E+00 0.  1.
         25    2    1    2    0    0 -0.53042419175E+02  0.62656290634E+02  0.14160612070E+03  0.20600763474E+03  0.12509014015E+03 0.  0.
          5    1    3    3  502    0  0.22230509911E+02  0.42173672148E+02  0.11316747328E+03  0.12287051559E+03  0.41800000000E+01 0. -1.
         -5    1    3    3    0  502 -0.75272929087E+02  0.20482618486E+02  0.28438647427E+02  0.83137119152E+02  0.41800000000E+01 0. -1.
        -11    1    1    2    0    0  0.38003335299E+02 -0.62673561952E+02 -0.40492175545E+02  0.83736760995E+02  0.00000000000E+00 0.  1.
         11    1    1    2    0    0  0.15039083877E+02  0.17271318221E-01  0.35311386093E+02  0.38380572299E+02  0.00000000000E+00 0. -1.
</event>
<event>
 7    1  0.2661133E-009  0.1833906E+03  0.7561462E-02  0.1164561E+00
          1   -1    0    0  501    0  0.00000000000E+00  0.00000000000E+00  0.15808474020E+03  0.15808474020E+03  0.00000000000E+00 0. -1.
         -1   -1    0    0    0  501 -0.00000000000E+00 -0.00000000000E+00 -0.24432660496E+03  0.24432660496E+03  0.00000000000E+00 0.  1.
         25    2    1    2    0    0 -0.15625710440E+03 -0.37922316473E+02 -0.27078233846E+02  0.20551314314E+03  0.12509211202E+03 0.  0.
          5    1    3    3  502    0 -0.66153150982E+02  0.43060898190E+02  0.76568203647E+01  0.79413976326E+02  0.41800000000E+01 0. -1.
         -5    1    3    3    0  502 -0.90103953421E+02 -0.80983214663E+02 -0.34735054211E+02  0.12609916681E+03  0.41800000000E+01 0. -1.
        -11    1    1    2    0    0  0.46276548856E+02  0.32219526687E+02  0.21542992284E+02  0.60363212228E+02  0.00000000000E+00 0. -1.
         11    1    1    2    0    0  0.10998055555E+03  0.57027897858E+01 -0.80706623200E+02  0.13653498980E+03  0.00000000000E+00 0.  1.
</event>
<event>
 7    1  0.2661133E-009  0.1463824E+03  0.7561462E-02  0.1204990E+00
          1   -1    0    0  501    0  0.00000000000E+00  0.00000000000E+00  0.21244345311E+02  0.21244345311E+02  0.00000000000E+00 0. -1.
         -1   -1    0    0    0  501 -0.00000000000E+00 -0.00000000000E+00 -0.11088509242E+04  0.11088509242E+04  0.00000000000E+00 0.  1.
         25    2    1    2    0    0  0.81757421625E+02 -0.71324554067E+02 -0.53868443669E+03  0.56355923550E+03  0.12508645644E+03 0.  0.
          5    1    3    3  502    0  0.10485558825E+03 -0.75395833331E+02 -0.51076734395E+03  0.52685859405E+03  0.41800000000E+01 0.  1.
         -5    1    3    3    0  502 -0.23098166626E+02  0.40712792641E+01 -0.27917092735E+02  0.36700641453E+02  0.41800000000E+01 0.  1.
        -11    1    1    2    0    0 -0.43652877348E+02 -0.14356601346E+02 -0.15993596047E+03  0.16640672208E+03  0.00000000000E+00 0. -1.
         11    1    1    2    0    0 -0.38104544277E+02  0.85681155413E+02 -0.38898618175E+03  0.40012931195E+03  0.00000000000E+00 0.  1.
</event>
<event>
 7    1  0.2661133E-009  0.8932550E+02  0.7561462E-02  0.1304493E+00
         -2   -1    0    0    0  501 -0.00000000000E+00  0.00000000000E+00  0.55824292556E+02  0.55824292556E+02  0.00000000000E+00 0.  1.
          2   -1    0    0  501    0  0.00000000000E+00 -0.00000000000E+00 -0.30760034953E+03  0.30760034953E+03  0.00000000000E+00 0. -1.
         25    2    1    2    0    0  0.10417261695E+02  0.70333815766E+02 -0.12013474070E+03  0.18744248841E+03  0.12508783137E+03 0.  0.
          5    1    3    3  502    0 -0.13300289852E+01  0.26358077464E+02 -0.13634901960E+03  0.13894259523E+03  0.41800000000E+01 0. -1.
         -5    1    3    3    0  502  0.11747290680E+02  0.43975738302E+02  0.16214278899E+02  0.48499893173E+02  0.41800000000E+01 0. -1.
        -11    1    1    2    0    0 -0.19431285128E+02 -0.85988562302E+02 -0.72487985223E+02  0.11413200993E+03  0.00000000000E+00 0.  1.
         11    1    1    2    0    0  0.90140234328E+01  0.15654746536E+02 -0.59153331051E+02  0.61850143750E+02  0.00000000000E+00 0. -1.
</event>
<event>
 7    1  0.2661133E-009  0.1162889E+03  0.7561462E-02  0.1249348E+00
         -1   -1    0    0    0  501 -0.00000000000E+00  0.00000000000E+00  0.51707251305E+02  0.51707251305E+02  0.00000000000E+00 0.  1.
          1   -1    0    0  501    0  0.00000000000E+00 -0.00000000000E+00 -0.28510019385E+03  0.28510019385E+03  0.00000000000E+00 0. -1.
         25    2    1    2    0    0 -0.28219562257E+01  0.59362987722E+02 -0.11324893902E+03  0.17889693892E+03  0.12508742869E+03 0.  0.
          5    1    3    3  502    0  0.30093542434E+02  0.83892113799E+02 -0.10321082980E+03  0.13643113956E+03  0.41800000000E+01 0.  1.
         -5    1    3    3    0  502 -0.32915498659E+02 -0.24529126077E+02 -0.10038109216E+02  0.42465799353E+02  0.41800000000E+01 0.  1.
        -11    1    1    2    0    0 -0.39933398932E+02 -0.33482468974E+02 -0.54491244339E+02  0.75399255888E+02  0.00000000000E+00 0. -1.
         11    1    1    2    0    0  0.42755355158E+02 -0.25880518748E+02 -0.65652759184E+02  0.82511250347E+02  0.00000000000E+00 0.  1.
</event>
<event>
 7    1  0.2661133E-009  0.1164250E+03  0.7561462E-02  0.1249114E+00
          2   -1    0    0  501    0  0.00000000000E+00  0.00000000000E+00  0.18292864198E+04  0.18292864198E+04  0.00000000000E+00 0. -1.
         -2   -1    0    0    0  501 -0.00000000000E+00 -0.00000000000E+00 -0.13716631565E+02  0.13716631565E+02  0.00000000000E+00 0.  1.
         25    2    1    2    0    0 -0.55109924719E+02  0.59942434488E+02  0.14416511826E+04  0.14493570228E+04  0.12508975984E+03 0.  0.
          5    1    3    3  502    0 -0.72947984187E+02  0.52906714144E+02  0.14040241158E+04  0.14069192297E+04  0.41800000000E+01 0.  1.
         -5    1    3    3    0  502  0.17838059468E+02  0.70357203439E+01  0.37627066779E+02  0.42437793071E+02  0.41800000000E+01 0.  1.
        -11    1    1    2    0    0  0.47595417964E+02  0.13274421819E+02  0.15512560055E+03  0.16280505531E+03  0.00000000000E+00 0.  1.
         11    1    1    2    0    0  0.75145067553E+01 -0.73216856308E+02  0.21879300511E+03  0.23084097328E+03  0.00000000000E+00 0. -1.
</event>
<event>
 7    1  0.2661133E-009  0.9279636E+02  0.7561462E-02  0.1296218E+00
         -1   -1    0    0    0  501 -0.00000000000E+00  0.00000000000E+00  0.17175599997E+02  0.17175599997E+02  0.00000000000E+00 0.  1.
          1   -1    0    0  501    0  0.00000000000E+00 -0.00000000000E+00 -0.16077643781E+04  0.16077643781E+04  0.00000000000E+00 0. -1.
         25    2    1    2    0    0  0.31911355818E+02 -0.24496679127E+02 -0.14374108321E+04  0.14434042256E+04  0.12508971294E+03 0.  0.
          5    1    3    3  502    0 -0.19220443629E+02  0.25218460486E+02 -0.97348728960E+03  0.97401251102E+03  0.41800000000E+01 0. -1.
         -5    1    3    3    0  502  0.51131799448E+02 -0.49715139613E+02 -0.46392354248E+03  0.46939171455E+03  0.41800000000E+01 0. -1.
        -11    1    1    2    0    0 -0.73462267015E+01 -0.25461652773E+02 -0.10377462197E+03  0.10710478502E+03  0.00000000000E+00 0. -1.
         11    1    1    2    0    0 -0.24565129117E+02  0.49958331900E+02 -0.49403323999E+02  0.74430967459E+02  0.00000000000E+00 0.  1.
</event>
<event>
 7    1  0.2661133E-009  0.1450943E+03  0.7561462E-02  0.1206634E+00
         -1   -1    0    0    0  501 -0.00000000000E+00  0.00000000000E+00  0.10669145552E+03  0.10669145552E+03  0.00000000000E+00 0.  1.
          1   -1    0    0  501    0  0.00000000000E+00 -0.00000000000E+00 -0.23258716560E+03  0.23258716560E+03  0.00000000000E+00 0. -1.
         25    2    1    2    0    0  0.79007541764E+02  0.73431645239E+02 -0.10708875092E+03  0.19685028207E+03  0.12509050644E+03 0.  0.
          5    1    3    3  502    0  0.33606285371E+02 -0.24068699895E+02 -0.72915677509E+02  0.83921708500E+02  0.41800000000E+01 0.  1.
         -5    1    3    3    0  502  0.45401256393E+02  0.97500345134E+02 -0.34173073406E+02  0.11292857357E+03  0.41800000000E+01 0.  1.
        -11    1    1    2    0    0 -0.62371691762E+02  0.33333365724E+01 -0.11840913233E+02  0.63573157009E+02  0.00000000000E+00 0. -1.
         11    1    1    2    0    0 -0.16635850002E+02 -0.76764981811E+02 -0.69660459329E+01  0.78855182035E+02  0.00000000000E+00 0.  1.
</event>
<event>
 7    1  0.2661133E-009  0.1278066E+03  0.7561462E-02  0.1230747E+00
         -2   -1    0    0    0  501 -0.00000000000E+00  0.00000000000E+00  0.51291237444E+03  0.51291237444E+03  0.00000000000E+00 0.  1.
          2   -1    0    0  501    0  0.00000000000E+00 -0.00000000000E+00 -0.42346324734E+02  0.42346324734E+02  0.00000000000E+00 0. -1.
         25    2    1    2    0    0 -0.16279146963E+02 -0.94501232966E+02  0.30717340753E+03  0.34525172618E+03  0.12509100080E+03 0.  0.
          5    1    3    3  502    0  0.47133767347E+02 -0.26233474655E+02  0.17720157949E+03  0.18527725006E+03  0.41800000000E+01 0.  1.
         -5    1    3    3    0  502 -0.63412914310E+02 -0.68267758311E+02  0.12997182803E+03  0.15997447612E+03  0.41800000000E+01 0.  1.
        -11    1    1    2    0    0 -0.18226076261E+02  0.30556845721E+02  0.12047380015E+03  0.12561786178E+03  0.00000000000E+00 0.  1.
         11    1    1    2    0    0  0.34505223223E+02  0.63944387245E+02  0.42918842028E+02  0.84389111210E+02  0.00000000000E+00 0. -1.
</event>
<event>
 7    1  0.2661133E-009  0.1005366E+03  0.7561462E-02  0.1279172E+00
         -3   -1    0    0    0  501 -0.00000000000E+00  0.00000000000E+00  0.10077399936E+03  0.10077399936E+03  0.00000000000E+00 0. -1.
          3   -1    0    0  501    0  0.00000000000E+00 -0.00000000000E+00 -0.13189502103E+03  0.13189502103E+03  0.00000000000E+00 0.  1.
         25    2    1    2    0    0  0.46901104301E+01  0.23652815167E+02 -0.43540743220E+02  0.13462654656E+03  0.12508820055E+03 0.  0.
          5    1    3    3  502    0 -0.43885343546E+02 -0.30368086680E+02 -0.98215227291E+01  0.54424983009E+02  0.41800000000E+01 0.  1.
         -5    1    3    3    0  502  0.48575453977E+02  0.54020901847E+02 -0.33719220490E+02  0.80201563550E+02  0.41800000000E+01 0.  1.
        -11    1    1    2    0    0 -0.14547896153E+02  0.22931526408E+02  0.35849541301E+02  0.44974279287E+02  0.00000000000E+00 0. -1.
         11    1    1    2    0    0  0.98577857224E+01 -0.46584341575E+02 -0.23429819748E+02  0.53068194550E+02  0.00000000000E+00 0.  1.
</event>
<event>
 7    1  0.2661133E-009  0.7366301E+02  0.7561462E-02  0.1348062E+00
         -2   -1    0    0    0  501 -0.00000000000E+00  0.00000000000E+00  0.45822433125E+03  0.45822433125E+03  0.00000000000E+00 0. -1.
          2   -1    0    0  501    0  0.00000000000E+00 -0.00000000000E+00 -0.27070525289E+02  0.27070525289E+02  0.00000000000E+00 0.  1.
         25    2    1    2    0    0  0.12108275692E+02 -0.12029413245E+02  0.29695518118E+03  0.32267682899E+03  0.12508652692E+03 0.  0.
          5    1    3    3  502    0  0.43436958351E+02  0.12429926607E+02  0.27156258316E+03  0.27532704444E+03  0.41800000000E+01 0. -1.
         -5    1    3    3    0  502 -0.31328682659E+02 -0.24459339852E+02  0.25392598014E+02  0.47349784551E+02  0.41800000000E+01 0. -1.
        -11    1    1    2    0    0  0.13007515495E+02  0.28926644232E+02  0.78224681050E+01  0.32667066185E+02  0.00000000000E+00 0.  1.
         11    1    1    2    0    0 -0.25115791188E+02 -0.16897230987E+02  0.12637615667E+03  0.12995096136E+03  0.00000000000E+00 0. -1.
</event>
<event>
 7    1  0.2661133E-009  0.9366731E+02  0.7561462E-02  0.1294206E+00
          1   -1    0    0  501    0  0.00000000000E+00  0.00000000000E+00  0.17364041783E+03  0.17364041783E+03  0.00000000000E+00 0. -1.
         -1   -1    0    0    0  501 -0.00000000000E+00 -0.00000000000E+00 -0.14695502027E+03  0.14695502027E+03  0.00000000000E+00 0.  1.
         25    2    1    2    0    0 -0.68383728894E+02  0.14081050922E+02  0.10829547088E+03  0.17958069514E+03  0.12508679659E+03 0.  0.
          5    1    3    3  502    0 -0.29673537846E+02  0.27407529951E+02  0.12775858406E+03  0.13405752402E+03  0.41800000000E+01 0.  1.
         -5    1    3    3    0  502 -0.38710191048E+02 -0.13326479029E+02 -0.19463113173E+02  0.45523171118E+02  0.41800000000E+01 0.  1.
        -11    1    1    2    0    0  0.18775780755E+02 -0.43861773878E+02 -0.65348755620E+02  0.80912576351E+02  0.00000000000E+00 0.  1.
         11    1    1    2    0    0  0.49607948139E+02  0.29780722957E+02 -0.16261317702E+02  0.60102166615E+02  0.00000000000E+00 0. -1.
</event>
<event>
 7    1  0.2661133E-009  0.1311630E+03  0.7561462E-02  0.1225740E+00
         -1   -1    0    0    0  501 -0.00000000000E+00  0.00000000000E+00  0.47559493093E+02  0.47559493093E+02  0.00000000000E+00 0.  1.
          1   -1    0    0  501    0  0.00000000000E+00 -0.00000000000E+00 -0.78374939350E+03  0.78374939350E+03  0.00000000000E+00 0. -1.
         25    2    1    2    0    0 -0.10885919836E+03  0.54134246576E+02 -0.61196188548E+03  0.63633790818E+03  0.12509093649E+03 0.  0.
          5    1    3    3  502    0 -0.71931138096E+02  0.30277520014E+02 -0.57028347445E+03  0.57561404646E+03  0.41800000000E+01 0.  1.
         -5    1    3    3    0  502 -0.36928060266E+02  0.23856726562E+02 -0.41678411030E+02  0.60723861729E+02  0.41800000000E+01 0.  1.
        -11    1    1    2    0    0  0.18826116892E+02 -0.45886357559E+02 -0.80472333634E+02  0.94529238693E+02  0.00000000000E+00 0.  1.
         11    1    1    2    0    0  0.90033081470E+02 -0.82478890166E+01 -0.43755681296E+02  0.10044173972E+03  0.00000000000E+00 0. -1.
</event>
<event>
 7    1  0.2661133E-009  0.1387715E+03  0.7561462E-02  0.1214992E+00
          2   -1    0    0  501    0  0.00000000000E+00  0.00000000000E+00  0.24424075240E+03  0.24424075240E+03  0.00000000000E+00 0. -1.
         -2   -1    0    0    0  501 -0.00000000000E+00 -0.00000000000E+00 -0.85013131788E+02  0.85013131788E+02  0.00000000000E+00 0.  1.
         25    2    1    2    0    0  0.53917866888E+01 -0.85196204071E+02  0.12632487879E+03  0.19721122877E+03  0.12508728631E+03 0.  0.
          5    1    3    3  502    0  0.38862812720E+02  0.17837274089E+02  0.33337652029E+02  0.54381596172E+02  0.41800000000E+01 0. -1.
         -5    1    3    3    0  502 -0.33471026031E+02 -0.10303347816E+03  0.92987226766E+02  0.14282963259E+03  0.41800000000E+01 0. -1.
        -11    1    1    2    0    0 -0.42454321263E+02  0.77417413561E+02  0.32750507791E+02  0.94172294636E+02  0.00000000000E+00 0. -1.
         11    1    1    2    0    0  0.37062534574E+02  0.77787905094E+01  0.15223402606E+00  0.37870360786E+02  0.00000000000E+00 0.  1.
</event>
<event>
 7    1  0.2661133E-009  0.8244546E+02  0.7561462E-02  0.1322251E+00
          2   -1    0    0  501    0  0.00000000000E+00  0.00000000000E+00  0.38518036739E+03  0.38518036739E+03  0.00000000000E+00 0. -1.
         -2   -1    0    0    0  501 -0.00000000000E+00 -0.00000000000E+00 -0.52566741957E+02  0.52566741957E+02  0.00000000000E+00 0.  1.
         25    2    1    2    0    0  0.98791670473E+01  0.57265280063E+02  0.28914187293E+03  0.32035233951E+03  0.12508272667E+03 0.  0.
          5    1    3    3  502    0  0.29199933684E+01  0.14385178325E+02  0.27360056287E+03  0.27402591140E+03  0.41800000000E+01 0.  1.
         -5    1    3    3    0  502  0.69591736788E+01  0.42880101738E+02  0.15541310054E+02  0.46326428111E+02  0.41800000000E+01 0.  1.
        -11    1    1    2    0    0 -0.32207021061E+02  0.11101464263E+02  0.27356230267E+02  0.43690937834E+02  0.00000000000E+00 0. -1.
         11    1    1    2    0    0  0.22327854013E+02 -0.68366744326E+02  0.16115522242E+02  0.73703832002E+02  0.00000000000E+00 0.  1.
</event>
<event>
 7    1  0.2661133E-009  0.1969233E+03  0.7561462E-02  0.1152361E+00
          2   -1    0    0  501    0  0.00000000000E+00  0.00000000000E+00  0.23446997290E+04  0.23446997290E+04  0.00000000000E+00 0. -1.
         -2   -1    0    0    0  501 -0.00000000000E+00 -0.00000000000E+00 -0.26519443581E+02  0.26519443581E+02  0.00000000000E+00 0.  1.
         25    2    1    2    0    0  0.15556964617E+03 -0.93665216390E+02  0.18238455604E+04  0.18371269571E+04  0.12509092964E+03 0.  0.
          5    1    3    3  502    0  0.10394960346E+03 -0.27464424257E+02  0.54485588246E+03  0.55537844729E+03  0.41800000000E+01 0.  1.
         -5    1    3    3    0  502  0.51620042714E+02 -0.66200792133E+02  0.12789896779E+04  0.12817485098E+04  0.41800000000E+01 0.  1.
        -11    1    1    2    0    0 -0.49184855242E+02 -0.13694323091E+02  0.12256387359E+03  0.13277269140E+03  0.00000000000E+00 0.  1.
         11    1    1    2    0    0 -0.10638479093E+03  0.10735953948E+03  0.37177085147E+03  0.40131952415E+03  0.00000000000E+00 0. -1.
</event>
<event>
 7    1  0.2661133E-009  0.1329518E+03  0.7561462E-02  0.1223140E+00
          2   -1    0    0  501    0  0.00000000000E+00  0.00000000000E+00  0.71643869542E+02  0.71643869542E+02  0.00000000000E+00 0. -1.
         -2   -1    0    0    0  501 -0.00000000000E+00 -0.00000000000E+00 -0.37430093362E+03  0.37430093362E+03  0.00000000000E+00 0.  1.
         25    2    1    2    0    0 -0.83972412419E+02 -0.47268982582E+02 -0.56479102240E+02  0.16769851406E+03  0.12508868800E+03 0.  0.
          5    1    3    3  502    0 -0.10014545072E+03 -0.74688434120E+02 -0.51563158440E+02  0.13521725186E+03  0.41800000000E+01 0. -1.
         -5    1    3    3    0  502  0.16173038304E+02  0.27419451538E+02 -0.49159437994E+01  0.32481262200E+02  0.41800000000E+01 0. -1.
        -11    1    1    2    0    0  0.64393267323E+02  0.57831249703E+02 -0.24004254024E+03  0.25516929174E+03  0.00000000000E+00 0.  1.
         11    1    1    2    0    0  0.19579145096E+02 -0.10562267121E+02 -0.61354215973E+01  0.23076997369E+02  0.00000000000E+00 0. -1.
</event>
<event>
 7    1  0.2661133E-009  0.1419208E+03  0.7561462E-02  0.1210767E+00
         -3   -1    0    0    0  501 -0.00000000000E+00  0.00000000000E+00  0.24863985559E+02  0.24863985559E+02  0.00000000000E+00 0.  1.
          3   -1    0    0  501    0  0.00000000000E+00 -0.00000000000E+00 -0.85741678325E+03  0.85741678325E+03  0.00000000000E+00 0. -1.
         25    2    1    2    0    0  0.48056803936E+02 -0.74392271633E+02 -0.45392499896E+03  0.47910293792E+03  0.12509218183E+03 0.  0.
          5    1    3    3  502    0 -0.95448532098E+01 -0.91781182843E+02 -0.25380093597E+03  0.27008753627E+03  0.41800000000E+01 0. -1.
         -5    1    3    3    0  502  0.57601657146E+02  0.17388911210E+02 -0.20012406299E+03  0.20901540165E+03  0.41800000000E+01 0. -1.
        -11    1    1    2    0    0 -0.48572005318E+02 -0.75998408544E+01 -0.20992399702E+03  0.21560399302E+03  0.00000000000E+00 0.  1.
         11    1    1    2    0    0  0.51520138212E+00  0.81992112487E+02 -0.16870380171E+03  0.18757383787E+03  0.00000000000E+00 0. -1.
</event>
<event>
 7    1  0.2661133E-009  0.1792502E+03  0.7561462E-02  0.1168531E+00
         -2   -1    0    0    0  501 -0.00000000000E+00  0.00000000000E+00  0.27389564248E+02  0.27389564248E+02  0.00000000000E+00 0. -1.
          2   -1    0    0  501    0  0.00000000000E+00 -0.00000000000E+00 -0.14494902769E+04  0.14494902769E+04  0.00000000000E+00 0.  1.
         25    2    1    2    0    0 -0.12998244089E+03  0.76536279069E+02 -0.10078040935E+04  0.10266790891E+04  0.12509046387E+03 0.  0.
          5    1    3    3  502    0 -0.13600816780E+03  0.28715343430E+02 -0.85963622542E+03  0.87081266935E+03  0.41800000000E+01 0. -1.
         -5    1    3    3    0  502  0.60257269079E+01  0.47820935639E+02 -0.14816786809E+03  0.15586641975E+03  0.41800000000E+01 0. -1.
        -11    1    1    2    0    0  0.13426448953E+02  0.16958698656E+02 -0.24154207511E+02  0.32423644646E+02  0.00000000000E+00 0.  1.
         11    1    1    2    0    0  0.11655599194E+03 -0.93494977725E+02 -0.39014241167E+03  0.41777710744E+03  0.00000000000E+00 0. -1.
</event>
<event>
 7    1  0.2661133E-009  0.1367513E+03  0.7561462E-02  0.1217768E+00
          1   -1    0    0  501    0  0.00000000000E+00  0.00000000000E+00  0.73534599667E+03  0.73534599667E+03  0.00000000000E+00 0. -1.
         -1   -1    0    0    0  501 -0.00000000000E+00 -0.00000000000E+00 -0.31710266046E+02  0.31710266046E+02  0.00000000000E+00 0.  1.
         25    2    1    2    0    0  0.86616565582E+01  0.10093443170E+03  0.46626011310E+03  0.49326308731E+03  0.12508875423E+03 0.  0.
          5    1    3    3  502    0  0.20352224061E+02 -0.22521918932E+02  0.47657436758E+02  0.56658216835E+02  0.41800000000E+01 0.  1.
         -5    1    3    3    0  502 -0.11690567503E+02  0.12345635063E+03  0.41860267634E+03  0.43660487047E+03  0.41800000000E+01 0.  1.
        -11    1    1    2    0    0 -0.33208734201E+02 -0.34174966241E+02  0.16725871821E+03  0.17391442482E+03  0.00000000000E+00 0. -1.
         11    1    1    2    0    0  0.24547077642E+02 -0.66759465456E+02  0.70116899313E+02  0.99878750583E+02  0.00000000000E+00 0.  1.
</event>
<event>
 7    1  0.2661133E-009  0.8525129E+02  0.7561462E-02  0.1314777E+00
         -1   -1    0    0    0  501 -0.00000000000E+00  0.00000000000E+00  0.15418395882E+02  0.15418395882E+02  0.00000000000E+00 0.  1.
          1   -1    0    0  501    0  0.00000000000E+00 -0.00000000000E+00 -0.12732782493E+04  0.12732782493E+04  0.00000000000E+00 0. -1.
         25    2    1    2    0    0  0.97076327116E+00  0.47376041023E+02 -0.10271223360E+04  0.10357949241E+04  0.12508157354E+03 0.  0.
          5    1    3    3  502    0  0.17881669173E+02 -0.85713246822E+00 -0.87629380763E+03  0.87648662195E+03  0.41800000000E+01 0.  1.
         -5    1    3    3    0  502 -0.16910905902E+02  0.48233173491E+02 -0.15082852836E+03  0.15930830214E+03  0.41800000000E+01 0.  1.
        -11    1    1    2    0    0 -0.29287326967E+02 -0.62290595296E+02 -0.12853043628E+03  0.14580102480E+03  0.00000000000E+00 0.  1.
         11    1    1    2    0    0  0.28316563695E+02  0.14914554273E+02 -0.10220708117E+03  0.10710069631E+03  0.00000000000E+00 0. -1.
</event>
<event>
 7    1  0.2661133E-009  0.1774559E+03  0.7561462E-02  0.1170288E+00
         -1   -1    0    0    0  501 -0.00000000000E+00  0.00000000000E+00  0.50352263883E+02  0.50352263883E+02  0.00000000000E+00 0.  1.
          1   -1    0    0  501    0  0.00000000000E+00 -0.00000000000E+00 -0.86170857653E+03  0.86170857653E+03  0.00000000000E+00 0. -1.
         25    2    1    2    0    0  0.10291982922E+03  0.11871363864E+03 -0.60317996401E+03  0.63573932408E+03  0.12511194967E+03 0.  0.
          5    1    3    3  502    0 -0.26611170134E+02  0.26605914926E+02 -0.17357478481E+03  0.17765614936E+03  0.41800000000E+01 0.  1.
         -5    1    3    3    0  502  0.12953099935E+03  0.92107723711E+02 -0.42960517920E+03  0.45808317472E+03  0.41800000000E+01 0.  1.
        -11    1    1    2    0    0 -0.97660704826E+01 -0.20402206678E+02 -0.10130184725E+03  0.10379638928E+03  0.00000000000E+00 0. -1.
         11    1    1    2    0    0 -0.93153758737E+02 -0.98311431959E+02 -0.10687450139E+03  0.17252512706E+03  0.00000000000E+00 0.  1.
</event>
<event>
 7    1  0.2953409E-009  0.1252495E+03  0.7561462E-02  0.1234680E+00
         -1   -1    0    0    0  501 -0.00000000000E+00  0.00000000000E+00  0.33673393459E+02  0.33673393459E+02  0.00000000000E+00 0.  1.
          1   -1    0    0  501    0  0.00000000000E+00 -0.00000000000E+00 -0.70376072472E+03  0.70376072472E+03  0.00000000000E+00 0. -1.
         25    2    1    2    0    0 -0.72982556874E+02 -0.68247132737E+01 -0.16766222536E+03  0.22165485476E+03  0.12508885845E+03 0.  0.
          5    1    3    3  502    0 -0.62325537041E+02 -0.58416575985E+02 -0.69627012721E+02  0.11028310033E+03  0.41800000000E+01 0. -1.
         -5    1    3    3    0  502 -0.10657019833E+02  0.51591862711E+02 -0.98035212636E+02  0.11137175444E+03  0.41800000000E+01 0. -1.
        -11    1    1    2    0    0 -0.12953299776E+02 -0.18458309140E+02 -0.54429719740E+02  0.58915970181E+02  0.00000000000E+00 0.  1.
         11    1    1    2    0    0  0.85935856649E+02  0.25283022414E+02 -0.44799538616E+03  0.45686329323E+03  0.00000000000E+00 0. -1.
</event>
<event>
 7    1  0.2661133E-009  0.1410139E+03  0.7561462E-02  0.1211971E+00
          1   -1    0    0  501    0  0.00000000000E+00  0.00000000000E+00  0.23815431751E+03  0.23815431751E+03  0.00000000000E+00 0. -1.
         -1   -1    0    0    0  501 -0.00000000000E+00 -0.00000000000E+00 -0.10334709043E+03  0.10334709043E+03  0.00000000000E+00 0.  1.
         25    2    1    2    0    0  0.83410424937E+02  0.65690349966E+02  0.33485773792E+02  0.16745656723E+03  0.12509150169E+03 0.  0.
          5    1    3    3  502    0  0.85780810258E+02 -0.81747359083E+01  0.35788623801E+02  0.93399527350E+02  0.41800000000E+01 0. -1.
         -5    1    3    3    0  502 -0.23703853208E+01  0.73865085874E+02 -0.23028500098E+01  0.74057039881E+02  0.41800000000E+01 0. -1.
        -11    1    1    2    0    0 -0.14083204320E+02  0.11355147478E+02  0.59655832767E+02  0.62338546672E+02  0.00000000000E+00 0. -1.
         11    1    1    2    0    0 -0.69327220617E+02 -0.77045497444E+02  0.41665620524E+02  0.11170629404E+03  0.00000000000E+00 0.  1.
</event>
<event>
 7    1  0.2661133E-009  0.1063453E+03  0.7561462E-02  0.1267491E+00
          2   -1    0    0  501    0  0.00000000000E+00  0.00000000000E+00  0.40946361950E+03  0.40946361950E+03  0.00000000000E+00 0. -1.
         -2   -1    0    0    0  501 -0.00000000000E+00 -0.00000000000E+00 -0.37459905006E+02  0.37459905006E+02  0.00000000000E+00 0.  1.
         25    2    1    2    0    0 -0.35996939320E+02 -0.39532950508E+02  0.25244874888E+03  0.28676941286E+03  0.12509073318E+03 0.  0.
          5    1    3    3  502    0 -0.46494391372E+02  0.29480828459E+02  0.16955055376E+03  0.17831351704E+03  0.41800000000E+01 0.  1.
         -5    1    3    3    0  502  0.10497452052E+02 -0.69013778967E+02  0.82898195112E+02  0.10845589583E+03  0.41800000000E+01 0.  1.
        -11    1    1    2    0    0 -0.20998823812E+02  0.12802025784E+02 -0.49607162879E+00  0.24598547776E+02  0.00000000000E+00 0.  1.
         11    1    1    2    0    0  0.56995763131E+02  0.26730924724E+02  0.12005103725E+03  0.13555556387E+03  0.00000000000E+00 0. -1.
</event>
<event>
 7    1  0.2661133E-009  0.1101627E+03  0.7561462E-02  0.1260269E+00
          1   -1    0    0  501    0  0.00000000000E+00  0.00000000000E+00  0.27702745193E+03  0.27702745193E+03  0.00000000000E+00 0. -1.
         -1   -1    0    0    0  501 -0.00000000000E+00 -0.00000000000E+00 -0.51144555680E+02  0.51144555680E+02  0.00000000000E+00 0.  1.
         25    2    1    2    0    0 -0.30290813408E+02 -0.29907253246E+02  0.16672451699E+03  0.21273542883E+03  0.12508925190E+03 0.  0.
          5    1    3    3  502    0  0.46115224906E+02 -0.30478301505E+02  0.75500715046E+02  0.93666275698E+02  0.41800000000E+01 0.  1.
         -5    1    3    3    0  502 -0.76406038314E+02  0.57104825887E+00  0.91223801942E+02  0.11906915313E+03  0.41800000000E+01 0.  1.
        -11    1    1    2    0    0  0.53445254191E+02  0.35983282782E+02  0.16481525539E+02  0.66504379701E+02  0.00000000000E+00 0.  1.
         11    1    1    2    0    0 -0.23154440783E+02 -0.60760295365E+01  0.42676853723E+02  0.48932199078E+02  0.00000000000E+00 0. -1.
</event>
<event>
 7    1  0.2661133E-009  0.2418845E+03  0.7561462E-02  0.1118544E+00
          1   -1    0    0  501    0  0.00000000000E+00  0.00000000000E+00  0.15403537920E+04  0.15403537920E+04  0.00000000000E+00 0. -1.
         -1   -1    0    0    0  501 -0.00000000000E+00 -0.00000000000E+00 -0.45446409514E+02  0.45446409514E+02  0.00000000000E+00 0.  1.
         25    2    1    2    0    0  0.65230495671E+02  0.20849804666E+03  0.10721117845E+04  0.11012706543E+04  0.12508765937E+03 0.  0.
          5    1    3    3  502    0 -0.25066584282E+02  0.63342180468E+01  0.18948557264E+03  0.19128698493E+03  0.41800000000E+01 0. -1.
         -5    1    3    3    0  502  0.90297079953E+02  0.20216382862E+03  0.88262621186E+03  0.90998366936E+03  0.41800000000E+01 0. -1.
        -11    1    1    2    0    0  0.14532811231E+02 -0.18891283195E+01  0.35072488504E+02  0.38011193851E+02  0.00000000000E+00 0. -1.
         11    1    1    2    0    0 -0.79763306902E+02 -0.20660891834E+03  0.38772310950E+03  0.44651835338E+03  0.00000000000E+00 0.  1.
</event>
<event>
 7    1  0.2661133E-009  0.5727849E+02  0.7561462E-02  0.1409621E+00
         -1   -1    0    0    0  501 -0.00000000000E+00  0.00000000000E+00  0.15168285315E+03  0.15168285315E+03  0.00000000000E+00 0.  1.
          1   -1    0    0  501    0  0.00000000000E+00 -0.00000000000E+00 -0.78668684179E+02  0.78668684179E+02  0.00000000000E+00 0. -1.
         25    2    1    2    0    0 -0.31304301295E+01  0.13399186061E+01  0.79175585433E+02  0.14813038725E+03  0.12514888463E+03 0.  0.
          5    1    3    3  502    0 -0.38758064066E+02 -0.19496491125E+02 -0.14292362452E+02  0.45869867242E+02  0.41800000000E+01 0. -1.
         -5    1    3    3    0  502  0.35627633937E+02  0.20836409732E+02  0.93467947885E+02  0.10226052001E+03  0.41800000000E+01 0. -1.
        -11    1    1    2    0    0  0.46118657984E+01  0.13657813138E+02 -0.41430677426E+02  0.43866914615E+02  0.00000000000E+00 0. -1.
         11    1    1    2    0    0 -0.14814356689E+01 -0.14997731745E+02  0.35269260965E+02  0.38354235465E+02  0.00000000000E+00 0.  1.
</event>
<event>
 7    1  0.2661133E-009  0.8857518E+02  0.7561462E-02  0.1306339E+00
          2   -1    0    0  501    0  0.00000000000E+00  0.00000000000E+00  0.28936482231E+03  0.28936482231E+03  0.00000000000E+00 0. -1.
         -2   -1    0    0    0  501 -0.00000000000E+00 -0.00000000000E+00 -0.44746691423E+02  0.44746691423E+02  0.00000000000E+00 0.  1.
         25    2    1    2    0    0 -0.13159005150E+02 -0.26899799210E+02  0.14733117350E+03  0.19557629564E+03  0.12508738592E+03 0.  0.
          5    1    3    3  502    0  0.51435753084E+02  0.11316783636E+01  0.33092994065E+02  0.61315055634E+02  0.41800000000E+01 0.  1.
         -5    1    3    3    0  502 -0.64594758234E+02 -0.28031477574E+02  0.11423817943E+03  0.13426124000E+03  0.41800000000E+01 0.  1.
        -11    1    1    2    0    0  0.29835724058E+02  0.23487819652E+02  0.11059260999E+03  0.11692978015E+03  0.00000000000E+00 0. -1.
         11    1    1    2    0    0 -0.16676718908E+02  0.34119795584E+01 -0.13305652596E+02  0.21605437951E+02  0.00000000000E+00 0.  1.
</event>
<event>
 7    1  0.2661133E-009  0.1522826E+03  0.7561462E-02  0.1197696E+00
         -2   -1    0    0    0  501 -0.00000000000E+00  0.00000000000E+00  0.95889416171E+02  0.95889416171E+02  0.00000000000E+00 0. -1.
          2   -1    0    0  501    0  0.00000000000E+00 -0.00000000000E+00 -0.27919670454E+03  0.27919670454E+03  0.00000000000E+00 0.  1.
         25    2    1    2    0    0 -0.10837002776E+03  0.55216428722E+02 -0.10042798908E+03  0.20131101406E+03  0.12508967374E+03 0.  0.
          5    1    3    3  502    0 -0.74490549529E+02 -0.13153267062E+02 -0.81538520059E+00  0.75762706238E+02  0.41800000000E+01 0.  1.
         -5    1    3    3    0  502 -0.33879478230E+02  0.68369695784E+02 -0.99612603876E+02  0.12554830782E+03  0.41800000000E+01 0.  1.
        -11    1    1    2    0    0  0.35379303247E+02  0.25464630515E+02 -0.18481809587E+02  0.47346803389E+02  0.00000000000E+00 0.  1.
         11    1    1    2    0    0  0.72990724512E+02 -0.80681059236E+02 -0.64397489701E+02  0.12642830326E+03  0.00000000000E+00 0. -1.
</event>
<event>
 7    1  0.2661133E-009  0.1738441E+03  0.7561462E-02  0.1173897E+00
         -1   -1    0    0    0  501 -0.00000000000E+00  0.00000000000E+00  0.55157739205E+03  0.55157739205E+03  0.00000000000E+00 0.  1.
          1   -1    0    0  501    0  0.00000000000E+00 -0.00000000000E+00 -0.62082555312E+02  0.62082555312E+02  0.00000000000E+00 0. -1.
         25    2    1    2    0    0  0.45663261262E+02 -0.14188397618E+03  0.23064072864E+03  0.30176085809E+03  0.12509305992E+03 0.  0.
          5    1    3    3  502    0  0.53617180431E+02 -0.25187966944E+01  0.50405779406E+02  0.73752026221E+02  0.41800000000E+01 0. -1.
         -5    1    3    3    0  502 -0.79539191690E+01 -0.13936517949E+03  0.18023494924E+03  0.22800883187E+03  0.41800000000E+01 0. -1.
        -11    1    1    2    0    0  0.67883447489E+01  0.28022901414E+02  0.56796581870E+01  0.29387465784E+02  0.00000000000E+00 0. -1.
         11    1    1    2    0    0 -0.52451606011E+02  0.11386107477E+03  0.25317444991E+03  0.28251162349E+03  0.00000000000E+00 0.  1.
</event>
<event>
 7    1  0.2661133E-009  0.1068619E+03  0.7561462E-02  0.1266494E+00
         -4   -1    0    0    0  501 -0.00000000000E+00  0.00000000000E+00  0.18343809581E+02  0.18343809581E+02  0.00000000000E+00 0. -1.
          4   -1    0    0  501    0  0.00000000000E+00 -0.00000000000E+00 -0.99102464649E+03  0.99102464649E+03  0.00000000000E+00 0.  1.
         25    2    1    2    0    0 -0.96766800255E+01  0.62534304567E+02 -0.74183547076E+03  0.75496479752E+03  0.12509117651E+03 0.  0.
          5    1    3    3  502    0  0.39700941676E+02 -0.19436114233E+02 -0.23467845379E+03  0.23884173919E+03  0.41800000000E+01 0. -1.
         -5    1    3    3    0  502 -0.49377621702E+02  0.81970418801E+02 -0.50715701696E+03  0.51612305833E+03  0.41800000000E+01 0. -1.
        -11    1    1    2    0    0 -0.14484544111E+02 -0.21650016124E+02 -0.90419302933E+01  0.27573206554E+02  0.00000000000E+00 0. -1.
         11    1    1    2    0    0  0.24161224136E+02 -0.40884288444E+02 -0.22180343586E+03  0.22683045199E+03  0.00000000000E+00 0.  1.
</event>
<event>
 7    1  0.2661133E-009  0.1523636E+03  0.7561462E-02  0.1197598E+00
          2   -1    0    0  501    0  0.00000000000E+00  0.00000000000E+00  0.16878743917E+03  0.16878743917E+03  0.00000000000E+00 0. -1.
         -2   -1    0    0    0  501 -0.00000000000E+00 -0.00000000000E+00 -0.18219228676E+03  0.18219228676E+03  0.00000000000E+00 0.  1.
         25    2    1    2    0    0 -0.50930183488E+02  0.96792499305E+02 -0.91637030989E+02  0.18975782841E+03  0.12509203205E+03 0.  0.
          5    1    3    3  502    0 -0.59074047223E+02 -0.69899070623E+01 -0.49013847059E+02  0.77190876790E+02  0.41800000000E+01 0.  1.
         -5    1    3    3    0  502  0.81438637355E+01  0.10378240637E+03 -0.42623183929E+02  0.11256695162E+03  0.41800000000E+01 0.  1.
        -11    1    1    2    0    0  0.69400098166E+02 -0.10043812423E+03  0.69355157289E+02  0.14040772153E+03  0.00000000000E+00 0.  1.
         11    1    1    2    0    0 -0.18469914679E+02  0.36456249201E+01  0.88770261093E+01  0.20814175983E+02  0.00000000000E+00 0. -1.
</event>
<event>
 7    1  0.2661133E-009  0.1263305E+03  0.7561462E-02  0.1233004E+00
          1   -1    0    0  501    0  0.00000000000E+00  0.00000000000E+00  0.53569570504E+02  0.53569570504E+02  0.00000000000E+00 0.  1.
         -1   -1    0    0    0  501 -0.00000000000E+00 -0.00000000000E+00 -0.44366637916E+03  0.44366637916E+03  0.00000000000E+00 0. -1.
         25    2    1    2    0    0  0.48137565114E+02 -0.93532166211E+02 -0.16448231324E+03  0.23186628707E+03  0.12506819109E+03 0.  0.
          5    1    3    3  502    0  0.52439453873E+02 -0.50768707771E+02 -0.17303486691E+03  0.18784540340E+03  0.41800000000E+01 0. -1.
         -5    1    3    3    0  502 -0.43018887588E+01 -0.42763458440E+02  0.85525536776E+01  0.44020883670E+02  0.41800000000E+01 0. -1.
        -11    1    1    2    0    0 -0.53822686861E+02  0.12650527547E+02 -0.12082513498E+03  0.13287449233E+03  0.00000000000E+00 0. -1.
         11    1    1    2    0    0  0.56851217466E+01  0.80881638664E+02 -0.10478936044E+03  0.13249517026E+03  0.00000000000E+00 0.  1.
</event>
<event>
 7    1  0.2661133E-009  0.1026782E+03  0.7561462E-02  0.1274763E+00
          2   -1    0    0  501    0  0.00000000000E+00  0.00000000000E+00  0.21800918991E+03  0.21800918991E+03  0.00000000000E+00 0. -1.
         -2   -1    0    0    0  501 -0.00000000000E+00 -0.00000000000E+00 -0.79344407950E+02  0.79344407950E+02  0.00000000000E+00 0.  1.
         25    2    1    2    0    0  0.73225517101E+02 -0.96229856340E+01  0.73427543474E+02  0.16277697782E+03  0.12510060815E+03 0.  0.
          5    1    3    3  502    0  0.10702785296E+01 -0.33396668031E+02 -0.22379841514E+02  0.40432816348E+02  0.41800000000E+01 0.  1.
         -5    1    3    3    0  502  0.72155238571E+02  0.23773682397E+02  0.95807384988E+02  0.12234416147E+03  0.41800000000E+01 0.  1.
        -11    1    1    2    0    0 -0.26553473180E+02 -0.25785192274E+02  0.66357911095E+02  0.75982468000E+02  0.00000000000E+00 0. -1.
         11    1    1    2    0    0 -0.46672043921E+02  0.35408177908E+02 -0.11206726057E+01  0.58594152043E+02  0.00000000000E+00 0.  1.
</event>
<event>
 7    1  0.2661133E-009  0.1302386E+03  0.7561462E-02  0.1227102E+00
         -1   -1    0    0    0  501 -0.00000000000E+00  0.00000000000E+00  0.16827849569E+03  0.16827849569E+03  0.00000000000E+00 0.  1.
          1   -1    0    0  501    0  0.00000000000E+00 -0.00000000000E+00 -0.11381669095E+03  0.11381669095E+03  0.00000000000E+00 0. -1.
         25    2    1    2    0    0 -0.81908634332E+02  0.23610823932E+01  0.56280822881E+02  0.15978154354E+03  0.12509201231E+03 0.  0.
          5    1    3    3  502    0 -0.43747305514E+02 -0.60898810141E+02  0.34502480658E+02  0.82646145633E+02  0.41800000000E+01 0.  1.
         -5    1    3    3    0  502 -0.38161328818E+02  0.63259892534E+02  0.21778342222E+02  0.77135397909E+02  0.41800000000E+01 0.  1.
        -11    1    1    2    0    0  0.31518461459E+02  0.36148681161E+02 -0.25862265523E+02  0.54488506498E+02  0.00000000000E+00 0. -1.
         11    1    1    2    0    0  0.50390172873E+02 -0.38509763554E+02  0.24043247383E+02  0.67825136608E+02  0.00000000000E+00 0.  1.
</event>
<event>
 7    1  0.2661133E-009  0.1551788E+03  0.7561462E-02  0.1194250E+00
          3   -1    0    0  501    0  0.00000000000E+00  0.00000000000E+00  0.33222316327E+03  0.33222316327E+03  0.00000000000E+00 0. -1.
         -3   -1    0    0    0  501 -0.00000000000E+00 -0.00000000000E+00 -0.78449088941E+02  0.78449088941E+02  0.00000000000E+00 0.  1.
         25    2    1    2    0    0 -0.11453375674E+02 -0.11392205401E+03  0.17715049884E+03  0.24523625876E+03  0.12509639950E+03 0.  0.
          5    1    3    3  502    0 -0.13047604129E+01 -0.14019751113E+03  0.15585026719E+03  0.20967551767E+03  0.41800000000E+01 0. -1.
         -5    1    3    3    0  502 -0.10148615261E+02  0.26275457121E+02  0.21300231646E+02  0.35560741089E+02  0.41800000000E+01 0. -1.
        -11    1    1    2    0    0  0.14468621059E+02  0.12718968176E+03  0.53781754730E+02  0.13884895852E+03  0.00000000000E+00 0.  1.
         11    1    1    2    0    0 -0.30152453842E+01 -0.13267627745E+02  0.22841820763E+02  0.26587034932E+02  0.00000000000E+00 0. -1.
</event>
<event>
 7    1  0.2661133E-009  0.1603923E+03  0.7561462E-02  0.1188255E+00
         -3   -1    0    0    0  501 -0.00000000000E+00  0.00000000000E+00  0.25330703101E+03  0.25330703101E+03  0.00000000000E+00 0.  1.
          3   -1    0    0  501    0  0.00000000000E+00 -0.00000000000E+00 -0.13538193641E+03  0.13538193641E+03  0.00000000000E+00 0. -1.
         25    2    1    2    0    0  0.34489056466E+02 -0.13815937854E+03  0.11313839290E+03  0.22073970066E+03  0.12509280798E+03 0.  0.
          5    1    3    3  502    0  0.65949216852E+02 -0.52938598261E+02  0.13327936476E+02  0.85714063490E+02  0.41800000000E+01 0.  1.
         -5    1    3    3    0  502 -0.31460160386E+02 -0.85220780275E+02  0.99810456427E+02  0.13502563717E+03  0.41800000000E+01 0.  1.
        -11    1    1    2    0    0 -0.36700824414E+02  0.93270849583E+02  0.42894930302E+02  0.10902466207E+03  0.00000000000E+00 0.  1.
         11    1    1    2    0    0  0.22117679481E+01  0.44888528953E+02 -0.38108228609E+02  0.58924604681E+02  0.00000000000E+00 0. -1.
</event>
<event>
 7    1  0.2661133E-009  0.1260461E+03  0.7561462E-02  0.1233443E+00
         -1   -1    0    0    0  501 -0.00000000000E+00  0.00000000000E+00  0.50510334543E+02  0.50510334543E+02  0.00000000000E+00 0.  1.
          1   -1    0    0  501    0  0.00000000000E+00 -0.00000000000E+00 -0.52873497948E+03  0.52873497948E+03  0.00000000000E+00 0. -1.
         25    2    1    2    0    0  0.70600059661E+02  0.61233601521E+02 -0.39215963124E+03  0.42210266068E+03  0.12509019705E+03 0.  0.
          5    1    3    3  502    0  0.70765830337E+02  0.77289291061E+02 -0.39170809847E+03  0.40550480153E+03  0.41800000000E+01 0. -1.
         -5    1    3    3    0  502 -0.16577067611E+00 -0.16055689540E+02 -0.45153277039E+00  0.16597859150E+02  0.41800000000E+01 0. -1.
        -11    1    1    2    0    0  0.22316077176E+02 -0.92648186125E+01 -0.23242612044E+02  0.33527051452E+02  0.00000000000E+00 0.  1.
         11    1    1    2    0    0 -0.92916136837E+02 -0.51968782908E+02 -0.62822401652E+02  0.12361560189E+03  0.00000000000E+00 0. -1.
</event>
<event>
 6    1  0.2661133E-009  0.8442000E+02  0.7561462E-02  0.1316956E+00
         -2   -1    0    0    0  501 -0.00000000000E+00  0.00000000000E+00  0.48114337504E+02  0.48114337504E+02  0.00000000000E+00 0. -1.
          2   -1    0    0  501    0  0.00000000000E+00 -0.00000000000E+00 -0.25563387829E+03  0.25563387829E+03  0.00000000000E+00 0.  1.
          5    1    1    2  502    0 -0.12538104093E+02  0.28124843361E+02  0.13570875181E+02  0.33909466547E+02  0.41800000000E+01 0. -1.
         -5    1    1    2    0  502  0.35851054929E+02 -0.31767949061E+02 -0.12908126500E+03  0.13774594767E+03  0.41800000000E+01 0. -1.
        -11    1    1    2    0    0 -0.55845560009E+02  0.94363028531E+01 -0.36147525959E+02  0.67189389171E+02  0.00000000000E+00 0.  1.
         11    1    1    2    0    0  0.32532609172E+02 -0.57931971534E+01 -0.55861625014E+02  0.64903412406E+02  0.00000000000E+00 0. -1.
</event>
<event>
 7    1  0.2661133E-009  0.1862250E+03  0.7561462E-02  0.1161911E+00
         -1   -1    0    0    0  501 -0.00000000000E+00  0.00000000000E+00  0.71400714284E+03  0.71400714284E+03  0.00000000000E+00 0.  1.
          1   -1    0    0  501    0  0.00000000000E+00 -0.00000000000E+00 -0.58566291705E+02  0.58566291705E+02  0.00000000000E+00 0. -1.
         25    2    1    2    0    0  0.13731609995E+03  0.10098196000E+03  0.28442852900E+03  0.35440034541E+03  0.12508776586E+03 0.  0.
          5    1    3    3  502    0  0.13057055649E+03  0.58231379929E+02  0.27490793819E+03  0.30988935237E+03  0.41800000000E+01 0.  1.
         -5    1    3    3    0  502  0.67455434606E+01  0.42750580067E+02  0.95205908130E+01  0.44510993047E+02  0.41800000000E+01 0.  1.
        -11    1    1    2    0    0 -0.75958202931E+02 -0.10592330132E+02  0.10040051432E+03  0.12634124158E+03  0.00000000000E+00 0.  1.
         11    1    1    2    0    0 -0.61357897017E+02 -0.90389629864E+02  0.27061180781E+03  0.29183184754E+03  0.00000000000E+00 0. -1.
</event>
<event>
 7    1  0.2661133E-009  0.1040221E+03  0.7561462E-02  0.1272058E+00
         -2   -1    0    0    0  501 -0.00000000000E+00  0.00000000000E+00  0.17288392693E+02  0.17288392693E+02  0.00000000000E+00 0.  1.
          2   -1    0    0  501    0  0.00000000000E+00 -0.00000000000E+00 -0.78602647774E+03  0.78602647774E+03  0.00000000000E+00 0. -1.
         25    2    1    2    0    0 -0.22538378915E+02  0.34617790161E+02 -0.45149972581E+03  0.47032525872E+03  0.12508987435E+03 0.  0.
          5    1    3    3  502    0  0.34733172089E+01 -0.37443614504E+02 -0.56872875584E+02  0.68308744511E+02  0.41800000000E+01 0. -1.
         -5    1    3    3    0  502 -0.26011696124E+02  0.72061404664E+02 -0.39462685023E+03  0.40201651421E+03  0.41800000000E+01 0. -1.
        -11    1    1    2    0    0 -0.12126043566E+02  0.23137472123E+02 -0.15716369000E+03  0.15931983242E+03  0.00000000000E+00 0.  1.
         11    1    1    2    0    0  0.34664422481E+02 -0.57755262284E+02 -0.16007466923E+03  0.17366977929E+03  0.00000000000E+00 0. -1.
</event>
<event>
 7    1  0.2661133E-009  0.1277619E+03  0.7561462E-02  0.1230815E+00
          2   -1    0    0  501    0  0.00000000000E+00  0.00000000000E+00  0.34477415095E+03  0.34477415095E+03  0.00000000000E+00 0. -1.
         -2   -1    0    0    0  501 -0.00000000000E+00 -0.00000000000E+00 -0.58030180289E+02  0.58030180289E+02  0.00000000000E+00 0.  1.
         25    2    1    2    0    0 -0.77539562396E+02 -0.33580890262E+02  0.14859636265E+03  0.21182185134E+03  0.12509019859E+03 0.  0.
          5    1    3    3  502    0 -0.46721669910E+02  0.28045206309E+02  0.12894682842E+03  0.14005072294E+03  0.41800000000E+01 0. -1.
         -5    1    3    3    0  502 -0.30817892485E+02 -0.61626096571E+02  0.19649534228E+02  0.71771128396E+02  0.41800000000E+01 0. -1.
        -11    1    1    2    0    0  0.10249768347E+03  0.25721955758E+02  0.10916195739E+03  0.15193329808E+03  0.00000000000E+00 0.  1.
         11    1    1    2    0    0 -0.24958121074E+02  0.78589345044E+01  0.28985650630E+02  0.39049181829E+02  0.00000000000E+00 0. -1.
</event>
<event>
 7    1  0.2950097E-009  0.1358143E+03  0.7561462E-02  0.1219075E+00
          1   -1    0    0  501    0  0.00000000000E+00  0.00000000000E+00  0.25846884303E+03  0.25846884303E+03  0.00000000000E+00 0. -1.
         -1   -1    0    0    0  501 -0.00000000000E+00 -0.00000000000E+00 -0.92306192691E+02  0.92306192691E+02  0.00000000000E+00 0.  1.
         25    2    1    2    0    0  0.98468473717E+02  0.47975217496E+02  0.88850193532E+02  0.18852304957E+03  0.12509564948E+03 0.  0.
          5    1    3    3  502    0  0.11450573259E+02  0.65727877869E+02  0.62061147962E+01  0.67136114112E+02  0.41800000000E+01 0. -1.
         -5    1    3    3    0  502  0.87017900458E+02 -0.17752660373E+02  0.82644078736E+02  0.12138693546E+03  0.41800000000E+01 0. -1.
        -11    1    1    2    0    0 -0.66292070235E+02 -0.11586389064E+02  0.89685457061E+02  0.11212655437E+03  0.00000000000E+00 0. -1.
         11    1    1    2    0    0 -0.32176403483E+02 -0.36388828431E+02 -0.12373000251E+02  0.50125431778E+02  0.00000000000E+00 0.  1.
</event>
<event>
 7    1  0.2661133E-009  0.1141726E+03  0.7561462E-02  0.1253032E+00
          2   -1    0    0  501    0  0.00000000000E+00  0.00000000000E+00  0.27496097542E+03  0.27496097542E+03  0.00000000000E+00 0. -1.
         -2   -1    0    0    0  501 -0.00000000000E+00 -0.00000000000E+00 -0.55339991880E+02  0.55339991880E+02  0.00000000000E+00 0.  1.
         25    2    1    2    0    0  0.55143332300E+02 -0.66469789605E+01  0.15056853165E+03  0.20348029909E+03  0.12509348491E+03 0.  0.
          5    1    3    3  502    0  0.91410092316E+02 -0.19304415987E+02  0.12867524526E+03  0.15906997390E+03  0.41800000000E+01 0. -1.
         -5    1    3    3    0  502 -0.36266760016E+02  0.12657437027E+02  0.21893286382E+02  0.44410325182E+02  0.41800000000E+01 0. -1.
        -11    1    1    2    0    0 -0.69707052082E+02  0.23824685826E+02  0.73279812052E+02  0.10390678332E+03  0.00000000000E+00 0. -1.
         11    1    1    2    0    0  0.14563719783E+02 -0.17177706865E+02 -0.42273601618E+01  0.22913884895E+02  0.00000000000E+00 0.  1.
</event>
<event>
 7    1  0.2661133E-009  0.1100205E+03  0.7561462E-02  0.1260532E+00
          2   -1    0    0  501    0  0.00000000000E+00  0.00000000000E+00  0.19469653415E+02  0.19469653415E+02  0.00000000000E+00 0. -1.
         -2   -1    0    0    0  501 -0.00000000000E+00 -0.00000000000E+00 -0.10212578959E+04  0.10212578959E+04  0.00000000000E+00 0.  1.
         25    2    1    2    0    0 -0.48180047709E+02  0.62357853001E+02 -0.71881655046E+03  0.73386253223E+03  0.12508862526E+03 0.  0.
          5    1    3    3  502    0 -0.73789961862E+02  0.46904722243E+02 -0.26585579814E+03  0.27989603292E+03  0.41800000000E+01 0.  1.
         -5    1    3    3    0  502  0.25609914154E+02  0.15453130758E+02 -0.45296075232E+03  0.45396649931E+03  0.41800000000E+01 0.  1.
        -11    1    1    2    0    0 -0.14541916096E+02 -0.10246985851E+01 -0.50518333447E+01  0.15428491536E+02  0.00000000000E+00 0. -1.
         11    1    1    2    0    0  0.62721963804E+02 -0.61333154416E+02 -0.27791985863E+03  0.29143652550E+03  0.00000000000E+00 0.  1.
</event>
<event>
 7    1  0.2661133E-009  0.1102519E+03  0.7561462E-02  0.1260104E+00
         -4   -1    0    0    0  501 -0.00000000000E+00  0.00000000000E+00  0.42120005058E+03  0.42120005058E+03  0.00000000000E+00 0.  1.
          4   -1    0    0  501    0  0.00000000000E+00 -0.00000000000E+00 -0.38067004812E+02  0.38067004812E+02  0.00000000000E+00 0. -1.
         25    2    1    2    0    0  0.63122771102E+02  0.35885219709E+01  0.17429570574E+03  0.22365968935E+03  0.12508917570E+03 0.  0.
          5    1    3    3  502    0 -0.25752733188E+02 -0.59221442041E+01  0.11068677639E+03  0.11387409682E+03  0.41800000000E+01 0.  1.
         -5    1    3    3    0  502  0.88875504289E+02  0.95106661750E+01  0.63608929348E+02  0.10978559253E+03  0.41800000000E+01 0.  1.
        -11    1    1    2    0    0 -0.15403048603E+02 -0.40893893842E+02  0.12314980546E+03  0.13067302340E+03  0.00000000000E+00 0. -1.
         11    1    1    2    0    0 -0.47719722499E+02  0.37305371871E+02  0.85687534565E+02  0.10493434264E+03  0.00000000000E+00 0.  1.
</event>
<event>
 7    1  0.2661133E-009  0.9209475E+02  0.7561462E-02  0.1297857E+00
         -1   -1    0    0    0  501 -0.00000000000E+00  0.00000000000E+00  0.15824797311E+03  0.15824797311E+03  0.00000000000E+00 0.  1.
          1   -1    0    0  501    0  0.00000000000E+00 -0.00000000000E+00 -0.12946244606E+03  0.12946244606E+03  0.00000000000E+00 0. -1.
         25    2    1    2    0    0 -0.42101553372E+02 -0.77285376011E+02 -0.16834775324E+02  0.15387642709E+03  0.12509586329E+03 0.  0.
          5    1    3    3  502    0 -0.57055405089E+01 -0.13136091433E+02  0.51272020833E+02  0.53398526300E+02  0.41800000000E+01 0. -1.
         -5    1    3    3    0  502 -0.36396012863E+02 -0.64149284578E+02 -0.68106796157E+02  0.10047790079E+03  0.41800000000E+01 0. -1.
        -11    1    1    2    0    0  0.96708486973E+01  0.55481541669E+02  0.68398914939E+02  0.88601006458E+02  0.00000000000E+00 0.  1.
         11    1    1    2    0    0  0.32430704674E+02  0.21803834343E+02 -0.22778612569E+02  0.45232985622E+02  0.00000000000E+00 0. -1.
</event>
<event>
 7    1  0.2661133E-009  0.1238636E+03  0.7561462E-02  0.1236856E+00
          1   -1    0    0  501    0  0.00000000000E+00  0.00000000000E+00  0.30963056965E+03  0.30963056965E+03  0.00000000000E+00 0. -1.
         -1   -1    0    0    0  501 -0.00000000000E+00 -0.00000000000E+00 -0.61774814153E+02  0.61774814153E+02  0.00000000000E+00 0.  1.
         25    2    1    2    0    0  0.79382460514E+02 -0.31945821775E+02  0.16656955825E+03  0.22519894920E+03  0.12508812262E+03 0.  0.
          5    1    3    3  502    0  0.83369515653E+02 -0.58493929734E+02  0.16958796501E+03  0.19786249325E+03  0.41800000000E+01 0.  1.
         -5    1    3    3    0  502 -0.39870551387E+01  0.26548107959E+02 -0.30184067639E+01  0.27336455956E+02  0.41800000000E+01 0.  1.
        -11    1    1    2    0    0 -0.40749633854E+02  0.58828436260E+02  0.64184984708E+02  0.96130275325E+02  0.00000000000E+00 0. -1.
         11    1    1    2    0    0 -0.38632826661E+02 -0.26882614484E+02  0.17101212536E+02  0.50076159273E+02  0.00000000000E+00 0.  1.
</event>
<event>
 7    1  0.2661133E-009  0.1169819E+03  0.7561462E-02  0.1248161E+00
          1   -1    0    0  501    0  0.00000000000E+00  0.00000000000E+00  0.98936208316E+02  0.98936208316E+02  0.00000000000E+00 0. -1.
         -1   -1    0    0    0  501 -0.00000000000E+00 -0.00000000000E+00 -0.22944973643E+03  0.22944973643E+03  0.00000000000E+00 0.  1.
         25    2    1    2    0    0  0.95084303314E+02  0.59334931973E+01 -0.11582855212E+03  0.19529168660E+03  0.12508540399E+03 0.  0.
          5    1    3    3  502    0  0.76064322841E+02  0.34877613117E+02 -0.13239032978E+03  0.15667450630E+03  0.41800000000E+01 0.  1.
         -5    1    3    3    0  502  0.19019980472E+02 -0.28944119919E+02  0.16561777662E+02  0.38617180301E+02  0.41800000000E+01 0.  1.
        -11    1    1    2    0    0  0.45289403445E+01 -0.14618139081E+02  0.21816689049E+02  0.26649000205E+02  0.00000000000E+00 0. -1.
         11    1    1    2    0    0 -0.99613243658E+02  0.86846458835E+01 -0.36501665044E+02  0.10644525794E+03  0.00000000000E+00 0.  1.
</event>
<event>
 7    1  0.2661133E-009  0.1102899E+03  0.7561462E-02  0.1260034E+00
         -1   -1    0    0    0  501 -0.00000000000E+00  0.00000000000E+00  0.24941819864E+03  0.24941819864E+03  0.00000000000E+00 0.  1.
          1   -1    0    0  501    0  0.00000000000E+00 -0.00000000000E+00 -0.68666283654E+02  0.68666283654E+02  0.00000000000E+00 0. -1.
         25    2    1    2    0    0  0.21565657191E+01 -0.17670390533E+02  0.15103372001E+02  0.12724928882E+03  0.12508947270E+03 0.  0.
          5    1    3    3  502    0 -0.43336950355E+01 -0.71344413588E+02  0.14326884187E+02  0.73017383365E+02  0.41800000000E+01 0.  1.
         -5    1    3    3    0  502  0.64902607546E+01  0.53674023055E+02  0.77648781434E+00  0.54231905452E+02  0.41800000000E+01 0.  1.
        -11    1    1    2    0    0 -0.18928031940E+02 -0.34830236836E+02  0.69134757876E+02  0.79693353159E+02  0.00000000000E+00 0. -1.
         11    1    1    2    0    0  0.16771466221E+02  0.52500627369E+02  0.96513785110E+02  0.11114184032E+03  0.00000000000E+00 0.  1.
</event>
<event>
 7    1  0.2661133E-009  0.1184111E+03  0.7561462E-02  0.1245742E+00
         -3   -1    0    0    0  501 -0.00000000000E+00  0.00000000000E+00  0.28452316598E+02  0.28452316598E+02  0.00000000000E+00 0.  1.
          3   -1    0    0  501    0  0.00000000000E+00 -0.00000000000E+00 -0.89150821280E+03  0.89150821280E+03  0.00000000000E+00 0. -1.
         25    2    1    2    0    0  0.75508363720E+01 -0.79192062728E+02 -0.70931313550E+03  0.72463925993E+03  0.12509410420E+03 0.  0.
          5    1    3    3  502    0  0.16932123532E+02 -0.11186939191E+03 -0.51133366522E+03  0.52371848090E+03  0.41800000000E+01 0. -1.
         -5    1    3    3    0  502 -0.93812871598E+01  0.32677329178E+02 -0.19797947028E+03  0.20092077902E+03  0.41800000000E+01 0. -1.
        -11    1    1    2    0    0 -0.16074399818E+02  0.85750641552E+01  0.70211075890E+01  0.19524702470E+02  0.00000000000E+00 0.  1.
         11    1    1    2    0    0  0.85235634456E+01  0.70616998572E+02 -0.16076386829E+03  0.17579656700E+03  0.00000000000E+00 0. -1.
</event>
<event>
 7    1  0.2661133E-009  0.2629289E+03  0.7561462E-02  0.1105396E+00
          2   -1    0    0  501    0  0.00000000000E+00  0.00000000000E+00  0.44240321857E+03  0.44240321857E+03  0.00000000000E+00 0. -1.
         -2   -1    0    0    0  501 -0.00000000000E+00 -0.00000000000E+00 -0.18854136162E+03  0.18854136162E+03  0.00000000000E+00 0.  1.
         25    2    1    2    0    0  0.54883905239E+02  0.25097202011E+03  0.21130216936E+03  0.35538098083E+03  0.12509131396E+03 0.  0.
          5    1    3    3  502    0  0.26414564815E+01  0.97155127279E+02  0.11679682374E+02  0.97979505149E+02  0.41800000000E+01 0.  1.
         -5    1    3    3    0  502  0.52242448757E+02  0.15381689283E+03  0.19962248698E+03  0.25740147568E+03  0.41800000000E+01 0.  1.
        -11    1    1    2    0    0 -0.51578578359E+02 -0.80716618375E+02  0.43666700831E+02  0.10527251773E+03  0.00000000000E+00 0.  1.
         11    1    1    2    0    0 -0.33053268795E+01 -0.17025540173E+03 -0.11070132320E+01  0.17029108163E+03  0.00000000000E+00 0. -1.
</event>
<event>
 7    1  0.2661133E-009  0.1806888E+03  0.7561462E-02  0.1167138E+00
          2   -1    0    0  501    0  0.00000000000E+00  0.00000000000E+00  0.41017338657E+03  0.41017338657E+03  0.00000000000E+00 0. -1.
         -2   -1    0    0    0  501 -0.00000000000E+00 -0.00000000000E+00 -0.99533179367E+02  0.99533179367E+02  0.00000000000E+00 0.  1.
         25    2    1    2    0    0  0.15703478483E+03  0.55890792106E+01  0.20411726074E+03  0.28636226263E+03  0.12509327669E+03 0.  0.
          5    1    3    3  502    0  0.13283342871E+03 -0.29128957597E+02  0.20230228959E+03  0.24379685135E+03  0.41800000000E+01 0.  1.
         -5    1    3    3    0  502  0.24201356115E+02  0.34718036808E+02  0.18149711559E+01  0.42565411285E+02  0.41800000000E+01 0.  1.
        -11    1    1    2    0    0 -0.15857211701E+03  0.17609984794E+02  0.11699377228E+03  0.19784531991E+03  0.00000000000E+00 0. -1.
         11    1    1    2    0    0  0.15373321817E+01 -0.23199064004E+02 -0.10470825823E+02  0.25498983398E+02  0.00000000000E+00 0.  1.
</event>
<event>
 7    1  0.3273713E-009  0.2258544E+03  0.7561462E-02  0.1129592E+00
         -1   -1    0    0    0  501 -0.00000000000E+00  0.00000000000E+00  0.52783234601E+02  0.52783234601E+02  0.00000000000E+00 0.  1.
          1   -1    0    0  501    0  0.00000000000E+00 -0.00000000000E+00 -0.10062492982E+04  0.10062492982E+04  0.00000000000E+00 0. -1.
         25    2    1    2    0    0  0.52548691808E+02 -0.19340053179E+03 -0.42035762747E+03  0.48219670132E+03  0.12509193852E+03 0.  0.
          5    1    3    3  502    0  0.62267514049E+02 -0.30440858978E+02 -0.16590352496E+03  0.17984810590E+03  0.41800000000E+01 0.  1.
         -5    1    3    3    0  502 -0.97188222404E+01 -0.16295967281E+03 -0.25445410251E+03  0.30234859542E+03  0.41800000000E+01 0.  1.
        -11    1    1    2    0    0 -0.76374106984E+02  0.12442144571E+03 -0.38428921445E+03  0.41108624486E+03  0.00000000000E+00 0. -1.
         11    1    1    2    0    0  0.23825415175E+02  0.68979086084E+02 -0.14881922170E+03  0.16574958665E+03  0.00000000000E+00 0.  1.
</event>
<event>
 7    1  0.2661133E-009  0.1057134E+03  0.7561462E-02  0.1268720E+00
         -1   -1    0    0    0  501 -0.00000000000E+00  0.00000000000E+00  0.86285834643E+03  0.86285834643E+03  0.00000000000E+00 0.  1.
          1   -1    0    0  501    0  0.00000000000E+00 -0.00000000000E+00 -0.21673059483E+02  0.21673059483E+02  0.00000000000E+00 0. -1.
         25    2    1    2    0    0  0.23351263385E+02 -0.87787921443E+02  0.46366783708E+03  0.48876084731E+03  0.12508917646E+03 0.  0.
          5    1    3    3  502    0 -0.70583894391E+01 -0.68363487333E+02  0.44011432417E+03  0.44546770703E+03  0.41800000000E+01 0. -1.
         -5    1    3    3    0  502  0.30409652824E+02 -0.19424434110E+02  0.23553512910E+02  0.43293140286E+02  0.41800000000E+01 0. -1.
        -11    1    1    2    0    0 -0.12971517998E+02 -0.42317745764E+01  0.10405810177E+02  0.17159518661E+02  0.00000000000E+00 0. -1.
         11    1    1    2    0    0 -0.10379745388E+02  0.92019696020E+02  0.36711163969E+03  0.37861103994E+03  0.00000000000E+00 0.  1.
</event>
<event>
 7    1  0.2698167E-009  0.1965664E+03  0.7561462E-02  0.1152669E+00
         -2   -1    0    0    0  501 -0.00000000000E+00  0.00000000000E+00  0.79559475706E+02  0.79559475706E+02  0.00000000000E+00 0.  1.
          2   -1    0    0  501    0  0.00000000000E+00 -0.00000000000E+00 -0.70461897470E+03  0.70461897470E+03  0.00000000000E+00 0. -1.
         25    2    1    2    0    0  0.14893873477E+03 -0.10043286738E+03 -0.50212273794E+03  0.54776308481E+03  0.12509054941E+03 0.  0.
          5    1    3    3  502    0 -0.17699257721E+02 -0.23807791497E+02 -0.35993064039E+02  0.46829987388E+02  0.41800000000E+01 0.  1.
         -5    1    3    3    0  502  0.16663799249E+03 -0.76625075882E+02 -0.46612967391E+03  0.50093309742E+03  0.41800000000E+01 0.  1.
        -11    1    1    2    0    0 -0.55229416421E+02  0.40341432828E+02  0.28370408749E+01  0.68452673007E+02  0.00000000000E+00 0. -1.
         11    1    1    2    0    0 -0.93709318350E+02  0.60091434550E+02 -0.12577380192E+03  0.16796269259E+03  0.00000000000E+00 0.  1.
</event>
<event>
 7    1  0.3422206E-009  0.1221800E+03  0.7561462E-02  0.1239543E+00
         -3   -1    0    0    0  501 -0.00000000000E+00  0.00000000000E+00  0.12835602142E+03  0.12835602142E+03  0.00000000000E+00 0.  1.
          3   -1    0    0  501    0  0.00000000000E+00 -0.00000000000E+00 -0.18120623418E+03  0.18120623418E+03  0.00000000000E+00 0. -1.
         25    2    1    2    0    0  0.93790814377E+02 -0.35798856053E+02  0.87129197044E+01  0.16062980852E+03  0.12509094875E+03 0.  0.
          5    1    3    3  502    0  0.20617276838E+02 -0.32936945506E+02 -0.52253517165E+02  0.65251949700E+02  0.41800000000E+01 0.  1.
         -5    1    3    3    0  502  0.73173537538E+02 -0.28619105468E+01  0.60966436870E+02  0.95377858817E+02  0.41800000000E+01 0.  1.
        -11    1    1    2    0    0 -0.85865036457E+02  0.61120221926E+02 -0.34173046121E+02  0.11079838941E+03  0.00000000000E+00 0. -1.
         11    1    1    2    0    0 -0.79257779197E+01 -0.25321365873E+02 -0.27390086338E+02  0.38134057677E+02  0.00000000000E+00 0.  1.
</event>
<event>
 7    1  0.2661133E-009  0.1695893E+03  0.7561462E-02  0.1178277E+00
          3   -1    0    0  501    0  0.00000000000E+00  0.00000000000E+00  0.42491684325E+03  0.42491684325E+03  0.00000000000E+00 0. -1.
         -3   -1    0    0    0  501 -0.00000000000E+00 -0.00000000000E+00 -0.92395555126E+02  0.92395555126E+02  0.00000000000E+00 0.  1.
         25    2    1    2    0    0 -0.12490237152E+03  0.96311781016E+02  0.10970962678E+03  0.22922826722E+03  0.12503133492E+03 0.  0.
          5    1    3    3  502    0 -0.16231522102E+02  0.18910588230E+02  0.90996199547E+02  0.94439681220E+02  0.41800000000E+01 0.  1.
         -5    1    3    3    0  502 -0.10867084942E+03  0.77401192786E+02  0.18713427236E+02  0.13478858600E+03  0.41800000000E+01 0.  1.
        -11    1    1    2    0    0  0.18096907577E+02 -0.67384722332E+02  0.10842560062E+03  0.12893529283E+03  0.00000000000E+00 0. -1.
         11    1    1    2    0    0  0.10680546394E+03 -0.28927058684E+02  0.11438606072E+03  0.15914883832E+03  0.00000000000E+00 0.  1.
</event>
<event>
 7    1  0.2661133E-009  0.1228548E+03  0.7561462E-02  0.1238461E+00
         -1   -1    0    0    0  501 -0.00000000000E+00  0.00000000000E+00  0.27258478175E+03  0.27258478175E+03  0.00000000000E+00 0.  1.
          1   -1    0    0  501    0  0.00000000000E+00 -0.00000000000E+00 -0.97059662834E+02  0.97059662834E+02  0.00000000000E+00 0. -1.
         25    2    1    2    0    0  0.66140312434E+02 -0.41140636549E+02 -0.10039696117E+02  0.14769877193E+03  0.12508812425E+03 0.  0.
          5    1    3    3  502    0  0.91287822888E+02 -0.39801134915E+02 -0.40820531467E+02  0.10770972629E+03  0.41800000000E+01 0. -1.
         -5    1    3    3    0  502 -0.25147510454E+02 -0.13395016341E+01  0.30780835350E+02  0.39989045644E+02  0.41800000000E+01 0. -1.
        -11    1    1    2    0    0 -0.68319593390E+02  0.66330889564E+02  0.13252708212E+03  0.16318940298E+03  0.00000000000E+00 0.  1.
         11    1    1    2    0    0  0.21792809563E+01 -0.25190253015E+02  0.53037732919E+02  0.58756269671E+02  0.00000000000E+00 0. -1.
</event>
<event>
 7    1  0.2661133E-009  0.1040738E+03  0.7561462E-02  0.1271955E+00
          1   -1    0    0  501    0  0.00000000000E+00  0.00000000000E+00  0.26163499035E+03  0.26163499035E+03  0.00000000000E+00 0. -1.
         -1   -1    0    0    0  501 -0.00000000000E+00 -0.00000000000E+00 -0.65242718041E+02  0.65242718041E+02  0.00000000000E+00 0.  1.
         25    2    1    2    0    0  0.25148707587E+02  0.61447018824E+02  0.74838505094E+02  0.16018097890E+03  0.12509576549E+03 0.  0.
          5    1    3    3  502    0 -0.23111312424E+02 -0.25154904341E+02 -0.23064195526E+01  0.34491940297E+02  0.41800000000E+01 0.  1.
         -5    1    3    3    0  502  0.48260020011E+02  0.86601923165E+02  0.77144924647E+02  0.12568903861E+03  0.41800000000E+01 0.  1.
        -11    1    1    2    0    0 -0.30035222288E+02 -0.29203982181E+02  0.12691271148E+03  0.13364813313E+03  0.00000000000E+00 0. -1.
         11    1    1    2    0    0  0.48865147013E+01 -0.32243036643E+02 -0.53589442630E+01  0.33048596362E+02  0.00000000000E+00 0.  1.
</event>
<event>
 7    1  0.2661133E-009  0.9895363E+02  0.7561462E-02  0.1282512E+00
          2   -1    0    0  501    0  0.00000000000E+00  0.00000000000E+00  0.26012815744E+03  0.26012815744E+03  0.00000000000E+00 0. -1.
         -2   -1    0    0    0  501 -0.00000000000E+00 -0.00000000000E+00 -0.76616190980E+02  0.76616190980E+02  0.00000000000E+00 0.  1.
         25    2    1    2    0    0  0.82018531875E+02  0.15148487981E+02  0.61004737613E+02  0.16225100301E+03  0.12508914304E+03 0.  0.
          5    1    3    3  502    0  0.49160676552E+02 -0.22612089598E+02 -0.27230100085E+02  0.60720914565E+02  0.41800000000E+01 0.  1.
         -5    1    3    3    0  502  0.32857855323E+02  0.37760577579E+02  0.88234837698E+02  0.10153008844E+03  0.41800000000E+01 0.  1.
        -11    1    1    2    0    0 -0.20729855314E+02 -0.23740344310E+02 -0.57943839484E+01  0.32045369940E+02  0.00000000000E+00 0.  1.
         11    1    1    2    0    0 -0.61288676561E+02  0.85918563291E+01  0.12830161279E+03  0.14244797547E+03  0.00000000000E+00 0. -1.
</event>
<event>
 7    1  0.2661133E-009  0.1712217E+03  0.7561462E-02  0.1176580E+00
          2   -1    0    0  501    0  0.00000000000E+00  0.00000000000E+00  0.56067913323E+03  0.56067913323E+03  0.00000000000E+00 0. -1.
         -2   -1    0    0    0  501 -0.00000000000E+00 -0.00000000000E+00 -0.73789680583E+02  0.73789680583E+02  0.00000000000E+00 0.  1.
         25    2    1    2    0    0  0.19333088819E+02  0.16117228432E+03  0.34296568771E+03  0.39952924519E+03  0.12509149157E+03 0.  0.
          5    1    3    3  502    0 -0.24766469349E+02  0.30377218828E+02  0.12466837612E+02  0.41340632164E+02  0.41800000000E+01 0. -1.
         -5    1    3    3    0  502  0.44099558168E+02  0.13079506549E+03  0.33049885010E+03  0.35818861303E+03  0.41800000000E+01 0. -1.
        -11    1    1    2    0    0  0.73568228710E+01 -0.21193446301E+02 -0.10537498116E+02  0.24785557799E+02  0.00000000000E+00 0.  1.
         11    1    1    2    0    0 -0.26689911690E+02 -0.13997883802E+03  0.15446126305E+03  0.21015401082E+03  0.00000000000E+00 0. -1.
</event>
<event>
 7    1  0.2661133E-009  0.7214220E+02  0.7561462E-02  0.1352956E+00
         -3   -1    0    0    0  501 -0.00000000000E+00  0.00000000000E+00  0.34791096473E+03  0.34791096473E+03  0.00000000000E+00 0.  1.
          3   -1    0    0  501    0  0.00000000000E+00 -0.00000000000E+00 -0.39740579581E+02  0.39740579581E+02  0.00000000000E+00 0. -1.
         25    2    1    2    0    0  0.19906243840E+02 -0.14682580693E+02  0.24107432302E+03  0.27271841807E+03  0.12508664843E+03 0.  0.
          5    1    3    3  502    0  0.32824755604E+02 -0.43497948412E+02  0.36597434884E+02  0.65775228898E+02  0.41800000000E+01 0.  1.
         -5    1    3    3    0  502 -0.12918511764E+02  0.28815367719E+02  0.20447688814E+03  0.20694318917E+03  0.41800000000E+01 0.  1.
        -11    1    1    2    0    0 -0.32309889538E+02  0.25623675957E+02  0.82562985927E+02  0.92288397845E+02  0.00000000000E+00 0.  1.
         11    1    1    2    0    0  0.12403645698E+02 -0.10941095264E+02 -0.15466923801E+02  0.22644728394E+02  0.00000000000E+00 0. -1.
</event>
<event>
 7    1  0.2661133E-009  0.9779963E+02  0.7561462E-02  0.1284992E+00
         -4   -1    0    0    0  501 -0.00000000000E+00  0.00000000000E+00  0.34502892421E+03  0.34502892421E+03  0.00000000000E+00 0.  1.
          4   -1    0    0  501    0  0.00000000000E+00 -0.00000000000E+00 -0.56740179817E+02  0.56740179817E+02  0.00000000000E+00 0. -1.
         25    2    1    2    0    0  0.28079976116E+02  0.80897319205E+02  0.18874652958E+03  0.24208788068E+03  0.12509367782E+03 0.  0.
          5    1    3    3  502    0  0.10322435369E+02 -0.78701854814E+01  0.13710977225E+03  0.13778626396E+03  0.41800000000E+01 0.  1.
         -5    1    3    3    0  502  0.17757540747E+02  0.88767504687E+02  0.51636757331E+02  0.10430161671E+03  0.41800000000E+01 0.  1.
        -11    1    1    2    0    0 -0.34529207625E+02 -0.57511148798E+02  0.11339122205E+03  0.13174736299E+03  0.00000000000E+00 0.  1.
         11    1    1    2    0    0  0.64492315084E+01 -0.23386170408E+02 -0.13849007237E+02  0.27933860364E+02  0.00000000000E+00 0. -1.
</event>
<event>
 7    1  0.2661133E-009  0.8443246E+02  0.7561462E-02  0.1316923E+00
          2   -1    0    0  501    0  0.00000000000E+00  0.00000000000E+00  0.99007260255E+03  0.99007260255E+03  0.00000000000E+00 0.  1.
         -2   -1    0    0    0  501 -0.00000000000E+00 -0.00000000000E+00 -0.13274487670E+02  0.13274487670E+02  0.00000000000E+00 0. -1.
         25    2    1    2    0    0 -0.28830000000E+02  0.22132658504E+01  0.59876919468E+03  0.61237935732E+03  0.12509141191E+03 0.  0.
          5    1    3    3  502    0 -0.46510087180E+02 -0.93969882944E+01  0.79608112747E+02  0.92770769177E+02  0.41800000000E+01 0.  1.
         -5    1    3    3    0  502  0.17680087180E+02  0.11610254145E+02  0.51916108193E+03  0.51960858814E+03  0.41800000000E+01 0.  1.
        -11    1    1    2    0    0 -0.83424427601E+01  0.41476473917E+02  0.16816912159E+03  0.17340919150E+03  0.00000000000E+00 0.  1.
         11    1    1    2    0    0  0.37172442760E+02 -0.43689739768E+02  0.20985979862E+03  0.21755854140E+03  0.00000000000E+00 0. -1.
</event>
<event>
 7    1  0.2661133E-009  0.1529653E+03  0.7561462E-02  0.1196876E+00
         -1   -1    0    0    0  501 -0.00000000000E+00  0.00000000000E+00  0.89452935159E+02  0.89452935159E+02  0.00000000000E+00 0.  1.
          1   -1    0    0  501    0  0.00000000000E+00 -0.00000000000E+00 -0.29187354400E+03  0.29187354400E+03  0.00000000000E+00 0. -1.
         25    2    1    2    0    0 -0.10922148722E+03  0.17635689523E+02 -0.15835103994E+03  0.23013583335E+03  0.12508836526E+03 0.  0.
          5    1    3    3  502    0 -0.82530041175E+02 -0.45480402878E+02 -0.66269734725E+02  0.11527716549E+03  0.41800000000E+01 0.  1.
         -5    1    3    3    0  502 -0.26691446047E+02  0.63116092402E+02 -0.92081305220E+02  0.11485866786E+03  0.41800000000E+01 0.  1.
        -11    1    1    2    0    0  0.71237749774E+02  0.33930073091E+02 -0.35682626977E+02  0.86598595374E+02  0.00000000000E+00 0. -1.
         11    1    1    2    0    0  0.37983737448E+02 -0.51565762614E+02 -0.83869419181E+01  0.64592050434E+02  0.00000000000E+00 0.  1.
</event>
<event>
 7    1  0.3081319E-009  0.1136641E+03  0.7561462E-02  0.1253931E+00
          2   -1    0    0  501    0  0.00000000000E+00  0.00000000000E+00  0.59522035625E+03  0.59522035625E+03  0.00000000000E+00 0. -1.
         -2   -1    0    0    0  501 -0.00000000000E+00 -0.00000000000E+00 -0.39717345478E+02  0.39717345478E+02  0.00000000000E+00 0.  1.
         25    2    1    2    0    0 -0.17438912237E+02 -0.10495731781E+03  0.25488962282E+03  0.30320927759E+03  0.12508793695E+03 0.  0.
          5    1    3    3  502    0 -0.19740960282E+02 -0.12253926453E+02  0.18630455207E+03  0.18779436293E+03  0.41800000000E+01 0.  1.
         -5    1    3    3    0  502  0.23020480453E+01 -0.92703391357E+02  0.68585070748E+02  0.11541491465E+03  0.41800000000E+01 0.  1.
        -11    1    1    2    0    0  0.21954457430E+02  0.38783598010E+02  0.23220974558E+03  0.23644773549E+03  0.00000000000E+00 0. -1.
         11    1    1    2    0    0 -0.45155451933E+01  0.66173719800E+02  0.68403642368E+02  0.95280688650E+02  0.00000000000E+00 0.  1.
</event>
<event>
 7    1  0.2661133E-009  0.2011524E+03  0.7561462E-02  0.1148770E+00
         -1   -1    0    0    0  501 -0.00000000000E+00  0.00000000000E+00  0.10786541518E+03  0.10786541518E+03  0.00000000000E+00 0.  1.
          1   -1    0    0  501    0  0.00000000000E+00 -0.00000000000E+00 -0.70910976930E+03  0.70910976930E+03  0.00000000000E+00 0. -1.
         25    2    1    2    0    0  0.44520381633E+02 -0.19309403158E+03 -0.72565976191E+02  0.24531474029E+03  0.12508449740E+03 0.  0.
          5    1    3    3  502    0  0.19873213838E+02 -0.12816976748E+03  0.18108172268E+02  0.13102599829E+03  0.41800000000E+01 0.  1.
         -5    1    3    3    0  502  0.24647167796E+02 -0.64924264102E+02 -0.90674148459E+02  0.11428874200E+03  0.41800000000E+01 0.  1.
        -11    1    1    2    0    0  0.35926708662E+01  0.79766596636E+02 -0.11465399526E+03  0.13971813000E+03  0.00000000000E+00 0.  1.
         11    1    1    2    0    0 -0.48113052500E+02  0.11332743495E+03 -0.41402438268E+03  0.43194231418E+03  0.00000000000E+00 0. -1.
</event>
<event>
 6    1  0.2661133E-009  0.1119483E+03  0.7561462E-02  0.1257004E+00
          1   -1    0    0  501    0  0.00000000000E+00  0.00000000000E+00  0.26887046528E+02  0.26887046528E+02  0.00000000000E+00 0. -1.
         -1   -1    0    0    0  501 -0.00000000000E+00 -0.00000000000E+00 -0.55704373708E+03  0.55704373708E+03  0.00000000000E+00 0.  1.
          5    1    1    2  502    0  0.38976825307E+02  0.30180779586E+00 -0.26549243746E+02  0.47345736264E+02  0.41800000000E+01 0. -1.
         -5    1    1    2    0  502 -0.78102526981E+02 -0.19616248296E+01 -0.19612094286E+03  0.21115101071E+03  0.41800000000E+01 0. -1.
        -11    1    1    2    0    0  0.72727136105E+02  0.34313230951E+01 -0.20286307657E+03  0.21553291661E+03  0.00000000000E+00 0.  1.
         11    1    1    2    0    0 -0.33601434431E+02 -0.17715060613E+01 -0.10462342737E+03  0.10990112004E+03  0.00000000000E+00 0. -1.
</event>
<event>
 7    1  0.2661133E-009  0.8818397E+02  0.7561462E-02  0.1307310E+00
         -3   -1    0    0    0  501 -0.00000000000E+00  0.00000000000E+00  0.53398708030E+02  0.53398708030E+02  0.00000000000E+00 0.  1.
          3   -1    0    0  501    0  0.00000000000E+00 -0.00000000000E+00 -0.24646780769E+03  0.24646780769E+03  0.00000000000E+00 0. -1.
         25    2    1    2    0    0 -0.47994415610E+01  0.24165304254E+02 -0.14175970677E+03  0.19065641317E+03  0.12508819629E+03 0.  0.
          5    1    3    3  502    0 -0.63688325476E+02  0.33830531781E+00 -0.71381394929E+02  0.95755382065E+02  0.41800000000E+01 0.  1.
         -5    1    3    3    0  502  0.58888883915E+02  0.23826998936E+02 -0.70378311838E+02  0.94901031102E+02  0.41800000000E+01 0.  1.
        -11    1    1    2    0    0  0.20286227896E+02 -0.26332017148E+02 -0.74305076915E+02  0.81401170905E+02  0.00000000000E+00 0. -1.
         11    1    1    2    0    0 -0.15486786335E+02  0.21667128943E+01  0.22995684022E+02  0.27808931648E+02  0.00000000000E+00 0.  1.
</event>
<event>
 7    1  0.3844930E-009  0.1073211E+03  0.7561462E-02  0.1265613E+00
          2   -1    0    0  501    0  0.00000000000E+00  0.00000000000E+00  0.10417992025E+04  0.10417992025E+04  0.00000000000E+00 0. -1.
         -2   -1    0    0    0  501 -0.00000000000E+00 -0.00000000000E+00 -0.26956331410E+02  0.26956331410E+02  0.00000000000E+00 0.  1.
         25    2    1    2    0    0 -0.17663255082E+02 -0.83036159576E+02  0.84348909236E+03  0.85692966320E+03  0.12509038478E+03 0.  0.
          5    1    3    3  502    0 -0.55939300031E+02 -0.68556453911E+02  0.74424350392E+03  0.74949653648E+03  0.41800000000E+01 0. -1.
         -5    1    3    3    0  502  0.38276044949E+02 -0.14479705666E+02  0.99245588437E+02  0.10743312672E+03  0.41800000000E+01 0. -1.
        -11    1    1    2    0    0  0.15705216613E+01  0.11090263889E+02 -0.10650985600E+02  0.15456519196E+02  0.00000000000E+00 0.  1.
         11    1    1    2    0    0  0.16092733420E+02  0.71945895688E+02  0.18200476435E+03  0.19636935153E+03  0.00000000000E+00 0. -1.
</event>
<event>
 7    1  0.2661133E-009  0.1352587E+03  0.7561462E-02  0.1219855E+00
          1   -1    0    0  501    0  0.00000000000E+00  0.00000000000E+00  0.10252177093E+04  0.10252177093E+04  0.00000000000E+00 0. -1.
         -1   -1    0    0    0  501 -0.00000000000E+00 -0.00000000000E+00 -0.18328864521E+02  0.18328864521E+02  0.00000000000E+00 0.  1.
         25    2    1    2    0    0  0.92078600880E+01 -0.82912447565E+02  0.56816689993E+03  0.58772481448E+03  0.12509025833E+03 0.  0.
          5    1    3    3  502    0  0.46697745093E+02  0.10563434198E+02  0.22414459111E+03  0.22923903608E+03  0.41800000000E+01 0. -1.
         -5    1    3    3    0  502 -0.37489885005E+02 -0.93475881762E+02  0.34402230882E+03  0.35848577840E+03  0.41800000000E+01 0. -1.
        -11    1    1    2    0    0 -0.44035290977E+02  0.73329666326E+02  0.34319309004E+03  0.35369173565E+03  0.00000000000E+00 0.  1.
         11    1    1    2    0    0  0.34827430889E+02  0.95827812385E+01  0.95528854832E+02  0.10213002372E+03  0.00000000000E+00 0. -1.
</event>
<event>
 7    1  0.2661133E-009  0.1053457E+03  0.7561462E-02  0.1269440E+00
         -2   -1    0    0    0  501 -0.00000000000E+00  0.00000000000E+00  0.15206058907E+03  0.15206058907E+03  0.00000000000E+00 0. -1.
          2   -1    0    0  501    0  0.00000000000E+00 -0.00000000000E+00 -0.95730239327E+02  0.95730239327E+02  0.00000000000E+00 0.  1.
         25    2    1    2    0    0  0.19269436539E+02 -0.35738676912E+02  0.66030252070E+02  0.14715988736E+03  0.12508986389E+03 0.  0.
          5    1    3    3  502    0 -0.28390126577E+02  0.35367872008E+02  0.18500006639E+02  0.49159010395E+02  0.41800000000E+01 0.  1.
         -5    1    3    3    0  502  0.47659563117E+02 -0.71106548919E+02  0.47530245432E+02  0.98000876968E+02  0.41800000000E+01 0.  1.
        -11    1    1    2    0    0  0.22854663272E+02  0.28775341644E+02 -0.35211396483E+02  0.50893991417E+02  0.00000000000E+00 0.  1.
         11    1    1    2    0    0 -0.42124099812E+02  0.69633352679E+01  0.25511494153E+02  0.49736949614E+02  0.00000000000E+00 0. -1.
</event>
<event>
 7    1  0.2661133E-009  0.1263276E+03  0.7561462E-02  0.1233009E+00
         -2   -1    0    0    0  501 -0.00000000000E+00  0.00000000000E+00  0.10009747785E+03  0.10009747785E+03  0.00000000000E+00 0.  1.
          2   -1    0    0  501    0  0.00000000000E+00 -0.00000000000E+00 -0.17217811991E+03  0.17217811991E+03  0.00000000000E+00 0. -1.
         25    2    1    2    0    0 -0.61115768773E+02  0.29141577285E+02 -0.70778130128E+02  0.15887591365E+03  0.12509054126E+03 0.  0.
          5    1    3    3  502    0  0.13762240632E+02 -0.36732868566E+02 -0.60541041286E+01  0.39910242759E+02  0.41800000000E+01 0.  1.
         -5    1    3    3    0  502 -0.74878009405E+02  0.65874445851E+02 -0.64724025999E+02  0.11896567089E+03  0.41800000000E+01 0.  1.
        -11    1    1    2    0    0  0.60152614982E+02 -0.58562740545E+02 -0.13447237916E+01  0.83962729537E+02  0.00000000000E+00 0.  1.
         11    1    1    2    0    0  0.96315379140E+00  0.29421163260E+02  0.42211857786E-01  0.29436954575E+02  0.00000000000E+00 0. -1.
</event>
<event>
 7    1  0.2661133E-009  0.7333090E+02  0.7561462E-02  0.1349119E+00
          1   -1    0    0  501    0  0.00000000000E+00  0.00000000000E+00  0.17564547617E+03  0.17564547617E+03  0.00000000000E+00 0. -1.
         -1   -1    0    0    0  501 -0.00000000000E+00 -0.00000000000E+00 -0.76040524868E+02  0.76040524868E+02  0.00000000000E+00 0.  1.
         25    2    1    2    0    0  0.14506306604E+01  0.16153258844E+02  0.94414160108E+02  0.15756076420E+03  0.12509327994E+03 0.  0.
          5    1    3    3  502    0  0.23828667680E+02  0.65232031431E+02  0.37502898899E+02  0.79037732469E+02  0.41800000000E+01 0. -1.
         -5    1    3    3    0  502 -0.22378037019E+02 -0.49078772587E+02  0.56911261209E+02  0.78523031729E+02  0.41800000000E+01 0. -1.
        -11    1    1    2    0    0 -0.86139083496E+01 -0.57539062061E+01  0.48199994477E+02  0.49300571206E+02  0.00000000000E+00 0. -1.
         11    1    1    2    0    0  0.71632776892E+01 -0.10399352638E+02 -0.43009203281E+02  0.44824665637E+02  0.00000000000E+00 0.  1.
</event>
<event>
 7    1  0.2661133E-009  0.1251106E+03  0.7561462E-02  0.1234897E+00
          2   -1    0    0  501    0  0.00000000000E+00  0.00000000000E+00  0.21536484438E+03  0.21536484438E+03  0.00000000000E+00 0. -1.
         -2   -1    0    0    0  501 -0.00000000000E+00 -0.00000000000E+00 -0.93099277408E+02  0.93099277408E+02  0.00000000000E+00 0.  1.
         25    2    1    2    0    0  0.62485315556E+02 -0.67289957850E+02  0.64067037889E+02  0.16787539392E+03  0.12508081169E+03 0.  0.
          5    1    3    3  502    0  0.48001064284E+02 -0.10441437338E+03  0.50201678048E+02  0.12547567262E+03  0.41800000000E+01 0. -1.
         -5    1    3    3    0  502  0.14484251272E+02  0.37124415528E+02  0.13865359841E+02  0.42399721304E+02  0.41800000000E+01 0. -1.
        -11    1    1    2    0    0 -0.27212883062E+02  0.47419214634E+02  0.78212754098E+02  0.95427238380E+02  0.00000000000E+00 0. -1.
         11    1    1    2    0    0 -0.35272432494E+02  0.19870743216E+02 -0.20014225012E+02  0.45161489488E+02  0.00000000000E+00 0.  1.
</event>
<event>
 7    1  0.2661133E-009  0.9429262E+02  0.7561462E-02  0.1292777E+00
         -3   -1    0    0    0  501 -0.00000000000E+00  0.00000000000E+00  0.23275239019E+03  0.23275239019E+03  0.00000000000E+00 0.  1.
          3   -1    0    0  501    0  0.00000000000E+00 -0.00000000000E+00 -0.54953283192E+02  0.54953283192E+02  0.00000000000E+00 0. -1.
         25    2    1    2    0    0  0.82759190574E+01 -0.26470016892E+02  0.12316445800E+03  0.17772250824E+03  0.12508658437E+03 0.  0.
          5    1    3    3  502    0 -0.47740805575E+02 -0.23355477105E+02  0.10641687486E+03  0.11902389039E+03  0.41800000000E+01 0. -1.
         -5    1    3    3    0  502  0.56016724632E+02 -0.31145397864E+01  0.16747583138E+02  0.58698617851E+02  0.41800000000E+01 0. -1.
        -11    1    1    2    0    0  0.93612476962E+00 -0.25861621855E+02  0.50428143068E+02  0.56680661850E+02  0.00000000000E+00 0.  1.
         11    1    1    2    0    0 -0.92120438270E+01  0.52331638747E+02  0.42065059325E+01  0.53302503295E+02  0.00000000000E+00 0. -1.
</event>
<event>
 7    1  0.2661133E-009  0.8557642E+02  0.7561462E-02  0.1313932E+00
          4   -1    0    0  501    0  0.00000000000E+00  0.00000000000E+00  0.19513245136E+03  0.19513245136E+03  0.00000000000E+00 0. -1.
         -4   -1    0    0    0  501 -0.00000000000E+00 -0.00000000000E+00 -0.61280798326E+02  0.61280798326E+02  0.00000000000E+00 0.  1.
         25    2    1    2    0    0  0.15516015771E+02  0.98828161288E+01  0.87886652894E+02  0.15398101806E+03  0.12509066058E+03 0.  0.
          5    1    3    3  502    0 -0.43781490279E+02 -0.77383024927E+01  0.79812609006E+02  0.91456137972E+02  0.41800000000E+01 0. -1.
         -5    1    3    3    0  502  0.59297506050E+02  0.17621118622E+02  0.80740438883E+01  0.62524880087E+02  0.41800000000E+01 0. -1.
        -11    1    1    2    0    0  0.24002561689E+02 -0.11905420219E+01  0.55831004887E+02  0.60783562454E+02  0.00000000000E+00 0. -1.
         11    1    1    2    0    0 -0.39518577461E+02 -0.86922741069E+01 -0.98660047511E+01  0.41648669167E+02  0.00000000000E+00 0.  1.
</event>
<event>
 7    1  0.2661133E-009  0.1090314E+03  0.7561462E-02  0.1262374E+00
         -2   -1    0    0    0  501 -0.00000000000E+00  0.00000000000E+00  0.23754150193E+02  0.23754150193E+02  0.00000000000E+00 0.  1.
          2   -1    0    0  501    0  0.00000000000E+00 -0.00000000000E+00 -0.64826496756E+03  0.64826496756E+03  0.00000000000E+00 0. -1.
         25    2    1    2    0    0  0.31307011433E+02  0.38669207629E+02 -0.25629857860E+03  0.28950270634E+03  0.12508964388E+03 0.  0.
          5    1    3    3  502    0 -0.27534846914E+02  0.63642628908E+02 -0.15165088297E+03  0.16680531981E+03  0.41800000000E+01 0.  1.
         -5    1    3    3    0  502  0.58841858347E+02 -0.24973421279E+02 -0.10464769562E+03  0.12269738654E+03  0.41800000000E+01 0.  1.
        -11    1    1    2    0    0 -0.43601766134E+02 -0.51016285456E+02 -0.35319311672E+03  0.35951238239E+03  0.00000000000E+00 0. -1.
         11    1    1    2    0    0  0.12294754701E+02  0.12347077827E+02 -0.15019122051E+02  0.23004029021E+02  0.00000000000E+00 0.  1.
</event>
<event>
 7    1  0.2757328E-009  0.1062419E+03  0.7561462E-02  0.1267692E+00
         -3   -1    0    0    0  501 -0.00000000000E+00  0.00000000000E+00  0.13743355233E+03  0.13743355233E+03  0.00000000000E+00 0.  1.
          3   -1    0    0  501    0  0.00000000000E+00 -0.00000000000E+00 -0.12968089267E+03  0.12968089267E+03  0.00000000000E+00 0. -1.
         25    2    1    2    0    0 -0.61844565769E+02 -0.18035831171E+02  0.47626781109E+02  0.14854686950E+03  0.12509124924E+03 0.  0.
          5    1    3    3  502    0 -0.71626990355E+02  0.35905197253E+02  0.48137611168E+02  0.93564474808E+02  0.41800000000E+01 0. -1.
         -5    1    3    3    0  502  0.97824245858E+01 -0.53941028425E+02 -0.51083005902E+00  0.54982394688E+02  0.41800000000E+01 0. -1.
        -11    1    1    2    0    0  0.46993504617E+02 -0.76403352620E+01  0.20084270568E+02  0.51673417957E+02  0.00000000000E+00 0.  1.
         11    1    1    2    0    0  0.14851061152E+02  0.25676166433E+02 -0.59958392018E+02  0.66894157543E+02  0.00000000000E+00 0. -1.
</event>
<event>
 7    1  0.2661133E-009  0.1082118E+03  0.7561462E-02  0.1263918E+00
          2   -1    0    0  501    0  0.00000000000E+00  0.00000000000E+00  0.29848786206E+03  0.29848786206E+03  0.00000000000E+00 0. -1.
         -2   -1    0    0    0  501 -0.00000000000E+00 -0.00000000000E+00 -0.52773527142E+02  0.52773527142E+02  0.00000000000E+00 0.  1.
         25    2    1    2    0    0  0.21671303376E+02 -0.58935434894E+02  0.15138342151E+03  0.20617930728E+03  0.12509970250E+03 0.  0.
          5    1    3    3  502    0  0.72502905732E+02 -0.34694296509E+02  0.10937686631E+03  0.13579814739E+03  0.41800000000E+01 0. -1.
         -5    1    3    3    0  502 -0.50831602356E+02 -0.24241138385E+02  0.42006555198E+02  0.70381159893E+02  0.41800000000E+01 0. -1.
        -11    1    1    2    0    0  0.99010440978E+01  0.42955255693E+02  0.99962546148E+02  0.10925060777E+03  0.00000000000E+00 0. -1.
         11    1    1    2    0    0 -0.31572347474E+02  0.15980179201E+02 -0.56316327433E+01  0.35831474148E+02  0.00000000000E+00 0.  1.
</event>
<event>
 6    1  0.2661133E-009  0.3091226E+03  0.7561462E-02  0.1080767E+00
         -2   -1    0    0    0  501 -0.00000000000E+00  0.00000000000E+00  0.82880619914E+02  0.82880619914E+02  0.00000000000E+00 0.  1.
          2   -1    0    0  501    0  0.00000000000E+00 -0.00000000000E+00 -0.12185939368E+04  0.12185939368E+04  0.00000000000E+00 0. -1.
          5    1    1    2  502    0 -0.14337573194E+03 -0.30057935838E+02 -0.26065247135E+03  0.29902719481E+03  0.41800000000E+01 0. -1.
         -5    1    1    2    0  502 -0.97974495155E+02 -0.13493387664E+03 -0.19398185605E+03  0.25583702946E+03  0.41800000000E+01 0. -1.
        -11    1    1    2    0    0  0.69052247808E+02  0.41383230361E+01 -0.13062382425E+03  0.14781042624E+03  0.00000000000E+00 0. -1.
         11    1    1    2    0    0  0.17229797928E+03  0.16085348945E+03 -0.55045516529E+03  0.59879990625E+03  0.00000000000E+00 0.  1.
</event>
<event>
 7    1  0.2661133E-009  0.7078032E+02  0.7561462E-02  0.1357459E+00
         -3   -1    0    0    0  501 -0.00000000000E+00  0.00000000000E+00  0.93010893055E+03  0.93010893055E+03  0.00000000000E+00 0.  1.
          3   -1    0    0  501    0  0.00000000000E+00 -0.00000000000E+00 -0.19472631839E+02  0.19472631839E+02  0.00000000000E+00 0. -1.
         25    2    1    2    0    0  0.26958717225E+02 -0.21188551009E+00  0.75493454488E+03  0.76570242609E+03  0.12508885216E+03 0.  0.
          5    1    3    3  502    0  0.59419788099E+02  0.11476619893E+02  0.18463643793E+03  0.19434636768E+03  0.41800000000E+01 0.  1.
         -5    1    3    3    0  502 -0.32461070875E+02 -0.11688505403E+02  0.57029810696E+03  0.57135605841E+03  0.41800000000E+01 0.  1.
        -11    1    1    2    0    0 -0.10055388240E+01 -0.15680288934E+02 -0.78191188111E+01  0.17550532423E+02  0.00000000000E+00 0. -1.
         11    1    1    2    0    0 -0.25953178401E+02  0.15892174444E+02  0.16352087264E+03  0.16632860387E+03  0.00000000000E+00 0.  1.
</event>
<event>
 7    1  0.2661133E-009  0.1267175E+03  0.7561462E-02  0.1232409E+00
         -2   -1    0    0    0  501 -0.00000000000E+00  0.00000000000E+00  0.14030269685E+02  0.14030269685E+02  0.00000000000E+00 0.  1.
          2   -1    0    0  501    0  0.00000000000E+00 -0.00000000000E+00 -0.17316757198E+04  0.17316757198E+04  0.00000000000E+00 0. -1.
         25    2    1    2    0    0  0.41525931929E+01  0.93808382036E+02 -0.12646544784E+04  0.12742896769E+04  0.12508386932E+03 0.  0.
          5    1    3    3  502    0  0.40721576720E+02  0.71259622565E+02 -0.11277792512E+04  0.11307695134E+04  0.41800000000E+01 0.  1.
         -5    1    3    3    0  502 -0.36568983527E+02  0.22548759471E+02 -0.13687522724E+03  0.14352016353E+03  0.41800000000E+01 0.  1.
        -11    1    1    2    0    0  0.33327220342E+02 -0.77394232015E+01 -0.84696797619E+02  0.91346318011E+02  0.00000000000E+00 0.  1.
         11    1    1    2    0    0 -0.37479813535E+02 -0.86068958835E+02 -0.36829417411E+03  0.38006999458E+03  0.00000000000E+00 0. -1.
</event>
<event>
 7    1  0.2661133E-009  0.9235652E+02  0.7561462E-02  0.1297243E+00
          1   -1    0    0  501    0  0.00000000000E+00  0.00000000000E+00  0.18007209942E+03  0.18007209942E+03  0.00000000000E+00 0. -1.
         -1   -1    0    0    0  501 -0.00000000000E+00 -0.00000000000E+00 -0.83396051338E+02  0.83396051338E+02  0.00000000000E+00 0.  1.
         25    2    1    2    0    0 -0.26989744096E+02  0.47951937907E+01  0.10902307762E+03  0.16817645712E+03  0.12508336862E+03 0.  0.
          5    1    3    3  502    0 -0.47742039898E+02 -0.25648933602E+02  0.11809331260E+03  0.13000258862E+03  0.41800000000E+01 0. -1.
         -5    1    3    3    0  502  0.20752295802E+02  0.30444127392E+02 -0.90702349749E+01  0.38173868500E+02  0.41800000000E+01 0. -1.
        -11    1    1    2    0    0  0.11295650982E+02 -0.46952415525E+02  0.12172618397E+01  0.48307378123E+02  0.00000000000E+00 0. -1.
         11    1    1    2    0    0  0.15694093114E+02  0.42157221734E+02 -0.13564291384E+02  0.46984315508E+02  0.00000000000E+00 0.  1.
</event>
<event>
 7    1  0.2661133E-009  0.1674981E+03  0.7561462E-02  0.1180482E+00
          2   -1    0    0  501    0  0.00000000000E+00  0.00000000000E+00  0.48082155473E+03  0.48082155473E+03  0.00000000000E+00 0.  1.
         -2   -1    0    0    0  501 -0.00000000000E+00 -0.00000000000E+00 -0.87741861965E+02  0.87741861965E+02  0.00000000000E+00 0. -1.
         25    2    1    2    0    0  0.15900217711E+03 -0.46037196011E+02  0.13019960328E+03  0.24494865497E+03  0.12508713418E+03 0.  0.
          5    1    3    3  502    0  0.84208389329E+02 -0.36319325687E+02  0.14139755755E+03  0.16858495761E+03  0.41800000000E+01 0.  1.
         -5    1    3    3    0  502  0.74793787779E+02 -0.97178703241E+01 -0.11197954275E+02  0.76363697356E+02  0.41800000000E+01 0.  1.
        -11    1    1    2    0    0 -0.50099127009E+02  0.18601229032E+01  0.15915852832E+03  0.16686767129E+03  0.00000000000E+00 0.  1.
         11    1    1    2    0    0 -0.10890305010E+03  0.44177073108E+02  0.10372156117E+03  0.15674709044E+03  0.00000000000E+00 0. -1.
</event>
<event>
 7    1  0.2661133E-009  0.2532728E+03  0.7561462E-02  0.1111254E+00
         -1   -1    0    0    0  501 -0.00000000000E+00  0.00000000000E+00  0.24549395698E+02  0.24549395698E+02  0.00000000000E+00 0.  1.
          1   -1    0    0  501    0  0.00000000000E+00 -0.00000000000E+00 -0.26766481836E+04  0.26766481836E+04  0.00000000000E+00 0. -1.
         25    2    1    2    0    0 -0.23156342467E+03 -0.78745181110E+01 -0.13941576795E+04  0.14188046798E+04  0.12508979285E+03 0.  0.
          5    1    3    3  502    0 -0.20825565827E+03  0.32641485405E+02 -0.12351728406E+04  0.12530384289E+04  0.41800000000E+01 0.  1.
         -5    1    3    3    0  502 -0.23307766400E+02 -0.40516003516E+02 -0.15898483892E+03  0.16576625086E+03  0.41800000000E+01 0.  1.
        -11    1    1    2    0    0  0.14643596086E+03  0.48760351797E+02 -0.81736356030E+03  0.83180782170E+03  0.00000000000E+00 0. -1.
         11    1    1    2    0    0  0.85127463803E+02 -0.40885833686E+02 -0.44057754809E+03  0.45058507784E+03  0.00000000000E+00 0.  1.
</event>
<event>
 7    1  0.2661133E-009  0.1893875E+03  0.7561462E-02  0.1159015E+00
          1   -1    0    0  501    0  0.00000000000E+00  0.00000000000E+00  0.32241425121E+03  0.32241425121E+03  0.00000000000E+00 0. -1.
         -1   -1    0    0    0  501 -0.00000000000E+00 -0.00000000000E+00 -0.14774433311E+03  0.14774433311E+03  0.00000000000E+00 0.  1.
         25    2    1    2    0    0 -0.11051579249E+03  0.14521393812E+03  0.14030917451E+03  0.26200446191E+03  0.12513530835E+03 0.  0.
          5    1    3    3  502    0 -0.42815115516E+02  0.19622683347E+02  0.10471600202E+03  0.11489602821E+03  0.41800000000E+01 0.  1.
         -5    1    3    3    0  502 -0.67700676971E+02  0.12559125477E+03  0.35593172485E+02  0.14710843370E+03  0.41800000000E+01 0.  1.
        -11    1    1    2    0    0  0.95396893939E+02 -0.88730922953E+02 -0.15640583010E+02  0.13121879400E+03  0.00000000000E+00 0.  1.
         11    1    1    2    0    0  0.15118898548E+02 -0.56483015168E+02  0.50001326602E+02  0.76935328411E+02  0.00000000000E+00 0. -1.
</event>
<event>
 7    1  0.2661133E-009  0.1146820E+03  0.7561462E-02  0.1252137E+00
          2   -1    0    0  501    0  0.00000000000E+00  0.00000000000E+00  0.36237033290E+02  0.36237033290E+02  0.00000000000E+00 0. -1.
         -2   -1    0    0    0  501 -0.00000000000E+00 -0.00000000000E+00 -0.47494179262E+03  0.47494179262E+03  0.00000000000E+00 0.  1.
         25    2    1    2    0    0 -0.31258023424E+02  0.61580830770E+02 -0.30097789534E+03  0.33316782123E+03  0.12507534078E+03 0.  0.
          5    1    3    3  502    0 -0.74571352015E+02  0.26137162260E+02 -0.22641107798E+03  0.23984054374E+03  0.41800000000E+01 0.  1.
         -5    1    3    3    0  502  0.43313328591E+02  0.35443668511E+02 -0.74566817368E+02  0.93327277489E+02  0.41800000000E+01 0.  1.
        -11    1    1    2    0    0 -0.14512875395E+02 -0.41802316609E+02 -0.17018447177E+02  0.47409753958E+02  0.00000000000E+00 0. -1.
         11    1    1    2    0    0  0.45770898818E+02 -0.19778514161E+02 -0.12070841681E+03  0.13060125072E+03  0.00000000000E+00 0.  1.
</event>
<event>
 7    1  0.2661133E-009  0.9339531E+02  0.7561462E-02  0.1294832E+00
          2   -1    0    0  501    0  0.00000000000E+00  0.00000000000E+00  0.88566073299E+02  0.88566073299E+02  0.00000000000E+00 0. -1.
         -2   -1    0    0    0  501 -0.00000000000E+00 -0.00000000000E+00 -0.15165254633E+03  0.15165254633E+03  0.00000000000E+00 0.  1.
         25    2    1    2    0    0 -0.36123092975E+02 -0.20112388847E+02 -0.36595723338E+02  0.13673301436E+03  0.12508910511E+03 0.  0.
          5    1    3    3  502    0 -0.66255576641E+02 -0.52753285565E+02 -0.35971944337E+02  0.92109520427E+02  0.41800000000E+01 0. -1.
         -5    1    3    3    0  502  0.30132483666E+02  0.32640896718E+02 -0.62377900151E+00  0.44623493932E+02  0.41800000000E+01 0. -1.
        -11    1    1    2    0    0  0.10158104919E+02  0.28367042332E+02 -0.55833041745E+02  0.63444501233E+02  0.00000000000E+00 0.  1.
         11    1    1    2    0    0  0.25964988056E+02 -0.82546534851E+01  0.29342292057E+02  0.40041104032E+02  0.00000000000E+00 0. -1.
</event>
<event>
 7    1  0.2661133E-009  0.1436487E+03  0.7561462E-02  0.1208502E+00
         -2   -1    0    0    0  501 -0.00000000000E+00  0.00000000000E+00  0.47738926705E+02  0.47738926705E+02  0.00000000000E+00 0.  1.
          2   -1    0    0  501    0  0.00000000000E+00 -0.00000000000E+00 -0.69676543988E+03  0.69676543988E+03  0.00000000000E+00 0. -1.
         25    2    1    2    0    0 -0.82983214542E+02 -0.10643032265E+03 -0.45652135107E+03  0.49221172796E+03  0.12508802375E+03 0.  0.
          5    1    3    3  502    0 -0.28074455558E+02  0.21715918232E+01 -0.11280032157E+02  0.30620293784E+02  0.41800000000E+01 0.  1.
         -5    1    3    3    0  502 -0.54908758984E+02 -0.10860191447E+03 -0.44524131891E+03  0.46159143418E+03  0.41800000000E+01 0.  1.
        -11    1    1    2    0    0  0.17166347121E+02  0.87170661483E+01  0.70937058184E+01  0.20518074421E+02  0.00000000000E+00 0.  1.
         11    1    1    2    0    0  0.65816867421E+02  0.97713256503E+02 -0.19959886792E+03  0.23177456420E+03  0.00000000000E+00 0. -1.
</event>
<event>
 7    1  0.2661133E-009  0.8415337E+02  0.7561462E-02  0.1317662E+00
         -1   -1    0    0    0  501 -0.00000000000E+00  0.00000000000E+00  0.24992504984E+03  0.24992504984E+03  0.00000000000E+00 0. -1.
          1   -1    0    0  501    0  0.00000000000E+00 -0.00000000000E+00 -0.48514543678E+02  0.48514543678E+02  0.00000000000E+00 0.  1.
         25    2    1    2    0    0  0.20504512135E+02  0.47813268413E+01  0.10578355571E+03  0.16516991950E+03  0.12509054938E+03 0.  0.
          5    1    3    3  502    0 -0.38409244416E+02  0.14020252435E+02  0.96218546824E+02  0.10462943509E+03  0.41800000000E+01 0. -1.
         -5    1    3    3    0  502  0.58913756551E+02 -0.92389255936E+01  0.95650088872E+01  0.60540484406E+02  0.41800000000E+01 0. -1.
        -11    1    1    2    0    0  0.23356880527E+02 -0.59141716307E+00 -0.45751420720E+01  0.23808098773E+02  0.00000000000E+00 0.  1.
         11    1    1    2    0    0 -0.43861392662E+02 -0.41899096782E+01  0.10020209253E+03  0.10946157525E+03  0.00000000000E+00 0. -1.
</event>
<event>
 7    1  0.2661133E-009  0.9794871E+02  0.7561462E-02  0.1284670E+00
         -2   -1    0    0    0  501 -0.00000000000E+00  0.00000000000E+00  0.85389156958E+02  0.85389156958E+02  0.00000000000E+00 0.  1.
          2   -1    0    0  501    0  0.00000000000E+00 -0.00000000000E+00 -0.16058071183E+03  0.16058071183E+03  0.00000000000E+00 0. -1.
         25    2    1    2    0    0  0.24659199555E+01 -0.44643410089E+02 -0.33779727376E+02  0.13706768806E+03  0.12508943322E+03 0.  0.
          5    1    3    3  502    0 -0.47840535486E+00 -0.73057186989E+02 -0.62580652587E+02  0.96288067384E+02  0.41800000000E+01 0.  1.
         -5    1    3    3    0  502  0.29443253104E+01  0.28413776900E+02  0.28800925211E+02  0.40779620673E+02  0.41800000000E+01 0.  1.
        -11    1    1    2    0    0  0.33058801915E+02  0.47872551231E+02 -0.57487060320E+01  0.58461210785E+02  0.00000000000E+00 0.  1.
         11    1    1    2    0    0 -0.35524721871E+02 -0.32291411423E+01 -0.35663121469E+02  0.50440969949E+02  0.00000000000E+00 0. -1.
</event>
<event>
 7    1  0.2661133E-009  0.1743260E+03  0.7561462E-02  0.1173410E+00
         -4   -1    0    0    0  501 -0.00000000000E+00  0.00000000000E+00  0.35720595750E+03  0.35720595750E+03  0.00000000000E+00 0.  1.
          4   -1    0    0  501    0  0.00000000000E+00 -0.00000000000E+00 -0.89442190916E+02  0.89442190916E+02  0.00000000000E+00 0. -1.
         25    2    1    2    0    0  0.50567436850E+02 -0.13185658981E+03  0.13764937122E+03  0.23353512314E+03  0.12509227953E+03 0.  0.
          5    1    3    3  502    0  0.83663165028E+02 -0.67668805682E+02  0.11542962421E+03  0.15786089759E+03  0.41800000000E+01 0. -1.
         -5    1    3    3    0  502 -0.33095728178E+02 -0.64187784128E+02  0.22219747016E+02  0.75674225548E+02  0.41800000000E+01 0. -1.
        -11    1    1    2    0    0 -0.44887309586E+02  0.14634077330E+03  0.12064986980E+03  0.19490224107E+03  0.00000000000E+00 0.  1.
         11    1    1    2    0    0 -0.56801272634E+01 -0.14484183491E+02  0.94645255661E+01  0.18210784204E+02  0.00000000000E+00 0. -1.
</event>
<event>
 7    1  0.2661133E-009  0.1091246E+03  0.7561462E-02  0.1262200E+00
          2   -1    0    0  501    0  0.00000000000E+00  0.00000000000E+00  0.34380174891E+03  0.34380174891E+03  0.00000000000E+00 0. -1.
         -2   -1    0    0    0  501 -0.00000000000E+00 -0.00000000000E+00 -0.47055420986E+02  0.47055420986E+02  0.00000000000E+00 0.  1.
         25    2    1    2    0    0 -0.27070081220E+02 -0.11672930076E+02  0.73670204172E+02  0.14812766566E+03  0.12508181225E+03 0.  0.
          5    1    3    3  502    0 -0.67262185110E+02  0.21024126547E+02  0.19914578530E+02  0.73350380236E+02  0.41800000000E+01 0. -1.
         -5    1    3    3    0  502  0.40192103890E+02 -0.32697056622E+02  0.53755625642E+02  0.74777285422E+02  0.41800000000E+01 0. -1.
        -11    1    1    2    0    0  0.56935409664E+02 -0.11236043795E+02  0.13391918307E+03  0.14595285934E+03  0.00000000000E+00 0. -1.
         11    1    1    2    0    0 -0.29865328444E+02  0.22908973871E+02  0.89156940677E+02  0.96776644898E+02  0.00000000000E+00 0.  1.
</event>
<event>
 7    1  0.2661133E-009  0.1462806E+03  0.7561462E-02  0.1205119E+00
          3   -1    0    0  501    0  0.00000000000E+00  0.00000000000E+00  0.57393550776E+02  0.57393550776E+02  0.00000000000E+00 0. -1.
         -3   -1    0    0    0  501 -0.00000000000E+00 -0.00000000000E+00 -0.44265734824E+03  0.44265734824E+03  0.00000000000E+00 0.  1.
         25    2    1    2    0    0  0.36680659926E+02 -0.11075973447E+03 -0.21556821276E+03  0.27518948789E+03  0.12508561188E+03 0.  0.
          5    1    3    3  502    0  0.38531506970E+02  0.97971403240E+01 -0.10178373846E+03  0.10935292773E+03  0.41800000000E+01 0. -1.
         -5    1    3    3    0  502 -0.18508470438E+01 -0.12055687479E+03 -0.11378447431E+03  0.16583656017E+03  0.41800000000E+01 0. -1.
        -11    1    1    2    0    0  0.72971766587E+00  0.88306887476E+02 -0.59883507134E+02  0.10669898449E+03  0.00000000000E+00 0.  1.
         11    1    1    2    0    0 -0.37410377592E+02  0.22452846994E+02 -0.10981207756E+03  0.11816242663E+03  0.00000000000E+00 0. -1.
</event>
<event>
 7    1  0.2661133E-009  0.2270974E+03  0.7561462E-02  0.1128700E+00
          2   -1    0    0  501    0  0.00000000000E+00  0.00000000000E+00  0.10552694033E+03  0.10552694033E+03  0.00000000000E+00 0. -1.
         -2   -1    0    0    0  501 -0.00000000000E+00 -0.00000000000E+00 -0.52629081561E+03  0.52629081561E+03  0.00000000000E+00 0.  1.
         25    2    1    2    0    0 -0.44322911273E+02 -0.19933340099E+03 -0.15725767785E+03  0.28648795570E+03  0.12508815413E+03 0.  0.
          5    1    3    3  502    0 -0.12184600010E+02  0.12884801443E+02 -0.34947415198E+02  0.39411632986E+02  0.41800000000E+01 0.  1.
         -5    1    3    3    0  502 -0.32138311263E+02 -0.21221820244E+03 -0.12231026265E+03  0.24707632271E+03  0.41800000000E+01 0.  1.
        -11    1    1    2    0    0  0.64941457394E+02  0.95845213216E+02 -0.11528943302E+03  0.16338712052E+03  0.00000000000E+00 0. -1.
         11    1    1    2    0    0 -0.20618546121E+02  0.10348818778E+03 -0.14821676441E+03  0.18194267972E+03  0.00000000000E+00 0.  1.
</event>
<event>
 7    1  0.3023540E-009  0.1031677E+03  0.7561462E-02  0.1273772E+00
         -2   -1    0    0    0  501 -0.00000000000E+00  0.00000000000E+00  0.34816528329E+02  0.34816528329E+02  0.00000000000E+00 0.  1.
          2   -1    0    0  501    0  0.00000000000E+00 -0.00000000000E+00 -0.49809954536E+03  0.49809954536E+03  0.00000000000E+00 0. -1.
         25    2    1    2    0    0  0.28828150340E+02 -0.47353553901E+02 -0.35623573098E+03  0.38160830383E+03  0.12509028824E+03 0.  0.
          5    1    3    3  502    0  0.73254623398E+02 -0.30128912277E+01 -0.17581854075E+03  0.19053857624E+03  0.41800000000E+01 0.  1.
         -5    1    3    3    0  502 -0.44426473058E+02 -0.44340662673E+02 -0.18041719023E+03  0.19106972760E+03  0.41800000000E+01 0.  1.
        -11    1    1    2    0    0 -0.18360894756E+02 -0.29635133340E+01  0.11660801828E+02  0.21951746327E+02  0.00000000000E+00 0.  1.
         11    1    1    2    0    0 -0.10467255584E+02  0.50317067235E+02 -0.11870808788E+03  0.12935602353E+03  0.00000000000E+00 0. -1.
</event>
<event>
 7    1  0.2661133E-009  0.1131640E+03  0.7561462E-02  0.1254820E+00
          2   -1    0    0  501    0  0.00000000000E+00  0.00000000000E+00  0.56719727539E+03  0.56719727539E+03  0.00000000000E+00 0. -1.
         -2   -1    0    0    0  501 -0.00000000000E+00 -0.00000000000E+00 -0.22678704207E+02  0.22678704207E+02  0.00000000000E+00 0.  1.
         25    2    1    2    0    0  0.48730627210E+01 -0.30492545441E+02  0.32307138129E+03  0.34781693642E+03  0.12509181341E+03 0.  0.
          5    1    3    3  502    0  0.59978260941E+02  0.88368441068E+01  0.14194310348E+03  0.15440465869E+03  0.41800000000E+01 0.  1.
         -5    1    3    3    0  502 -0.55105198220E+02 -0.39329389548E+02  0.18112827781E+03  0.19341227773E+03  0.41800000000E+01 0.  1.
        -11    1    1    2    0    0  0.42838972176E+02  0.36748248542E+01  0.99501275217E+02  0.10839366054E+03  0.00000000000E+00 0. -1.
         11    1    1    2    0    0 -0.47712034897E+02  0.26817720587E+02  0.12194591468E+03  0.13366538265E+03  0.00000000000E+00 0.  1.
</event>
<event>
 7    1  0.2661133E-009  0.6654630E+02  0.7561462E-02  0.1372248E+00
         -4   -1    0    0    0  501 -0.00000000000E+00  0.00000000000E+00  0.29288871147E+03  0.29288871147E+03  0.00000000000E+00 0.  1.
          4   -1    0    0  501    0  0.00000000000E+00 -0.00000000000E+00 -0.43843392460E+02  0.43843392460E+02  0.00000000000E+00 0. -1.
         25    2    1    2    0    0 -0.12805066708E+02 -0.68668028891E+01  0.94646685014E+02  0.15753325003E+03  0.12509039598E+03 0.  0.
          5    1    3    3  502    0  0.32086377636E+02 -0.53502835915E+01 -0.17126996839E+02  0.36999561957E+02  0.41800000000E+01 0. -1.
         -5    1    3    3    0  502 -0.44891444344E+02 -0.15165192977E+01  0.11177368185E+03  0.12053368808E+03  0.41800000000E+01 0. -1.
        -11    1    1    2    0    0  0.33737023371E+02  0.57445120204E+01  0.15449156534E+03  0.15823662638E+03  0.00000000000E+00 0.  1.
         11    1    1    2    0    0 -0.20931956663E+02  0.11222908688E+01 -0.92931344130E-01  0.20962227524E+02  0.00000000000E+00 0. -1.
</event>
<event>
 7    1  0.2661133E-009  0.1430954E+03  0.7561462E-02  0.1209224E+00
          1   -1    0    0  501    0  0.00000000000E+00  0.00000000000E+00  0.29405061571E+02  0.29405061571E+02  0.00000000000E+00 0. -1.
         -1   -1    0    0    0  501 -0.00000000000E+00 -0.00000000000E+00 -0.91801254769E+03  0.91801254769E+03  0.00000000000E+00 0.  1.
         25    2    1    2    0    0  0.66755187479E+02  0.10077597763E+03 -0.54403326505E+03  0.57116709319E+03  0.12509037586E+03 0.  0.
          5    1    3    3  502    0  0.19600837736E+01 -0.13107951668E+02 -0.23586954297E+03  0.23627859409E+03  0.41800000000E+01 0.  1.
         -5    1    3    3    0  502  0.64795103706E+02  0.11388392930E+03 -0.30816372208E+03  0.33488849909E+03  0.41800000000E+01 0.  1.
        -11    1    1    2    0    0  0.11575976196E+02 -0.41178261108E+02 -0.17527829713E+03  0.18042209914E+03  0.00000000000E+00 0. -1.
         11    1    1    2    0    0 -0.78331163675E+02 -0.59597716527E+02 -0.16929592394E+03  0.19582841694E+03  0.00000000000E+00 0.  1.
</event>
<event>
 7    1  0.2661133E-009  0.1745295E+03  0.7561462E-02  0.1173205E+00
          1   -1    0    0  501    0  0.00000000000E+00  0.00000000000E+00  0.84217854609E+03  0.84217854609E+03  0.00000000000E+00 0. -1.
         -1   -1    0    0    0  501 -0.00000000000E+00 -0.00000000000E+00 -0.39536607989E+02  0.39536607989E+02  0.00000000000E+00 0.  1.
         25    2    1    2    0    0 -0.14800011964E+03 -0.63888151367E-01  0.45628111732E+03  0.49572566283E+03  0.12508970890E+03 0.  0.
          5    1    3    3  502    0 -0.16327631992E+03  0.87854716473E+00  0.32748534482E+03  0.36595635254E+03  0.41800000000E+01 0.  1.
         -5    1    3    3    0  502  0.15276200285E+02 -0.94243531610E+00  0.12879577250E+03  0.12976931029E+03  0.41800000000E+01 0.  1.
        -11    1    1    2    0    0  0.57900487473E+02  0.40950450301E+02  0.15931527344E+03  0.17438681768E+03  0.00000000000E+00 0.  1.
         11    1    1    2    0    0  0.90099632166E+02 -0.40886562149E+02  0.18704554734E+03  0.21160267357E+03  0.00000000000E+00 0. -1.
</event>
<event>
 7    1  0.2661133E-009  0.1269120E+03  0.7561462E-02  0.1232111E+00
         -1   -1    0    0    0  501 -0.00000000000E+00  0.00000000000E+00  0.14125038724E+03  0.14125038724E+03  0.00000000000E+00 0.  1.
          1   -1    0    0  501    0  0.00000000000E+00 -0.00000000000E+00 -0.16785854655E+03  0.16785854655E+03  0.00000000000E+00 0. -1.
         25    2    1    2    0    0 -0.11979864164E+02  0.69870074695E+02  0.67997024178E+02  0.15904981752E+03  0.12509158514E+03 0.  0.
          5    1    3    3  502    0  0.48307470335E+01 -0.35967947909E+02  0.16707542936E+02  0.40170185270E+02  0.41800000000E+01 0.  1.
         -5    1    3    3    0  502 -0.16810611197E+02  0.10583802260E+03  0.51289481242E+02  0.11887963225E+03  0.41800000000E+01 0.  1.
        -11    1    1    2    0    0 -0.12765785229E+02 -0.81648967216E+02 -0.46845561390E+02  0.94994872187E+02  0.00000000000E+00 0.  1.
         11    1    1    2    0    0  0.24745649393E+02  0.11778892520E+02 -0.47759622099E+02  0.55064244079E+02  0.00000000000E+00 0. -1.
</event>
<event>
 7    1  0.2661133E-009  0.1321997E+03  0.7561462E-02  0.1224228E+00
         -2   -1    0    0    0  501 -0.00000000000E+00  0.00000000000E+00  0.47509934086E+02  0.47509934086E+02  0.00000000000E+00 0.  1.
          2   -1    0    0  501    0  0.00000000000E+00 -0.00000000000E+00 -0.53021339500E+03  0.53021339500E+03  0.00000000000E+00 0. -1.
         25    2    1    2    0    0 -0.39954831367E+02 -0.99002108667E+02 -0.17754460716E+03  0.24200368770E+03  0.12508353712E+03 0.  0.
          5    1    3    3  502    0 -0.80807148942E+02 -0.72548785444E+02 -0.15207102852E+03  0.18691225670E+03  0.41800000000E+01 0.  1.
         -5    1    3    3    0  502  0.40852317575E+02 -0.26453323223E+02 -0.25473578636E+02  0.55091430997E+02  0.41800000000E+01 0.  1.
        -11    1    1    2    0    0  0.22914367235E+02  0.63148625112E+02 -0.28172162961E+03  0.28962025770E+03  0.00000000000E+00 0. -1.
         11    1    1    2    0    0  0.17040464132E+02  0.35853483555E+02 -0.23437224151E+02  0.46099383692E+02  0.00000000000E+00 0.  1.
</event>
<event>
 7    1  0.2661133E-009  0.1274050E+03  0.7561462E-02  0.1231358E+00
          2   -1    0    0  501    0  0.00000000000E+00  0.00000000000E+00  0.12752068860E+03  0.12752068860E+03  0.00000000000E+00 0. -1.
         -2   -1    0    0    0  501 -0.00000000000E+00 -0.00000000000E+00 -0.13717069857E+03  0.13717069857E+03  0.00000000000E+00 0.  1.
         25    2    1    2    0    0 -0.70213935454E+02  0.11572597553E+02  0.20782606669E+02  0.14540617342E+03  0.12508843585E+03 0.  0.
          5    1    3    3  502    0 -0.10475873398E+03  0.60220756318E+01  0.29553733759E+02  0.10909424054E+03  0.41800000000E+01 0.  1.
         -5    1    3    3    0  502  0.34544798530E+02  0.55505219210E+01 -0.87711270902E+01  0.36311932880E+02  0.41800000000E+01 0.  1.
        -11    1    1    2    0    0  0.53078468739E+02  0.35905855337E+02 -0.10125458661E+02  0.64877416751E+02  0.00000000000E+00 0.  1.
         11    1    1    2    0    0  0.17135466715E+02 -0.47478452890E+02 -0.20307157974E+02  0.54407796990E+02  0.00000000000E+00 0. -1.
</event>
<event>
 7    1  0.2661133E-009  0.8975965E+02  0.7561462E-02  0.1303435E+00
          1   -1    0    0  501    0  0.00000000000E+00  0.00000000000E+00  0.20287286489E+03  0.20287286489E+03  0.00000000000E+00 0. -1.
         -1   -1    0    0    0  501 -0.00000000000E+00 -0.00000000000E+00 -0.57798824873E+02  0.57798824873E+02  0.00000000000E+00 0.  1.
         25    2    1    2    0    0  0.21887473304E+02  0.31356623416E+02  0.77345024273E+02  0.15196244787E+03  0.12509209993E+03 0.  0.
          5    1    3    3  502    0  0.26613716907E+02  0.59938311126E+02  0.96668398219E+02  0.11688944641E+03  0.41800000000E+01 0. -1.
         -5    1    3    3    0  502 -0.47262436027E+01 -0.28581687710E+02 -0.19323373945E+02  0.35073001462E+02  0.41800000000E+01 0. -1.
        -11    1    1    2    0    0  0.17291584182E+02 -0.40731720240E+02  0.29572571798E+02  0.53222259628E+02  0.00000000000E+00 0. -1.
         11    1    1    2    0    0 -0.39179057486E+02  0.93750968241E+01  0.38156443949E+02  0.55486982264E+02  0.00000000000E+00 0.  1.
</event>
<event>
 7    1  0.2661133E-009  0.7465331E+02  0.7561462E-02  0.1344948E+00
          2   -1    0    0  501    0  0.00000000000E+00  0.00000000000E+00  0.55187222691E+02  0.55187222691E+02  0.00000000000E+00 0. -1.
         -2   -1    0    0    0  501 -0.00000000000E+00 -0.00000000000E+00 -0.30012949781E+03  0.30012949781E+03  0.00000000000E+00 0.  1.
         25    2    1    2    0    0  0.47286826196E+02 -0.78441060743E+01 -0.67293717486E+02  0.14991341846E+03  0.12509202488E+03 0.  0.
          5    1    3    3  502    0  0.24127683160E+02 -0.41173554810E+00 -0.10335440036E+03  0.10621637866E+03  0.41800000000E+01 0.  1.
         -5    1    3    3    0  502  0.23159143036E+02 -0.74323705262E+01  0.36060682877E+02  0.43697039801E+02  0.41800000000E+01 0.  1.
        -11    1    1    2    0    0  0.23829930126E+02 -0.11466395166E+02 -0.71056291446E+02  0.75817810190E+02  0.00000000000E+00 0.  1.
         11    1    1    2    0    0 -0.71116756322E+02  0.19310501241E+02 -0.10659226619E+03  0.12958549185E+03  0.00000000000E+00 0. -1.
</event>
<event>
 7    1  0.2661133E-009  0.8524219E+02  0.7561462E-02  0.1314800E+00
          2   -1    0    0  501    0  0.00000000000E+00  0.00000000000E+00  0.24975170128E+03  0.24975170128E+03  0.00000000000E+00 0. -1.
         -2   -1    0    0    0  501 -0.00000000000E+00 -0.00000000000E+00 -0.64510599602E+02  0.64510599602E+02  0.00000000000E+00 0.  1.
         25    2    1    2    0    0 -0.18185938271E+02  0.58910492601E+02  0.72154447699E+02  0.15702086951E+03  0.12509242443E+03 0.  0.
          5    1    3    3  502    0 -0.30194372813E+02  0.22167472398E+02 -0.29707507011E+02  0.47990679875E+02  0.41800000000E+01 0.  1.
         -5    1    3    3    0  502  0.12008434543E+02  0.36743020202E+02  0.10186195471E+03  0.10903018963E+03  0.41800000000E+01 0.  1.
        -11    1    1    2    0    0  0.34678679794E+02 -0.67075510387E+02  0.47699703412E+02  0.89314033788E+02  0.00000000000E+00 0.  1.
         11    1    1    2    0    0 -0.16492741523E+02  0.81650177865E+01  0.65386950572E+02  0.67927397591E+02  0.00000000000E+00 0. -1.
</event>
<event>
 7    1  0.2661133E-009  0.1352198E+03  0.7561462E-02  0.1219910E+00
          2   -1    0    0  501    0  0.00000000000E+00  0.00000000000E+00  0.15710473978E+04  0.15710473978E+04  0.00000000000E+00 0.  1.
         -2   -1    0    0    0  501 -0.00000000000E+00 -0.00000000000E+00 -0.18388878459E+02  0.18388878459E+02  0.00000000000E+00 0. -1.
         25    2    1    2    0    0  0.60480739823E+02  0.54784017384E+02  0.13029954898E+04  0.13115274192E+04  0.12509083200E+03 0.  0.
          5    1    3    3  502    0  0.15866997566E+02  0.90498110875E+02  0.78167504886E+03  0.78706735677E+03  0.41800000000E+01 0.  1.
         -5    1    3    3    0  502  0.44613742257E+02 -0.35714093492E+02  0.52132044098E+03  0.52446006241E+03  0.41800000000E+01 0.  1.
        -11    1    1    2    0    0  0.23632073428E+02 -0.16018952384E+02  0.74196238110E+02  0.79499455845E+02  0.00000000000E+00 0. -1.
         11    1    1    2    0    0 -0.84112813251E+02 -0.38765064999E+02  0.17546679135E+03  0.19840940120E+03  0.00000000000E+00 0.  1.
</event>
<event>
 7    1  0.2661133E-009  0.2110666E+03  0.7561462E-02  0.1140724E+00
          2   -1    0    0  501    0  0.00000000000E+00  0.00000000000E+00  0.68787134189E+03  0.68787134189E+03  0.00000000000E+00 0.  1.
         -2   -1    0    0    0  501 -0.00000000000E+00 -0.00000000000E+00 -0.12608832238E+03  0.12608832238E+03  0.00000000000E+00 0. -1.
         25    2    1    2    0    0 -0.68872783906E+02  0.16572578675E+03  0.56547147174E+03  0.60631097162E+03  0.12508601917E+03 0.  0.
          5    1    3    3  502    0 -0.21544011412E+02 -0.16401543781E+02  0.43177097287E+02  0.51135987291E+02  0.41800000000E+01 0.  1.
         -5    1    3    3    0  502 -0.47328772494E+02  0.18212733054E+03  0.52229437446E+03  0.55517498433E+03  0.41800000000E+01 0.  1.
        -11    1    1    2    0    0  0.66587101128E+02 -0.18007021572E+03 -0.89600967990E+01  0.19219627457E+03  0.00000000000E+00 0. -1.
         11    1    1    2    0    0  0.22856827788E+01  0.14344428962E+02  0.52716445590E+01  0.15452418076E+02  0.00000000000E+00 0.  1.
</event>
<event>
 7    1  0.2661133E-009  0.1434935E+03  0.7561462E-02  0.1208704E+00
          1   -1    0    0  501    0  0.00000000000E+00  0.00000000000E+00  0.53645010683E+02  0.53645010683E+02  0.00000000000E+00 0. -1.
         -1   -1    0    0    0  501 -0.00000000000E+00 -0.00000000000E+00 -0.48545085055E+03  0.48545085055E+03  0.00000000000E+00 0.  1.
         25    2    1    2    0    0  0.59502600552E+02  0.94594618198E+02 -0.30932147034E+03  0.35187580109E+03  0.12509239032E+03 0.  0.
          5    1    3    3  502    0  0.79186683702E+02  0.32023938025E+02 -0.24666433503E+03  0.26106863094E+03  0.41800000000E+01 0.  1.
         -5    1    3    3    0  502 -0.19684083150E+02  0.62570680173E+02 -0.62657135311E+02  0.90807170159E+02  0.41800000000E+01 0.  1.
        -11    1    1    2    0    0  0.15075736853E+02 -0.41610529977E+02 -0.16548902035E+02  0.47250187357E+02  0.00000000000E+00 0. -1.
         11    1    1    2    0    0 -0.74578337405E+02 -0.52984088221E+02 -0.10593546749E+03  0.13996987278E+03  0.00000000000E+00 0.  1.
</event>
<event>
 7    1  0.2661133E-009  0.1132141E+03  0.7561462E-02  0.1254731E+00
         -2   -1    0    0    0  501 -0.00000000000E+00  0.00000000000E+00  0.14707266405E+02  0.14707266405E+02  0.00000000000E+00 0.  1.
          2   -1    0    0  501    0  0.00000000000E+00 -0.00000000000E+00 -0.10563492208E+04  0.10563492208E+04  0.00000000000E+00 0. -1.
         25    2    1    2    0    0  0.76347242078E+01  0.26601034327E+02 -0.75050869377E+03  0.76136500654E+03  0.12508984655E+03 0.  0.
          5    1    3    3  502    0 -0.48872857371E+02  0.44675944081E+02 -0.32343585388E+03  0.33017074393E+03  0.41800000000E+01 0. -1.
         -5    1    3    3    0  502  0.56507581579E+02 -0.18074909754E+02 -0.42707283989E+03  0.43119426261E+03  0.41800000000E+01 0. -1.
        -11    1    1    2    0    0 -0.36794551836E+02 -0.50791278138E+02 -0.13246585277E+03  0.14656328029E+03  0.00000000000E+00 0.  1.
         11    1    1    2    0    0  0.29159827628E+02  0.24190243811E+02 -0.15866740785E+03  0.16312820037E+03  0.00000000000E+00 0. -1.
</event>
<event>
 7    1  0.2661133E-009  0.2011360E+03  0.7561462E-02  0.1148784E+00
          2   -1    0    0  501    0  0.00000000000E+00  0.00000000000E+00  0.19496289302E+04  0.19496289302E+04  0.00000000000E+00 0. -1.
         -2   -1    0    0    0  501 -0.00000000000E+00 -0.00000000000E+00 -0.22266079369E+02  0.22266079369E+02  0.00000000000E+00 0.  1.
         25    2    1    2    0    0 -0.96622844247E+02  0.14008464546E+03  0.12487918187E+04  0.12665261641E+04  0.12509131053E+03 0.  0.
          5    1    3    3  502    0  0.23706792880E+02  0.64370150063E+02  0.37842104505E+03  0.38461082666E+03  0.41800000000E+01 0. -1.
         -5    1    3    3    0  502 -0.12032963713E+03  0.75714495399E+02  0.87037077369E+03  0.88191533748E+03  0.41800000000E+01 0. -1.
        -11    1    1    2    0    0  0.71941683122E+02 -0.14868995488E+03  0.55476797049E+03  0.57883660002E+03  0.00000000000E+00 0.  1.
         11    1    1    2    0    0  0.24681161126E+02  0.86053094130E+01  0.12380306161E+03  0.12653224541E+03  0.00000000000E+00 0. -1.
</event>
<event>
 7    1  0.3089837E-009  0.1187057E+03  0.7561462E-02  0.1245248E+00
          2   -1    0    0  501    0  0.00000000000E+00  0.00000000000E+00  0.48370394558E+03  0.48370394558E+03  0.00000000000E+00 0.  1.
         -2   -1    0    0    0  501 -0.00000000000E+00 -0.00000000000E+00 -0.62899509197E+02  0.62899509197E+02  0.00000000000E+00 0. -1.
         25    2    1    2    0    0 -0.62168448884E+02  0.94620660626E+02  0.34314381104E+03  0.38237861839E+03  0.12509095608E+03 0.  0.
          5    1    3    3  502    0 -0.56480232070E+02  0.93784299383E+02  0.13387839100E+03  0.17299250678E+03  0.41800000000E+01 0. -1.
         -5    1    3    3    0  502 -0.56882168135E+01  0.83636124299E+00  0.20926542004E+03  0.20938611161E+03  0.41800000000E+01 0. -1.
        -11    1    1    2    0    0 -0.61280955259E+01 -0.12609874553E+02 -0.16673773730E+02  0.21784793353E+02  0.00000000000E+00 0. -1.
         11    1    1    2    0    0  0.68296544410E+02 -0.82010786073E+02  0.94334399075E+02  0.14244004303E+03  0.00000000000E+00 0.  1.
</event>
<event>
 7    1  0.2661133E-009  0.1835252E+03  0.7561462E-02  0.1164434E+00
         -2   -1    0    0    0  501 -0.00000000000E+00  0.00000000000E+00  0.47642524900E+02  0.47642524900E+02  0.00000000000E+00 0. -1.
          2   -1    0    0  501    0  0.00000000000E+00 -0.00000000000E+00 -0.11495658917E+04  0.11495658917E+04  0.00000000000E+00 0.  1.
         25    2    1    2    0    0  0.15339244789E+03 -0.45952199766E+02 -0.90410353456E+03  0.92665574980E+03  0.12508728832E+03 0.  0.
          5    1    3    3  502    0 -0.17367040985E+02  0.13420522483E+02 -0.95870406587E+02  0.98439482909E+02  0.41800000000E+01 0. -1.
         -5    1    3    3    0  502  0.17075948888E+03 -0.59372722249E+02 -0.80823312797E+03  0.82821626689E+03  0.41800000000E+01 0. -1.
        -11    1    1    2    0    0 -0.41228626879E+02  0.29066425733E+02 -0.12744890112E+03  0.13706888479E+03  0.00000000000E+00 0.  1.
         11    1    1    2    0    0 -0.11216382101E+03  0.16885774033E+02 -0.70370931073E+02  0.13348378197E+03  0.00000000000E+00 0. -1.
</event>
<event>
 7    1  0.2661133E-009  0.1252375E+03  0.7561462E-02  0.1234699E+00
         -2   -1    0    0    0  501 -0.00000000000E+00  0.00000000000E+00  0.17326033929E+02  0.17326033929E+02  0.00000000000E+00 0.  1.
          2   -1    0    0  501    0  0.00000000000E+00 -0.00000000000E+00 -0.15951969549E+04  0.15951969549E+04  0.00000000000E+00 0. -1.
         25    2    1    2    0    0  0.67438301071E+02  0.86197339160E+02 -0.11128298487E+04  0.11251748224E+04  0.12510077156E+03 0.  0.
          5    1    3    3  502    0  0.41885147963E+02  0.30970375405E+02 -0.12527483890E+03  0.13573793660E+03  0.41800000000E+01 0.  1.
         -5    1    3    3    0  502  0.25553153107E+02  0.55226963755E+02 -0.98755500984E+03  0.98943688582E+03  0.41800000000E+01 0.  1.
        -11    1    1    2    0    0 -0.15899902733E+02 -0.84152635299E+02 -0.20378638781E+03  0.22105059328E+03  0.00000000000E+00 0.  1.
         11    1    1    2    0    0 -0.51538398338E+02 -0.20447038613E+01 -0.26125468441E+03  0.26629757311E+03  0.00000000000E+00 0. -1.
</event>
<event>
 7    1  0.2661133E-009  0.1557133E+03  0.7561462E-02  0.1193623E+00
          1   -1    0    0  501    0  0.00000000000E+00  0.00000000000E+00  0.58402482987E+03  0.58402482987E+03  0.00000000000E+00 0. -1.
         -1   -1    0    0    0  501 -0.00000000000E+00 -0.00000000000E+00 -0.45857679221E+02  0.45857679221E+02  0.00000000000E+00 0.  1.
         25    2    1    2    0    0  0.12272039913E+03  0.15496857716E+01  0.32686142479E+03  0.37087558387E+03  0.12509040654E+03 0.  0.
          5    1    3    3  502    0  0.71620575420E+02  0.55979807247E+02  0.11786698502E+03  0.14890716638E+03  0.41800000000E+01 0. -1.
         -5    1    3    3    0  502  0.51099823705E+02 -0.54430121475E+02  0.20899443977E+03  0.22196841749E+03  0.41800000000E+01 0. -1.
        -11    1    1    2    0    0 -0.32566573829E+02  0.35507233644E+02  0.43327711887E+02  0.64796882559E+02  0.00000000000E+00 0.  1.
         11    1    1    2    0    0 -0.90153825296E+02 -0.37056919416E+02  0.16797801397E+03  0.19421004266E+03  0.00000000000E+00 0. -1.
</event>
<event>
 7    1  0.3610674E-009  0.1979914E+03  0.7561462E-02  0.1151445E+00
          2   -1    0    0  501    0  0.00000000000E+00  0.00000000000E+00  0.23675562777E+03  0.23675562777E+03  0.00000000000E+00 0. -1.
         -2   -1    0    0    0  501 -0.00000000000E+00 -0.00000000000E+00 -0.19379846240E+03  0.19379846240E+03  0.00000000000E+00 0.  1.
         25    2    1    2    0    0 -0.13483214640E+03  0.10980881719E+03 -0.38929856869E+02  0.21771946485E+03  0.12509415487E+03 0.  0.
          5    1    3    3  502    0 -0.15552735692E+03  0.90500519381E+02 -0.50371049554E+02  0.18690590625E+03  0.41800000000E+01 0. -1.
         -5    1    3    3    0  502  0.20695210525E+02  0.19308297812E+02  0.11441192685E+02  0.30813558593E+02  0.41800000000E+01 0. -1.
        -11    1    1    2    0    0  0.11510358543E+03 -0.52010448760E+02  0.23764275065E+02  0.12852495061E+03  0.00000000000E+00 0.  1.
         11    1    1    2    0    0  0.19728560969E+02 -0.57798368433E+02  0.58122747180E+02  0.84309674719E+02  0.00000000000E+00 0. -1.
</event>
<event>
 7    1  0.2661133E-009  0.5819968E+02  0.7561462E-02  0.1405546E+00
         -2   -1    0    0    0  501 -0.00000000000E+00  0.00000000000E+00  0.13332631086E+03  0.13332631086E+03  0.00000000000E+00 0.  1.
          2   -1    0    0  501    0  0.00000000000E+00 -0.00000000000E+00 -0.10081776464E+03  0.10081776464E+03  0.00000000000E+00 0. -1.
         25    2    1    2    0    0  0.21192802078E+00  0.22041999264E+01 -0.19178936030E+02  0.12655291051E+03  0.12507159614E+03 0.  0.
          5    1    3    3  502    0 -0.56042745168E+00 -0.17668020856E+02  0.50659677662E+02  0.53817732958E+02  0.41800000000E+01 0.  1.
         -5    1    3    3    0  502  0.77235547246E+00  0.19872220782E+02 -0.69838613692E+02  0.72735177557E+02  0.41800000000E+01 0.  1.
        -11    1    1    2    0    0 -0.22765128711E+02  0.30578322836E+02  0.55809658861E+02  0.67587002706E+02  0.00000000000E+00 0.  1.
         11    1    1    2    0    0  0.22553200690E+02 -0.32782522762E+02 -0.41221766119E+01  0.40004162284E+02  0.00000000000E+00 0. -1.
</event>
<event>
 7    1  0.2661133E-009  0.1136004E+03  0.7561462E-02  0.1254044E+00
          2   -1    0    0  501    0  0.00000000000E+00  0.00000000000E+00  0.90680287316E+03  0.90680287316E+03  0.00000000000E+00 0. -1.
         -2   -1    0    0    0  501 -0.00000000000E+00 -0.00000000000E+00 -0.15494353814E+02  0.15494353814E+02  0.00000000000E+00 0.  1.
         25    2    1    2    0    0  0.33669267653E+02 -0.35653506714E+02  0.50655878043E+03  0.52407533548E+03  0.12509343348E+03 0.  0.
          5    1    3    3  502    0 -0.46334271161E+02 -0.47437694525E+01  0.14041820232E+03  0.14800037829E+03  0.41800000000E+01 0.  1.
         -5    1    3    3    0  502  0.80003538815E+02 -0.30909737262E+02  0.36614057812E+03  0.37607495719E+03  0.41800000000E+01 0.  1.
        -11    1    1    2    0    0 -0.24138228735E+01  0.56787310240E+02  0.30164627965E+03  0.30695456206E+03  0.00000000000E+00 0. -1.
         11    1    1    2    0    0 -0.31255444780E+02 -0.21133803525E+02  0.83103459257E+02  0.91267329425E+02  0.00000000000E+00 0.  1.
</event>
<event>
 7    1  0.2661133E-009  0.1517562E+03  0.7561462E-02  0.1198331E+00
         -2   -1    0    0    0  501 -0.00000000000E+00  0.00000000000E+00  0.49154939414E+02  0.49154939414E+02  0.00000000000E+00 0.  1.
          2   -1    0    0  501    0  0.00000000000E+00 -0.00000000000E+00 -0.10189410570E+04  0.10189410570E+04  0.00000000000E+00 0. -1.
         25    2    1    2    0    0  0.93967632510E+02  0.10105859059E+03 -0.83155355262E+03  0.85215711624E+03  0.12509070784E+03 0.  0.
          5    1    3    3  502    0  0.97411690294E+02  0.46661608363E+02 -0.71844751035E+03  0.72653330318E+03  0.41800000000E+01 0. -1.
         -5    1    3    3    0  502 -0.34440577834E+01  0.54396982224E+02 -0.11310604227E+03  0.12562381306E+03  0.41800000000E+01 0. -1.
        -11    1    1    2    0    0 -0.39624054665E+02 -0.23552995260E+02  0.26919138898E+01  0.46174188614E+02  0.00000000000E+00 0.  1.
         11    1    1    2    0    0 -0.54343577845E+02 -0.77505595327E+02 -0.14092447885E+03  0.16976469156E+03  0.00000000000E+00 0. -1.
</event>
<event>
 7    1  0.2661133E-009  0.1079192E+03  0.7561462E-02  0.1264472E+00
          2   -1    0    0  501    0  0.00000000000E+00  0.00000000000E+00  0.11935450184E+04  0.11935450184E+04  0.00000000000E+00 0. -1.
         -2   -1    0    0    0  501 -0.00000000000E+00 -0.00000000000E+00 -0.11873703834E+02  0.11873703834E+02  0.00000000000E+00 0.  1.
         25    2    1    2    0    0  0.30602013302E+02  0.31631433292E+02  0.80121996215E+03  0.81211899667E+03  0.12508719446E+03 0.  0.
          5    1    3    3  502    0  0.68722392768E+02  0.23286512469E+01  0.64358169937E+03  0.64725811393E+03  0.41800000000E+01 0. -1.
         -5    1    3    3    0  502 -0.38120379465E+02  0.29302782045E+02  0.15763826278E+03  0.16486088274E+03  0.41800000000E+01 0. -1.
        -11    1    1    2    0    0 -0.26387368637E+02 -0.62337847872E+02  0.28560877991E+03  0.29352116731E+03  0.00000000000E+00 0. -1.
         11    1    1    2    0    0 -0.42146446653E+01  0.30706414580E+02  0.94842572517E+02  0.99778558256E+02  0.00000000000E+00 0.  1.
</event>
<event>
 7    1  0.2661133E-009  0.1179258E+03  0.7561462E-02  0.1246559E+00
          2   -1    0    0  501    0  0.00000000000E+00  0.00000000000E+00  0.36950959113E+03  0.36950959113E+03  0.00000000000E+00 0. -1.
         -2   -1    0    0    0  501 -0.00000000000E+00 -0.00000000000E+00 -0.40332492278E+02  0.40332492278E+02  0.00000000000E+00 0.  1.
         25    2    1    2    0    0  0.12151539005E+02  0.42209952361E+02  0.17978035470E+03  0.22337403995E+03  0.12508255599E+03 0.  0.
          5    1    3    3  502    0  0.61989549117E+02  0.51348653146E+02  0.12405706182E+03  0.14794260836E+03  0.41800000000E+01 0. -1.
         -5    1    3    3    0  502 -0.49838010112E+02 -0.91387007856E+01  0.55723292875E+02  0.75431431597E+02  0.41800000000E+01 0. -1.
        -11    1    1    2    0    0 -0.23019558899E+01 -0.72510077049E+02  0.13081463181E+03  0.14958435135E+03  0.00000000000E+00 0.  1.
         11    1    1    2    0    0 -0.98495831156E+01  0.30300124689E+02  0.18582112346E+02  0.36883692100E+02  0.00000000000E+00 0. -1.
</event>
<event>
 7    1  0.2661133E-009  0.9607992E+02  0.7561462E-02  0.1288762E+00
          3   -1    0    0  501    0  0.00000000000E+00  0.00000000000E+00  0.52503917201E+02  0.52503917201E+02  0.00000000000E+00 0. -1.
         -3   -1    0    0    0  501 -0.00000000000E+00 -0.00000000000E+00 -0.23956176519E+03  0.23956176519E+03  0.00000000000E+00 0.  1.
         25    2    1    2    0    0 -0.25663602239E+02 -0.19538449774E+02 -0.10222722479E+03  0.16474430272E+03  0.12509959349E+03 0.  0.
          5    1    3    3  502    0 -0.63158313944E+02  0.48836507698E+01 -0.10159368224E+03  0.11979804396E+03  0.41800000000E+01 0. -1.
         -5    1    3    3    0  502  0.37494711705E+02 -0.24422100544E+02 -0.63354254759E+00  0.44946258765E+02  0.41800000000E+01 0. -1.
        -11    1    1    2    0    0 -0.12545632202E+02  0.38918302233E+02 -0.11642527975E+02  0.42515592360E+02  0.00000000000E+00 0. -1.
         11    1    1    2    0    0  0.38209234442E+02 -0.19379852459E+02 -0.73188095220E+02  0.84805787302E+02  0.00000000000E+00 0.  1.
</event>
<event>
 7    1  0.2661133E-009  0.1324729E+03  0.7561462E-02  0.1223832E+00
          1   -1    0    0  501    0  0.00000000000E+00  0.00000000000E+00  0.10156577187E+03  0.10156577187E+03  0.00000000000E+00 0. -1.
         -1   -1    0    0    0  501 -0.00000000000E+00 -0.00000000000E+00 -0.29970338798E+03  0.29970338798E+03  0.00000000000E+00 0.  1.
         25    2    1    2    0    0 -0.14693828088E+02  0.61911530185E+02 -0.80368473747E+01  0.14057488040E+03  0.12509100660E+03 0.  0.
          5    1    3    3  502    0  0.23633138496E+02  0.53100802846E+02  0.45558252981E+02  0.73967880278E+02  0.41800000000E+01 0.  1.
         -5    1    3    3    0  502 -0.38326966585E+02  0.88107273389E+01 -0.53595100355E+02  0.66607000127E+02  0.41800000000E+01 0.  1.
        -11    1    1    2    0    0  0.68257559257E+02  0.18304654802E+02 -0.37070469559E+02  0.79802095815E+02  0.00000000000E+00 0. -1.
         11    1    1    2    0    0 -0.53563731169E+02 -0.80216184987E+02 -0.15303029918E+03  0.18089218363E+03  0.00000000000E+00 0.  1.
</event>
<event>
 7    1  0.2661133E-009  0.7776211E+02  0.7561462E-02  0.1335525E+00
         -1   -1    0    0    0  501 -0.00000000000E+00  0.00000000000E+00  0.94559960019E+02  0.94559960019E+02  0.00000000000E+00 0.  1.
          1   -1    0    0  501    0  0.00000000000E+00 -0.00000000000E+00 -0.13250061043E+03  0.13250061043E+03  0.00000000000E+00 0. -1.
         25    2    1    2    0    0  0.37468240077E+01 -0.24158070019E+02 -0.14684246709E+01  0.12746499200E+03  0.12509003508E+03 0.  0.
          5    1    3    3  502    0  0.31516057210E+02  0.42285081805E+01  0.51780180190E+02  0.60908140704E+02  0.41800000000E+01 0.  1.
         -5    1    3    3    0  502 -0.27769233203E+02 -0.28386578200E+02 -0.53248604861E+02  0.66556851294E+02  0.41800000000E+01 0.  1.
        -11    1    1    2    0    0  0.28948546111E+02 -0.14922657342E+02 -0.36127614239E+02  0.48640605821E+02  0.00000000000E+00 0. -1.
         11    1    1    2    0    0 -0.32695370118E+02  0.39080727361E+02 -0.34461149842E+00  0.50954972626E+02  0.00000000000E+00 0.  1.
</event>
<event>
 7    1  0.2661133E-009  0.1903405E+03  0.7561462E-02  0.1158155E+00
          3   -1    0    0  501    0  0.00000000000E+00  0.00000000000E+00  0.20536107702E+03  0.20536107702E+03  0.00000000000E+00 0. -1.
         -3   -1    0    0    0  501 -0.00000000000E+00 -0.00000000000E+00 -0.30487227935E+03  0.30487227935E+03  0.00000000000E+00 0.  1.
         25    2    1    2    0    0 -0.16000430402E+03  0.22737997048E+02 -0.21164511787E+03  0.29420912067E+03  0.12508779699E+03 0.  0.
          5    1    3    3  502    0 -0.17836825532E+00  0.42549330026E+02 -0.53142065459E+02  0.68205782908E+02  0.41800000000E+01 0. -1.
         -5    1    3    3    0  502 -0.15982593577E+03 -0.19811332977E+02 -0.15850305241E+03  0.22600333776E+03  0.41800000000E+01 0. -1.
        -11    1    1    2    0    0  0.53492009565E+02  0.26249644410E+02  0.68845117757E+02  0.91049926732E+02  0.00000000000E+00 0.  1.
         11    1    1    2    0    0  0.10651229446E+03 -0.48987641458E+02  0.43288797781E+02  0.12497430896E+03  0.00000000000E+00 0. -1.
</event>
<event>
 7    1  0.2661133E-009  0.1055495E+03  0.7561462E-02  0.1269041E+00
          2   -1    0    0  501    0  0.00000000000E+00  0.00000000000E+00  0.17658427123E+03  0.17658427123E+03  0.00000000000E+00 0.  1.
         -2   -1    0    0    0  501 -0.00000000000E+00 -0.00000000000E+00 -0.68667073075E+02  0.68667073075E+02  0.00000000000E+00 0. -1.
         25    2    1    2    0    0 -0.55299776530E+01  0.78354707688E+01  0.81824071308E+02  0.14977594985E+03  0.12508269765E+03 0.  0.
          5    1    3    3  502    0 -0.65039544598E+02  0.43715377269E+01  0.36956291652E+02  0.75049934020E+02  0.41800000000E+01 0.  1.
         -5    1    3    3    0  502  0.59509566945E+02  0.34639330419E+01  0.44867779655E+02  0.74726015827E+02  0.41800000000E+01 0.  1.
        -11    1    1    2    0    0 -0.24566046597E+02  0.29291293830E+02  0.28404569041E+02  0.47626569077E+02  0.00000000000E+00 0.  1.
         11    1    1    2    0    0  0.30096024250E+02 -0.37126764599E+02 -0.23114421956E+01  0.47848825380E+02  0.00000000000E+00 0. -1.
</event>
<event>
 7    1  0.2661133E-009  0.1077032E+03  0.7561462E-02  0.1264883E+00
          2   -1    0    0  501    0  0.00000000000E+00  0.00000000000E+00  0.82560161694E+02  0.82560161694E+02  0.00000000000E+00 0. -1.
         -2   -1    0    0    0  501 -0.00000000000E+00 -0.00000000000E+00 -0.27462928205E+03  0.27462928205E+03  0.00000000000E+00 0.  1.
         25    2    1    2    0    0  0.82626033811E+01  0.67881954575E+02 -0.20063891138E+03  0.24613250535E+03  0.12509599138E+03 0.  0.
          5    1    3    3  502    0  0.60744659133E+02  0.66035352630E+02 -0.12289361413E+03  0.15221988767E+03  0.41800000000E+01 0. -1.
         -5    1    3    3    0  502 -0.52482055752E+02  0.18466019448E+01 -0.77745297249E+02  0.93912617678E+02  0.41800000000E+01 0. -1.
        -11    1    1    2    0    0  0.56282264167E+01 -0.49724045116E+02  0.45492550095E+02  0.67629355382E+02  0.00000000000E+00 0. -1.
         11    1    1    2    0    0 -0.13890829798E+02 -0.18157909459E+02 -0.36922759070E+02  0.43427583006E+02  0.00000000000E+00 0.  1.
</event>
<event>
 7    1  0.2661133E-009  0.3396711E+03  0.7561462E-02  0.1066936E+00
          1   -1    0    0  501    0  0.00000000000E+00  0.00000000000E+00  0.49240382269E+03  0.49240382269E+03  0.00000000000E+00 0. -1.
         -1   -1    0    0    0  501 -0.00000000000E+00 -0.00000000000E+00 -0.24953117034E+03  0.24953117034E+03  0.00000000000E+00 0.  1.
         25    2    1    2    0    0 -0.17034764631E+03 -0.28077514281E+03  0.18026254524E+03  0.39496279763E+03  0.12509206559E+03 0.  0.
          5    1    3    3  502    0 -0.24164051714E+01 -0.99503523754E+02  0.23684048517E+02  0.10239725000E+03  0.41800000000E+01 0. -1.
         -5    1    3    3    0  502 -0.16793124114E+03 -0.18127161906E+03  0.15657849672E+03  0.29256554763E+03  0.41800000000E+01 0. -1.
        -11    1    1    2    0    0  0.69489505190E+02  0.16500664004E+03  0.72385372848E+02  0.19312075184E+03  0.00000000000E+00 0. -1.
         11    1    1    2    0    0  0.10085814112E+03  0.11576850277E+03 -0.97752657338E+01  0.15385144356E+03  0.00000000000E+00 0.  1.
</event>
<event>
 7    1  0.2661133E-009  0.1142798E+03  0.7561462E-02  0.1252843E+00
         -2   -1    0    0    0  501 -0.00000000000E+00  0.00000000000E+00  0.16894394657E+02  0.16894394657E+02  0.00000000000E+00 0. -1.
          2   -1    0    0  501    0  0.00000000000E+00 -0.00000000000E+00 -0.11062103670E+04  0.11062103670E+04  0.00000000000E+00 0.  1.
         25    2    1    2    0    0 -0.57337060309E+02  0.48142371339E+02 -0.71912045957E+03  0.73374883841E+03  0.12509155080E+03 0.  0.
          5    1    3    3  502    0 -0.21147426050E+02  0.64674087981E+02 -0.16980577475E+03  0.18297930162E+03  0.41800000000E+01 0. -1.
         -5    1    3    3    0  502 -0.36189634260E+02 -0.16531716642E+02 -0.54931468483E+03  0.55076953678E+03  0.41800000000E+01 0. -1.
        -11    1    1    2    0    0  0.63120553128E+02  0.82822789267E+01 -0.20836183040E+03  0.21787026584E+03  0.00000000000E+00 0. -1.
         11    1    1    2    0    0 -0.57834928184E+01 -0.56424650265E+02 -0.16183368235E+03  0.17148565739E+03  0.00000000000E+00 0.  1.
</event>
<event>
 7    1  0.2661133E-009  0.8369031E+02  0.7561462E-02  0.1318893E+00
          2   -1    0    0  501    0  0.00000000000E+00  0.00000000000E+00  0.12934822515E+04  0.12934822515E+04  0.00000000000E+00 0. -1.
         -2   -1    0    0    0  501 -0.00000000000E+00 -0.00000000000E+00 -0.12680188489E+02  0.12680188489E+02  0.00000000000E+00 0.  1.
         25    2    1    2    0    0  0.21017114626E+02 -0.43923557718E+02  0.94448901118E+03  0.95397988627E+03  0.12508850116E+03 0.  0.
          5    1    3    3  502    0  0.38673725150E+02 -0.74561027166E+01  0.87765747226E+02  0.96288884462E+02  0.41800000000E+01 0.  1.
         -5    1    3    3    0  502 -0.17656610524E+02 -0.36467455001E+02  0.85672326396E+03  0.85769100180E+03  0.41800000000E+01 0.  1.
        -11    1    1    2    0    0  0.13405911954E+02 -0.14175346887E+02  0.17223067601E+02  0.26024853357E+02  0.00000000000E+00 0.  1.
         11    1    1    2    0    0 -0.34423026581E+02  0.58098904605E+02  0.31908998425E+03  0.32615770039E+03  0.00000000000E+00 0. -1.
</event>
<event>
 7    1  0.2661133E-009  0.1857114E+03  0.7561462E-02  0.1162387E+00
          2   -1    0    0  501    0  0.00000000000E+00  0.00000000000E+00  0.10040145978E+04  0.10040145978E+04  0.00000000000E+00 0. -1.
         -2   -1    0    0    0  501 -0.00000000000E+00 -0.00000000000E+00 -0.58508291063E+02  0.58508291063E+02  0.00000000000E+00 0.  1.
         25    2    1    2    0    0  0.16573122484E+02  0.15791797849E+03  0.81544229172E+03  0.84012288467E+03  0.12509026302E+03 0.  0.
          5    1    3    3  502    0  0.62604454564E+02  0.49400411751E+02  0.24759138214E+03  0.26015127007E+03  0.41800000000E+01 0. -1.
         -5    1    3    3    0  502 -0.46031332080E+02  0.10851756674E+03  0.56785090958E+03  0.57997161460E+03  0.41800000000E+01 0. -1.
        -11    1    1    2    0    0  0.27772785398E+02 -0.58865513378E+02  0.20634660853E+02  0.68280784285E+02  0.00000000000E+00 0.  1.
         11    1    1    2    0    0 -0.44345907883E+02 -0.99052465109E+02  0.10942935414E+03  0.15411921988E+03  0.00000000000E+00 0. -1.
</event>
<event>
 7    1  0.2661133E-009  0.1133998E+03  0.7561462E-02  0.1254400E+00
         -2   -1    0    0    0  501 -0.00000000000E+00  0.00000000000E+00  0.27062689727E+02  0.27062689727E+02  0.00000000000E+00 0.  1.
          2   -1    0    0  501    0  0.00000000000E+00 -0.00000000000E+00 -0.78460675066E+03  0.78460675066E+03  0.00000000000E+00 0. -1.
         25    2    1    2    0    0  0.76156412748E+02  0.48590311289E+02 -0.51170882655E+03  0.53446644896E+03  0.12509054457E+03 0.  0.
          5    1    3    3  502    0  0.32679555733E+02 -0.10053786770E+02 -0.25671955221E+02  0.42959907777E+02  0.41800000000E+01 0.  1.
         -5    1    3    3    0  502  0.43476857014E+02  0.58644098059E+02 -0.48603687133E+03  0.49150654118E+03  0.41800000000E+01 0.  1.
        -11    1    1    2    0    0  0.13764087866E+02 -0.21119275405E+02 -0.18733659489E+02  0.31407386174E+02  0.00000000000E+00 0.  1.
         11    1    1    2    0    0 -0.89920500614E+02 -0.27471035884E+02 -0.22710157489E+03  0.24579560525E+03  0.00000000000E+00 0. -1.
</event>
<event>
 7    1  0.3126808E-009  0.2072447E+03  0.7561462E-02  0.1143767E+00
          1   -1    0    0  501    0  0.00000000000E+00  0.00000000000E+00  0.16515142886E+04  0.16515142886E+04  0.00000000000E+00 0. -1.
         -1   -1    0    0    0  501 -0.00000000000E+00 -0.00000000000E+00 -0.29828479437E+02  0.29828479437E+02  0.00000000000E+00 0.  1.
         25    2    1    2    0    0  0.16187331540E+03 -0.97900790091E+02  0.69237528396E+03  0.72857320160E+03  0.12509133188E+03 0.  0.
          5    1    3    3  502    0  0.10644136011E+03 -0.11566419350E+03  0.59139568917E+03  0.61194305484E+03  0.41800000000E+01 0. -1.
         -5    1    3    3    0  502  0.55431955298E+02  0.17763403414E+02  0.10097959479E+03  0.11663014676E+03  0.41800000000E+01 0. -1.
        -11    1    1    2    0    0 -0.24067312368E+02  0.45466131164E+02  0.12700231248E+03  0.13702551581E+03  0.00000000000E+00 0. -1.
         11    1    1    2    0    0 -0.13780600304E+03  0.52434658927E+02  0.80230821269E+03  0.81574405059E+03  0.00000000000E+00 0.  1.
</event>
<event>
 7    1  0.2661133E-009  0.1650643E+03  0.7561462E-02  0.1183095E+00
          2   -1    0    0  501    0  0.00000000000E+00  0.00000000000E+00  0.41438184145E+03  0.41438184145E+03  0.00000000000E+00 0. -1.
         -2   -1    0    0    0  501 -0.00000000000E+00 -0.00000000000E+00 -0.84513389998E+02  0.84513389998E+02  0.00000000000E+00 0.  1.
         25    2    1    2    0    0  0.11399470030E+03 -0.99038007986E+02  0.19058716677E+03  0.27345478931E+03  0.12510289740E+03 0.  0.
          5    1    3    3  502    0  0.47502885120E+02 -0.27251556025E+02  0.16255575380E+03  0.17158384800E+03  0.41800000000E+01 0.  1.
         -5    1    3    3    0  502  0.66491815179E+02 -0.71786451962E+02  0.28031412969E+02  0.10187094131E+03  0.41800000000E+01 0.  1.
        -11    1    1    2    0    0 -0.43312910850E+02 -0.12622581922E+02  0.34944820812E+02  0.57065561613E+02  0.00000000000E+00 0.  1.
         11    1    1    2    0    0 -0.70681789449E+02  0.11166058991E+03  0.10433646387E+03  0.16837488053E+03  0.00000000000E+00 0. -1.
</event>
<event>
 7    1  0.2661133E-009  0.7674047E+02  0.7561462E-02  0.1338565E+00
          1   -1    0    0  501    0  0.00000000000E+00  0.00000000000E+00  0.25610455302E+02  0.25610455302E+02  0.00000000000E+00 0. -1.
         -1   -1    0    0    0  501 -0.00000000000E+00 -0.00000000000E+00 -0.57441885445E+03  0.57441885445E+03  0.00000000000E+00 0.  1.
         25    2    1    2    0    0 -0.20757124089E+02 -0.49837442553E+02 -0.27981333155E+03  0.31121994849E+03  0.12509087474E+03 0.  0.
          5    1    3    3  502    0 -0.35840156400E+02 -0.29042167783E+02 -0.20582914974E+02  0.50686222084E+02  0.41800000000E+01 0. -1.
         -5    1    3    3    0  502  0.15083032311E+02 -0.20795274770E+02 -0.25923041657E+03  0.26053372640E+03  0.41800000000E+01 0. -1.
        -11    1    1    2    0    0  0.28788321093E+02  0.60960056155E+02 -0.26646258012E+03  0.27485851357E+03  0.00000000000E+00 0.  1.
         11    1    1    2    0    0 -0.80311970039E+01 -0.11122613602E+02 -0.25324874833E+01  0.13950847698E+02  0.00000000000E+00 0. -1.
</event>
<event>
 7    1  0.2661133E-009  0.9764312E+02  0.7561462E-02  0.1285332E+00
         -2   -1    0    0    0  501 -0.00000000000E+00  0.00000000000E+00  0.39547684797E+03  0.39547684797E+03  0.00000000000E+00 0.  1.
          2   -1    0    0  501    0  0.00000000000E+00 -0.00000000000E+00 -0.32036898946E+02  0.32036898946E+02  0.00000000000E+00 0. -1.
         25    2    1    2    0    0 -0.15808537557E+02  0.29408270399E+02  0.21249115683E+03  0.24882618149E+03  0.12508885097E+03 0.  0.
          5    1    3    3  502    0  0.52198186310E+02  0.70621656561E+01  0.12497020486E+03  0.13568179444E+03  0.41800000000E+01 0. -1.
         -5    1    3    3    0  502 -0.68006723868E+02  0.22346104743E+02  0.87520951965E+02  0.11314438705E+03  0.41800000000E+01 0. -1.
        -11    1    1    2    0    0  0.28581084832E+02 -0.43292134458E+02  0.15116766365E+03  0.15982099314E+03  0.00000000000E+00 0.  1.
         11    1    1    2    0    0 -0.12772547275E+02  0.13883864059E+02 -0.21887145360E+00  0.18866572286E+02  0.00000000000E+00 0. -1.
</event>
<event>
 7    1  0.2661133E-009  0.1227495E+03  0.7561462E-02  0.1238629E+00
         -1   -1    0    0    0  501 -0.00000000000E+00  0.00000000000E+00  0.33513105947E+03  0.33513105947E+03  0.00000000000E+00 0.  1.
          1   -1    0    0  501    0  0.00000000000E+00 -0.00000000000E+00 -0.56603153067E+02  0.56603153067E+02  0.00000000000E+00 0. -1.
         25    2    1    2    0    0  0.75456029156E+02  0.39647644096E+02  0.17230891132E+03  0.22935436998E+03  0.12509003994E+03 0.  0.
          5    1    3    3  502    0 -0.73301305156E+01  0.55579387699E+02  0.29553602297E+02  0.63511313631E+02  0.41800000000E+01 0. -1.
         -5    1    3    3    0  502  0.82786159672E+02 -0.15931743603E+02  0.14275530902E+03  0.16584305635E+03  0.41800000000E+01 0. -1.
        -11    1    1    2    0    0 -0.38209811152E+02 -0.52973217147E+02  0.10393675426E+03  0.12275585643E+03  0.00000000000E+00 0.  1.
         11    1    1    2    0    0 -0.37246218004E+02  0.13325573051E+02  0.22822408284E+01  0.39623986119E+02  0.00000000000E+00 0. -1.
</event>
<event>
 7    1  0.2661133E-009  0.1080190E+03  0.7561462E-02  0.1264283E+00
         -1   -1    0    0    0  501 -0.00000000000E+00  0.00000000000E+00  0.22442236354E+02  0.22442236354E+02  0.00000000000E+00 0.  1.
          1   -1    0    0  501    0  0.00000000000E+00 -0.00000000000E+00 -0.65416565133E+03  0.65416565133E+03  0.00000000000E+00 0. -1.
         25    2    1    2    0    0  0.25910186895E+02  0.26164411919E+02 -0.46157937354E+03  0.47964415054E+03  0.12508828415E+03 0.  0.
          5    1    3    3  502    0  0.66363448460E+02  0.35283437956E+02 -0.18165941098E+03  0.19663835405E+03  0.41800000000E+01 0.  1.
         -5    1    3    3    0  502 -0.40453261565E+02 -0.91190260376E+01 -0.27991996256E+03  0.28300579649E+03  0.41800000000E+01 0.  1.
        -11    1    1    2    0    0  0.34131802981E+02 -0.14757418010E+01 -0.63751373556E+02  0.72328385983E+02  0.00000000000E+00 0. -1.
         11    1    1    2    0    0 -0.60041989876E+02 -0.24688670118E+02 -0.10639266788E+03  0.12463535116E+03  0.00000000000E+00 0.  1.
</event>
<event>
 7    1  0.2661133E-009  0.1150425E+03  0.7561462E-02  0.1251507E+00
         -2   -1    0    0    0  501 -0.00000000000E+00  0.00000000000E+00  0.21344513343E+03  0.21344513343E+03  0.00000000000E+00 0.  1.
          2   -1    0    0  501    0  0.00000000000E+00 -0.00000000000E+00 -0.97091165902E+02  0.97091165902E+02  0.00000000000E+00 0. -1.
         25    2    1    2    0    0 -0.73648498358E+01  0.89946068220E+02  0.95648025139E+02  0.18149579100E+03  0.12509053215E+03 0.  0.
          5    1    3    3  502    0 -0.27991118656E+02  0.69870202736E+02 -0.61397091887E+01  0.75634095373E+02  0.41800000000E+01 0. -1.
         -5    1    3    3    0  502  0.20626268821E+02  0.20075865484E+02  0.10178773433E+03  0.10586169562E+03  0.41800000000E+01 0. -1.
        -11    1    1    2    0    0 -0.23416459246E+01  0.17538088893E+02 -0.44098604607E+01  0.18234986618E+02  0.00000000000E+00 0.  1.
         11    1    1    2    0    0  0.97064957605E+01 -0.10748415711E+03  0.25115802849E+02  0.11080552172E+03  0.00000000000E+00 0. -1.
</event>
<event>
 7    1  0.2661133E-009  0.1134061E+03  0.7561462E-02  0.1254389E+00
         -1   -1    0    0    0  501 -0.00000000000E+00  0.00000000000E+00  0.91945937364E+02  0.91945937364E+02  0.00000000000E+00 0.  1.
          1   -1    0    0  501    0  0.00000000000E+00 -0.00000000000E+00 -0.17707966327E+03  0.17707966327E+03  0.00000000000E+00 0. -1.
         25    2    1    2    0    0  0.63514006943E+02  0.14077689047E+01 -0.72225243808E+02  0.15781714737E+03  0.12511496821E+03 0.  0.
          5    1    3    3  502    0  0.46717369497E+02  0.61615123766E+02 -0.44478240257E+02  0.89301300919E+02  0.41800000000E+01 0. -1.
         -5    1    3    3    0  502  0.16796637446E+02 -0.60207354861E+02 -0.27747003551E+02  0.68515846451E+02  0.41800000000E+01 0. -1.
        -11    1    1    2    0    0 -0.74125039616E+02  0.50689391652E+01 -0.37818005727E+02  0.83369162161E+02  0.00000000000E+00 0. -1.
         11    1    1    2    0    0  0.10611032673E+02 -0.64767080699E+01  0.24909523628E+02  0.27839291104E+02  0.00000000000E+00 0.  1.
</event>
<event>
 7    1  0.2661133E-009  0.1563405E+03  0.7561462E-02  0.1192891E+00
          1   -1    0    0  501    0  0.00000000000E+00  0.00000000000E+00  0.29743713565E+03  0.29743713565E+03  0.00000000000E+00 0. -1.
         -1   -1    0    0    0  501 -0.00000000000E+00 -0.00000000000E+00 -0.97099090232E+02  0.97099090232E+02  0.00000000000E+00 0.  1.
         25    2    1    2    0    0  0.93456002696E+01  0.12930111929E+03  0.85423744232E+02  0.19938161022E+03  0.12509872389E+03 0.  0.
          5    1    3    3  502    0 -0.43964880133E+02  0.11486446232E+03  0.71283277962E+02  0.14221650223E+03  0.41800000000E+01 0.  1.
         -5    1    3    3    0  502  0.53310480402E+02  0.14436656973E+02  0.14140466270E+02  0.57165107991E+02  0.41800000000E+01 0.  1.
        -11    1    1    2    0    0 -0.22207050902E+02 -0.65995967428E+02  0.11023684294E+03  0.13038704832E+03  0.00000000000E+00 0. -1.
         11    1    1    2    0    0  0.12861450633E+02 -0.63305151863E+02  0.46774582455E+01  0.64767567350E+02  0.00000000000E+00 0.  1.
</event>
<event>
 7    1  0.2661133E-009  0.7255428E+02  0.7561462E-02  0.1351616E+00
         -1   -1    0    0    0  501 -0.00000000000E+00  0.00000000000E+00  0.19046287338E+03  0.19046287338E+03  0.00000000000E+00 0.  1.
          1   -1    0    0  501    0  0.00000000000E+00 -0.00000000000E+00 -0.73697592422E+02  0.73697592422E+02  0.00000000000E+00 0. -1.
         25    2    1    2    0    0 -0.30325343357E+02 -0.12929827327E+02  0.34285842811E+02  0.13382851714E+03  0.12509095130E+03 0.  0.
          5    1    3    3  502    0  0.12879245820E+02 -0.41614262630E+02  0.61211694360E+02  0.75246034803E+02  0.41800000000E+01 0.  1.
         -5    1    3    3    0  502 -0.43204589176E+02  0.28684435303E+02 -0.26925851550E+02  0.58582482332E+02  0.41800000000E+01 0.  1.
        -11    1    1    2    0    0  0.13499142084E+02 -0.12782130266E+02  0.95256128180E+02  0.97053282515E+02  0.00000000000E+00 0.  1.
         11    1    1    2    0    0  0.16826201272E+02  0.25711957593E+02 -0.12776690034E+02  0.33278666150E+02  0.00000000000E+00 0. -1.
</event>
<event>
 7    1  0.2661133E-009  0.1829110E+03  0.7561462E-02  0.1165015E+00
         -2   -1    0    0    0  501 -0.00000000000E+00  0.00000000000E+00  0.20695610003E+03  0.20695610003E+03  0.00000000000E+00 0. -1.
          2   -1    0    0  501    0  0.00000000000E+00 -0.00000000000E+00 -0.19109105238E+03  0.19109105238E+03  0.00000000000E+00 0.  1.
         25    2    1    2    0    0 -0.13954857641E+03 -0.94823207786E+02  0.84539862785E+01  0.21020009446E+03  0.12508942368E+03 0.  0.
          5    1    3    3  502    0 -0.17375474250E+02 -0.68558981524E+02 -0.33425214904E+02  0.78338741657E+02  0.41800000000E+01 0.  1.
         -5    1    3    3    0  502 -0.12217310216E+03 -0.26264226261E+02  0.41879201182E+02  0.13186135281E+03  0.41800000000E+01 0.  1.
        -11    1    1    2    0    0  0.10846617354E+02  0.14932594337E+02  0.29465330384E+02  0.34768335829E+02  0.00000000000E+00 0. -1.
         11    1    1    2    0    0  0.12870195905E+03  0.79890613449E+02 -0.22054269015E+02  0.15307872211E+03  0.00000000000E+00 0.  1.
</event>
<event>
 7    1  0.2661133E-009  0.1106212E+03  0.7561462E-02  0.1259424E+00
         -2   -1    0    0    0  501 -0.00000000000E+00  0.00000000000E+00  0.29198300801E+03  0.29198300801E+03  0.00000000000E+00 0.  1.
          2   -1    0    0  501    0  0.00000000000E+00 -0.00000000000E+00 -0.53264590668E+02  0.53264590668E+02  0.00000000000E+00 0. -1.
         25    2    1    2    0    0 -0.54522476704E+02 -0.18834949681E+02  0.15853570078E+03  0.21002005579E+03  0.12508956637E+03 0.  0.
          5    1    3    3  502    0 -0.54731584326E+02 -0.54815790683E+02  0.42482808459E+02  0.88445342701E+02  0.41800000000E+01 0.  1.
         -5    1    3    3    0  502  0.20910762150E+00  0.35980841002E+02  0.11605289232E+03  0.12157471308E+03  0.41800000000E+01 0.  1.
        -11    1    1    2    0    0  0.29379324233E+02  0.55611341736E+02  0.57582065416E+02  0.85272857813E+02  0.00000000000E+00 0. -1.
         11    1    1    2    0    0  0.25143152471E+02 -0.36776392056E+02  0.22600651140E+02  0.49954685073E+02  0.00000000000E+00 0.  1.
</event>
<event>
 7    1  0.2661133E-009  0.9637066E+02  0.7561462E-02  0.1288119E+00
         -1   -1    0    0    0  501 -0.00000000000E+00  0.00000000000E+00  0.46720368926E+03  0.46720368926E+03  0.00000000000E+00 0.  1.
          1   -1    0    0  501    0  0.00000000000E+00 -0.00000000000E+00 -0.39381761606E+02  0.39381761606E+02  0.00000000000E+00 0. -1.
         25    2    1    2    0    0  0.42877393335E+02 -0.28094026119E+02  0.12611660893E+03  0.18488103043E+03  0.12509137141E+03 0.  0.
          5    1    3    3  502    0  0.14339792536E+02  0.26423325088E+02  0.11898264157E+03  0.12279317226E+03  0.41800000000E+01 0.  1.
         -5    1    3    3    0  502  0.28537600799E+02 -0.54517351207E+02  0.71339673617E+01  0.62087858171E+02  0.41800000000E+01 0.  1.
        -11    1    1    2    0    0 -0.18957876024E+02  0.58804737125E+02  0.11071983859E+03  0.12679227432E+03  0.00000000000E+00 0.  1.
         11    1    1    2    0    0 -0.23919517311E+02 -0.30710711006E+02  0.19098548014E+03  0.19491214611E+03  0.00000000000E+00 0. -1.
</event>
<event>
 7    1  0.2661133E-009  0.1027116E+03  0.7561462E-02  0.1274695E+00
          1   -1    0    0  501    0  0.00000000000E+00  0.00000000000E+00  0.43371703406E+03  0.43371703406E+03  0.00000000000E+00 0. -1.
         -1   -1    0    0    0  501 -0.00000000000E+00 -0.00000000000E+00 -0.47216568861E+02  0.47216568861E+02  0.00000000000E+00 0.  1.
         25    2    1    2    0    0 -0.32692172553E+02  0.70950504764E+01  0.36024720914E+03  0.38280726452E+03  0.12507690509E+03 0.  0.
          5    1    3    3  502    0  0.19575522548E+02 -0.46374438636E+02  0.10048848253E+03  0.11246864969E+03  0.41800000000E+01 0.  1.
         -5    1    3    3    0  502 -0.52267695101E+02  0.53469489113E+02  0.25975872661E+03  0.27033861482E+03  0.41800000000E+01 0.  1.
        -11    1    1    2    0    0  0.12616982318E+02 -0.39743155226E+02 -0.12590906649E+02  0.43557290553E+02  0.00000000000E+00 0.  1.
         11    1    1    2    0    0  0.20075190235E+02  0.32648104749E+02  0.38844162705E+02  0.54569047847E+02  0.00000000000E+00 0. -1.
</event>
<event>
 7    1  0.2661133E-009  0.1152972E+03  0.7561462E-02  0.1251063E+00
         -2   -1    0    0    0  501 -0.00000000000E+00  0.00000000000E+00  0.52824080998E+03  0.52824080998E+03  0.00000000000E+00 0.  1.
          2   -1    0    0  501    0  0.00000000000E+00 -0.00000000000E+00 -0.44390016444E+02  0.44390016444E+02  0.00000000000E+00 0. -1.
         25    2    1    2    0    0 -0.87277023954E+01 -0.10583534803E+03  0.33238777986E+03  0.37068408795E+03  0.12509101956E+03 0.  0.
          5    1    3    3  502    0  0.18072336076E+01 -0.30515391462E+02  0.27129151005E+03  0.27304031027E+03  0.41800000000E+01 0.  1.
         -5    1    3    3    0  502 -0.10534936003E+02 -0.75319956564E+02  0.61096269819E+02  0.97643777678E+02  0.41800000000E+01 0.  1.
        -11    1    1    2    0    0  0.29949891582E+02  0.22181891026E+02  0.14356770119E+02  0.39939318265E+02  0.00000000000E+00 0. -1.
         11    1    1    2    0    0 -0.21222189187E+02  0.83653457000E+02  0.13710624355E+03  0.16200742021E+03  0.00000000000E+00 0.  1.
</event>
<event>
 7    1  0.2661133E-009  0.1605988E+03  0.7561462E-02  0.1188022E+00
          2   -1    0    0  501    0  0.00000000000E+00  0.00000000000E+00  0.28398179850E+03  0.28398179850E+03  0.00000000000E+00 0. -1.
         -2   -1    0    0    0  501 -0.00000000000E+00 -0.00000000000E+00 -0.11197262571E+03  0.11197262571E+03  0.00000000000E+00 0.  1.
         25    2    1    2    0    0 -0.73700724670E+02  0.92662208973E+02  0.17641241144E+03  0.24654779703E+03  0.12508555280E+03 0.  0.
          5    1    3    3  502    0  0.64371644538E+00  0.97206112662E+02  0.10742952014E+03  0.14494142578E+03  0.41800000000E+01 0.  1.
         -5    1    3    3    0  502 -0.74344441115E+02 -0.45439036883E+01  0.68982891300E+02  0.10160637125E+03  0.41800000000E+01 0.  1.
        -11    1    1    2    0    0 -0.34276730935E+01  0.15823417628E+02 -0.15889654054E+01  0.16268199020E+02  0.00000000000E+00 0.  1.
         11    1    1    2    0    0  0.77128397763E+02 -0.10848562660E+03 -0.28142732375E+01  0.13313842817E+03  0.00000000000E+00 0. -1.
</event>
<event>
 7    1  0.2661133E-009  0.9756106E+02  0.7561462E-02  0.1285510E+00
         -1   -1    0    0    0  501 -0.00000000000E+00  0.00000000000E+00  0.10248621467E+03  0.10248621467E+03  0.00000000000E+00 0.  1.
          1   -1    0    0  501    0  0.00000000000E+00 -0.00000000000E+00 -0.20086490327E+03  0.20086490327E+03  0.00000000000E+00 0. -1.
         25    2    1    2    0    0 -0.75943104692E+02 -0.24497060789E+02 -0.10186805175E+03  0.17997935118E+03  0.12509198913E+03 0.  0.
          5    1    3    3  502    0 -0.48747236385E+02  0.21048170139E+02  0.11728511989E+02  0.54537591759E+02  0.41800000000E+01 0. -1.
         -5    1    3    3    0  502 -0.27195868307E+02 -0.45545230928E+02 -0.11359656373E+03  0.12544175942E+03  0.41800000000E+01 0. -1.
        -11    1    1    2    0    0  0.66595509166E+02  0.47059345316E+01  0.42143820462E+02  0.78950676147E+02  0.00000000000E+00 0.  1.
         11    1    1    2    0    0  0.93475955260E+01  0.19791126257E+02 -0.38654457316E+02  0.44421090611E+02  0.00000000000E+00 0. -1.
</event>
<event>
 7    1  0.2661133E-009  0.1403032E+03  0.7561462E-02  0.1212922E+00
          2   -1    0    0  501    0  0.00000000000E+00  0.00000000000E+00  0.24160250819E+03  0.24160250819E+03  0.00000000000E+00 0. -1.
         -2   -1    0    0    0  501 -0.00000000000E+00 -0.00000000000E+00 -0.10930161017E+03  0.10930161017E+03  0.00000000000E+00 0.  1.
         25    2    1    2    0    0 -0.45273304263E+02 -0.91544812698E+02 -0.37618594574E+01  0.16152990008E+03  0.12509049613E+03 0.  0.
          5    1    3    3  502    0  0.37038564858E+02 -0.64686819836E+02  0.16721161646E+01  0.74676022388E+02  0.41800000000E+01 0.  1.
         -5    1    3    3    0  502 -0.82311869120E+02 -0.26857992862E+02 -0.54339756220E+01  0.86853877690E+02  0.41800000000E+01 0.  1.
        -11    1    1    2    0    0  0.51448986299E+02  0.34633651599E+02  0.11042569393E+03  0.12665039240E+03  0.00000000000E+00 0. -1.
         11    1    1    2    0    0 -0.61756820358E+01  0.56911161099E+02  0.25637063547E+02  0.62723825884E+02  0.00000000000E+00 0.  1.
</event>
<event>
 7    1  0.2661133E-009  0.1097703E+03  0.7561462E-02  0.1260996E+00
          2   -1    0    0  501    0  0.00000000000E+00  0.00000000000E+00  0.73950585158E+02  0.73950585158E+02  0.00000000000E+00 0. -1.
         -2   -1    0    0    0  501 -0.00000000000E+00 -0.00000000000E+00 -0.18573481711E+03  0.18573481711E+03  0.00000000000E+00 0.  1.
         25    2    1    2    0    0  0.21753556831E+02  0.22109901606E+02 -0.10161065755E+03  0.16411651706E+03  0.12508972963E+03 0.  0.
          5    1    3    3  502    0 -0.17977603274E+01 -0.51340469786E+02 -0.37688004917E+02  0.63850872309E+02  0.41800000000E+01 0.  1.
         -5    1    3    3    0  502  0.23551317158E+02  0.73450371391E+02 -0.63922652629E+02  0.10026564475E+03  0.41800000000E+01 0.  1.
        -11    1    1    2    0    0  0.28734382148E+02 -0.27754182757E+02 -0.18608742561E+02  0.44070905115E+02  0.00000000000E+00 0.  1.
         11    1    1    2    0    0 -0.50487938979E+02  0.56442811517E+01  0.84351681567E+01  0.51497980095E+02  0.00000000000E+00 0. -1.
</event>
<event>
 7    1  0.2661133E-009  0.9892948E+02  0.7561462E-02  0.1282563E+00
          2   -1    0    0  501    0  0.00000000000E+00  0.00000000000E+00  0.20176173731E+03  0.20176173731E+03  0.00000000000E+00 0. -1.
         -2   -1    0    0    0  501 -0.00000000000E+00 -0.00000000000E+00 -0.92739098921E+02  0.92739098921E+02  0.00000000000E+00 0.  1.
         25    2    1    2    0    0 -0.38635472360E+02 -0.55749538332E+02  0.81932554849E+01  0.14252526772E+03  0.12508241984E+03 0.  0.
          5    1    3    3  502    0 -0.50821368592E+02 -0.40649440884E+02 -0.49268720631E+02  0.81731681632E+02  0.41800000000E+01 0. -1.
         -5    1    3    3    0  502  0.12185896232E+02 -0.15100097448E+02  0.57461976116E+02  0.60793586085E+02  0.41800000000E+01 0. -1.
        -11    1    1    2    0    0  0.42046555456E+02  0.78896202725E+02  0.87267220834E+02  0.12493234754E+03  0.00000000000E+00 0.  1.
         11    1    1    2    0    0 -0.34110830965E+01 -0.23146664393E+02  0.13562162068E+02  0.27043220969E+02  0.00000000000E+00 0. -1.
</event>
<event>
 7    1  0.2661133E-009  0.1361813E+03  0.7561462E-02  0.1218562E+00
          2   -1    0    0  501    0  0.00000000000E+00  0.00000000000E+00  0.96585647235E+02  0.96585647235E+02  0.00000000000E+00 0. -1.
         -2   -1    0    0    0  501 -0.00000000000E+00 -0.00000000000E+00 -0.28418708643E+03  0.28418708643E+03  0.00000000000E+00 0.  1.
         25    2    1    2    0    0  0.85163577184E+02 -0.91177200774E+02 -0.10984826294E+03  0.20803712453E+03  0.12508671989E+03 0.  0.
          5    1    3    3  502    0  0.77446961213E+02 -0.30921796727E+02 -0.12184964745E+01  0.83505367777E+02  0.41800000000E+01 0. -1.
         -5    1    3    3    0  502  0.77166159710E+01 -0.60255404047E+02 -0.10862976646E+03  0.12453175675E+03  0.41800000000E+01 0. -1.
        -11    1    1    2    0    0 -0.39839940933E+02  0.63208482133E+02 -0.91109105072E+02  0.11782784957E+03  0.00000000000E+00 0.  1.
         11    1    1    2    0    0 -0.45323636251E+02  0.27968718641E+02  0.13355928817E+02  0.54907759561E+02  0.00000000000E+00 0. -1.
</event>
<event>
 7    1  0.2661133E-009  0.1061369E+03  0.7561462E-02  0.1267896E+00
         -2   -1    0    0    0  501 -0.00000000000E+00  0.00000000000E+00  0.34848655092E+02  0.34848655092E+02  0.00000000000E+00 0.  1.
          2   -1    0    0  501    0  0.00000000000E+00 -0.00000000000E+00 -0.45533313105E+03  0.45533313105E+03  0.00000000000E+00 0. -1.
         25    2    1    2    0    0  0.41467213189E+02 -0.46743786844E+01 -0.14173844287E+03  0.19359377307E+03  0.12508950075E+03 0.  0.
          5    1    3    3  502    0  0.75358712972E+02  0.28481169397E+02 -0.10990599498E+03  0.13633382839E+03  0.41800000000E+01 0.  1.
         -5    1    3    3    0  502 -0.33891499783E+02 -0.33155548082E+02 -0.31832447893E+02  0.57259944682E+02  0.41800000000E+01 0.  1.
        -11    1    1    2    0    0 -0.23446483677E+02 -0.34023449322E+02 -0.54922153850E+02  0.68729729260E+02  0.00000000000E+00 0.  1.
         11    1    1    2    0    0 -0.18020729512E+02  0.38697828006E+02 -0.22382387924E+03  0.22785828381E+03  0.00000000000E+00 0. -1.
</event>
<event>
 7    1  0.2661133E-009  0.1112528E+03  0.7561462E-02  0.1258267E+00
          1   -1    0    0  501    0  0.00000000000E+00  0.00000000000E+00  0.16547427819E+03  0.16547427819E+03  0.00000000000E+00 0. -1.
         -1   -1    0    0    0  501 -0.00000000000E+00 -0.00000000000E+00 -0.94957514530E+02  0.94957514530E+02  0.00000000000E+00 0.  1.
         25    2    1    2    0    0  0.29938233229E+01 -0.26662140902E+02  0.98331544809E+02  0.16135863128E+03  0.12509069689E+03 0.  0.
          5    1    3    3  502    0  0.53353013814E+02  0.21908308051E+02  0.45813509119E+02  0.73775795913E+02  0.41800000000E+01 0. -1.
         -5    1    3    3    0  502 -0.50359190491E+02 -0.48570448954E+02  0.52518035690E+02  0.87582835369E+02  0.41800000000E+01 0. -1.
        -11    1    1    2    0    0 -0.39727588925E+02  0.39163309813E+02 -0.11385858561E+02  0.56935787800E+02  0.00000000000E+00 0. -1.
         11    1    1    2    0    0  0.36733765602E+02 -0.12501168911E+02 -0.16428922590E+02  0.42137373636E+02  0.00000000000E+00 0.  1.
</event>
<event>
 7    1  0.2661133E-009  0.1068578E+03  0.7561462E-02  0.1266502E+00
         -2   -1    0    0    0  501 -0.00000000000E+00  0.00000000000E+00  0.34225699545E+02  0.34225699545E+02  0.00000000000E+00 0.  1.
          2   -1    0    0  501    0  0.00000000000E+00 -0.00000000000E+00 -0.46003361529E+03  0.46003361529E+03  0.00000000000E+00 0. -1.
         25    2    1    2    0    0  0.12689896005E+02 -0.39622917447E+02 -0.32956325432E+03  0.35495264333E+03  0.12509369032E+03 0.  0.
          5    1    3    3  502    0  0.62582604461E+02 -0.71349847844E+01 -0.10429161755E+03  0.12190858985E+03  0.41800000000E+01 0.  1.
         -5    1    3    3    0  502 -0.49892708456E+02 -0.32487932663E+02 -0.22527163677E+03  0.23304405347E+03  0.41800000000E+01 0.  1.
        -11    1    1    2    0    0 -0.75381440236E+01 -0.24982113518E+02 -0.59105450994E+02  0.64609472590E+02  0.00000000000E+00 0. -1.
         11    1    1    2    0    0 -0.51517519811E+01  0.64605030965E+02 -0.37139210426E+02  0.74697198914E+02  0.00000000000E+00 0.  1.
</event>
<event>
 7    1  0.2661133E-009  0.1098152E+03  0.7561462E-02  0.1260912E+00
         -1   -1    0    0    0  501 -0.00000000000E+00  0.00000000000E+00  0.62981212830E+02  0.62981212830E+02  0.00000000000E+00 0.  1.
          1   -1    0    0  501    0  0.00000000000E+00 -0.00000000000E+00 -0.23643255954E+03  0.23643255954E+03  0.00000000000E+00 0. -1.
         25    2    1    2    0    0  0.27543219285E+01  0.39060598759E+02 -0.48280250811E+02  0.13968072889E+03  0.12508559765E+03 0.  0.
          5    1    3    3  502    0 -0.49940299695E+02 -0.11814716526E+02  0.65434815780E+00  0.51492927977E+02  0.41800000000E+01 0.  1.
         -5    1    3    3    0  502  0.52694621623E+02  0.50875315284E+02 -0.48934598969E+02  0.88187800911E+02  0.41800000000E+01 0.  1.
        -11    1    1    2    0    0 -0.40729214477E+02 -0.60940536859E+00 -0.31120369192E+02  0.51261268668E+02  0.00000000000E+00 0.  1.
         11    1    1    2    0    0  0.37974892548E+02 -0.38451193390E+02 -0.94050726710E+02  0.10847177482E+03  0.00000000000E+00 0. -1.
</event>
<event>
 7    1  0.2661133E-009  0.2016301E+03  0.7561462E-02  0.1148371E+00
          2   -1    0    0  501    0  0.00000000000E+00  0.00000000000E+00  0.21253192474E+04  0.21253192474E+04  0.00000000000E+00 0. -1.
         -2   -1    0    0    0  501 -0.00000000000E+00 -0.00000000000E+00 -0.33043757436E+02  0.33043757436E+02  0.00000000000E+00 0.  1.
         25    2    1    2    0    0 -0.13865900788E+03  0.97979461019E+02  0.17590513889E+04  0.17716476559E+04  0.12508929801E+03 0.  0.
          5    1    3    3  502    0 -0.96059430782E+02 -0.74782591677E+01  0.73891546005E+03  0.74518243948E+03  0.41800000000E+01 0. -1.
         -5    1    3    3    0  502 -0.42599577098E+02  0.10545772019E+03  0.10201359289E+04  0.10264652164E+04  0.41800000000E+01 0. -1.
        -11    1    1    2    0    0  0.27443714187E+02  0.17604566879E+02  0.33366090012E+02  0.46651625760E+02  0.00000000000E+00 0.  1.
         11    1    1    2    0    0  0.11121529369E+03 -0.11558402790E+03  0.29985801107E+03  0.34006372323E+03  0.00000000000E+00 0. -1.
</event>
<event>
 7    1  0.2661133E-009  0.8261457E+02  0.7561462E-02  0.1321791E+00
          1   -1    0    0  501    0  0.00000000000E+00  0.00000000000E+00  0.77777349757E+03  0.77777349757E+03  0.00000000000E+00 0. -1.
         -1   -1    0    0    0  501 -0.00000000000E+00 -0.00000000000E+00 -0.20190165649E+02  0.20190165649E+02  0.00000000000E+00 0.  1.
         25    2    1    2    0    0 -0.30516720825E+02 -0.50576766885E+00  0.60754177136E+03  0.62103595998E+03  0.12508850304E+03 0.  0.
          5    1    3    3  502    0  0.24975490579E+02  0.25178243917E+02  0.58174229276E+02  0.68260035513E+02  0.41800000000E+01 0. -1.
         -5    1    3    3    0  502 -0.55492211404E+02 -0.25684011585E+02  0.54936754208E+03  0.55277592447E+03  0.41800000000E+01 0. -1.
        -11    1    1    2    0    0  0.36599083741E+02 -0.23480323801E+02  0.26478044304E+02  0.50910758850E+02  0.00000000000E+00 0.  1.
         11    1    1    2    0    0 -0.60823629152E+01  0.23986091470E+02  0.12356351626E+03  0.12601694439E+03  0.00000000000E+00 0. -1.
</event>
<event>
 7    1  0.2661133E-009  0.6182016E+02  0.7561462E-02  0.1390348E+00
          1   -1    0    0  501    0  0.00000000000E+00  0.00000000000E+00  0.31174110776E+03  0.31174110776E+03  0.00000000000E+00 0. -1.
         -1   -1    0    0    0  501 -0.00000000000E+00 -0.00000000000E+00 -0.42377227607E+02  0.42377227607E+02  0.00000000000E+00 0.  1.
         25    2    1    2    0    0  0.11751880259E+02  0.21724157686E+01  0.98027914008E+02  0.15937196083E+03  0.12508846427E+03 0.  0.
          5    1    3    3  502    0 -0.22025866309E+02 -0.13779326973E+02 -0.21557856744E+02  0.34017969161E+02  0.41800000000E+01 0.  1.
         -5    1    3    3    0  502  0.33777746568E+02  0.15951742742E+02  0.11958577075E+03  0.12535399166E+03  0.41800000000E+01 0.  1.
        -11    1    1    2    0    0 -0.18131400624E+01 -0.30068692256E+02  0.11585761130E+02  0.32274503742E+02  0.00000000000E+00 0.  1.
         11    1    1    2    0    0 -0.99387401968E+01  0.27896276487E+02  0.15975020502E+03  0.16247187080E+03  0.00000000000E+00 0. -1.
</event>
<event>
 7    1  0.2661133E-009  0.6368326E+02  0.7561462E-02  0.1382994E+00
          1   -1    0    0  501    0  0.00000000000E+00  0.00000000000E+00  0.96920853143E+02  0.96920853143E+02  0.00000000000E+00 0. -1.
         -1   -1    0    0    0  501 -0.00000000000E+00 -0.00000000000E+00 -0.12476997729E+03  0.12476997729E+03  0.00000000000E+00 0.  1.
         25    2    1    2    0    0  0.19123655825E+02  0.46233410282E+01 -0.19180545279E+02  0.12806803293E+03  0.12508572360E+03 0.  0.
          5    1    3    3  502    0  0.39996469621E+02 -0.15312136797E+02  0.42100783390E+02  0.60200726553E+02  0.41800000000E+01 0. -1.
         -5    1    3    3    0  502 -0.20872813796E+02  0.19935477826E+02 -0.61281328670E+02  0.67867306381E+02  0.41800000000E+01 0. -1.
        -11    1    1    2    0    0  0.17918574275E+02 -0.21377406648E+01 -0.40743237117E+02  0.44560707018E+02  0.00000000000E+00 0.  1.
         11    1    1    2    0    0 -0.37042230100E+02 -0.24856003634E+01  0.32074658253E+02  0.49062090477E+02  0.00000000000E+00 0. -1.
</event>
<event>
 7    1  0.2661133E-009  0.1128983E+03  0.7561462E-02  0.1255295E+00
         -2   -1    0    0    0  501 -0.00000000000E+00  0.00000000000E+00  0.11414065248E+03  0.11414065248E+03  0.00000000000E+00 0.  1.
          2   -1    0    0  501    0  0.00000000000E+00 -0.00000000000E+00 -0.17508833269E+03  0.17508833269E+03  0.00000000000E+00 0. -1.
         25    2    1    2    0    0  0.82922953991E+02  0.26046633408E+02 -0.16092090733E+02  0.15316848576E+03  0.12508791403E+03 0.  0.
          5    1    3    3  502    0  0.87934469287E+02 -0.11962175839E+02  0.29352359281E+02  0.93566008437E+02  0.41800000000E+01 0. -1.
         -5    1    3    3    0  502 -0.50115152963E+01  0.38008809247E+02 -0.45444450013E+02  0.59602477322E+02  0.41800000000E+01 0. -1.
        -11    1    1    2    0    0 -0.26306015049E+02 -0.32039979208E+02 -0.63776232671E+02  0.76065593727E+02  0.00000000000E+00 0. -1.
         11    1    1    2    0    0 -0.56616938942E+02  0.59933458007E+01  0.18920643194E+02  0.59994905683E+02  0.00000000000E+00 0.  1.
</event>
<event>
 7    1  0.2881968E-009  0.1003300E+03  0.7561462E-02  0.1279604E+00
          1   -1    0    0  501    0  0.00000000000E+00  0.00000000000E+00  0.16075616787E+03  0.16075616787E+03  0.00000000000E+00 0. -1.
         -1   -1    0    0    0  501 -0.00000000000E+00 -0.00000000000E+00 -0.10090391366E+03  0.10090391366E+03  0.00000000000E+00 0.  1.
         25    2    1    2    0    0 -0.31890491433E+02 -0.32411776023E+02 -0.16236822458E+02  0.13408218325E+03  0.12508745257E+03 0.  0.
          5    1    3    3  502    0 -0.61121604030E+02 -0.49304470910E+02  0.23208805363E+02  0.81993306905E+02  0.41800000000E+01 0.  1.
         -5    1    3    3    0  502  0.29231112597E+02  0.16892694887E+02 -0.39445627821E+02  0.52088876340E+02  0.41800000000E+01 0.  1.
        -11    1    1    2    0    0  0.13218630004E+02 -0.24645254944E+02  0.58786507592E+02  0.65099725386E+02  0.00000000000E+00 0. -1.
         11    1    1    2    0    0  0.18671861429E+02  0.57057030967E+02  0.17302569072E+02  0.62478172897E+02  0.00000000000E+00 0.  1.
</event>
<event>
 7    1  0.2661133E-009  0.1510336E+03  0.7561462E-02  0.1199209E+00
          1   -1    0    0  501    0  0.00000000000E+00  0.00000000000E+00  0.22305056171E+03  0.22305056171E+03  0.00000000000E+00 0. -1.
         -1   -1    0    0    0  501 -0.00000000000E+00 -0.00000000000E+00 -0.12088793572E+03  0.12088793572E+03  0.00000000000E+00 0.  1.
         25    2    1    2    0    0 -0.86069560474E+02 -0.66767369706E+02 -0.43409237867E+01  0.16592398815E+03  0.12508427290E+03 0.  0.
          5    1    3    3  502    0  0.23346397644E+02  0.10002705573E+02  0.16510835338E+02  0.30580851612E+02  0.41800000000E+01 0.  1.
         -5    1    3    3    0  502 -0.10941595812E+03 -0.76770075279E+02 -0.20851759125E+02  0.13534313654E+03  0.41800000000E+01 0.  1.
        -11    1    1    2    0    0 -0.83218420744E+01  0.44957213219E+02  0.36142083869E+02  0.58280822766E+02  0.00000000000E+00 0.  1.
         11    1    1    2    0    0  0.94391402548E+02  0.21810156486E+02  0.70361465906E+02  0.11973368651E+03  0.00000000000E+00 0. -1.
</event>
<event>
 7    1  0.2661133E-009  0.1327807E+03  0.7561462E-02  0.1223387E+00
         -2   -1    0    0    0  501 -0.00000000000E+00  0.00000000000E+00  0.10394587366E+03  0.10394587366E+03  0.00000000000E+00 0.  1.
          2   -1    0    0  501    0  0.00000000000E+00 -0.00000000000E+00 -0.23802942232E+03  0.23802942232E+03  0.00000000000E+00 0. -1.
         25    2    1    2    0    0  0.99772352860E+02 -0.47169759219E+02 -0.43620220334E+02  0.17242308560E+03  0.12508992064E+03 0.  0.
          5    1    3    3  502    0 -0.35649042950E+01 -0.35772237289E+02  0.28296084265E+02  0.45940203396E+02  0.41800000000E+01 0.  1.
         -5    1    3    3    0  502  0.10333725715E+03 -0.11397521929E+02 -0.71916304599E+02  0.12648288220E+03  0.41800000000E+01 0.  1.
        -11    1    1    2    0    0 -0.17844946432E+02  0.39122561881E+02 -0.74021138297E+02  0.85604590274E+02  0.00000000000E+00 0. -1.
         11    1    1    2    0    0 -0.81927406428E+02  0.80471973380E+01 -0.16442190026E+02  0.83947620109E+02  0.00000000000E+00 0.  1.
</event>
<event>
 7    1  0.2661133E-009  0.2031281E+03  0.7561462E-02  0.1147126E+00
          2   -1    0    0  501    0  0.00000000000E+00  0.00000000000E+00  0.10451407584E+04  0.10451407584E+04  0.00000000000E+00 0. -1.
         -2   -1    0    0    0  501 -0.00000000000E+00 -0.00000000000E+00 -0.62532677903E+02  0.62532677903E+02  0.00000000000E+00 0.  1.
         25    2    1    2    0    0  0.14238518799E+03  0.10559315718E+03  0.82480327344E+03  0.85286087841E+03  0.12509109262E+03 0.  0.
          5    1    3    3  502    0 -0.99628961435E+01  0.40591707119E+02  0.28863609666E+03  0.29167655834E+03  0.41800000000E+01 0. -1.
         -5    1    3    3    0  502  0.15234808414E+03  0.65001450058E+02  0.53616717678E+03  0.56118432008E+03  0.41800000000E+01 0. -1.
        -11    1    1    2    0    0 -0.78772630972E+02 -0.10943161851E+03  0.12131244659E+03  0.18137562189E+03  0.00000000000E+00 0. -1.
         11    1    1    2    0    0 -0.63612557022E+02  0.38384613322E+01  0.36492360478E+02  0.73436936003E+02  0.00000000000E+00 0.  1.
</event>
<event>
 7    1  0.2661133E-009  0.9327494E+02  0.7561462E-02  0.1295109E+00
          1   -1    0    0  501    0  0.00000000000E+00  0.00000000000E+00  0.33809595823E+03  0.33809595823E+03  0.00000000000E+00 0. -1.
         -1   -1    0    0    0  501 -0.00000000000E+00 -0.00000000000E+00 -0.40187601322E+02  0.40187601322E+02  0.00000000000E+00 0.  1.
         25    2    1    2    0    0  0.30170022069E+02 -0.61261917167E+00  0.21753929369E+03  0.25274441433E+03  0.12508312892E+03 0.  0.
          5    1    3    3  502    0 -0.29168496456E+02  0.11071396462E+02  0.51793194904E+01  0.31901014961E+02  0.41800000000E+01 0. -1.
         -5    1    3    3    0  502  0.59338518525E+02 -0.11684015634E+02  0.21235997420E+03  0.22084339937E+03  0.41800000000E+01 0. -1.
        -11    1    1    2    0    0  0.18684873020E+02  0.31518093746E+02  0.43925745626E+02  0.57201274829E+02  0.00000000000E+00 0.  1.
         11    1    1    2    0    0 -0.48854895090E+02 -0.30905474575E+02  0.36443317590E+02  0.68337870393E+02  0.00000000000E+00 0. -1.
</event>
<event>
 7    1  0.2661133E-009  0.2972912E+03  0.7561462E-02  0.1086603E+00
         -3   -1    0    0    0  501 -0.00000000000E+00  0.00000000000E+00  0.14916918741E+04  0.14916918741E+04  0.00000000000E+00 0.  1.
          3   -1    0    0  501    0  0.00000000000E+00 -0.00000000000E+00 -0.84163017041E+02  0.84163017041E+02  0.00000000000E+00 0. -1.
         25    2    1    2    0    0 -0.23756111792E+03  0.15493779801E+03  0.11112694655E+04  0.11536932746E+04  0.12508933163E+03 0.  0.
          5    1    3    3  502    0 -0.14760472790E+03  0.43275861599E+02  0.41050257122E+03  0.43839455890E+03  0.41800000000E+01 0. -1.
         -5    1    3    3    0  502 -0.89956390012E+02  0.11166193641E+03  0.70076689432E+03  0.71529871573E+03  0.41800000000E+01 0. -1.
        -11    1    1    2    0    0  0.87949952593E+02 -0.11041510321E+03  0.10882196285E+03  0.17823834822E+03  0.00000000000E+00 0. -1.
         11    1    1    2    0    0  0.14961116532E+03 -0.44522694792E+02  0.18743742863E+03  0.24392326824E+03  0.00000000000E+00 0.  1.
</event>
<event>
 7    1  0.2661133E-009  0.1008744E+03  0.7561462E-02  0.1278468E+00
          2   -1    0    0  501    0  0.00000000000E+00  0.00000000000E+00  0.83296686792E+02  0.83296686792E+02  0.00000000000E+00 0.  1.
         -2   -1    0    0    0  501 -0.00000000000E+00 -0.00000000000E+00 -0.18782989758E+03  0.18782989758E+03  0.00000000000E+00 0. -1.
         25    2    1    2    0    0 -0.42386159624E+02  0.36997040782E+02 -0.81066184361E+02  0.15932602360E+03  0.12509071906E+03 0.  0.
          5    1    3    3  502    0  0.29140809832E+02  0.47765836680E+01 -0.74787781212E+02  0.80515136265E+02  0.41800000000E+01 0. -1.
         -5    1    3    3    0  502 -0.71526969456E+02  0.32220457114E+02 -0.62784031491E+01  0.78810887334E+02  0.41800000000E+01 0. -1.
        -11    1    1    2    0    0  0.48235965836E+02 -0.55749597121E+02  0.85737167923E+01  0.74217481761E+02  0.00000000000E+00 0.  1.
         11    1    1    2    0    0 -0.58498062117E+01  0.18752556339E+02 -0.32040743217E+02  0.37583079010E+02  0.00000000000E+00 0. -1.
</event>
<event>
 7    1  0.2661133E-009  0.7824900E+02  0.7561462E-02  0.1334095E+00
          1   -1    0    0  501    0  0.00000000000E+00  0.00000000000E+00  0.34122976905E+03  0.34122976905E+03  0.00000000000E+00 0. -1.
         -1   -1    0    0    0  501 -0.00000000000E+00 -0.00000000000E+00 -0.49213282195E+02  0.49213282195E+02  0.00000000000E+00 0.  1.
         25    2    1    2    0    0 -0.65505359204E+02  0.31620011286E+02  0.14795604269E+03  0.20695191336E+03  0.12508927483E+03 0.  0.
          5    1    3    3  502    0 -0.60200867200E+02  0.32519063679E+02  0.10526436482E+02  0.69353530402E+02  0.41800000000E+01 0. -1.
         -5    1    3    3    0  502 -0.53044920045E+01 -0.89905239314E+00  0.13742960620E+03  0.13759838296E+03  0.41800000000E+01 0. -1.
        -11    1    1    2    0    0  0.10235112014E+02  0.81166452630E+01 -0.90761936826E+01  0.15906437062E+02  0.00000000000E+00 0.  1.
         11    1    1    2    0    0  0.55270247190E+02 -0.39736656549E+02  0.15313663785E+03  0.16758470082E+03  0.00000000000E+00 0. -1.
</event>
<event>
 7    1  0.2661133E-009  0.1962895E+03  0.7561462E-02  0.1152908E+00
          1   -1    0    0  501    0  0.00000000000E+00  0.00000000000E+00  0.37333747741E+03  0.37333747741E+03  0.00000000000E+00 0. -1.
         -1   -1    0    0    0  501 -0.00000000000E+00 -0.00000000000E+00 -0.11266363106E+03  0.11266363106E+03  0.00000000000E+00 0.  1.
         25    2    1    2    0    0 -0.37571009812E+02 -0.17006926911E+03  0.13354664108E+03  0.25262362431E+03  0.12509537619E+03 0.  0.
          5    1    3    3  502    0  0.37771159905E+02 -0.11451738277E+03  0.71752971108E+02  0.14038109823E+03  0.41800000000E+01 0. -1.
         -5    1    3    3    0  502 -0.75342169717E+02 -0.55551886341E+02  0.61793669974E+02  0.11224252609E+03  0.41800000000E+01 0. -1.
        -11    1    1    2    0    0 -0.60241394047E+00  0.84726012493E+02  0.12798198858E+02  0.85689287484E+02  0.00000000000E+00 0.  1.
         11    1    1    2    0    0  0.38173423753E+02  0.85343256616E+02  0.11432900641E+03  0.14768819668E+03  0.00000000000E+00 0. -1.
</event>
<event>
 7    1  0.3486206E-009  0.7813281E+02  0.7561462E-02  0.1334435E+00
         -3   -1    0    0    0  501 -0.00000000000E+00  0.00000000000E+00  0.45188326785E+02  0.45188326785E+02  0.00000000000E+00 0.  1.
          3   -1    0    0  501    0  0.00000000000E+00 -0.00000000000E+00 -0.31849984535E+03  0.31849984535E+03  0.00000000000E+00 0. -1.
         25    2    1    2    0    0  0.38542722024E+02 -0.45077827541E+01 -0.20229438571E+03  0.24098920469E+03  0.12508763631E+03 0.  0.
          5    1    3    3  502    0  0.17224930288E+02  0.44911876911E+02 -0.22505251494E+02  0.53270382540E+02  0.41800000000E+01 0. -1.
         -5    1    3    3    0  502  0.21317791736E+02 -0.49419659665E+02 -0.17978913422E+03  0.18771882215E+03  0.41800000000E+01 0. -1.
        -11    1    1    2    0    0 -0.27047674433E+02  0.20757393276E+02  0.12900058023E+02  0.36453498664E+02  0.00000000000E+00 0.  1.
         11    1    1    2    0    0 -0.11495047591E+02 -0.16249610521E+02 -0.83917190877E+02  0.86245468785E+02  0.00000000000E+00 0. -1.
</event>
<event>
 7    1  0.2661133E-009  0.1401685E+03  0.7561462E-02  0.1213102E+00
         -3   -1    0    0    0  501 -0.00000000000E+00  0.00000000000E+00  0.62799692926E+02  0.62799692926E+02  0.00000000000E+00 0.  1.
          3   -1    0    0  501    0  0.00000000000E+00 -0.00000000000E+00 -0.45295353939E+03  0.45295353939E+03  0.00000000000E+00 0. -1.
         25    2    1    2    0    0  0.46814542345E+02  0.11345620811E+03 -0.26544229481E+03  0.31807230906E+03  0.12508584805E+03 0.  0.
          5    1    3    3  502    0  0.19855106639E+02  0.10266313081E+03 -0.83774494229E+02  0.13405066941E+03  0.41800000000E+01 0.  1.
         -5    1    3    3    0  502  0.26959435707E+02  0.10793077306E+02 -0.18166780058E+03  0.18402163965E+03  0.41800000000E+01 0.  1.
        -11    1    1    2    0    0  0.94600617995E+01  0.80643456537E+01 -0.33283873262E+02  0.35529461851E+02  0.00000000000E+00 0. -1.
         11    1    1    2    0    0 -0.56274604145E+02 -0.12152055377E+03 -0.91427678391E+02  0.16215146140E+03  0.00000000000E+00 0.  1.
</event>
<event>
 7    1  0.2661133E-009  0.1162382E+03  0.7561462E-02  0.1249435E+00
          2   -1    0    0  501    0  0.00000000000E+00  0.00000000000E+00  0.87404673133E+03  0.87404673133E+03  0.00000000000E+00 0. -1.
         -2   -1    0    0    0  501 -0.00000000000E+00 -0.00000000000E+00 -0.18609149886E+02  0.18609149886E+02  0.00000000000E+00 0.  1.
         25    2    1    2    0    0  0.63621945909E+02 -0.77720248913E+01  0.40721457624E+03  0.43078898566E+03  0.12508909902E+03 0.  0.
          5    1    3    3  502    0  0.94797374716E+02 -0.10985475992E+02  0.20556006149E+03  0.22667076171E+03  0.41800000000E+01 0.  1.
         -5    1    3    3    0  502 -0.31175428807E+02  0.32134511006E+01  0.20165451475E+03  0.20411822395E+03  0.41800000000E+01 0.  1.
        -11    1    1    2    0    0  0.19468120640E+02 -0.74819395006E+01  0.41301078099E+02  0.46268414627E+02  0.00000000000E+00 0.  1.
         11    1    1    2    0    0 -0.83090066549E+02  0.15253964392E+02  0.40692192711E+03  0.41559848093E+03  0.00000000000E+00 0. -1.
</event>
<event>
 7    1  0.2661133E-009  0.1217622E+03  0.7561462E-02  0.1240218E+00
          1   -1    0    0  501    0  0.00000000000E+00  0.00000000000E+00  0.19879217269E+03  0.19879217269E+03  0.00000000000E+00 0. -1.
         -1   -1    0    0    0  501 -0.00000000000E+00 -0.00000000000E+00 -0.11567326168E+03  0.11567326168E+03  0.00000000000E+00 0.  1.
         25    2    1    2    0    0  0.10094404642E+03  0.98071477546E+01  0.80152621384E+02  0.17987408156E+03  0.12507742342E+03 0.  0.
          5    1    3    3  502    0  0.66767965219E+02 -0.13162368933E+02 -0.20374074400E+02  0.71160272927E+02  0.41800000000E+01 0.  1.
         -5    1    3    3    0  502  0.34176081198E+02  0.22969516687E+02  0.10052669578E+03  0.10871380864E+03  0.41800000000E+01 0.  1.
        -11    1    1    2    0    0 -0.84968499292E+02 -0.44385778881E+02 -0.36390611409E+01  0.95932194829E+02  0.00000000000E+00 0. -1.
         11    1    1    2    0    0 -0.15975547125E+02  0.34578631127E+02  0.66053507682E+01  0.38659157975E+02  0.00000000000E+00 0.  1.
</event>
<event>
 7    1  0.2661133E-009  0.2246153E+03  0.7561462E-02  0.1130488E+00
          1   -1    0    0  501    0  0.00000000000E+00  0.00000000000E+00  0.25107137873E+03  0.25107137873E+03  0.00000000000E+00 0. -1.
         -1   -1    0    0    0  501 -0.00000000000E+00 -0.00000000000E+00 -0.22400846713E+03  0.22400846713E+03  0.00000000000E+00 0.  1.
         25    2    1    2    0    0  0.17131334933E+03 -0.94280097763E+02  0.88070231363E+02  0.24827571219E+03  0.12508982020E+03 0.  0.
          5    1    3    3  502    0  0.11772842078E+03  0.62201273485E+01  0.39722152656E+02  0.12447486837E+03  0.41800000000E+01 0. -1.
         -5    1    3    3    0  502  0.53584928541E+02 -0.10050022511E+03  0.48348078706E+02  0.12380084381E+03  0.41800000000E+01 0. -1.
        -11    1    1    2    0    0 -0.46954248084E+02 -0.17472825518E+02 -0.24052912762E+02  0.55574667403E+02  0.00000000000E+00 0.  1.
         11    1    1    2    0    0 -0.12435910124E+03  0.11175292328E+03 -0.36954406999E+02  0.17122946627E+03  0.00000000000E+00 0. -1.
</event>
<event>
 7    1  0.2661133E-009  0.1350573E+03  0.7561462E-02  0.1220139E+00
         -1   -1    0    0    0  501 -0.00000000000E+00  0.00000000000E+00  0.73153969081E+02  0.73153969081E+02  0.00000000000E+00 0.  1.
          1   -1    0    0  501    0  0.00000000000E+00 -0.00000000000E+00 -0.33521461016E+03  0.33521461016E+03  0.00000000000E+00 0. -1.
         25    2    1    2    0    0  0.79644073569E+02  0.78323878416E+02 -0.14042570015E+03  0.21873503111E+03  0.12509127942E+03 0.  0.
          5    1    3    3  502    0 -0.20067988064E+01 -0.60503869600E+01 -0.90926913659E+02  0.91245879093E+02  0.41800000000E+01 0. -1.
         -5    1    3    3    0  502  0.81650872375E+02  0.84374265376E+02 -0.49498786487E+02  0.12748915201E+03  0.41800000000E+01 0. -1.
        -11    1    1    2    0    0 -0.38861571222E+02 -0.93684476724E+02 -0.77853446043E+02  0.12785993101E+03  0.00000000000E+00 0.  1.
         11    1    1    2    0    0 -0.40782502347E+02  0.15360598308E+02 -0.43781494888E+02  0.61773617125E+02  0.00000000000E+00 0. -1.
</event>
<event>
 7    1  0.2661133E-009  0.8335704E+02  0.7561462E-02  0.1319786E+00
         -3   -1    0    0    0  501 -0.00000000000E+00  0.00000000000E+00  0.16532761635E+03  0.16532761635E+03  0.00000000000E+00 0.  1.
          3   -1    0    0  501    0  0.00000000000E+00 -0.00000000000E+00 -0.86463376607E+02  0.86463376607E+02  0.00000000000E+00 0. -1.
         25    2    1    2    0    0 -0.53415892080E+02  0.68509803449E+01  0.77484276706E+02  0.15668801609E+03  0.12508847986E+03 0.  0.
          5    1    3    3  502    0 -0.79320536721E+01 -0.30466079444E+02  0.90824488499E+02  0.96216732345E+02  0.41800000000E+01 0.  1.
         -5    1    3    3    0  502 -0.45483838408E+02  0.37317059789E+02 -0.13340211793E+02  0.60471283749E+02  0.41800000000E+01 0.  1.
        -11    1    1    2    0    0  0.54725271938E+02 -0.23296100127E+02  0.26448717092E+02  0.65092997362E+02  0.00000000000E+00 0.  1.
         11    1    1    2    0    0 -0.13093798582E+01  0.16445119782E+02 -0.25068754050E+02  0.30009979504E+02  0.00000000000E+00 0. -1.
</event>
<event>
 7    1  0.2661133E-009  0.9505227E+02  0.7561462E-02  0.1291058E+00
         -1   -1    0    0    0  501 -0.00000000000E+00  0.00000000000E+00  0.31637137464E+02  0.31637137464E+02  0.00000000000E+00 0.  1.
          1   -1    0    0  501    0  0.00000000000E+00 -0.00000000000E+00 -0.39773799431E+03  0.39773799431E+03  0.00000000000E+00 0. -1.
         25    2    1    2    0    0 -0.28108431385E+02 -0.52123782289E+01 -0.22807536359E+03  0.26169309470E+03  0.12509057333E+03 0.  0.
          5    1    3    3  502    0 -0.44891062417E+02  0.32626555758E+02 -0.20834073971E+03  0.21564562562E+03  0.41800000000E+01 0.  1.
         -5    1    3    3    0  502  0.16782631032E+02 -0.37838933987E+02 -0.19734623886E+02  0.46047469089E+02  0.41800000000E+01 0.  1.
        -11    1    1    2    0    0 -0.17763290146E+02 -0.30105484928E+02 -0.70838668367E+02  0.78993617689E+02  0.00000000000E+00 0. -1.
         11    1    1    2    0    0  0.45871721532E+02  0.35317863157E+02 -0.67186824890E+02  0.88688419385E+02  0.00000000000E+00 0.  1.
</event>
<event>
 7    1  0.2661133E-009  0.1268049E+03  0.7561462E-02  0.1232275E+00
          1   -1    0    0  501    0  0.00000000000E+00  0.00000000000E+00  0.12875941815E+03  0.12875941815E+03  0.00000000000E+00 0. -1.
         -1   -1    0    0    0  501 -0.00000000000E+00 -0.00000000000E+00 -0.14764992594E+03  0.14764992594E+03  0.00000000000E+00 0.  1.
         25    2    1    2    0    0  0.34197606251E+02  0.60576459426E+02  0.40631938911E+02  0.14878731748E+03  0.12509087766E+03 0.  0.
          5    1    3    3  502    0  0.71630970955E+02  0.71957836488E+02  0.40627158161E+02  0.10943931932E+03  0.41800000000E+01 0.  1.
         -5    1    3    3    0  502 -0.37433364704E+02 -0.11381377062E+02  0.47807498074E-02  0.39347998167E+02  0.41800000000E+01 0.  1.
        -11    1    1    2    0    0  0.14433633637E+02  0.16239760681E+02 -0.82183641211E+01  0.23229315870E+02  0.00000000000E+00 0.  1.
         11    1    1    2    0    0 -0.48631239888E+02 -0.76816220107E+02 -0.51304082584E+02  0.10439271073E+03  0.00000000000E+00 0. -1.
</event>
<event>
 7    1  0.2661133E-009  0.1226941E+03  0.7561462E-02  0.1238718E+00
         -2   -1    0    0    0  501 -0.00000000000E+00  0.00000000000E+00  0.37966628082E+02  0.37966628082E+02  0.00000000000E+00 0.  1.
          2   -1    0    0  501    0  0.00000000000E+00 -0.00000000000E+00 -0.49330563656E+03  0.49330563656E+03  0.00000000000E+00 0. -1.
         25    2    1    2    0    0 -0.67993179767E+02 -0.14441868850E+02 -0.33460082959E+03  0.36391751591E+03  0.12508638276E+03 0.  0.
          5    1    3    3  502    0 -0.77405166344E+02  0.30579688130E+02 -0.13187415249E+03  0.15599660765E+03  0.41800000000E+01 0. -1.
         -5    1    3    3    0  502  0.94119865769E+01 -0.45021556980E+02 -0.20272667710E+03  0.20792090826E+03  0.41800000000E+01 0. -1.
        -11    1    1    2    0    0 -0.22305765109E+02 -0.63869561785E+01 -0.25272335309E+02  0.34307889739E+02  0.00000000000E+00 0.  1.
         11    1    1    2    0    0  0.90298944876E+02  0.20828825029E+02 -0.95465843572E+02  0.13304685899E+03  0.00000000000E+00 0. -1.
</event>
<event>
 7    1  0.2661133E-009  0.6894660E+02  0.7561462E-02  0.1363712E+00
          1   -1    0    0  501    0  0.00000000000E+00  0.00000000000E+00  0.25582545675E+03  0.25582545675E+03  0.00000000000E+00 0. -1.
         -1   -1    0    0    0  501 -0.00000000000E+00 -0.00000000000E+00 -0.65835925230E+02  0.65835925230E+02  0.00000000000E+00 0.  1.
         25    2    1    2    0    0  0.13892527739E+02  0.62105346323E+02  0.16036924951E+03  0.21311236722E+03  0.12509399868E+03 0.  0.
          5    1    3    3  502    0  0.23149422486E+02  0.32998951556E+02 -0.85380155848E+01  0.41414933000E+02  0.41800000000E+01 0.  1.
         -5    1    3    3    0  502 -0.92568947474E+01  0.29106394767E+02  0.16890726510E+03  0.17169743422E+03  0.41800000000E+01 0.  1.
        -11    1    1    2    0    0  0.49717188871E+01 -0.14776099916E+02 -0.27744469600E+02  0.31824624284E+02  0.00000000000E+00 0.  1.
         11    1    1    2    0    0 -0.18864246626E+02 -0.47329246407E+02  0.57364751607E+02  0.76724390471E+02  0.00000000000E+00 0. -1.
</event>
<event>
 7    1  0.2661133E-009  0.2134530E+03  0.7561462E-02  0.1138860E+00
          1   -1    0    0  501    0  0.00000000000E+00  0.00000000000E+00  0.46759711356E+03  0.46759711356E+03  0.00000000000E+00 0. -1.
         -1   -1    0    0    0  501 -0.00000000000E+00 -0.00000000000E+00 -0.19868554617E+03  0.19868554617E+03  0.00000000000E+00 0.  1.
         25    2    1    2    0    0  0.12938157160E+03  0.15829915279E+03 -0.79315261621E+02  0.25244057276E+03  0.12504846742E+03 0.  0.
          5    1    3    3  502    0  0.10483589049E+03  0.15373278017E+03 -0.10719341409E+03  0.21478415226E+03  0.41800000000E+01 0. -1.
         -5    1    3    3    0  502  0.24545681108E+02  0.45663726145E+01  0.27878152471E+02  0.37656420503E+02  0.41800000000E+01 0. -1.
        -11    1    1    2    0    0 -0.58955255859E+02 -0.12363841174E+03  0.16457613250E+03  0.21412025229E+03  0.00000000000E+00 0.  1.
         11    1    1    2    0    0 -0.70426315742E+02 -0.34660741045E+02  0.18365069652E+03  0.19972183469E+03  0.00000000000E+00 0. -1.
</event>
<event>
 7    1  0.2661133E-009  0.1595818E+03  0.7561462E-02  0.1189170E+00
          1   -1    0    0  501    0  0.00000000000E+00  0.00000000000E+00  0.40126646151E+03  0.40126646151E+03  0.00000000000E+00 0. -1.
         -1   -1    0    0    0  501 -0.00000000000E+00 -0.00000000000E+00 -0.87287161930E+02  0.87287161930E+02  0.00000000000E+00 0.  1.
         25    2    1    2    0    0 -0.11636225465E+03 -0.74088676231E+02  0.25322531540E+03  0.31432630429E+03  0.12509460002E+03 0.  0.
          5    1    3    3  502    0 -0.13802891032E+03 -0.76607362349E+02  0.18855968104E+03  0.24595303162E+03  0.41800000000E+01 0.  1.
         -5    1    3    3    0  502  0.21666655670E+02  0.25186861186E+01  0.64665634366E+02  0.68373272670E+02  0.41800000000E+01 0.  1.
        -11    1    1    2    0    0  0.67432531184E+02  0.52941877259E+02 -0.92608770956E+01  0.86230809310E+02  0.00000000000E+00 0.  1.
         11    1    1    2    0    0  0.48929723466E+02  0.21146798971E+02  0.70014861279E+02  0.87996509846E+02  0.00000000000E+00 0. -1.
</event>
<event>
 7    1  0.2661133E-009  0.1037798E+03  0.7561462E-02  0.1272543E+00
         -1   -1    0    0    0  501 -0.00000000000E+00  0.00000000000E+00  0.14485606298E+03  0.14485606298E+03  0.00000000000E+00 0.  1.
          1   -1    0    0  501    0  0.00000000000E+00 -0.00000000000E+00 -0.12429296738E+03  0.12429296738E+03  0.00000000000E+00 0. -1.
         25    2    1    2    0    0 -0.22502918616E+02 -0.68229124574E+02  0.38724302710E+02  0.14936119108E+03  0.12509036331E+03 0.  0.
          5    1    3    3  502    0  0.34653672311E+02 -0.12498135245E+02 -0.27006271476E+02  0.45868196916E+02  0.41800000000E+01 0.  1.
         -5    1    3    3    0  502 -0.57156590927E+02 -0.55730989329E+02  0.65730574186E+02  0.10349299416E+03  0.41800000000E+01 0.  1.
        -11    1    1    2    0    0  0.40593316853E+02  0.53851054128E+02 -0.47466955069E+02  0.82467358557E+02  0.00000000000E+00 0. -1.
         11    1    1    2    0    0 -0.18090398238E+02  0.14378070446E+02  0.29305747960E+02  0.37320480726E+02  0.00000000000E+00 0.  1.
</event>
<event>
 7    1  0.2661133E-009  0.8298777E+02  0.7561462E-02  0.1320780E+00
          3   -1    0    0  501    0  0.00000000000E+00  0.00000000000E+00  0.50979388303E+02  0.50979388303E+02  0.00000000000E+00 0. -1.
         -3   -1    0    0    0  501 -0.00000000000E+00 -0.00000000000E+00 -0.25877154729E+03  0.25877154729E+03  0.00000000000E+00 0.  1.
         25    2    1    2    0    0 -0.13032881809E+02  0.35764087415E+02 -0.13950927340E+03  0.19120539558E+03  0.12509092684E+03 0.  0.
          5    1    3    3  502    0  0.49658036499E+01 -0.16276594113E+02  0.17501473907E+02  0.24766120219E+02  0.41800000000E+01 0. -1.
         -5    1    3    3    0  502 -0.17998685459E+02  0.52040681527E+02 -0.15701074731E+03  0.16643927536E+03  0.41800000000E+01 0. -1.
        -11    1    1    2    0    0  0.41882532483E+02  0.61643799026E+01 -0.15132502387E+02  0.44957076587E+02  0.00000000000E+00 0. -1.
         11    1    1    2    0    0 -0.28849650674E+02 -0.41928467317E+02 -0.53150383203E+02  0.73588463432E+02  0.00000000000E+00 0.  1.
</event>
<event>
 7    1  0.2661133E-009  0.1280542E+03  0.7561462E-02  0.1230372E+00
          2   -1    0    0  501    0  0.00000000000E+00  0.00000000000E+00  0.79923040725E+02  0.79923040725E+02  0.00000000000E+00 0. -1.
         -2   -1    0    0    0  501 -0.00000000000E+00 -0.00000000000E+00 -0.43815552186E+03  0.43815552186E+03  0.00000000000E+00 0.  1.
         25    2    1    2    0    0 -0.88257764793E+02 -0.48911110934E+02 -0.52282255668E+02  0.16900424140E+03  0.12508904642E+03 0.  0.
          5    1    3    3  502    0 -0.11013895151E+03 -0.64475645008E+02 -0.59518682572E+02  0.14088166457E+03  0.41800000000E+01 0. -1.
         -5    1    3    3    0  502  0.21881186713E+02  0.15564534074E+02  0.72364269032E+01  0.28122576825E+02  0.41800000000E+01 0. -1.
        -11    1    1    2    0    0  0.48206695606E+02  0.22005245032E+02 -0.16312983965E+02  0.55445737041E+02  0.00000000000E+00 0. -1.
         11    1    1    2    0    0  0.40051069187E+02  0.26905865901E+02 -0.28963724151E+03  0.29362858415E+03  0.00000000000E+00 0.  1.
</event>
<event>
 7    1  0.2661133E-009  0.1245001E+03  0.7561462E-02  0.1235853E+00
         -2   -1    0    0    0  501 -0.00000000000E+00  0.00000000000E+00  0.40748440053E+03  0.40748440053E+03  0.00000000000E+00 0.  1.
          2   -1    0    0  501    0  0.00000000000E+00 -0.00000000000E+00 -0.61044695841E+02  0.61044695841E+02  0.00000000000E+00 0. -1.
         25    2    1    2    0    0  0.59738873016E+02  0.83372441044E+02  0.11353530974E+03  0.19763055684E+03  0.12509146080E+03 0.  0.
          5    1    3    3  502    0  0.62386253967E+02  0.10649573466E+01  0.93984854593E+02  0.11288845872E+03  0.41800000000E+01 0.  1.
         -5    1    3    3    0  502 -0.26473809506E+01  0.82307483697E+02  0.19550455146E+02  0.84742098127E+02  0.41800000000E+01 0.  1.
        -11    1    1    2    0    0 -0.23399604586E+02 -0.47477679002E+02  0.28313039921E+02  0.60027491433E+02  0.00000000000E+00 0. -1.
         11    1    1    2    0    0 -0.36339268430E+02 -0.35894762042E+02  0.20459135503E+03  0.21087104810E+03  0.00000000000E+00 0.  1.
</event>
<event>
 7    1  0.2661133E-009  0.1025051E+03  0.7561462E-02  0.1275115E+00
          2   -1    0    0  501    0  0.00000000000E+00  0.00000000000E+00  0.56846343727E+03  0.56846343727E+03  0.00000000000E+00 0. -1.
         -2   -1    0    0    0  501 -0.00000000000E+00 -0.00000000000E+00 -0.24714048796E+02  0.24714048796E+02  0.00000000000E+00 0.  1.
         25    2    1    2    0    0  0.40435003126E+02  0.89782413165E+01  0.33530915884E+03  0.36026789679E+03  0.12508048273E+03 0.  0.
          5    1    3    3  502    0  0.69666460507E+02 -0.11190750987E+02  0.30592471714E+03  0.31398416136E+03  0.41800000000E+01 0. -1.
         -5    1    3    3    0  502 -0.29231457381E+02  0.20168992303E+02  0.29384441694E+02  0.46283735424E+02  0.41800000000E+01 0. -1.
        -11    1    1    2    0    0  0.22633461930E+02 -0.24768664708E+02  0.10945568139E+03  0.11448277836E+03  0.00000000000E+00 0.  1.
         11    1    1    2    0    0 -0.63068465056E+02  0.15790423391E+02  0.98984548247E+02  0.11842681093E+03  0.00000000000E+00 0. -1.
</event>
<event>
 7    1  0.2661133E-009  0.9329687E+02  0.7561462E-02  0.1295059E+00
          4   -1    0    0  501    0  0.00000000000E+00  0.00000000000E+00  0.94835275218E+02  0.94835275218E+02  0.00000000000E+00 0. -1.
         -4   -1    0    0    0  501 -0.00000000000E+00 -0.00000000000E+00 -0.25097375116E+03  0.25097375116E+03  0.00000000000E+00 0.  1.
         25    2    1    2    0    0  0.31911261021E+02  0.70329888726E+01  0.32466805971E+02  0.13329858339E+03  0.12508647941E+03 0.  0.
          5    1    3    3  502    0 -0.30429956127E+02 -0.14731537191E+02  0.53889165543E+02  0.63753548771E+02  0.41800000000E+01 0.  1.
         -5    1    3    3    0  502  0.62341217148E+02  0.21764526064E+02 -0.21422359572E+02  0.69545034618E+02  0.41800000000E+01 0.  1.
        -11    1    1    2    0    0 -0.57940428927E+02 -0.13609903912E+02 -0.74843087549E+02  0.95623274063E+02  0.00000000000E+00 0. -1.
         11    1    1    2    0    0  0.26029167906E+02  0.65769150394E+01 -0.11376219436E+03  0.11688716893E+03  0.00000000000E+00 0.  1.
</event>
<event>
 7    1  0.2869915E-009  0.1362315E+03  0.7561462E-02  0.1218492E+00
         -1   -1    0    0    0  501 -0.00000000000E+00  0.00000000000E+00  0.55128545363E+02  0.55128545363E+02  0.00000000000E+00 0.  1.
          1   -1    0    0  501    0  0.00000000000E+00 -0.00000000000E+00 -0.53611882913E+03  0.53611882913E+03  0.00000000000E+00 0. -1.
         25    2    1    2    0    0 -0.12953202525E+03  0.11709630951E+02 -0.30371752102E+03  0.35328087161E+03  0.12508949056E+03 0.  0.
          5    1    3    3  502    0 -0.13608983652E+02 -0.11328139154E+02 -0.18435930168E+03  0.18525483985E+03  0.41800000000E+01 0. -1.
         -5    1    3    3    0  502 -0.11592304159E+03  0.23037770105E+02 -0.11935821934E+03  0.16802603176E+03  0.41800000000E+01 0. -1.
        -11    1    1    2    0    0  0.60568613974E+02  0.14413807939E+02 -0.21932606222E+02  0.66010257337E+02  0.00000000000E+00 0.  1.
         11    1    1    2    0    0  0.68963411272E+02 -0.26123438890E+02 -0.15534015653E+03  0.17195624555E+03  0.00000000000E+00 0. -1.
</event>
<event>
 7    1  0.2661133E-009  0.9194113E+02  0.7561462E-02  0.1298218E+00
         -1   -1    0    0    0  501 -0.00000000000E+00  0.00000000000E+00  0.89517908460E+02  0.89517908460E+02  0.00000000000E+00 0.  1.
          1   -1    0    0  501    0  0.00000000000E+00 -0.00000000000E+00 -0.15039174907E+03  0.15039174907E+03  0.00000000000E+00 0. -1.
         25    2    1    2    0    0 -0.65653532665E+01  0.19862090333E+02  0.20402558344E+01  0.12683939751E+03  0.12508582502E+03 0.  0.
          5    1    3    3  502    0  0.11240969175E+02  0.71260650293E+02  0.64790934392E+00  0.72265703170E+02  0.41800000000E+01 0.  1.
         -5    1    3    3    0  502 -0.17806322442E+02 -0.51398559960E+02  0.13923464905E+01  0.54573694337E+02  0.41800000000E+01 0.  1.
        -11    1    1    2    0    0 -0.22427997033E+02 -0.16567411953E+02 -0.76101353636E+02  0.81048813779E+02  0.00000000000E+00 0. -1.
         11    1    1    2    0    0  0.28993350300E+02 -0.32946783801E+01  0.13187257193E+02  0.32021446243E+02  0.00000000000E+00 0.  1.
</event>
<event>
 7    1  0.2661133E-009  0.7226315E+02  0.7561462E-02  0.1352562E+00
          2   -1    0    0  501    0  0.00000000000E+00  0.00000000000E+00  0.26646902625E+03  0.26646902625E+03  0.00000000000E+00 0. -1.
         -2   -1    0    0    0  501 -0.00000000000E+00 -0.00000000000E+00 -0.57606253084E+02  0.57606253084E+02  0.00000000000E+00 0.  1.
         25    2    1    2    0    0 -0.15321193752E+02 -0.41424034561E+02  0.50688979001E+02  0.14201050289E+03  0.12508765216E+03 0.  0.
          5    1    3    3  502    0 -0.67339666573E+01  0.22286667468E+02 -0.30353628245E+02  0.38481904857E+02  0.41800000000E+01 0. -1.
         -5    1    3    3    0  502 -0.85872270947E+01 -0.63710702029E+02  0.81042607247E+02  0.10352859804E+03  0.41800000000E+01 0. -1.
        -11    1    1    2    0    0 -0.11247215151E+02  0.16850901644E+02  0.47346078226E+00  0.20265164692E+02  0.00000000000E+00 0.  1.
         11    1    1    2    0    0  0.26568408903E+02  0.24573132917E+02  0.15770033338E+03  0.16179961174E+03  0.00000000000E+00 0. -1.
</event>
<event>
 7    1  0.2661133E-009  0.1222223E+03  0.7561462E-02  0.1239475E+00
          1   -1    0    0  501    0  0.00000000000E+00  0.00000000000E+00  0.89121552370E+03  0.89121552370E+03  0.00000000000E+00 0. -1.
         -1   -1    0    0    0  501 -0.00000000000E+00 -0.00000000000E+00 -0.19146133622E+02  0.19146133622E+02  0.00000000000E+00 0.  1.
         25    2    1    2    0    0 -0.42284712380E+02  0.43729520235E+02  0.61643384740E+03  0.63193231601E+03  0.12508995149E+03 0.  0.
          5    1    3    3  502    0  0.29639869316E+02 -0.25393472010E+02  0.17410805332E+03  0.17847811324E+03  0.41800000000E+01 0.  1.
         -5    1    3    3    0  502 -0.71924581696E+02  0.69122992245E+02  0.44232579408E+03  0.45345420277E+03  0.41800000000E+01 0.  1.
        -11    1    1    2    0    0  0.66991513921E+02 -0.44845711081E+02  0.22530546928E+03  0.23929386792E+03  0.00000000000E+00 0. -1.
         11    1    1    2    0    0 -0.24706801541E+02  0.11161908460E+01  0.30330073402E+02  0.39135473384E+02  0.00000000000E+00 0.  1.
</event>
<event>
 7    1  0.2661133E-009  0.2085660E+03  0.7561462E-02  0.1142707E+00
          2   -1    0    0  501    0  0.00000000000E+00  0.00000000000E+00  0.15618449908E+04  0.15618449908E+04  0.00000000000E+00 0.  1.
         -2   -1    0    0    0  501 -0.00000000000E+00 -0.00000000000E+00 -0.31592944913E+02  0.31592944913E+02  0.00000000000E+00 0. -1.
         25    2    1    2    0    0  0.18551383563E+03  0.28044972523E+02  0.95871922608E+03  0.98488189012E+03  0.12509148389E+03 0.  0.
          5    1    3    3  502    0  0.19092106337E+03  0.52946343744E+02  0.80664728868E+03  0.83063318528E+03  0.41800000000E+01 0. -1.
         -5    1    3    3    0  502 -0.54072277429E+01 -0.24901371221E+02  0.15207193740E+03  0.15424870484E+03  0.41800000000E+01 0. -1.
        -11    1    1    2    0    0 -0.10720604086E+03  0.68150265381E+01  0.19746746351E+03  0.22479541572E+03  0.00000000000E+00 0. -1.
         11    1    1    2    0    0 -0.78307794766E+02 -0.34859999061E+02  0.37406535626E+03  0.38376062984E+03  0.00000000000E+00 0.  1.
</event>
<event>
 7    1  0.2661133E-009  0.1258433E+03  0.7561462E-02  0.1233757E+00
         -2   -1    0    0    0  501 -0.00000000000E+00  0.00000000000E+00  0.18073445124E+02  0.18073445124E+02  0.00000000000E+00 0.  1.
          2   -1    0    0  501    0  0.00000000000E+00 -0.00000000000E+00 -0.10432891105E+04  0.10432891105E+04  0.00000000000E+00 0. -1.
         25    2    1    2    0    0  0.20098202636E+02 -0.82276907204E+02 -0.62092234220E+03  0.63903522379E+03  0.12509210605E+03 0.  0.
          5    1    3    3  502    0 -0.39935299302E+02 -0.78338988140E+02 -0.42584779290E+03  0.43485128528E+03  0.41800000000E+01 0. -1.
         -5    1    3    3    0  502  0.60033501938E+02 -0.39379190633E+01 -0.19507454930E+03  0.20418393851E+03  0.41800000000E+01 0. -1.
        -11    1    1    2    0    0 -0.28022404682E+02  0.86932716203E+01 -0.34906032048E+02  0.45598894821E+02  0.00000000000E+00 0.  1.
         11    1    1    2    0    0  0.79242020451E+01  0.73583635583E+02 -0.36938729109E+03  0.37672843697E+03  0.00000000000E+00 0. -1.
</event>
<event>
 7    1  0.2661133E-009  0.1058214E+03  0.7561462E-02  0.1268510E+00
         -2   -1    0    0    0  501 -0.00000000000E+00  0.00000000000E+00  0.24991967432E+02  0.24991967432E+02  0.00000000000E+00 0.  1.
          2   -1    0    0  501    0  0.00000000000E+00 -0.00000000000E+00 -0.64494970839E+03  0.64494970839E+03  0.00000000000E+00 0. -1.
         25    2    1    2    0    0 -0.23541836067E+02  0.23565779776E+02 -0.49755293897E+03  0.51411671259E+03  0.12508997987E+03 0.  0.
          5    1    3    3  502    0  0.42689345144E+02 -0.12728390200E+02 -0.10177405738E+03  0.11117474201E+03  0.41800000000E+01 0.  1.
         -5    1    3    3    0  502 -0.66231181211E+02  0.36294169976E+02 -0.39577888160E+03  0.40294197058E+03  0.41800000000E+01 0.  1.
        -11    1    1    2    0    0  0.54185387480E+01 -0.54844401914E+02 -0.97263813370E+02  0.11179230016E+03  0.00000000000E+00 0. -1.
         11    1    1    2    0    0  0.18123297319E+02  0.31278622138E+02 -0.25140988614E+02  0.44032663070E+02  0.00000000000E+00 0.  1.
</event>
<event>
 7    1  0.2661133E-009  0.1731372E+03  0.7561462E-02  0.1174615E+00
          2   -1    0    0  501    0  0.00000000000E+00  0.00000000000E+00  0.52235363200E+02  0.52235363200E+02  0.00000000000E+00 0. -1.
         -2   -1    0    0    0  501 -0.00000000000E+00 -0.00000000000E+00 -0.70772615797E+03  0.70772615797E+03  0.00000000000E+00 0.  1.
         25    2    1    2    0    0 -0.60384178143E+02 -0.14074668716E+03 -0.42493853000E+03  0.46869577186E+03  0.12508834222E+03 0.  0.
          5    1    3    3  502    0 -0.72795277027E+02 -0.89051796400E+02 -0.15234086596E+03  0.19093084256E+03  0.41800000000E+01 0.  1.
         -5    1    3    3    0  502  0.12411098884E+02 -0.51694890761E+02 -0.27259766404E+03  0.27776492930E+03  0.41800000000E+01 0.  1.
        -11    1    1    2    0    0  0.54666191675E+02  0.21935674420E+02 -0.70960679598E+02  0.92222472172E+02  0.00000000000E+00 0.  1.
         11    1    1    2    0    0  0.57179864676E+01  0.11881101274E+03 -0.15959158517E+03  0.19904327714E+03  0.00000000000E+00 0. -1.
</event>
<event>
 7    1  0.2661133E-009  0.8965177E+02  0.7561462E-02  0.1303697E+00
         -3   -1    0    0    0  501 -0.00000000000E+00  0.00000000000E+00  0.76580479536E+02  0.76580479536E+02  0.00000000000E+00 0.  1.
          3   -1    0    0  501    0  0.00000000000E+00 -0.00000000000E+00 -0.16334450779E+03  0.16334450779E+03  0.00000000000E+00 0. -1.
         25    2    1    2    0    0 -0.14100518946E+02 -0.25421611184E+02 -0.52584617647E+02  0.13877174469E+03  0.12508945663E+03 0.  0.
          5    1    3    3  502    0  0.36163296129E+02  0.83167184184E+01  0.21436063097E+02  0.43057275729E+02  0.41800000000E+01 0. -1.
         -5    1    3    3    0  502 -0.50263815075E+02 -0.33738329602E+02 -0.74020680744E+02  0.95714468958E+02  0.41800000000E+01 0. -1.
        -11    1    1    2    0    0  0.33249252950E+02  0.43630950345E+02  0.36855059999E+01  0.54979592616E+02  0.00000000000E+00 0.  1.
         11    1    1    2    0    0 -0.19148734004E+02 -0.18209339161E+02 -0.37864916603E+02  0.46173650018E+02  0.00000000000E+00 0. -1.
</event>
<event>
 7    1  0.2661133E-009  0.1944512E+03  0.7561462E-02  0.1154507E+00
          3   -1    0    0  501    0  0.00000000000E+00  0.00000000000E+00  0.49350470642E+02  0.49350470642E+02  0.00000000000E+00 0. -1.
         -3   -1    0    0    0  501 -0.00000000000E+00 -0.00000000000E+00 -0.80259365251E+03  0.80259365251E+03  0.00000000000E+00 0.  1.
         25    2    1    2    0    0  0.14440363920E+03  0.77709049146E+02 -0.36365466785E+03  0.41806976472E+03  0.12508598399E+03 0.  0.
          5    1    3    3  502    0  0.68264365892E+02 -0.29663396821E+02 -0.13024695126E+03  0.15007225418E+03  0.41800000000E+01 0.  1.
         -5    1    3    3    0  502  0.76139273313E+02  0.10737244597E+03 -0.23340771659E+03  0.26799751054E+03  0.41800000000E+01 0.  1.
        -11    1    1    2    0    0 -0.68760818926E+02 -0.81854968354E+02 -0.28761943918E+03  0.30684397967E+03  0.00000000000E+00 0. -1.
         11    1    1    2    0    0 -0.75642820278E+02  0.41459192078E+01 -0.10196907484E+03  0.12703037876E+03  0.00000000000E+00 0.  1.
</event>
<event>
 7    1  0.3843018E-009  0.1268887E+03  0.7561462E-02  0.1232147E+00
          1   -1    0    0  501    0  0.00000000000E+00  0.00000000000E+00  0.51549558503E+03  0.51549558503E+03  0.00000000000E+00 0. -1.
         -1   -1    0    0    0  501 -0.00000000000E+00 -0.00000000000E+00 -0.47278355777E+02  0.47278355777E+02  0.00000000000E+00 0.  1.
         25    2    1    2    0    0  0.91260516452E+02  0.64659804273E+02  0.25615907079E+03  0.30624863960E+03  0.12514546558E+03 0.  0.
          5    1    3    3  502    0  0.81184327257E+02  0.84936068966E+02  0.25761837420E+03  0.28317791215E+03  0.41800000000E+01 0. -1.
         -5    1    3    3    0  502  0.10076189195E+02 -0.20276264693E+02 -0.14593034077E+01  0.23070727449E+02  0.41800000000E+01 0. -1.
        -11    1    1    2    0    0 -0.13115014355E+02 -0.17646448474E+02 -0.36902322108E+01  0.22293913049E+02  0.00000000000E+00 0.  1.
         11    1    1    2    0    0 -0.78145502097E+02 -0.47013355799E+02  0.21574839067E+03  0.23423138816E+03  0.00000000000E+00 0. -1.
</event>
<event>
 7    1  0.2661133E-009  0.1386013E+03  0.7561462E-02  0.1215223E+00
          2   -1    0    0  501    0  0.00000000000E+00  0.00000000000E+00  0.88358825632E+03  0.88358825632E+03  0.00000000000E+00 0. -1.
         -2   -1    0    0    0  501 -0.00000000000E+00 -0.00000000000E+00 -0.40169901747E+02  0.40169901747E+02  0.00000000000E+00 0.  1.
         25    2    1    2    0    0 -0.67498615735E+02 -0.71960616489E+02  0.72623986143E+03  0.74350874776E+03  0.12508608325E+03 0.  0.
          5    1    3    3  502    0 -0.73757819040E+02 -0.99389530291E+02  0.48346880930E+03  0.49907720502E+03  0.41800000000E+01 0. -1.
         -5    1    3    3    0  502  0.62592033051E+01  0.27428913802E+02  0.24277105212E+03  0.24443154274E+03  0.41800000000E+01 0. -1.
        -11    1    1    2    0    0  0.82549297274E+02  0.44933739378E+02  0.11599392948E+03  0.14929172479E+03  0.00000000000E+00 0. -1.
         11    1    1    2    0    0 -0.15050681539E+02  0.27026877111E+02  0.11845636642E+01  0.30957685511E+02  0.00000000000E+00 0.  1.
</event>
<event>
 7    1  0.2661133E-009  0.9463659E+02  0.7561462E-02  0.1291997E+00
          2   -1    0    0  501    0  0.00000000000E+00  0.00000000000E+00  0.57108380346E+03  0.57108380346E+03  0.00000000000E+00 0. -1.
         -2   -1    0    0    0  501 -0.00000000000E+00 -0.00000000000E+00 -0.39283393334E+02  0.39283393334E+02  0.00000000000E+00 0.  1.
         25    2    1    2    0    0  0.39203804864E+02  0.73469036671E+02  0.39463854400E+03  0.42228191511E+03  0.12509115778E+03 0.  0.
          5    1    3    3  502    0  0.18650960681E+02  0.44183767635E+02  0.31880735854E+02  0.57740084650E+02  0.41800000000E+01 0.  1.
         -5    1    3    3    0  502  0.20552844183E+02  0.29285269036E+02  0.36275780815E+03  0.36454183047E+03  0.41800000000E+01 0.  1.
        -11    1    1    2    0    0 -0.56301122488E+02 -0.65121553281E+02  0.51452534727E+02  0.10028956289E+03  0.00000000000E+00 0.  1.
         11    1    1    2    0    0  0.17097317624E+02 -0.83474833899E+01  0.85709331399E+02  0.87795718790E+02  0.00000000000E+00 0. -1.
</event>
<event>
 7    1  0.2661133E-009  0.1300757E+03  0.7561462E-02  0.1227344E+00
         -1   -1    0    0    0  501 -0.00000000000E+00  0.00000000000E+00  0.77965434191E+02  0.77965434191E+02  0.00000000000E+00 0.  1.
          1   -1    0    0  501    0  0.00000000000E+00 -0.00000000000E+00 -0.24957836057E+03  0.24957836057E+03  0.00000000000E+00 0. -1.
         25    2    1    2    0    0 -0.53549217101E+02  0.56437159954E+02 -0.47231899157E+02  0.15469655616E+03  0.12508996968E+03 0.  0.
          5    1    3    3  502    0  0.97811890745E+01  0.78259629327E+02 -0.35385935747E+02  0.86544081778E+02  0.41800000000E+01 0. -1.
         -5    1    3    3    0  502 -0.63330406175E+02 -0.21822469373E+02 -0.11845963410E+02  0.68152474386E+02  0.41800000000E+01 0. -1.
        -11    1    1    2    0    0  0.25110478756E+02 -0.75668542429E+02 -0.59633418598E+02  0.99561082107E+02  0.00000000000E+00 0.  1.
         11    1    1    2    0    0  0.28438738345E+02  0.19231382475E+02 -0.64747608629E+02  0.73286156495E+02  0.00000000000E+00 0. -1.
</event>
<event>
 7    1  0.2661133E-009  0.1177670E+03  0.7561462E-02  0.1246827E+00
         -2   -1    0    0    0  501 -0.00000000000E+00  0.00000000000E+00  0.13903263871E+02  0.13903263871E+02  0.00000000000E+00 0.  1.
          2   -1    0    0  501    0  0.00000000000E+00 -0.00000000000E+00 -0.18555962330E+04  0.18555962330E+04  0.00000000000E+00 0. -1.
         25    2    1    2    0    0 -0.42982423011E+02  0.60438845050E+02 -0.15139938219E+04  0.15209619768E+04  0.12509076491E+03 0.  0.
          5    1    3    3  502    0  0.28331083475E+02  0.17270040865E+02 -0.97234603147E+03  0.97292095358E+03  0.41800000000E+01 0.  1.
         -5    1    3    3    0  502 -0.71313506487E+02  0.43168804185E+02 -0.54164779045E+03  0.54804102324E+03  0.41800000000E+01 0.  1.
        -11    1    1    2    0    0 -0.56541637738E+00  0.23794469551E+02 -0.60673230617E+02  0.65174668318E+02  0.00000000000E+00 0.  1.
         11    1    1    2    0    0  0.43547839389E+02 -0.84233314601E+02 -0.26702591656E+03  0.28336285169E+03  0.00000000000E+00 0. -1.
</event>
<event>
 7    1  0.2661133E-009  0.1025905E+03  0.7561462E-02  0.1274941E+00
         -1   -1    0    0    0  501 -0.00000000000E+00  0.00000000000E+00  0.48688078236E+02  0.48688078236E+02  0.00000000000E+00 0.  1.
          1   -1    0    0  501    0  0.00000000000E+00 -0.00000000000E+00 -0.25561532180E+03  0.25561532180E+03  0.00000000000E+00 0. -1.
         25    2    1    2    0    0 -0.12744258412E+02  0.10238594847E+01 -0.83516921304E+02  0.15095179708E+03  0.12509158439E+03 0.  0.
          5    1    3    3  502    0  0.52388814358E+02  0.20687584938E+02 -0.47821317958E+02  0.74006181442E+02  0.41800000000E+01 0. -1.
         -5    1    3    3    0  502 -0.65133072770E+02 -0.19663725453E+02 -0.35695603346E+02  0.76945615634E+02  0.41800000000E+01 0. -1.
        -11    1    1    2    0    0  0.31162416468E+02  0.30769050202E+02 -0.30298507702E+02  0.53252513738E+02  0.00000000000E+00 0.  1.
         11    1    1    2    0    0 -0.18418158057E+02 -0.31792909687E+02 -0.93111814558E+02  0.10009908922E+03  0.00000000000E+00 0. -1.
</event>
<event>
 7    1  0.2661133E-009  0.9167819E+02  0.7561462E-02  0.1298838E+00
         -2   -1    0    0    0  501 -0.00000000000E+00  0.00000000000E+00  0.18712471285E+03  0.18712471285E+03  0.00000000000E+00 0.  1.
          2   -1    0    0  501    0  0.00000000000E+00 -0.00000000000E+00 -0.10056763117E+03  0.10056763117E+03  0.00000000000E+00 0. -1.
         25    2    1    2    0    0  0.12529892239E+02  0.78905760355E+02  0.72914962633E+02  0.16536971109E+03  0.12508969723E+03 0.  0.
          5    1    3    3  502    0  0.13584941796E+02  0.55129591616E+02 -0.26688243555E+02  0.62877319118E+02  0.41800000000E+01 0. -1.
         -5    1    3    3    0  502 -0.10550495570E+01  0.23776168739E+02  0.99603206188E+02  0.10249239197E+03  0.41800000000E+01 0. -1.
        -11    1    1    2    0    0  0.25912774402E+02 -0.24640718326E+02  0.37362769954E+02  0.51716665162E+02  0.00000000000E+00 0.  1.
         11    1    1    2    0    0 -0.38442666641E+02 -0.54265042030E+02 -0.23720650900E+02  0.70605967765E+02  0.00000000000E+00 0. -1.
</event>
<event>
 7    1  0.2661133E-009  0.1043044E+03  0.7561462E-02  0.1271496E+00
         -2   -1    0    0    0  501 -0.00000000000E+00  0.00000000000E+00  0.19214848779E+02  0.19214848779E+02  0.00000000000E+00 0.  1.
          2   -1    0    0  501    0  0.00000000000E+00 -0.00000000000E+00 -0.93167807661E+03  0.93167807661E+03  0.00000000000E+00 0. -1.
         25    2    1    2    0    0 -0.20053975284E+02 -0.31615289109E+02 -0.75301438510E+03  0.76425094958E+03  0.12508861392E+03 0.  0.
          5    1    3    3  502    0 -0.16590480290E+02 -0.79337052478E+02 -0.41741924521E+03  0.42523629972E+03  0.41800000000E+01 0.  1.
         -5    1    3    3    0  502 -0.34634949933E+01  0.47721763369E+02 -0.33559513989E+03  0.33901464985E+03  0.41800000000E+01 0.  1.
        -11    1    1    2    0    0  0.46344840245E+02  0.17190269122E+02 -0.40297684690E+02  0.63775018316E+02  0.00000000000E+00 0.  1.
         11    1    1    2    0    0 -0.26290864961E+02  0.14425019987E+02 -0.11915115804E+03  0.12286695750E+03  0.00000000000E+00 0. -1.
</event>
<event>
 7    1  0.2661133E-009  0.8128532E+02  0.7561462E-02  0.1325443E+00
         -1   -1    0    0    0  501 -0.00000000000E+00  0.00000000000E+00  0.85197745588E+02  0.85197745588E+02  0.00000000000E+00 0.  1.
          1   -1    0    0  501    0  0.00000000000E+00 -0.00000000000E+00 -0.14980940853E+03  0.14980940853E+03  0.00000000000E+00 0. -1.
         25    2    1    2    0    0  0.14264429412E+02 -0.28578566510E+02 -0.56600764797E+02  0.14096447269E+03  0.12508847899E+03 0.  0.
          5    1    3    3  502    0  0.45858876491E+02  0.11786214641E+02  0.17596449080E+02  0.50685883920E+02  0.41800000000E+01 0.  1.
         -5    1    3    3    0  502 -0.31594447079E+02 -0.40364781151E+02 -0.74197213876E+02  0.90278588772E+02  0.41800000000E+01 0.  1.
        -11    1    1    2    0    0 -0.72919848509E+01  0.45094529058E+02 -0.37788776175E+02  0.59284746764E+02  0.00000000000E+00 0. -1.
         11    1    1    2    0    0 -0.69724445610E+01 -0.16515962548E+02  0.29777878030E+02  0.34757934662E+02  0.00000000000E+00 0.  1.
</event>
<event>
 7    1  0.2661133E-009  0.1004165E+03  0.7561462E-02  0.1279423E+00
          2   -1    0    0  501    0  0.00000000000E+00  0.00000000000E+00  0.21990005029E+03  0.21990005029E+03  0.00000000000E+00 0. -1.
         -2   -1    0    0    0  501 -0.00000000000E+00 -0.00000000000E+00 -0.76616876734E+02  0.76616876734E+02  0.00000000000E+00 0.  1.
         25    2    1    2    0    0  0.13823135105E+02 -0.14608653762E+01 -0.95748689852E+00  0.12586645714E+03  0.12509290571E+03 0.  0.
          5    1    3    3  502    0 -0.53084671567E+02 -0.12523035902E+02 -0.14487260797E+02  0.56587648025E+02  0.41800000000E+01 0.  1.
         -5    1    3    3    0  502  0.66907806672E+02  0.11062170525E+02  0.13529773898E+02  0.69278809114E+02  0.41800000000E+01 0.  1.
        -11    1    1    2    0    0 -0.22829183727E+02  0.35924990697E+02  0.12061789306E+03  0.12790798534E+03  0.00000000000E+00 0. -1.
         11    1    1    2    0    0  0.90060486220E+01 -0.34464125321E+02  0.23622767387E+02  0.42742484543E+02  0.00000000000E+00 0.  1.
</event>
<event>
 7    1  0.2661133E-009  0.1191802E+03  0.7561462E-02  0.1244456E+00
         -1   -1    0    0    0  501 -0.00000000000E+00  0.00000000000E+00  0.24600766480E+02  0.24600766480E+02  0.00000000000E+00 0.  1.
          1   -1    0    0  501    0  0.00000000000E+00 -0.00000000000E+00 -0.10291227261E+04  0.10291227261E+04  0.00000000000E+00 0. -1.
         25    2    1    2    0    0 -0.48652297660E+02 -0.49510032205E+02 -0.87968494108E+03  0.89124133214E+03  0.12508887721E+03 0.  0.
          5    1    3    3  502    0 -0.81632744348E+02 -0.35967162368E+01 -0.62446131957E+03  0.62979858158E+03  0.41800000000E+01 0. -1.
         -5    1    3    3    0  502  0.32980446688E+02 -0.45913315968E+02 -0.25522362150E+03  0.26144275056E+03  0.41800000000E+01 0. -1.
        -11    1    1    2    0    0 -0.67121123988E+01  0.43672157176E+02 -0.33232381054E+02  0.55287439041E+02  0.00000000000E+00 0.  1.
         11    1    1    2    0    0  0.55364410059E+02  0.58378750286E+01 -0.91604637493E+02  0.10719472140E+03  0.00000000000E+00 0. -1.
</event>
<event>
 7    1  0.2661133E-009  0.1111528E+03  0.7561462E-02  0.1258450E+00
          2   -1    0    0  501    0  0.00000000000E+00  0.00000000000E+00  0.23617962020E+03  0.23617962020E+03  0.00000000000E+00 0. -1.
         -2   -1    0    0    0  501 -0.00000000000E+00 -0.00000000000E+00 -0.68110264647E+02  0.68110264647E+02  0.00000000000E+00 0.  1.
         25    2    1    2    0    0 -0.37642244545E+02 -0.14350551570E+02  0.15836343201E+03  0.20578925892E+03  0.12508943035E+03 0.  0.
          5    1    3    3  502    0 -0.48552374490E+02 -0.59962940036E+02  0.64001086795E+02  0.10033194286E+03  0.41800000000E+01 0.  1.
         -5    1    3    3    0  502  0.10910129945E+02  0.45612388467E+02  0.94362345214E+02  0.10545731606E+03  0.41800000000E+01 0.  1.
        -11    1    1    2    0    0  0.53514477430E+02 -0.22329000035E+02  0.39316430945E+01  0.58119199535E+02  0.00000000000E+00 0.  1.
         11    1    1    2    0    0 -0.15872232885E+02  0.36679551604E+02  0.57742804471E+01  0.40381426391E+02  0.00000000000E+00 0. -1.
</event>
<event>
 7    1  0.2661133E-009  0.7848341E+02  0.7561462E-02  0.1333411E+00
         -2   -1    0    0    0  501 -0.00000000000E+00  0.00000000000E+00  0.22623516028E+02  0.22623516028E+02  0.00000000000E+00 0.  1.
          2   -1    0    0  501    0  0.00000000000E+00 -0.00000000000E+00 -0.95948053130E+03  0.95948053130E+03  0.00000000000E+00 0. -1.
         25    2    1    2    0    0 -0.15227425244E+02 -0.72275416010E+02 -0.72407308992E+03  0.73850063808E+03  0.12508294316E+03 0.  0.
          5    1    3    3  502    0  0.62412417835E+01 -0.25875114177E+02 -0.63605551890E+03  0.63662592640E+03  0.41800000000E+01 0.  1.
         -5    1    3    3    0  502 -0.21468667027E+02 -0.46400301833E+02 -0.88017571010E+02  0.10187471168E+03  0.41800000000E+01 0.  1.
        -11    1    1    2    0    0 -0.58039110070E+01  0.38524637451E+02 -0.19700472547E+03  0.20082005609E+03  0.00000000000E+00 0. -1.
         11    1    1    2    0    0  0.21031336251E+02  0.33750778558E+02 -0.15779199893E+02  0.42783353153E+02  0.00000000000E+00 0.  1.
</event>
<event>
 7    1  0.2661133E-009  0.1013044E+03  0.7561462E-02  0.1277577E+00
          1   -1    0    0  501    0  0.00000000000E+00  0.00000000000E+00  0.14677204254E+04  0.14677204254E+04  0.00000000000E+00 0. -1.
         -1   -1    0    0    0  501 -0.00000000000E+00 -0.00000000000E+00 -0.10580967718E+02  0.10580967718E+02  0.00000000000E+00 0.  1.
         25    2    1    2    0    0  0.18024894489E+02 -0.32292982045E+02  0.10896559193E+04  0.10974412199E+04  0.12513782486E+03 0.  0.
          5    1    3    3  502    0  0.52604367072E+02 -0.40984799580E+02  0.31765866392E+03  0.32460972320E+03  0.41800000000E+01 0.  1.
         -5    1    3    3    0  502 -0.34579472584E+02  0.86918175347E+01  0.77199725535E+03  0.77283149670E+03  0.41800000000E+01 0.  1.
        -11    1    1    2    0    0 -0.16657402443E+02 -0.31740000378E+02  0.12174956728E+03  0.12691671999E+03  0.00000000000E+00 0.  1.
         11    1    1    2    0    0 -0.13674920455E+01  0.64032982423E+02  0.24573397115E+03  0.25394345325E+03  0.00000000000E+00 0. -1.
</event>
<event>
 7    1  0.2661133E-009  0.9555685E+02  0.7561462E-02  0.1289927E+00
         -1   -1    0    0    0  501 -0.00000000000E+00  0.00000000000E+00  0.16771433210E+02  0.16771433210E+02  0.00000000000E+00 0.  1.
          1   -1    0    0  501    0  0.00000000000E+00 -0.00000000000E+00 -0.73427800755E+03  0.73427800755E+03  0.00000000000E+00 0. -1.
         25    2    1    2    0    0 -0.16428287708E+02  0.15500939534E+01 -0.51842636140E+03  0.53355890456E+03  0.12508765334E+03 0.  0.
          5    1    3    3  502    0  0.47071344793E+02  0.36879617858E+01 -0.35527217740E+03  0.35842029099E+03  0.41800000000E+01 0. -1.
         -5    1    3    3    0  502 -0.63499632500E+02 -0.21378678324E+01 -0.16315418400E+03  0.17513861357E+03  0.41800000000E+01 0. -1.
        -11    1    1    2    0    0  0.28438288098E+02  0.32940924751E+02 -0.62823601911E+02  0.76424117335E+02  0.00000000000E+00 0.  1.
         11    1    1    2    0    0 -0.12010000390E+02 -0.34491018704E+02 -0.13625661103E+03  0.14106641886E+03  0.00000000000E+00 0. -1.
</event>
<event>
 7    1  0.2661133E-009  0.3087433E+03  0.7561462E-02  0.1080950E+00
          3   -1    0    0  501    0  0.00000000000E+00  0.00000000000E+00  0.19231726337E+03  0.19231726337E+03  0.00000000000E+00 0. -1.
         -3   -1    0    0    0  501 -0.00000000000E+00 -0.00000000000E+00 -0.55394111039E+03  0.55394111039E+03  0.00000000000E+00 0.  1.
         25    2    1    2    0    0  0.93423681586E+02  0.28043431254E+03 -0.27981060487E+03  0.42580499879E+03  0.12507811346E+03 0.  0.
          5    1    3    3  502    0  0.71688630599E+02  0.47296442260E+02 -0.88691596901E+02  0.12353090694E+03  0.41800000000E+01 0. -1.
         -5    1    3    3    0  502  0.21735050987E+02  0.23313787028E+03 -0.19111900797E+03  0.30227409186E+03  0.41800000000E+01 0. -1.
        -11    1    1    2    0    0 -0.81864591560E+02 -0.20082398168E+03 -0.98671718107E+02  0.23826076245E+03  0.00000000000E+00 0.  1.
         11    1    1    2    0    0 -0.11559090027E+02 -0.79610330857E+02  0.16858475964E+02  0.82192612522E+02  0.00000000000E+00 0. -1.
</event>
<event>
 7    1  0.2661133E-009  0.1036642E+03  0.7561462E-02  0.1272774E+00
          1   -1    0    0  501    0  0.00000000000E+00  0.00000000000E+00  0.72928453754E+02  0.72928453754E+02  0.00000000000E+00 0. -1.
         -1   -1    0    0    0  501 -0.00000000000E+00 -0.00000000000E+00 -0.25933494489E+03  0.25933494489E+03  0.00000000000E+00 0.  1.
         25    2    1    2    0    0 -0.36438950203E+01  0.39362631027E+02 -0.19109042280E+03  0.23178814487E+03  0.12508996652E+03 0.  0.
          5    1    3    3  502    0  0.14073882610E+02 -0.38959359210E+02 -0.28661741222E+02  0.50545757998E+02  0.41800000000E+01 0.  1.
         -5    1    3    3    0  502 -0.17717777630E+02  0.78321990237E+02 -0.16242868158E+03  0.18124238687E+03  0.41800000000E+01 0.  1.
        -11    1    1    2    0    0  0.61725594787E+01 -0.62100659567E+02 -0.21219140041E+02  0.65915433043E+02  0.00000000000E+00 0.  1.
         11    1    1    2    0    0 -0.25286644584E+01  0.22738028540E+02  0.25903071701E+02  0.34559820737E+02  0.00000000000E+00 0. -1.
</event>
<event>
 7    1  0.2661133E-009  0.7105201E+02  0.7561462E-02  0.1356552E+00
          2   -1    0    0  501    0  0.00000000000E+00  0.00000000000E+00  0.12170827714E+03  0.12170827714E+03  0.00000000000E+00 0. -1.
         -2   -1    0    0    0  501 -0.00000000000E+00 -0.00000000000E+00 -0.11467587258E+03  0.11467587258E+03  0.00000000000E+00 0.  1.
         25    2    1    2    0    0 -0.19895859967E+02 -0.26083692034E+02  0.34985047939E+02  0.13397120958E+03  0.12509247452E+03 0.  0.
          5    1    3    3  502    0 -0.30102369246E+02 -0.44692509708E+02 -0.32526006522E+02  0.63079208607E+02  0.41800000000E+01 0.  1.
         -5    1    3    3    0  502  0.10206509278E+02  0.18608817674E+02  0.67511054461E+02  0.70892000968E+02  0.41800000000E+01 0.  1.
        -11    1    1    2    0    0  0.16451378269E+02 -0.16735801099E+02 -0.49183231319E+02  0.54495184451E+02  0.00000000000E+00 0.  1.
         11    1    1    2    0    0  0.34444816984E+01  0.42819493133E+02  0.21230587943E+02  0.47917755694E+02  0.00000000000E+00 0. -1.
</event>
<event>
 7    1  0.2661133E-009  0.1212741E+03  0.7561462E-02  0.1241010E+00
         -2   -1    0    0    0  501 -0.00000000000E+00  0.00000000000E+00  0.17737585181E+03  0.17737585181E+03  0.00000000000E+00 0.  1.
          2   -1    0    0  501    0  0.00000000000E+00 -0.00000000000E+00 -0.87538375380E+02  0.87538375380E+02  0.00000000000E+00 0. -1.
         25    2    1    2    0    0  0.89733768752E+01 -0.57889923964E+02  0.32249308688E+02  0.14184817694E+03  0.12509645320E+03 0.  0.
          5    1    3    3  502    0  0.64287511340E+02 -0.38408919904E+02  0.35467238654E+02  0.82967021522E+02  0.41800000000E+01 0.  1.
         -5    1    3    3    0  502 -0.55314134464E+02 -0.19481004059E+02 -0.32179299656E+01  0.58881155423E+02  0.41800000000E+01 0.  1.
        -11    1    1    2    0    0 -0.49937331522E+02  0.40299525773E+02  0.34780551100E+02  0.72989558101E+02  0.00000000000E+00 0.  1.
         11    1    1    2    0    0  0.40963954646E+02  0.17590398190E+02  0.22807616647E+02  0.50076492149E+02  0.00000000000E+00 0. -1.
</event>
<event>
 7    1  0.2661133E-009  0.1541399E+03  0.7561462E-02  0.1195476E+00
          1   -1    0    0  501    0  0.00000000000E+00  0.00000000000E+00  0.41067854192E+02  0.41067854192E+02  0.00000000000E+00 0. -1.
         -1   -1    0    0    0  501 -0.00000000000E+00 -0.00000000000E+00 -0.89040538035E+03  0.89040538035E+03  0.00000000000E+00 0.  1.
         25    2    1    2    0    0  0.91768674805E+02  0.99262566843E+02 -0.61986363068E+03  0.64665087887E+03  0.12510752034E+03 0.  0.
          5    1    3    3  502    0 -0.15208700942E+01  0.75732843743E+02 -0.16358134078E+03  0.18031667732E+03  0.41800000000E+01 0. -1.
         -5    1    3    3    0  502  0.93289544900E+02  0.23529723099E+02 -0.45628228990E+03  0.46633420155E+03  0.41800000000E+01 0. -1.
        -11    1    1    2    0    0 -0.32686687357E+02 -0.24633031731E+02 -0.52920262206E+01  0.41269980908E+02  0.00000000000E+00 0. -1.
         11    1    1    2    0    0 -0.59081987448E+02 -0.74629535112E+02 -0.22418186925E+03  0.24355237476E+03  0.00000000000E+00 0.  1.
</event>
<event>
 7    1  0.2661133E-009  0.1807127E+03  0.7561462E-02  0.1167115E+00
          2   -1    0    0  501    0  0.00000000000E+00  0.00000000000E+00  0.54441578198E+03  0.54441578198E+03  0.00000000000E+00 0. -1.
         -2   -1    0    0    0  501 -0.00000000000E+00 -0.00000000000E+00 -0.70260464637E+02  0.70260464637E+02  0.00000000000E+00 0.  1.
         25    2    1    2    0    0 -0.46945945217E+02 -0.14612587810E+03  0.16195498851E+03  0.25579577121E+03  0.12508143045E+03 0.  0.
          5    1    3    3  502    0  0.90070126146E+01  0.19684016536E+02  0.10946685613E+02  0.24614814830E+02  0.41800000000E+01 0.  1.
         -5    1    3    3    0  502 -0.55952957832E+02 -0.16580989464E+03  0.15100830290E+03  0.23118095638E+03  0.41800000000E+01 0.  1.
        -11    1    1    2    0    0  0.87307194972E+01  0.11420849177E+03  0.14709982790E+03  0.18643541623E+03  0.00000000000E+00 0.  1.
         11    1    1    2    0    0  0.38215225720E+02  0.31917386328E+02  0.16510050093E+03  0.17244505918E+03  0.00000000000E+00 0. -1.
</event>
<event>
 7    1  0.2661133E-009  0.1140939E+03  0.7561462E-02  0.1253171E+00
          1   -1    0    0  501    0  0.00000000000E+00  0.00000000000E+00  0.27746689828E+03  0.27746689828E+03  0.00000000000E+00 0. -1.
         -1   -1    0    0    0  501 -0.00000000000E+00 -0.00000000000E+00 -0.63171578948E+02  0.63171578948E+02  0.00000000000E+00 0.  1.
         25    2    1    2    0    0 -0.14950999012E+02 -0.45055109114E+02  0.19084986791E+03  0.23307743429E+03  0.12509165864E+03 0.  0.
          5    1    3    3  502    0 -0.28423834651E+02  0.38316359170E+02  0.53663454337E+02  0.71925631646E+02  0.41800000000E+01 0.  1.
         -5    1    3    3    0  502  0.13472835639E+02 -0.83371468285E+02  0.13718641358E+03  0.16115180264E+03  0.41800000000E+01 0.  1.
        -11    1    1    2    0    0  0.72602110511E+00 -0.24618672360E+02 -0.12787544663E+02  0.27751169956E+02  0.00000000000E+00 0.  1.
         11    1    1    2    0    0  0.14224977906E+02  0.69673781475E+02  0.36232996085E+02  0.79809872990E+02  0.00000000000E+00 0. -1.
</event>
<event>
 7    1  0.2661133E-009  0.2832720E+03  0.7561462E-02  0.1093915E+00
          1   -1    0    0  501    0  0.00000000000E+00  0.00000000000E+00  0.24244642218E+03  0.24244642218E+03  0.00000000000E+00 0. -1.
         -1   -1    0    0    0  501 -0.00000000000E+00 -0.00000000000E+00 -0.38800044236E+03  0.38800044236E+03  0.00000000000E+00 0.  1.
         25    2    1    2    0    0 -0.26990794442E+03  0.68106815190E+02 -0.45338654744E+01  0.30521815670E+03  0.12509488601E+03 0.  0.
          5    1    3    3  502    0 -0.18098248142E+03  0.28354608577E+02  0.54588963471E+02  0.19119641665E+03  0.41800000000E+01 0. -1.
         -5    1    3    3    0  502 -0.88925462998E+02  0.39752206613E+02 -0.59122828945E+02  0.11402174004E+03  0.41800000000E+01 0. -1.
        -11    1    1    2    0    0  0.22364243070E+03 -0.80872701812E+02 -0.14244569753E+03  0.27721310837E+03  0.00000000000E+00 0.  1.
         11    1    1    2    0    0  0.46265513715E+02  0.12765886622E+02  0.14255428241E+01  0.48015599475E+02  0.00000000000E+00 0. -1.
</event>
<event>
 7    1  0.2661133E-009  0.3138296E+03  0.7561462E-02  0.1078525E+00
          1   -1    0    0  501    0  0.00000000000E+00  0.00000000000E+00  0.24722194995E+03  0.24722194995E+03  0.00000000000E+00 0. -1.
         -1   -1    0    0    0  501 -0.00000000000E+00 -0.00000000000E+00 -0.43980945158E+03  0.43980945158E+03  0.00000000000E+00 0.  1.
         25    2    1    2    0    0 -0.29972792115E+03  0.65296796377E+02 -0.44222228067E+02  0.33421829993E+03  0.12508304529E+03 0.  0.
          5    1    3    3  502    0 -0.29131617990E+03  0.56319346713E+02 -0.92207317613E+01  0.29688293952E+03  0.41800000000E+01 0.  1.
         -5    1    3    3    0  502 -0.84117412556E+01  0.89774496649E+01 -0.35001496305E+02  0.37335360411E+02  0.41800000000E+01 0.  1.
        -11    1    1    2    0    0  0.94646395161E+02 -0.61380533493E+02 -0.72592111493E+02  0.13414590810E+03  0.00000000000E+00 0.  1.
         11    1    1    2    0    0  0.20508152599E+03 -0.39162628846E+01 -0.75773162073E+02  0.21866719349E+03  0.00000000000E+00 0. -1.
</event>
<event>
 7    1  0.2661133E-009  0.2204002E+03  0.7561462E-02  0.1133585E+00
          2   -1    0    0  501    0  0.00000000000E+00  0.00000000000E+00  0.12245407334E+04  0.12245407334E+04  0.00000000000E+00 0. -1.
         -2   -1    0    0    0  501 -0.00000000000E+00 -0.00000000000E+00 -0.54553561943E+02  0.54553561943E+02  0.00000000000E+00 0.  1.
         25    2    1    2    0    0 -0.10955991742E+03  0.17411386312E+03  0.86990416589E+03  0.90260727129E+03  0.12509042934E+03 0.  0.
          5    1    3    3  502    0 -0.59169715463E+02  0.16124051454E+03  0.77966277298E+03  0.79836775407E+03  0.41800000000E+01 0.  1.
         -5    1    3    3    0  502 -0.50390201955E+02  0.12873348584E+02  0.90241392908E+02  0.10423951722E+03  0.41800000000E+01 0.  1.
        -11    1    1    2    0    0  0.11280150388E+03 -0.12808088556E+03  0.27581023800E+03  0.32434577215E+03  0.00000000000E+00 0. -1.
         11    1    1    2    0    0 -0.32415864664E+01 -0.46032977561E+02  0.24272767584E+02  0.52141251924E+02  0.00000000000E+00 0.  1.
</event>
<event>
 7    1  0.3235008E-009  0.1163892E+03  0.7561462E-02  0.1249175E+00
          2   -1    0    0  501    0  0.00000000000E+00  0.00000000000E+00  0.51340111661E+03  0.51340111661E+03  0.00000000000E+00 0. -1.
         -2   -1    0    0    0  501 -0.00000000000E+00 -0.00000000000E+00 -0.34497976306E+02  0.34497976306E+02  0.00000000000E+00 0.  1.
         25    2    1    2    0    0 -0.46126554737E+02 -0.60329281143E+02  0.28979085864E+03  0.32464734297E+03  0.12509945774E+03 0.  0.
          5    1    3    3  502    0 -0.63568422090E+02  0.60302365597E+01  0.20896457858E+03  0.21854284601E+03  0.41800000000E+01 0. -1.
         -5    1    3    3    0  502  0.17441867353E+02 -0.66359517702E+02  0.80826280064E+02  0.10610449696E+03  0.41800000000E+01 0. -1.
        -11    1    1    2    0    0  0.34776252232E+02 -0.37433187004E+01  0.13238002273E+03  0.13692286358E+03  0.00000000000E+00 0. -1.
         11    1    1    2    0    0  0.11350302505E+02  0.64072599843E+02  0.56732258935E+02  0.86328886367E+02  0.00000000000E+00 0.  1.
</event>
<event>
 7    1  0.2661133E-009  0.7320179E+02  0.7561462E-02  0.1349532E+00
         -2   -1    0    0    0  501 -0.00000000000E+00  0.00000000000E+00  0.91807322449E+03  0.91807322449E+03  0.00000000000E+00 0. -1.
          2   -1    0    0  501    0  0.00000000000E+00 -0.00000000000E+00 -0.19586331831E+02  0.19586331831E+02  0.00000000000E+00 0.  1.
         25    2    1    2    0    0  0.57496175864E+02  0.16131124657E+02  0.67034161581E+03  0.68452271741E+03  0.12508974918E+03 0.  0.
          5    1    3    3  502    0  0.50527301282E+02  0.13248630886E+02  0.90200150268E+02  0.10431717933E+03  0.41800000000E+01 0.  1.
         -5    1    3    3    0  502  0.69688745823E+01  0.28824937713E+01  0.58014146554E+03  0.58020553808E+03  0.41800000000E+01 0.  1.
        -11    1    1    2    0    0 -0.14873555013E+02  0.23083905498E+02  0.13093921684E+02  0.30422690822E+02  0.00000000000E+00 0.  1.
         11    1    1    2    0    0 -0.42622620851E+02 -0.39215030155E+02  0.21505135517E+03  0.22271414809E+03  0.00000000000E+00 0. -1.
</event>
<event>
 7    1  0.4372808E-009  0.2496014E+03  0.7561462E-02  0.1113557E+00
          1   -1    0    0  501    0  0.00000000000E+00  0.00000000000E+00  0.11723109293E+04  0.11723109293E+04  0.00000000000E+00 0. -1.
         -1   -1    0    0    0  501 -0.00000000000E+00 -0.00000000000E+00 -0.57611589514E+02  0.57611589514E+02  0.00000000000E+00 0.  1.
         25    2    1    2    0    0 -0.22965720097E+03  0.16074768195E+02  0.69338752187E+03  0.74123784726E+03  0.12508582094E+03 0.  0.
          5    1    3    3  502    0 -0.16693816995E+03 -0.38598234343E+02  0.37815528185E+03  0.41518317148E+03  0.41800000000E+01 0. -1.
         -5    1    3    3    0  502 -0.62719031014E+02  0.54673002538E+02  0.31523224001E+03  0.32605467578E+03  0.41800000000E+01 0. -1.
        -11    1    1    2    0    0  0.14721613075E+03 -0.49824817267E+02  0.30355318252E+03  0.34102732470E+03  0.00000000000E+00 0. -1.
         11    1    1    2    0    0  0.82441070211E+02  0.33750049072E+02  0.11775863538E+03  0.14765734684E+03  0.00000000000E+00 0.  1.
</event>
<event>
 7    1  0.2661133E-009  0.1613855E+03  0.7561462E-02  0.1187141E+00
          3   -1    0    0  501    0  0.00000000000E+00  0.00000000000E+00  0.89048501020E+03  0.89048501020E+03  0.00000000000E+00 0. -1.
         -3   -1    0    0    0  501 -0.00000000000E+00 -0.00000000000E+00 -0.40160956237E+02  0.40160956237E+02  0.00000000000E+00 0.  1.
         25    2    1    2    0    0  0.21906168686E+02 -0.12912329366E+03  0.24520456625E+03  0.30483580009E+03  0.12508749144E+03 0.  0.
          5    1    3    3  502    0  0.36551687679E+02 -0.14492924152E+03  0.16956499376E+03  0.22607580682E+03  0.41800000000E+01 0.  1.
         -5    1    3    3    0  502 -0.14645518993E+02  0.15805947859E+02  0.75639572485E+02  0.78759993271E+02  0.41800000000E+01 0.  1.
        -11    1    1    2    0    0 -0.49078508167E+02  0.63399563696E+02  0.41823911210E+03  0.42585462253E+03  0.00000000000E+00 0.  1.
         11    1    1    2    0    0  0.27172339481E+02  0.65723729961E+02  0.18688037561E+03  0.19995554381E+03  0.00000000000E+00 0. -1.
</event>
<event>
 7    1  0.2661133E-009  0.1689739E+03  0.7561462E-02  0.1178922E+00
         -2   -1    0    0    0  501 -0.00000000000E+00  0.00000000000E+00  0.18267248242E+03  0.18267248242E+03  0.00000000000E+00 0.  1.
          2   -1    0    0  501    0  0.00000000000E+00 -0.00000000000E+00 -0.20122573933E+03  0.20122573933E+03  0.00000000000E+00 0. -1.
         25    2    1    2    0    0 -0.12393845365E+03  0.95953716798E+02 -0.50566997481E+01  0.20060324586E+03  0.12509290938E+03 0.  0.
          5    1    3    3  502    0 -0.24003108705E+02  0.24715918242E+02  0.54118505984E+02  0.64290830855E+02  0.41800000000E+01 0.  1.
         -5    1    3    3    0  502 -0.99935344943E+02  0.71237798556E+02 -0.59175205732E+02  0.13631241501E+03  0.41800000000E+01 0.  1.
        -11    1    1    2    0    0 -0.87312597771E+01 -0.31989057380E+02 -0.14040856203E+02  0.36009447820E+02  0.00000000000E+00 0. -1.
         11    1    1    2    0    0  0.13266971343E+03 -0.63964659418E+02  0.54429904116E+00  0.14728552806E+03  0.00000000000E+00 0.  1.
</event>
<event>
 7    1  0.2661133E-009  0.1098240E+03  0.7561462E-02  0.1260896E+00
         -2   -1    0    0    0  501 -0.00000000000E+00  0.00000000000E+00  0.48616463083E+02  0.48616463083E+02  0.00000000000E+00 0.  1.
          2   -1    0    0  501    0  0.00000000000E+00 -0.00000000000E+00 -0.46206638758E+03  0.46206638758E+03  0.00000000000E+00 0. -1.
         25    2    1    2    0    0 -0.22991531399E+02  0.69118785644E+02 -0.35026491438E+03  0.37899727619E+03  0.12508960015E+03 0.  0.
          5    1    3    3  502    0  0.41034535789E+01 -0.35622955499E+02 -0.99964521755E+02  0.10628363609E+03  0.41800000000E+01 0.  1.
         -5    1    3    3    0  502 -0.27094984978E+02  0.10474174114E+03 -0.25030039262E+03  0.27271364010E+03  0.41800000000E+01 0.  1.
        -11    1    1    2    0    0  0.84273930559E+01 -0.52529314243E+02 -0.85240492016E+02  0.10048030298E+03  0.00000000000E+00 0. -1.
         11    1    1    2    0    0  0.14564138343E+02 -0.16589471401E+02  0.22055481901E+02  0.31205271492E+02  0.00000000000E+00 0.  1.
</event>
<event>
 7    1  0.2661133E-009  0.2833389E+03  0.7561462E-02  0.1093879E+00
          2   -1    0    0  501    0  0.00000000000E+00  0.00000000000E+00  0.62435127139E+03  0.62435127139E+03  0.00000000000E+00 0.  1.
         -2   -1    0    0    0  501 -0.00000000000E+00 -0.00000000000E+00 -0.18549364319E+03  0.18549364319E+03  0.00000000000E+00 0. -1.
         25    2    1    2    0    0 -0.80506136356E+02  0.24986247620E+03  0.44565753396E+03  0.53213708977E+03  0.12508696868E+03 0.  0.
          5    1    3    3  502    0 -0.58147204069E+02  0.25931188879E+03  0.39982833555E+03  0.48010824125E+03  0.41800000000E+01 0. -1.
         -5    1    3    3    0  502 -0.22358932288E+02 -0.94494125950E+01  0.45829198407E+02  0.52028848518E+02  0.41800000000E+01 0. -1.
        -11    1    1    2    0    0  0.64134120309E+01 -0.15851321203E+03  0.96858074642E+01  0.15893830598E+03  0.00000000000E+00 0.  1.
         11    1    1    2    0    0  0.74092724325E+02 -0.91349264167E+02 -0.16485713218E+02  0.11876951883E+03  0.00000000000E+00 0. -1.
</event>
<event>
 7    1  0.2661133E-009  0.1688956E+03  0.7561462E-02  0.1179004E+00
         -2   -1    0    0    0  501 -0.00000000000E+00  0.00000000000E+00  0.11693611571E+03  0.11693611571E+03  0.00000000000E+00 0. -1.
          2   -1    0    0  501    0  0.00000000000E+00 -0.00000000000E+00 -0.46017268563E+03  0.46017268563E+03  0.00000000000E+00 0.  1.
         25    2    1    2    0    0 -0.44245461188E+02 -0.13667466861E+03 -0.35861441553E+03  0.40606537108E+03  0.12508861136E+03 0.  0.
          5    1    3    3  502    0 -0.62281194930E+01 -0.14931948731E+03 -0.26754732187E+03  0.30648677068E+03  0.41800000000E+01 0. -1.
         -5    1    3    3    0  502 -0.38017341695E+02  0.12644818706E+02 -0.91067093662E+02  0.99578600401E+02  0.41800000000E+01 0. -1.
        -11    1    1    2    0    0  0.23120464340E+02  0.23855979526E+02 -0.32687607059E+02  0.46606258010E+02  0.00000000000E+00 0.  1.
         11    1    1    2    0    0  0.21124996848E+02  0.11281868908E+03  0.48065452673E+02  0.12443717225E+03  0.00000000000E+00 0. -1.
</event>
<event>
 7    1  0.2661133E-009  0.1968734E+03  0.7561462E-02  0.1152404E+00
         -2   -1    0    0    0  501 -0.00000000000E+00  0.00000000000E+00  0.23242550354E+02  0.23242550354E+02  0.00000000000E+00 0.  1.
          2   -1    0    0  501    0  0.00000000000E+00 -0.00000000000E+00 -0.18849789829E+04  0.18849789829E+04  0.00000000000E+00 0. -1.
         25    2    1    2    0    0 -0.36824320705E+02  0.17270781363E+03 -0.11103963643E+04  0.11312876511E+04  0.12509054417E+03 0.  0.
          5    1    3    3  502    0 -0.61685471846E+02  0.84598886300E+02 -0.82273443403E+03  0.82938018444E+03  0.41800000000E+01 0.  1.
         -5    1    3    3    0  502  0.24861151141E+02  0.88108927327E+02 -0.28766193026E+03  0.30190746668E+03  0.41800000000E+01 0.  1.
        -11    1    1    2    0    0  0.45849545510E+02 -0.31050331350E+02 -0.18793991008E+03  0.19592782779E+03  0.00000000000E+00 0.  1.
         11    1    1    2    0    0 -0.90252248047E+01 -0.14165748228E+03 -0.56340015813E+03  0.58100605432E+03  0.00000000000E+00 0. -1.
</event>
<event>
 7    1  0.2661133E-009  0.1049081E+03  0.7561462E-02  0.1270301E+00
          1   -1    0    0  501    0  0.00000000000E+00  0.00000000000E+00  0.99558673865E+02  0.99558673865E+02  0.00000000000E+00 0. -1.
         -1   -1    0    0    0  501 -0.00000000000E+00 -0.00000000000E+00 -0.15875176124E+03  0.15875176124E+03  0.00000000000E+00 0.  1.
         25    2    1    2    0    0  0.57772996030E+02 -0.43616129533E+01 -0.46656005658E+02  0.14553996609E+03  0.12509338962E+03 0.  0.
          5    1    3    3  502    0  0.16127225223E+02  0.47200198181E+02  0.17671403121E+02  0.53081983667E+02  0.41800000000E+01 0.  1.
         -5    1    3    3    0  502  0.41645770806E+02 -0.51561811135E+02 -0.64327408779E+02  0.92457982423E+02  0.41800000000E+01 0.  1.
        -11    1    1    2    0    0 -0.20705365172E+02  0.38013184633E+02  0.25190138490E+02  0.50082506227E+02  0.00000000000E+00 0. -1.
         11    1    1    2    0    0 -0.37067630858E+02 -0.33651571680E+02 -0.37727220205E+02  0.62687962787E+02  0.00000000000E+00 0.  1.
</event>
<event>
 7    1  0.2661133E-009  0.1876179E+03  0.7561462E-02  0.1160628E+00
          2   -1    0    0  501    0  0.00000000000E+00  0.00000000000E+00  0.24756457512E+03  0.24756457512E+03  0.00000000000E+00 0. -1.
         -2   -1    0    0    0  501 -0.00000000000E+00 -0.00000000000E+00 -0.17822782049E+03  0.17822782049E+03  0.00000000000E+00 0.  1.
         25    2    1    2    0    0 -0.84071401555E+02  0.86538960972E+02  0.12459933048E+03  0.21384086439E+03  0.12508369119E+03 0.  0.
          5    1    3    3  502    0 -0.11553305592E+03  0.78657280389E+02  0.11053651220E+03  0.17824322623E+03  0.41800000000E+01 0. -1.
         -5    1    3    3    0  502  0.31461654367E+02  0.78816805827E+01  0.14062818284E+02  0.35597638158E+02  0.41800000000E+01 0. -1.
        -11    1    1    2    0    0 -0.42623005657E+02 -0.59442157844E+02 -0.33993685917E+02  0.80657680494E+02  0.00000000000E+00 0.  1.
         11    1    1    2    0    0  0.12669440721E+03 -0.27096803128E+02 -0.21268889937E+02  0.13129385072E+03  0.00000000000E+00 0. -1.
</event>
<event>
 7    1  0.2661133E-009  0.9426150E+02  0.7561462E-02  0.1292848E+00
         -3   -1    0    0    0  501 -0.00000000000E+00  0.00000000000E+00  0.24018326992E+02  0.24018326992E+02  0.00000000000E+00 0.  1.
          3   -1    0    0  501    0  0.00000000000E+00 -0.00000000000E+00 -0.53764029063E+03  0.53764029063E+03  0.00000000000E+00 0. -1.
         25    2    1    2    0    0 -0.26992670010E+02 -0.12182193849E+02 -0.33250302864E+03  0.35648570296E+03  0.12508709877E+03 0.  0.
          5    1    3    3  502    0  0.12085462060E+02 -0.41542116523E+02 -0.37425375054E+02  0.57357971863E+02  0.41800000000E+01 0.  1.
         -5    1    3    3    0  502 -0.39078132070E+02  0.29359922674E+02 -0.29507765358E+03  0.29912773109E+03  0.41800000000E+01 0.  1.
        -11    1    1    2    0    0 -0.33604307023E+02 -0.23459270726E+01 -0.54926648466E+02  0.64433605642E+02  0.00000000000E+00 0. -1.
         11    1    1    2    0    0  0.60596977033E+02  0.14528120922E+02 -0.12619228654E+03  0.14073930902E+03  0.00000000000E+00 0.  1.
</event>
<event>
 7    1  0.2661133E-009  0.1195919E+03  0.7561462E-02  0.1243772E+00
         -1   -1    0    0    0  501 -0.00000000000E+00  0.00000000000E+00  0.51487600071E+02  0.51487600071E+02  0.00000000000E+00 0.  1.
          1   -1    0    0  501    0  0.00000000000E+00 -0.00000000000E+00 -0.34282954896E+03  0.34282954896E+03  0.00000000000E+00 0. -1.
         25    2    1    2    0    0  0.31758085723E+02 -0.65544141188E+02 -0.22794916471E+03  0.27002398296E+03  0.12509004447E+03 0.  0.
          5    1    3    3  502    0  0.53128203837E+02  0.13751767454E+02 -0.13574343980E+03  0.14647686165E+03  0.41800000000E+01 0. -1.
         -5    1    3    3    0  502 -0.21370118114E+02 -0.79295908642E+02 -0.92205724917E+02  0.12354712131E+03  0.41800000000E+01 0. -1.
        -11    1    1    2    0    0 -0.51772845017E+02  0.26781593121E+02 -0.17240077049E+02  0.60785701180E+02  0.00000000000E+00 0.  1.
         11    1    1    2    0    0  0.20014759294E+02  0.38762548067E+02 -0.46152707130E+02  0.63507464897E+02  0.00000000000E+00 0. -1.
</event>
<event>
 7    1  0.2661133E-009  0.1363651E+03  0.7561462E-02  0.1218305E+00
         -1   -1    0    0    0  501 -0.00000000000E+00  0.00000000000E+00  0.86822360157E+02  0.86822360157E+02  0.00000000000E+00 0.  1.
          1   -1    0    0  501    0  0.00000000000E+00 -0.00000000000E+00 -0.90284928757E+03  0.90284928757E+03  0.00000000000E+00 0. -1.
         25    2    1    2    0    0 -0.45830487193E+02 -0.90200586942E+02 -0.83674261154E+03  0.85206955778E+03  0.12509098243E+03 0.  0.
          5    1    3    3  502    0  0.19608785271E+02 -0.72985026893E+02 -0.62916865558E+03  0.63370496934E+03  0.41800000000E+01 0. -1.
         -5    1    3    3    0  502 -0.65439272465E+02 -0.17215560049E+02 -0.20757395596E+03  0.21836458843E+03  0.41800000000E+01 0. -1.
        -11    1    1    2    0    0 -0.23232286224E+02  0.27130975019E+02  0.25602490754E+02  0.43946745744E+02  0.00000000000E+00 0. -1.
         11    1    1    2    0    0  0.69062773417E+02  0.63069611923E+02 -0.48868066334E+01  0.93655344211E+02  0.00000000000E+00 0.  1.
</event>
<event>
 7    1  0.2661133E-009  0.1283434E+03  0.7561462E-02  0.1229935E+00
         -3   -1    0    0    0  501 -0.00000000000E+00  0.00000000000E+00  0.45818421992E+03  0.45818421992E+03  0.00000000000E+00 0.  1.
          3   -1    0    0  501    0  0.00000000000E+00 -0.00000000000E+00 -0.51600540106E+02  0.51600540106E+02  0.00000000000E+00 0. -1.
         25    2    1    2    0    0  0.90434801266E+02 -0.27828613356E+02  0.32268409387E+03  0.35878347736E+03  0.12509066387E+03 0.  0.
          5    1    3    3  502    0 -0.18396055358E+02 -0.93203869332E+01  0.38999575261E+01  0.21400152664E+02  0.41800000000E+01 0. -1.
         -5    1    3    3    0  502  0.10883085662E+03 -0.18508226423E+02  0.31878413634E+03  0.33738332470E+03  0.41800000000E+01 0. -1.
        -11    1    1    2    0    0 -0.99205059623E+02  0.42623054546E+02  0.68160812798E+02  0.12768815542E+03  0.00000000000E+00 0. -1.
         11    1    1    2    0    0  0.87702583571E+01 -0.14794441190E+02  0.15738773148E+02  0.23313127246E+02  0.00000000000E+00 0.  1.
</event>
<event>
 7    1  0.2661133E-009  0.1036860E+03  0.7561462E-02  0.1272730E+00
          2   -1    0    0  501    0  0.00000000000E+00  0.00000000000E+00  0.20732779156E+03  0.20732779156E+03  0.00000000000E+00 0. -1.
         -2   -1    0    0    0  501 -0.00000000000E+00 -0.00000000000E+00 -0.68416220327E+02  0.68416220327E+02  0.00000000000E+00 0.  1.
         25    2    1    2    0    0  0.82864322783E+01  0.93556042182E+01  0.27386187198E+02  0.12866207404E+03  0.12509090197E+03 0.  0.
          5    1    3    3  502    0 -0.46676971362E+02  0.38136048781E+02  0.27726059065E+02  0.66477850623E+02  0.41800000000E+01 0.  1.
         -5    1    3    3    0  502  0.54963403640E+02 -0.28780444563E+02 -0.33987186679E+00  0.62184223416E+02  0.41800000000E+01 0.  1.
        -11    1    1    2    0    0 -0.28517233878E+00 -0.46637292616E+02  0.25893244910E+02  0.53343964211E+02  0.00000000000E+00 0. -1.
         11    1    1    2    0    0 -0.80012599395E+01  0.37281688398E+02  0.85632139124E+02  0.93737973636E+02  0.00000000000E+00 0.  1.
</event>
<event>
 7    1  0.2661133E-009  0.1441529E+03  0.7561462E-02  0.1207848E+00
          1   -1    0    0  501    0  0.00000000000E+00  0.00000000000E+00  0.95559759658E+03  0.95559759658E+03  0.00000000000E+00 0. -1.
         -1   -1    0    0    0  501 -0.00000000000E+00 -0.00000000000E+00 -0.30600088437E+02  0.30600088437E+02  0.00000000000E+00 0.  1.
         25    2    1    2    0    0 -0.18358429273E+02 -0.12578404306E+03  0.49382361878E+03  0.52504101990E+03  0.12509056197E+03 0.  0.
          5    1    3    3  502    0 -0.48829983970E+02 -0.11667156084E+03  0.46501146774E+03  0.48192297929E+03  0.41800000000E+01 0.  1.
         -5    1    3    3    0  502  0.30471554697E+02 -0.91124822233E+01  0.28812151046E+02  0.43118040608E+02  0.41800000000E+01 0.  1.
        -11    1    1    2    0    0 -0.49856214081E+01  0.53243909037E+02  0.52674824982E+02  0.75062690181E+02  0.00000000000E+00 0.  1.
         11    1    1    2    0    0  0.23344050681E+02  0.72540134028E+02  0.37849906438E+03  0.38609397494E+03  0.00000000000E+00 0. -1.
</event>
<event>
 7    1  0.2661133E-009  0.1387913E+03  0.7561462E-02  0.1214965E+00
          1   -1    0    0  501    0  0.00000000000E+00  0.00000000000E+00  0.17921332807E+03  0.17921332807E+03  0.00000000000E+00 0. -1.
         -1   -1    0    0    0  501 -0.00000000000E+00 -0.00000000000E+00 -0.14439323015E+03  0.14439323015E+03  0.00000000000E+00 0.  1.
         25    2    1    2    0    0  0.11687619721E+03  0.10676967797E+02  0.77567882469E+01  0.17168172537E+03  0.12506160061E+03 0.  0.
          5    1    3    3  502    0  0.11660507613E+03  0.19905178088E+02  0.49814039232E+02  0.12842067901E+03  0.41800000000E+01 0.  1.
         -5    1    3    3    0  502  0.27112108201E+00 -0.92282102911E+01 -0.42057250985E+02  0.43261046361E+02  0.41800000000E+01 0.  1.
        -11    1    1    2    0    0  0.13833469054E+02 -0.12079813314E+02  0.71095140948E+01  0.19693449328E+02  0.00000000000E+00 0.  1.
         11    1    1    2    0    0 -0.13070966626E+03  0.14028455169E+01  0.19953795581E+02  0.13223138352E+03  0.00000000000E+00 0. -1.
</event>
<event>
 7    1  0.2661133E-009  0.1085808E+03  0.7561462E-02  0.1263221E+00
          2   -1    0    0  501    0  0.00000000000E+00  0.00000000000E+00  0.50233254503E+02  0.50233254503E+02  0.00000000000E+00 0. -1.
         -2   -1    0    0    0  501 -0.00000000000E+00 -0.00000000000E+00 -0.27170314339E+03  0.27170314339E+03  0.00000000000E+00 0.  1.
         25    2    1    2    0    0  0.43519086442E+02  0.12703138318E+02 -0.12912000357E+03  0.18540058529E+03  0.12508445584E+03 0.  0.
          5    1    3    3  502    0 -0.42096515957E+02 -0.51725683810E+01 -0.25208015819E+02  0.49515538782E+02  0.41800000000E+01 0.  1.
         -5    1    3    3    0  502  0.85615602400E+02  0.17875706699E+02 -0.10391198776E+03  0.13588504651E+03  0.41800000000E+01 0.  1.
        -11    1    1    2    0    0 -0.60518937375E+02 -0.25531729645E+02 -0.94548736523E+02  0.11512547319E+03  0.00000000000E+00 0.  1.
         11    1    1    2    0    0  0.16999850933E+02  0.12828591327E+02  0.21988512103E+01  0.21410339414E+02  0.00000000000E+00 0. -1.
</event>
<event>
 7    1  0.2661133E-009  0.8243437E+02  0.7561462E-02  0.1322282E+00
         -2   -1    0    0    0  501 -0.00000000000E+00  0.00000000000E+00  0.33244616346E+02  0.33244616346E+02  0.00000000000E+00 0.  1.
          2   -1    0    0  501    0  0.00000000000E+00 -0.00000000000E+00 -0.44032224906E+03  0.44032224906E+03  0.00000000000E+00 0. -1.
         25    2    1    2    0    0  0.51760031611E+02  0.38451853240E+01 -0.23196003427E+03  0.26860048835E+03  0.12508748346E+03 0.  0.
          5    1    3    3  502    0 -0.52033630496E+01  0.92868435295E+01 -0.20480428802E+03  0.20512335128E+03  0.41800000000E+01 0. -1.
         -5    1    3    3    0  502  0.56963394661E+02 -0.54416582056E+01 -0.27155746253E+02  0.63477137064E+02  0.41800000000E+01 0. -1.
        -11    1    1    2    0    0  0.11928398060E+02 -0.26015791594E+02 -0.17545791423E+02  0.33570267934E+02  0.00000000000E+00 0.  1.
         11    1    1    2    0    0 -0.63688429671E+02  0.22170606270E+02 -0.15757180702E+03  0.17139610912E+03  0.00000000000E+00 0. -1.
</event>
<event>
 7    1  0.2661133E-009  0.1239659E+03  0.7561462E-02  0.1236694E+00
         -1   -1    0    0    0  501 -0.00000000000E+00  0.00000000000E+00  0.74725775785E+02  0.74725775785E+02  0.00000000000E+00 0.  1.
          1   -1    0    0  501    0  0.00000000000E+00 -0.00000000000E+00 -0.29745241476E+03  0.29745241476E+03  0.00000000000E+00 0. -1.
         25    2    1    2    0    0  0.68808018621E+02 -0.61266846676E+02 -0.67505971887E+02  0.16938821434E+03  0.12508853261E+03 0.  0.
          5    1    3    3  502    0  0.71743598997E+02 -0.96183978039E+02 -0.52267680335E+02  0.13094993103E+03  0.41800000000E+01 0.  1.
         -5    1    3    3    0  502 -0.29355803766E+01  0.34917131363E+02 -0.15238291552E+02  0.38438283315E+02  0.41800000000E+01 0.  1.
        -11    1    1    2    0    0 -0.11468463547E+02  0.15098891078E+02  0.10342697935E+02  0.21597999178E+02  0.00000000000E+00 0.  1.
         11    1    1    2    0    0 -0.57339555074E+02  0.46167955598E+02 -0.16556336502E+03  0.18119197702E+03  0.00000000000E+00 0. -1.
</event>
<event>
 7    1  0.2661133E-009  0.8569032E+02  0.7561462E-02  0.1313637E+00
         -1   -1    0    0    0  501 -0.00000000000E+00  0.00000000000E+00  0.21196705920E+03  0.21196705920E+03  0.00000000000E+00 0.  1.
          1   -1    0    0  501    0  0.00000000000E+00 -0.00000000000E+00 -0.66342855850E+02  0.66342855850E+02  0.00000000000E+00 0. -1.
         25    2    1    2    0    0  0.30084847061E+02 -0.24922734168E+02  0.11642517194E+03  0.17529411164E+03  0.12508782600E+03 0.  0.
          5    1    3    3  502    0 -0.17618132065E+02 -0.21026808110E+02 -0.17639450114E+02  0.32880812598E+02  0.41800000000E+01 0. -1.
         -5    1    3    3    0  502  0.47702979126E+02 -0.38959260580E+01  0.13406462206E+03  0.14241329904E+03  0.41800000000E+01 0. -1.
        -11    1    1    2    0    0  0.30597861564E+02  0.15079776829E+02  0.23187685315E+02  0.41246788381E+02  0.00000000000E+00 0.  1.
         11    1    1    2    0    0 -0.60682708625E+02  0.98429573397E+01  0.60113460890E+01  0.61769015024E+02  0.00000000000E+00 0. -1.
</event>
<event>
 7    1  0.2661133E-009  0.7874202E+02  0.7561462E-02  0.1332660E+00
         -2   -1    0    0    0  501 -0.00000000000E+00  0.00000000000E+00  0.10687368041E+03  0.10687368041E+03  0.00000000000E+00 0.  1.
          2   -1    0    0  501    0  0.00000000000E+00 -0.00000000000E+00 -0.12554324100E+03  0.12554324100E+03  0.00000000000E+00 0. -1.
         25    2    1    2    0    0  0.29664188988E+02  0.40453970699E+01 -0.32560148776E+02  0.13267963558E+03  0.12508954018E+03 0.  0.
          5    1    3    3  502    0  0.76729702909E+02  0.15876582724E+02 -0.10352144366E+02  0.79146399036E+02  0.41800000000E+01 0. -1.
         -5    1    3    3    0  502 -0.47065513921E+02 -0.11831185654E+02 -0.22208004410E+02  0.53533236541E+02  0.41800000000E+01 0. -1.
        -11    1    1    2    0    0 -0.14883343960E+02  0.35036869806E+00  0.54395647948E+02  0.56396127538E+02  0.00000000000E+00 0.  1.
         11    1    1    2    0    0 -0.14780845028E+02 -0.43957657679E+01 -0.40505059756E+02  0.43341158294E+02  0.00000000000E+00 0. -1.
</event>
<event>
 7    1  0.2661133E-009  0.9645153E+02  0.7561462E-02  0.1287940E+00
          2   -1    0    0  501    0  0.00000000000E+00  0.00000000000E+00  0.46460386164E+02  0.46460386164E+02  0.00000000000E+00 0. -1.
         -2   -1    0    0    0  501 -0.00000000000E+00 -0.00000000000E+00 -0.47216290152E+03  0.47216290152E+03  0.00000000000E+00 0.  1.
         25    2    1    2    0    0 -0.56844468525E+02  0.56555858650E+02 -0.12665788051E+03  0.19524236129E+03  0.12508997640E+03 0.  0.
          5    1    3    3  502    0  0.15481898058E+02  0.16962594992E+02  0.17460802783E+02  0.29150828979E+02  0.41800000000E+01 0. -1.
         -5    1    3    3    0  502 -0.72326366583E+02  0.39593263659E+02 -0.14411868330E+03  0.16609153231E+03  0.41800000000E+01 0. -1.
        -11    1    1    2    0    0  0.31925593875E+02 -0.87719879146E+01 -0.18948589623E+02  0.38147612834E+02  0.00000000000E+00 0. -1.
         11    1    1    2    0    0  0.24918874650E+02 -0.47783870736E+02 -0.28009604522E+03  0.28523331356E+03  0.00000000000E+00 0.  1.
</event>
<event>
 7    1  0.2661133E-009  0.9293606E+02  0.7561462E-02  0.1295893E+00
          1   -1    0    0  501    0  0.00000000000E+00  0.00000000000E+00  0.65222500183E+03  0.65222500183E+03  0.00000000000E+00 0. -1.
         -1   -1    0    0    0  501 -0.00000000000E+00 -0.00000000000E+00 -0.29077780472E+02  0.29077780472E+02  0.00000000000E+00 0.  1.
         25    2    1    2    0    0  0.40185335079E+01  0.36070576942E+02  0.54868103668E+03  0.56392887631E+03  0.12509061670E+03 0.  0.
          5    1    3    3  502    0 -0.51481106154E+02  0.27005671528E+02  0.14416365605E+03  0.15549997657E+03  0.41800000000E+01 0. -1.
         -5    1    3    3    0  502  0.55499639662E+02  0.90649054142E+01  0.40451738063E+03  0.40842889974E+03  0.41800000000E+01 0. -1.
        -11    1    1    2    0    0  0.25601327831E+02 -0.14602626418E+01 -0.46680259748E+01  0.26064359194E+02  0.00000000000E+00 0.  1.
         11    1    1    2    0    0 -0.29619861339E+02 -0.34610314301E+02  0.79134210652E+02  0.91309546802E+02  0.00000000000E+00 0. -1.
</event>
<event>
 7    1  0.2661133E-009  0.2007473E+03  0.7561462E-02  0.1149110E+00
         -1   -1    0    0    0  501 -0.00000000000E+00  0.00000000000E+00  0.10066182530E+03  0.10066182530E+03  0.00000000000E+00 0.  1.
          1   -1    0    0  501    0  0.00000000000E+00 -0.00000000000E+00 -0.54291262560E+03  0.54291262560E+03  0.00000000000E+00 0. -1.
         25    2    1    2    0    0 -0.82425514935E+02  0.16730308010E+03 -0.35047282913E+03  0.41625229674E+03  0.12510189634E+03 0.  0.
          5    1    3    3  502    0 -0.94508403228E+02  0.15772183008E+03 -0.22889767483E+03  0.29363179648E+03  0.41800000000E+01 0. -1.
         -5    1    3    3    0  502  0.12082888293E+02  0.95812500170E+01 -0.12157515430E+03  0.12262050026E+03  0.41800000000E+01 0. -1.
        -11    1    1    2    0    0  0.47931889547E+02 -0.15907426033E+03 -0.52121169355E+02  0.17412266547E+03  0.00000000000E+00 0. -1.
         11    1    1    2    0    0  0.34493625389E+02 -0.82288197699E+01 -0.39656801812E+02  0.53199488693E+02  0.00000000000E+00 0.  1.
</event>
<event>
 7    1  0.2661133E-009  0.8339828E+02  0.7561462E-02  0.1319675E+00
         -1   -1    0    0    0  501 -0.00000000000E+00  0.00000000000E+00  0.16181603029E+03  0.16181603029E+03  0.00000000000E+00 0.  1.
          1   -1    0    0  501    0  0.00000000000E+00 -0.00000000000E+00 -0.10260252508E+03  0.10260252508E+03  0.00000000000E+00 0. -1.
         25    2    1    2    0    0  0.43916189159E+02  0.38851281746E+02  0.42879906318E+02  0.14465544874E+03  0.12509379969E+03 0.  0.
          5    1    3    3  502    0 -0.11480160445E+02 -0.20403419742E+02  0.57411115802E+02  0.62141791402E+02  0.41800000000E+01 0.  1.
         -5    1    3    3    0  502  0.55396349604E+02  0.59254701488E+02 -0.14531209485E+02  0.82513657336E+02  0.41800000000E+01 0.  1.
        -11    1    1    2    0    0 -0.40585954082E+02 -0.25276124593E+02  0.58376217029E+02  0.75457834967E+02  0.00000000000E+00 0.  1.
         11    1    1    2    0    0 -0.33302350771E+01 -0.13575157153E+02 -0.42042618133E+02  0.44305271660E+02  0.00000000000E+00 0. -1.
</event>
<event>
 7    1  0.2661133E-009  0.7827765E+02  0.7561462E-02  0.1334011E+00
          2   -1    0    0  501    0  0.00000000000E+00  0.00000000000E+00  0.15406274864E+03  0.15406274864E+03  0.00000000000E+00 0. -1.
         -2   -1    0    0    0  501 -0.00000000000E+00 -0.00000000000E+00 -0.14833869599E+03  0.14833869599E+03  0.00000000000E+00 0.  1.
         25    2    1    2    0    0 -0.42443089684E+02 -0.11738448407E+01 -0.93486577193E+02  0.16183664609E+03  0.12509422900E+03 0.  0.
          5    1    3    3  502    0  0.49681897180E+01 -0.36435434612E+02  0.13624719144E+02  0.39437661901E+02  0.41800000000E+01 0.  1.
         -5    1    3    3    0  502 -0.47411279402E+02  0.35261589771E+02 -0.10711129634E+03  0.12239898419E+03  0.41800000000E+01 0.  1.
        -11    1    1    2    0    0 -0.12664860528E+01 -0.13989512143E+02 -0.13032058658E+02  0.19161027890E+02  0.00000000000E+00 0.  1.
         11    1    1    2    0    0  0.43709575736E+02  0.15163356984E+02  0.11224268850E+03  0.12140377065E+03  0.00000000000E+00 0. -1.
</event>
<event>
 7    1  0.2661133E-009  0.1550224E+03  0.7561462E-02  0.1194434E+00
          2   -1    0    0  501    0  0.00000000000E+00  0.00000000000E+00  0.14378100660E+03  0.14378100660E+03  0.00000000000E+00 0. -1.
         -2   -1    0    0    0  501 -0.00000000000E+00 -0.00000000000E+00 -0.29087431207E+03  0.29087431207E+03  0.00000000000E+00 0.  1.
         25    2    1    2    0    0 -0.97882757243E+02  0.11269599868E+03  0.16080819699E+02  0.19542945212E+03  0.12511057393E+03 0.  0.
          5    1    3    3  502    0 -0.89599962415E+02  0.65166832290E+02  0.63403889989E+02  0.12771998654E+03  0.41800000000E+01 0. -1.
         -5    1    3    3    0  502 -0.82827948284E+01  0.47529166390E+02 -0.47323070291E+02  0.67709465583E+02  0.41800000000E+01 0. -1.
        -11    1    1    2    0    0  0.68177198123E+02 -0.62879379333E+02 -0.36070694189E+02  0.99514027496E+02  0.00000000000E+00 0. -1.
         11    1    1    2    0    0  0.29705559120E+02 -0.49816619346E+02 -0.12710343098E+03  0.13971183906E+03  0.00000000000E+00 0.  1.
</event>
<event>
 7    1  0.2661133E-009  0.9132924E+02  0.7561462E-02  0.1299664E+00
         -1   -1    0    0    0  501 -0.00000000000E+00  0.00000000000E+00  0.73191773121E+02  0.73191773121E+02  0.00000000000E+00 0.  1.
          1   -1    0    0  501    0  0.00000000000E+00 -0.00000000000E+00 -0.21873515541E+03  0.21873515541E+03  0.00000000000E+00 0. -1.
         25    2    1    2    0    0  0.30236558651E+02  0.57526997582E+02 -0.71782423029E+02  0.15819067528E+03  0.12509184050E+03 0.  0.
          5    1    3    3  502    0  0.26418159037E+02  0.18082060215E+02  0.32951540531E+02  0.46131946109E+02  0.41800000000E+01 0. -1.
         -5    1    3    3    0  502  0.38183996140E+01  0.39444937367E+02 -0.10473396356E+03  0.11205872917E+03  0.41800000000E+01 0. -1.
        -11    1    1    2    0    0 -0.32479381753E+02  0.16522483480E+02 -0.16008521418E+02  0.39801701690E+02  0.00000000000E+00 0.  1.
         11    1    1    2    0    0  0.22428231027E+01 -0.74049481061E+02 -0.57752437840E+02  0.93934551563E+02  0.00000000000E+00 0. -1.
</event>
<event>
 7    1  0.2661133E-009  0.1146707E+03  0.7561462E-02  0.1252157E+00
         -1   -1    0    0    0  501 -0.00000000000E+00  0.00000000000E+00  0.10598485542E+03  0.10598485542E+03  0.00000000000E+00 0.  1.
          1   -1    0    0  501    0  0.00000000000E+00 -0.00000000000E+00 -0.17618567008E+03  0.17618567008E+03  0.00000000000E+00 0. -1.
         25    2    1    2    0    0 -0.72505945381E+02  0.10667258394E+02 -0.10159205095E+01  0.14498016029E+03  0.12508921723E+03 0.  0.
          5    1    3    3  502    0 -0.66203225706E+02 -0.35957316266E+02  0.37290349411E+02  0.84165540728E+02  0.41800000000E+01 0.  1.
         -5    1    3    3    0  502 -0.63027196755E+01  0.46624574660E+02 -0.38306269920E+02  0.60814619564E+02  0.41800000000E+01 0.  1.
        -11    1    1    2    0    0  0.37018828546E+02 -0.44320506402E+02 -0.71385742503E+01  0.58186426226E+02  0.00000000000E+00 0. -1.
         11    1    1    2    0    0  0.35487116835E+02  0.33653248008E+02 -0.62046319892E+02  0.79003938983E+02  0.00000000000E+00 0.  1.
</event>
<event>
 7    1  0.2661133E-009  0.1059238E+03  0.7561462E-02  0.1268310E+00
         -1   -1    0    0    0  501 -0.00000000000E+00  0.00000000000E+00  0.19605204351E+03  0.19605204351E+03  0.00000000000E+00 0.  1.
          1   -1    0    0  501    0  0.00000000000E+00 -0.00000000000E+00 -0.72178649335E+02  0.72178649335E+02  0.00000000000E+00 0. -1.
         25    2    1    2    0    0 -0.46549914824E+01 -0.46352452335E+02  0.96971462104E+02  0.16498857598E+03  0.12509015532E+03 0.  0.
          5    1    3    3  502    0  0.18239491526E+02  0.30624001161E+02 -0.37702090825E+01  0.36085944282E+02  0.41800000000E+01 0. -1.
         -5    1    3    3    0  502 -0.22894483009E+02 -0.76976453496E+02  0.10074167119E+03  0.12890263170E+03  0.41800000000E+01 0. -1.
        -11    1    1    2    0    0  0.42482415652E+02  0.11274643894E+02  0.27132569293E+02  0.51653165934E+02  0.00000000000E+00 0.  1.
         11    1    1    2    0    0 -0.37827424170E+02  0.35077808441E+02 -0.23063722510E+00  0.51588950928E+02  0.00000000000E+00 0. -1.
</event>
<event>
 7    1  0.2661133E-009  0.1269101E+03  0.7561462E-02  0.1232114E+00
          2   -1    0    0  501    0  0.00000000000E+00  0.00000000000E+00  0.14458185559E+04  0.14458185559E+04  0.00000000000E+00 0. -1.
         -2   -1    0    0    0  501 -0.00000000000E+00 -0.00000000000E+00 -0.15930882141E+02  0.15930882141E+02  0.00000000000E+00 0.  1.
         25    2    1    2    0    0 -0.10178624350E+03  0.14534447472E+02  0.89483115092E+03  0.90936370509E+03  0.12509144632E+03 0.  0.
          5    1    3    3  502    0 -0.86466040290E+01  0.25299376391E+02  0.34109056428E+02  0.43539893631E+02  0.41800000000E+01 0.  1.
         -5    1    3    3    0  502 -0.93139639475E+02 -0.10764928919E+02  0.86072209449E+03  0.86582381146E+03  0.41800000000E+01 0.  1.
        -11    1    1    2    0    0  0.66085091015E+02  0.32671782916E+02  0.36368763282E+03  0.37108405910E+03  0.00000000000E+00 0. -1.
         11    1    1    2    0    0  0.35701152489E+02 -0.47206230388E+02  0.17136889006E+03  0.18130167389E+03  0.00000000000E+00 0.  1.
</event>
<event>
 7    1  0.2661133E-009  0.9964911E+02  0.7561462E-02  0.1281036E+00
          1   -1    0    0  501    0  0.00000000000E+00  0.00000000000E+00  0.12592715634E+03  0.12592715634E+03  0.00000000000E+00 0. -1.
         -1   -1    0    0    0  501 -0.00000000000E+00 -0.00000000000E+00 -0.14399584343E+03  0.14399584343E+03  0.00000000000E+00 0.  1.
         25    2    1    2    0    0 -0.29854780333E+02  0.10844001046E+01 -0.85862786498E+02  0.15463797507E+03  0.12509197175E+03 0.  0.
          5    1    3    3  502    0  0.76258200449E+01 -0.47262107445E+02 -0.79628910577E+02  0.93005890842E+02  0.41800000000E+01 0. -1.
         -5    1    3    3    0  502 -0.37480600378E+02  0.48346507550E+02 -0.62338759204E+01  0.61632084225E+02  0.41800000000E+01 0. -1.
        -11    1    1    2    0    0  0.56597408645E+02  0.15216930608E+02  0.28890909635E+02  0.65341459289E+02  0.00000000000E+00 0.  1.
         11    1    1    2    0    0 -0.26742628312E+02 -0.16301330713E+02  0.38903189775E+02  0.49943565419E+02  0.00000000000E+00 0. -1.
</event>
<event>
 7    1  0.2661133E-009  0.8630334E+02  0.7561462E-02  0.1312059E+00
          1   -1    0    0  501    0  0.00000000000E+00  0.00000000000E+00  0.16330182746E+03  0.16330182746E+03  0.00000000000E+00 0. -1.
         -1   -1    0    0    0  501 -0.00000000000E+00 -0.00000000000E+00 -0.88877830643E+02  0.88877830643E+02  0.00000000000E+00 0.  1.
         25    2    1    2    0    0 -0.46897478764E+02  0.24368286357E+02  0.48837284766E+02  0.14431020762E+03  0.12508864355E+03 0.  0.
          5    1    3    3  502    0 -0.27808750692E+02 -0.16551016482E+02  0.81919710771E+02  0.88179216227E+02  0.41800000000E+01 0. -1.
         -5    1    3    3    0  502 -0.19088728072E+02  0.40919302838E+02 -0.33082426005E+02  0.56130991391E+02  0.41800000000E+01 0. -1.
        -11    1    1    2    0    0 -0.72909799745E+01 -0.38049494795E+02  0.33758456045E+02  0.51386338629E+02  0.00000000000E+00 0. -1.
         11    1    1    2    0    0  0.54188458739E+02  0.13681208439E+02 -0.81717439948E+01  0.56483111854E+02  0.00000000000E+00 0.  1.
</event>
<event>
 7    1  0.2661133E-009  0.1121196E+03  0.7561462E-02  0.1256694E+00
         -2   -1    0    0    0  501 -0.00000000000E+00  0.00000000000E+00  0.43773653436E+02  0.43773653436E+02  0.00000000000E+00 0.  1.
          2   -1    0    0  501    0  0.00000000000E+00 -0.00000000000E+00 -0.30467339432E+03  0.30467339432E+03  0.00000000000E+00 0. -1.
         25    2    1    2    0    0  0.26204897695E+02  0.72487759647E+01 -0.17309635403E+03  0.21528652108E+03  0.12508675775E+03 0.  0.
          5    1    3    3  502    0 -0.28963793413E+02  0.49552019328E+02 -0.66360809095E+02  0.87838108655E+02  0.41800000000E+01 0.  1.
         -5    1    3    3    0  502  0.55168691109E+02 -0.42303243363E+02 -0.10673554493E+03  0.12744841242E+03  0.41800000000E+01 0.  1.
        -11    1    1    2    0    0  0.32344377594E+02 -0.18736329894E+02 -0.50370344042E+02  0.62724639327E+02  0.00000000000E+00 0.  1.
         11    1    1    2    0    0 -0.58549275289E+02  0.11487553930E+02 -0.37433042816E+02  0.70435887349E+02  0.00000000000E+00 0. -1.
</event>
<event>
 7    1  0.2661133E-009  0.9590135E+02  0.7561462E-02  0.1289159E+00
          1   -1    0    0  501    0  0.00000000000E+00  0.00000000000E+00  0.31851653619E+03  0.31851653619E+03  0.00000000000E+00 0. -1.
         -1   -1    0    0    0  501 -0.00000000000E+00 -0.00000000000E+00 -0.37764521343E+02  0.37764521343E+02  0.00000000000E+00 0.  1.
         25    2    1    2    0    0 -0.84810420706E+01 -0.39360216530E+02  0.16569007919E+03  0.21149457802E+03  0.12512233801E+03 0.  0.
          5    1    3    3  502    0  0.39990828965E+02  0.10582748794E+02  0.12277153210E+03  0.12962091832E+03  0.41800000000E+01 0. -1.
         -5    1    3    3    0  502 -0.48471871035E+02 -0.49942965324E+02  0.42918547097E+02  0.81873659695E+02  0.41800000000E+01 0. -1.
        -11    1    1    2    0    0  0.37303148286E+02  0.84685986372E+01  0.84149716673E+02  0.92436014903E+02  0.00000000000E+00 0. -1.
         11    1    1    2    0    0 -0.28822106216E+02  0.30891617892E+02  0.30912218974E+02  0.52350464608E+02  0.00000000000E+00 0.  1.
</event>
<event>
 7    1  0.2661133E-009  0.1620480E+03  0.7561462E-02  0.1186404E+00
          1   -1    0    0  501    0  0.00000000000E+00  0.00000000000E+00  0.37684440793E+03  0.37684440793E+03  0.00000000000E+00 0. -1.
         -1   -1    0    0    0  501 -0.00000000000E+00 -0.00000000000E+00 -0.78069962850E+02  0.78069962850E+02  0.00000000000E+00 0.  1.
         25    2    1    2    0    0  0.56145035617E+02  0.12129891492E+03  0.14489564412E+03  0.23347047927E+03  0.12509206698E+03 0.  0.
          5    1    3    3  502    0 -0.21469689934E+02  0.68002060542E+02  0.11354882492E+03  0.13414930438E+03  0.41800000000E+01 0.  1.
         -5    1    3    3    0  502  0.77614725551E+02  0.53296854376E+02  0.31346819202E+02  0.99321174896E+02  0.41800000000E+01 0.  1.
        -11    1    1    2    0    0 -0.78479604973E+02 -0.10332027730E+03  0.11681680685E+03  0.17458606606E+03  0.00000000000E+00 0.  1.
         11    1    1    2    0    0  0.22334569356E+02 -0.17978637614E+02  0.37061994104E+02  0.46857825449E+02  0.00000000000E+00 0. -1.
</event>
<event>
 7    1  0.2661133E-009  0.1035018E+03  0.7561462E-02  0.1273100E+00
         -2   -1    0    0    0  501 -0.00000000000E+00  0.00000000000E+00  0.22339684072E+03  0.22339684072E+03  0.00000000000E+00 0.  1.
          2   -1    0    0  501    0  0.00000000000E+00 -0.00000000000E+00 -0.54112012548E+02  0.54112012548E+02  0.00000000000E+00 0. -1.
         25    2    1    2    0    0 -0.20697431370E+02 -0.19309501366E+01  0.10302001560E+03  0.16337920767E+03  0.12509008614E+03 0.  0.
          5    1    3    3  502    0  0.39601172688E+02  0.27378027065E+02  0.11191727533E+02  0.49603794305E+02  0.41800000000E+01 0.  1.
         -5    1    3    3    0  502 -0.60298604059E+02 -0.29308977201E+02  0.91828288072E+02  0.11377541336E+03  0.41800000000E+01 0.  1.
        -11    1    1    2    0    0  0.33392668464E+02  0.39572914431E+02  0.27517810464E+02  0.58637153380E+02  0.00000000000E+00 0.  1.
         11    1    1    2    0    0 -0.12695237094E+02 -0.37641964295E+02  0.38747002103E+02  0.55492492220E+02  0.00000000000E+00 0. -1.
</event>
<event>
 7    1  0.2661133E-009  0.1185690E+03  0.7561462E-02  0.1245477E+00
          2   -1    0    0  501    0  0.00000000000E+00  0.00000000000E+00  0.11644175682E+04  0.11644175682E+04  0.00000000000E+00 0. -1.
         -2   -1    0    0    0  501 -0.00000000000E+00 -0.00000000000E+00 -0.16384064755E+02  0.16384064755E+02  0.00000000000E+00 0.  1.
         25    2    1    2    0    0  0.21802336168E+02 -0.54243001822E+02  0.89993667625E+03  0.91046787201E+03  0.12509228430E+03 0.  0.
          5    1    3    3  502    0  0.67675005415E+02 -0.85157733149E+01  0.58014871204E+03  0.58415958884E+03  0.41800000000E+01 0. -1.
         -5    1    3    3    0  502 -0.45872669247E+02 -0.45727228507E+02  0.31978796421E+03  0.32630828317E+03  0.41800000000E+01 0. -1.
        -11    1    1    2    0    0 -0.54405413129E+02  0.43207563554E+02  0.13100084332E+03  0.14828372627E+03  0.00000000000E+00 0. -1.
         11    1    1    2    0    0  0.32603076961E+02  0.11035438267E+02  0.11709598391E+03  0.12205003472E+03  0.00000000000E+00 0.  1.
</event>
<event>
 7    1  0.2661133E-009  0.1054934E+03  0.7561462E-02  0.1269151E+00
          2   -1    0    0  501    0  0.00000000000E+00  0.00000000000E+00  0.11936969188E+03  0.11936969188E+03  0.00000000000E+00 0. -1.
         -2   -1    0    0    0  501 -0.00000000000E+00 -0.00000000000E+00 -0.14553846188E+03  0.14553846188E+03  0.00000000000E+00 0.  1.
         25    2    1    2    0    0 -0.60474590757E+02  0.12190919762E+02  0.35615444533E+02  0.14395445031E+03  0.12509448118E+03 0.  0.
          5    1    3    3  502    0 -0.71606645970E+02  0.50711813246E+02 -0.33207209156E+01  0.87907333807E+02  0.41800000000E+01 0. -1.
         -5    1    3    3    0  502  0.11132055213E+02 -0.38520893483E+02  0.38936165448E+02  0.56047116499E+02  0.41800000000E+01 0. -1.
        -11    1    1    2    0    0 -0.56515584500E+01  0.11315091680E+02 -0.47734089067E+02  0.49381319055E+02  0.00000000000E+00 0.  1.
         11    1    1    2    0    0  0.66126149207E+02 -0.23506011442E+02 -0.14050125471E+02  0.71572384399E+02  0.00000000000E+00 0. -1.
</event>
<event>
 7    1  0.2708229E-009  0.8801255E+02  0.7561462E-02  0.1307737E+00
          2   -1    0    0  501    0  0.00000000000E+00  0.00000000000E+00  0.57979929619E+03  0.57979929619E+03  0.00000000000E+00 0. -1.
         -2   -1    0    0    0  501 -0.00000000000E+00 -0.00000000000E+00 -0.29010852304E+02  0.29010852304E+02  0.00000000000E+00 0.  1.
         25    2    1    2    0    0 -0.43909018568E+01 -0.65978227475E+02  0.35841239371E+03  0.38532984268E+03  0.12508891707E+03 0.  0.
          5    1    3    3  502    0 -0.27482145243E+02 -0.28094718185E+02  0.33026627053E+03  0.33262270419E+03  0.41800000000E+01 0.  1.
         -5    1    3    3    0  502  0.23091243386E+02 -0.37883509290E+02  0.28146123187E+02  0.52707138489E+02  0.41800000000E+01 0.  1.
        -11    1    1    2    0    0  0.34209286918E+02  0.35576751414E+02  0.35158921485E+02  0.60598104860E+02  0.00000000000E+00 0.  1.
         11    1    1    2    0    0 -0.29818385061E+02  0.30401476060E+02  0.15721712869E+03  0.16288220096E+03  0.00000000000E+00 0. -1.
</event>
<event>
 7    1  0.2661133E-009  0.1665262E+03  0.7561462E-02  0.1181520E+00
          3   -1    0    0  501    0  0.00000000000E+00  0.00000000000E+00  0.99552294692E+02  0.99552294692E+02  0.00000000000E+00 0.  1.
         -3   -1    0    0    0  501 -0.00000000000E+00 -0.00000000000E+00 -0.29902524308E+03  0.29902524308E+03  0.00000000000E+00 0. -1.
         25    2    1    2    0    0  0.13366333230E+02  0.13199969693E+03 -0.11980470287E+03  0.21821088419E+03  0.12514089777E+03 0.  0.
          5    1    3    3  502    0 -0.52352174262E+02  0.89396174379E+02 -0.74039875500E+02  0.12740408827E+03  0.41800000000E+01 0. -1.
         -5    1    3    3    0  502  0.65718507492E+02  0.42603522550E+02 -0.45764827369E+02  0.90806795918E+02  0.41800000000E+01 0. -1.
        -11    1    1    2    0    0 -0.23102020313E+02 -0.13772229422E+03 -0.89102544802E+02  0.16565143271E+03  0.00000000000E+00 0.  1.
         11    1    1    2    0    0  0.97356870827E+01  0.57225972919E+01  0.94342992790E+01  0.14715220883E+02  0.00000000000E+00 0. -1.
</event>
<event>
 7    1  0.2661133E-009  0.7283335E+02  0.7561462E-02  0.1350715E+00
          2   -1    0    0  501    0  0.00000000000E+00  0.00000000000E+00  0.75379748389E+03  0.75379748389E+03  0.00000000000E+00 0. -1.
         -2   -1    0    0    0  501 -0.00000000000E+00 -0.00000000000E+00 -0.19585856281E+02  0.19585856281E+02  0.00000000000E+00 0.  1.
         25    2    1    2    0    0  0.19643342444E+02  0.30021600399E+02  0.55100128783E+03  0.56615982018E+03  0.12508942960E+03 0.  0.
          5    1    3    3  502    0  0.33220404917E+02  0.50138567317E+02  0.11847818967E+03  0.13293616913E+03  0.41800000000E+01 0.  1.
         -5    1    3    3    0  502 -0.13577062472E+02 -0.20116966918E+02  0.43252309816E+03  0.43322365104E+03  0.41800000000E+01 0.  1.
        -11    1    1    2    0    0 -0.10978884675E+02  0.12912679308E+02 -0.18507025822E+01  0.17049876706E+02  0.00000000000E+00 0.  1.
         11    1    1    2    0    0 -0.86644577689E+01 -0.42934279708E+02  0.18506104236E+03  0.19017364329E+03  0.00000000000E+00 0. -1.
</event>
<event>
 7    1  0.2661133E-009  0.1043526E+03  0.7561462E-02  0.1271400E+00
         -2   -1    0    0    0  501 -0.00000000000E+00  0.00000000000E+00  0.89026792557E+02  0.89026792557E+02  0.00000000000E+00 0.  1.
          2   -1    0    0  501    0  0.00000000000E+00 -0.00000000000E+00 -0.27778609861E+03  0.27778609861E+03  0.00000000000E+00 0. -1.
         25    2    1    2    0    0 -0.27310210437E+02  0.12812140905E+02 -0.23033622098E+03  0.26384440218E+03  0.12509634415E+03 0.  0.
          5    1    3    3  502    0  0.10995268667E+02  0.62580576073E+02 -0.92283582010E+02  0.11212027624E+03  0.41800000000E+01 0. -1.
         -5    1    3    3    0  502 -0.38305479103E+02 -0.49768435168E+02 -0.13805263897E+03  0.15172412595E+03  0.41800000000E+01 0. -1.
        -11    1    1    2    0    0  0.49641375674E+02  0.94742533908E+01 -0.29865586871E+00  0.50538271156E+02  0.00000000000E+00 0. -1.
         11    1    1    2    0    0 -0.22331165237E+02 -0.22286394296E+02  0.41875570797E+02  0.52430217825E+02  0.00000000000E+00 0.  1.
</event>
<event>
 7    1  0.2661133E-009  0.1486415E+03  0.7561462E-02  0.1202152E+00
          1   -1    0    0  501    0  0.00000000000E+00  0.00000000000E+00  0.85089165076E+02  0.85089165076E+02  0.00000000000E+00 0. -1.
         -1   -1    0    0    0  501 -0.00000000000E+00 -0.00000000000E+00 -0.32000713806E+03  0.32000713806E+03  0.00000000000E+00 0.  1.
         25    2    1    2    0    0 -0.12051151165E+03  0.21344547098E+02 -0.96364375277E+02  0.19978093496E+03  0.12509082708E+03 0.  0.
          5    1    3    3  502    0 -0.54824387543E+02 -0.32098970736E+02  0.92600480310E+01  0.64337223139E+02  0.41800000000E+01 0.  1.
         -5    1    3    3    0  502 -0.65687124107E+02  0.53443517834E+02 -0.10562442331E+03  0.13544371182E+03  0.41800000000E+01 0.  1.
        -11    1    1    2    0    0  0.60580718520E+02 -0.53496497145E+02 -0.94204415876E+02  0.12412240182E+03  0.00000000000E+00 0.  1.
         11    1    1    2    0    0  0.59930793130E+02  0.32151950047E+02 -0.44349181834E+02  0.81192966360E+02  0.00000000000E+00 0. -1.
</event>
<event>
 7    1  0.2661133E-009  0.9322579E+02  0.7561462E-02  0.1295223E+00
          2   -1    0    0  501    0  0.00000000000E+00  0.00000000000E+00  0.26729459958E+03  0.26729459958E+03  0.00000000000E+00 0. -1.
         -2   -1    0    0    0  501 -0.00000000000E+00 -0.00000000000E+00 -0.67635946118E+02  0.67635946118E+02  0.00000000000E+00 0.  1.
         25    2    1    2    0    0  0.60330972455E+02 -0.23927942198E+02  0.17852115927E+03  0.22744113923E+03  0.12508914762E+03 0.  0.
          5    1    3    3  502    0 -0.29137774142E+02 -0.66289848481E+01  0.38942509140E+01  0.30423525638E+02  0.41800000000E+01 0.  1.
         -5    1    3    3    0  502  0.89468746597E+02 -0.17298957350E+02  0.17462690836E+03  0.19701761359E+03  0.41800000000E+01 0.  1.
        -11    1    1    2    0    0 -0.13296352331E+02  0.33139838484E+01  0.47730645854E+02  0.49658735665E+02  0.00000000000E+00 0. -1.
         11    1    1    2    0    0 -0.47034620125E+02  0.20613958349E+02 -0.26593151670E+02  0.57830670797E+02  0.00000000000E+00 0.  1.
</event>
<event>
 7    1  0.2661133E-009  0.1304016E+03  0.7561462E-02  0.1226861E+00
         -3   -1    0    0    0  501 -0.00000000000E+00  0.00000000000E+00  0.22650234262E+03  0.22650234262E+03  0.00000000000E+00 0.  1.
          3   -1    0    0  501    0  0.00000000000E+00 -0.00000000000E+00 -0.91204571951E+02  0.91204571951E+02  0.00000000000E+00 0. -1.
         25    2    1    2    0    0 -0.74337488931E+02  0.47277047476E+02  0.11268452430E+03  0.19001701727E+03  0.12508990109E+03 0.  0.
          5    1    3    3  502    0 -0.22313320427E+02 -0.36134233274E+02  0.31670769096E+01  0.42791002079E+02  0.41800000000E+01 0. -1.
         -5    1    3    3    0  502 -0.52024168503E+02  0.83411280749E+02  0.10951744739E+03  0.14722601519E+03  0.41800000000E+01 0. -1.
        -11    1    1    2    0    0  0.51538175643E+01 -0.50225211236E+02  0.28871934383E+02  0.58161174973E+02  0.00000000000E+00 0.  1.
         11    1    1    2    0    0  0.69183671367E+02  0.29481637603E+01 -0.62586880162E+01  0.69528722331E+02  0.00000000000E+00 0. -1.
</event>
<event>
 7    1  0.2661133E-009  0.1652813E+03  0.7561462E-02  0.1182860E+00
          2   -1    0    0  501    0  0.00000000000E+00  0.00000000000E+00  0.13922257109E+04  0.13922257109E+04  0.00000000000E+00 0.  1.
         -2   -1    0    0    0  501 -0.00000000000E+00 -0.00000000000E+00 -0.21680862385E+02  0.21680862385E+02  0.00000000000E+00 0. -1.
         25    2    1    2    0    0 -0.12412253289E+03 -0.16234870361E+02  0.51682639698E+03  0.54628660073E+03  0.12509816677E+03 0.  0.
          5    1    3    3  502    0 -0.14314726084E+03  0.96164273739E+01  0.44312731354E+03  0.46579276762E+03  0.41800000000E+01 0. -1.
         -5    1    3    3    0  502  0.19024727949E+02 -0.25851297734E+02  0.73699083444E+02  0.80493833109E+02  0.41800000000E+01 0. -1.
        -11    1    1    2    0    0  0.23115674132E+02  0.44180362256E+02  0.28287792919E+03  0.28723885813E+03  0.00000000000E+00 0. -1.
         11    1    1    2    0    0  0.10100685876E+03 -0.27945491896E+02  0.57084052233E+03  0.58038111441E+03  0.00000000000E+00 0.  1.
</event>
<event>
 7    1  0.2661133E-009  0.1006247E+03  0.7561462E-02  0.1278988E+00
         -2   -1    0    0    0  501 -0.00000000000E+00  0.00000000000E+00  0.13071060309E+03  0.13071060309E+03  0.00000000000E+00 0.  1.
          2   -1    0    0  501    0  0.00000000000E+00 -0.00000000000E+00 -0.10797248103E+03  0.10797248103E+03  0.00000000000E+00 0. -1.
         25    2    1    2    0    0  0.33613991806E+02  0.40115256738E+01  0.56034867158E+02  0.14118933991E+03  0.12509408693E+03 0.  0.
          5    1    3    3  502    0 -0.26995106128E+02 -0.33395080917E+02  0.54913409474E+02  0.69834963481E+02  0.41800000000E+01 0.  1.
         -5    1    3    3    0  502  0.60609097934E+02  0.37406606591E+02  0.11214576846E+01  0.71354376434E+02  0.41800000000E+01 0.  1.
        -11    1    1    2    0    0 -0.14939220579E+02 -0.41919109383E+02 -0.32713285705E+02  0.55231794327E+02  0.00000000000E+00 0. -1.
         11    1    1    2    0    0 -0.18674771227E+02  0.37907583709E+02 -0.58345939023E+00  0.42261949883E+02  0.00000000000E+00 0.  1.
</event>
<event>
 7    1  0.2661133E-009  0.1185402E+03  0.7561462E-02  0.1245525E+00
          2   -1    0    0  501    0  0.00000000000E+00  0.00000000000E+00  0.39452321555E+03  0.39452321555E+03  0.00000000000E+00 0. -1.
         -2   -1    0    0    0  501 -0.00000000000E+00 -0.00000000000E+00 -0.39402375296E+02  0.39402375296E+02  0.00000000000E+00 0.  1.
         25    2    1    2    0    0  0.88826538992E+01 -0.51103605342E+02  0.25404613821E+03  0.28788600153E+03  0.12509368296E+03 0.  0.
          5    1    3    3  502    0  0.35721361051E+02 -0.83802014516E+02  0.19344372825E+03  0.21386150114E+03  0.41800000000E+01 0.  1.
         -5    1    3    3    0  502 -0.26838707152E+02  0.32698409174E+02  0.60602409968E+02  0.74024500390E+02  0.41800000000E+01 0.  1.
        -11    1    1    2    0    0  0.32167104453E+02  0.53316904281E+02  0.46506148308E+02  0.77718959858E+02  0.00000000000E+00 0.  1.
         11    1    1    2    0    0 -0.41049758352E+02 -0.22132989397E+01  0.54568553735E+02  0.68320629459E+02  0.00000000000E+00 0. -1.
</event>
<event>
 7    1  0.2661133E-009  0.1225440E+03  0.7561462E-02  0.1238958E+00
         -2   -1    0    0    0  501 -0.00000000000E+00  0.00000000000E+00  0.24052032118E+02  0.24052032118E+02  0.00000000000E+00 0.  1.
          2   -1    0    0  501    0  0.00000000000E+00 -0.00000000000E+00 -0.62462246684E+03  0.62462246684E+03  0.00000000000E+00 0. -1.
         25    2    1    2    0    0  0.38676587119E+02 -0.15475562570E+02 -0.31671572413E+03  0.34306166718E+03  0.12508831339E+03 0.  0.
          5    1    3    3  502    0 -0.32494330588E+02  0.32310920212E+02 -0.11103803267E+03  0.12019481763E+03  0.41800000000E+01 0. -1.
         -5    1    3    3    0  502  0.71170917707E+02 -0.47786482783E+02 -0.20567769146E+03  0.22286684955E+03  0.41800000000E+01 0. -1.
        -11    1    1    2    0    0 -0.39244941563E+02  0.58376197301E+02 -0.17497471392E+03  0.18858445419E+03  0.00000000000E+00 0. -1.
         11    1    1    2    0    0  0.56835444411E+00 -0.42900634731E+02 -0.10887999667E+03  0.11702837760E+03  0.00000000000E+00 0.  1.
</event>
<event>
 7    1  0.2661133E-009  0.4402277E+03  0.7561462E-02  0.1030677E+00
          2   -1    0    0  501    0  0.00000000000E+00  0.00000000000E+00  0.67494842779E+03  0.67494842779E+03  0.00000000000E+00 0. -1.
         -2   -1    0    0    0  501 -0.00000000000E+00 -0.00000000000E+00 -0.30571954823E+03  0.30571954823E+03  0.00000000000E+00 0.  1.
         25    2    1    2    0    0  0.31368755579E+03 -0.30243979888E+03  0.25866585980E+03  0.52194354473E+03  0.12508925718E+03 0.  0.
          5    1    3    3  502    0  0.16222151411E+03 -0.13558232488E+03  0.19521322047E+03  0.28779169603E+03  0.41800000000E+01 0. -1.
         -5    1    3    3    0  502  0.15146604168E+03 -0.16685747400E+03  0.63452639328E+02  0.23415184870E+03  0.41800000000E+01 0. -1.
        -11    1    1    2    0    0 -0.21769988465E+03  0.15335655260E+03  0.47271437685E+02  0.27045528433E+03  0.00000000000E+00 0.  1.
         11    1    1    2    0    0 -0.95987671144E+02  0.14908324628E+03  0.63291582080E+02  0.18826914696E+03  0.00000000000E+00 0. -1.
</event>
<event>
 7    1  0.2661133E-009  0.9893677E+02  0.7561462E-02  0.1282548E+00
          2   -1    0    0  501    0  0.00000000000E+00  0.00000000000E+00  0.40746200958E+03  0.40746200958E+03  0.00000000000E+00 0. -1.
         -2   -1    0    0    0  501 -0.00000000000E+00 -0.00000000000E+00 -0.30198338269E+02  0.30198338269E+02  0.00000000000E+00 0.  1.
         25    2    1    2    0    0 -0.33590157737E+01 -0.21753701471E+02  0.24139518105E+03  0.27276897564E+03  0.12508706617E+03 0.  0.
          5    1    3    3  502    0 -0.13138302620E+02 -0.72397007767E+02  0.16230916941E+03  0.17825734376E+03  0.41800000000E+01 0. -1.
         -5    1    3    3    0  502  0.97792868467E+01  0.50643306297E+02  0.79086011645E+02  0.94511631887E+02  0.41800000000E+01 0. -1.
        -11    1    1    2    0    0  0.33334814383E+02 -0.31132504806E+01  0.12860902931E+02  0.35865094489E+02  0.00000000000E+00 0.  1.
         11    1    1    2    0    0 -0.29975798609E+02  0.24866951951E+02  0.12300758733E+03  0.12902627772E+03  0.00000000000E+00 0. -1.
</event>
<event>
 7    1  0.2661133E-009  0.1094434E+03  0.7561462E-02  0.1261604E+00
          2   -1    0    0  501    0  0.00000000000E+00  0.00000000000E+00  0.49749592203E+03  0.49749592203E+03  0.00000000000E+00 0. -1.
         -2   -1    0    0    0  501 -0.00000000000E+00 -0.00000000000E+00 -0.29856367868E+02  0.29856367868E+02  0.00000000000E+00 0.  1.
         25    2    1    2    0    0  0.31368620391E+02 -0.37221464810E+02  0.31573430764E+03  0.34308233526E+03  0.12509159825E+03 0.  0.
          5    1    3    3  502    0 -0.12723050657E+02  0.39364274923E+02  0.64642342862E+02  0.76860438776E+02  0.41800000000E+01 0.  1.
         -5    1    3    3    0  502  0.44091671048E+02 -0.76585739733E+02  0.25109196478E+03  0.26622189648E+03  0.41800000000E+01 0.  1.
        -11    1    1    2    0    0 -0.16568940815E+02 -0.22142772711E+02  0.10088469895E+03  0.10460666645E+03  0.00000000000E+00 0. -1.
         11    1    1    2    0    0 -0.14799679576E+02  0.59364237521E+02  0.51020547570E+02  0.79663288197E+02  0.00000000000E+00 0.  1.
</event>
<event>
 7    1  0.2661133E-009  0.1079964E+03  0.7561462E-02  0.1264326E+00
          1   -1    0    0  501    0  0.00000000000E+00  0.00000000000E+00  0.73590311916E+03  0.73590311916E+03  0.00000000000E+00 0. -1.
         -1   -1    0    0    0  501 -0.00000000000E+00 -0.00000000000E+00 -0.20160441869E+02  0.20160441869E+02  0.00000000000E+00 0.  1.
         25    2    1    2    0    0  0.23208821694E+01  0.39283019032E+02  0.50682719514E+03  0.52351688158E+03  0.12509027736E+03 0.  0.
          5    1    3    3  502    0  0.17260327932E+01  0.81368818096E+02  0.40733243152E+03  0.41540467729E+03  0.41800000000E+01 0. -1.
         -5    1    3    3    0  502  0.59484937620E+00 -0.42085799064E+02  0.99494763615E+02  0.10811220429E+03  0.41800000000E+01 0. -1.
        -11    1    1    2    0    0 -0.36615992356E+02  0.41614925807E+01  0.38180748147E+02  0.53064285973E+02  0.00000000000E+00 0.  1.
         11    1    1    2    0    0  0.34295110187E+02 -0.43444511613E+02  0.17073473401E+03  0.17948239348E+03  0.00000000000E+00 0. -1.
</event>
<event>
 7    1  0.2661133E-009  0.1429790E+03  0.7561462E-02  0.1209376E+00
         -1   -1    0    0    0  501 -0.00000000000E+00  0.00000000000E+00  0.23841961821E+03  0.23841961821E+03  0.00000000000E+00 0.  1.
          1   -1    0    0  501    0  0.00000000000E+00 -0.00000000000E+00 -0.14672849338E+03  0.14672849338E+03  0.00000000000E+00 0. -1.
         25    2    1    2    0    0  0.13100935817E+03 -0.45611499097E+02 -0.17062358106E+02  0.18757466206E+03  0.12509703836E+03 0.  0.
          5    1    3    3  502    0  0.53655782186E+01  0.36967104130E+01 -0.48345145883E+02  0.48961011305E+02  0.41800000000E+01 0.  1.
         -5    1    3    3    0  502  0.12564377995E+03 -0.49308209510E+02  0.31282787777E+02  0.13861365076E+03  0.41800000000E+01 0.  1.
        -11    1    1    2    0    0 -0.94250410171E+01 -0.59147738456E+01 -0.13585545165E+02  0.17560836690E+02  0.00000000000E+00 0. -1.
         11    1    1    2    0    0 -0.12158431715E+03  0.51526272943E+02  0.12233902810E+03  0.18001261283E+03  0.00000000000E+00 0.  1.
</event>
<event>
 7    1  0.2661133E-009  0.2109988E+03  0.7561462E-02  0.1140778E+00
         -1   -1    0    0    0  501 -0.00000000000E+00  0.00000000000E+00  0.34605898046E+03  0.34605898046E+03  0.00000000000E+00 0.  1.
          1   -1    0    0  501    0  0.00000000000E+00 -0.00000000000E+00 -0.17165756727E+03  0.17165756727E+03  0.00000000000E+00 0. -1.
         25    2    1    2    0    0 -0.13906991468E+03  0.15742443604E+03  0.29246494466E+02  0.24621943635E+03  0.12508300910E+03 0.  0.
          5    1    3    3  502    0 -0.35865320253E+02  0.59570344473E+02  0.69451573948E+02  0.98366359399E+02  0.41800000000E+01 0.  1.
         -5    1    3    3    0  502 -0.10320459443E+03  0.97854091571E+02 -0.40205079482E+02  0.14785307695E+03  0.41800000000E+01 0.  1.
        -11    1    1    2    0    0  0.81146192687E+02 -0.91170232247E+02  0.13643659361E+03  0.18306190186E+03  0.00000000000E+00 0.  1.
         11    1    1    2    0    0  0.57923721994E+02 -0.66254203797E+02  0.87183251083E+01  0.88435209521E+02  0.00000000000E+00 0. -1.
</event>
<event>
 7    1  0.2661133E-009  0.8491058E+02  0.7561462E-02  0.1315667E+00
          1   -1    0    0  501    0  0.00000000000E+00  0.00000000000E+00  0.23228393565E+03  0.23228393565E+03  0.00000000000E+00 0. -1.
         -1   -1    0    0    0  501 -0.00000000000E+00 -0.00000000000E+00 -0.74376620601E+02  0.74376620601E+02  0.00000000000E+00 0.  1.
         25    2    1    2    0    0  0.33091520877E+02  0.64729108854E+02  0.10303697614E+03  0.17761816757E+03  0.12508672476E+03 0.  0.
          5    1    3    3  502    0  0.49101870299E+02  0.59681808233E+02  0.12660118910E+03  0.14838546217E+03  0.41800000000E+01 0. -1.
         -5    1    3    3    0  502 -0.16010349422E+02  0.50473006206E+01 -0.23564212965E+02  0.29232705397E+02  0.41800000000E+01 0. -1.
        -11    1    1    2    0    0 -0.74981608929E+01 -0.35456531941E+02 -0.22354714887E+02  0.42580762696E+02  0.00000000000E+00 0.  1.
         11    1    1    2    0    0 -0.25593359984E+02 -0.29272576913E+02  0.77225053803E+02  0.86461625993E+02  0.00000000000E+00 0. -1.
</event>
<event>
 7    1  0.2661133E-009  0.1200762E+03  0.7561462E-02  0.1242971E+00
          2   -1    0    0  501    0  0.00000000000E+00  0.00000000000E+00  0.30479379507E+03  0.30479379507E+03  0.00000000000E+00 0.  1.
         -2   -1    0    0    0  501 -0.00000000000E+00 -0.00000000000E+00 -0.75167485343E+02  0.75167485343E+02  0.00000000000E+00 0. -1.
         25    2    1    2    0    0  0.34006304597E+02 -0.77651944692E+02  0.20084813044E+03  0.25134649930E+03  0.12509531543E+03 0.  0.
          5    1    3    3  502    0 -0.20034854204E+01 -0.91703485232E+02  0.71774674475E+02  0.11654449560E+03  0.41800000000E+01 0.  1.
         -5    1    3    3    0  502  0.36009790018E+02  0.14051540539E+02  0.12907345596E+03  0.13480200370E+03  0.41800000000E+01 0.  1.
        -11    1    1    2    0    0  0.20712229157E+02  0.32358826007E+02  0.41388208532E+02  0.56471885595E+02  0.00000000000E+00 0.  1.
         11    1    1    2    0    0 -0.54718533755E+02  0.45293118686E+02 -0.12610029241E+02  0.72142895520E+02  0.00000000000E+00 0. -1.
</event>
<event>
 7    1  0.2661133E-009  0.1419888E+03  0.7561462E-02  0.1210678E+00
         -1   -1    0    0    0  501 -0.00000000000E+00  0.00000000000E+00  0.13399552225E+03  0.13399552225E+03  0.00000000000E+00 0.  1.
          1   -1    0    0  501    0  0.00000000000E+00 -0.00000000000E+00 -0.21552486791E+03  0.21552486791E+03  0.00000000000E+00 0. -1.
         25    2    1    2    0    0  0.11133505952E+03  0.69403338697E+02 -0.39298516043E+02  0.18548481447E+03  0.12509166294E+03 0.  0.
          5    1    3    3  502    0  0.35430629526E+02  0.99390718923E+01 -0.74139271671E+02  0.82874716667E+02  0.41800000000E+01 0.  1.
         -5    1    3    3    0  502  0.75904429990E+02  0.59464266805E+02  0.34840755628E+02  0.10261009780E+03  0.41800000000E+01 0.  1.
        -11    1    1    2    0    0 -0.83588108929E+02 -0.91425145484E+01 -0.49044928505E+02  0.97344555773E+02  0.00000000000E+00 0. -1.
         11    1    1    2    0    0 -0.27746950588E+02 -0.60260824149E+02  0.68140988795E+01  0.66691019917E+02  0.00000000000E+00 0.  1.
</event>
<event>
 7    1  0.2748621E-009  0.1397802E+03  0.7561462E-02  0.1213625E+00
         -2   -1    0    0    0  501 -0.00000000000E+00  0.00000000000E+00  0.28061957955E+02  0.28061957955E+02  0.00000000000E+00 0. -1.
          2   -1    0    0  501    0  0.00000000000E+00 -0.00000000000E+00 -0.10435116904E+04  0.10435116904E+04  0.00000000000E+00 0.  1.
         25    2    1    2    0    0  0.11184918047E+03  0.59534726249E+02 -0.65718784181E+03  0.68087829730E+03  0.12507906903E+03 0.  0.
          5    1    3    3  502    0  0.20532042443E+02 -0.21977628602E+02 -0.33232936206E+02  0.45016456710E+02  0.41800000000E+01 0.  1.
         -5    1    3    3    0  502  0.91317138022E+02  0.81512354851E+02 -0.62395490560E+03  0.63586184059E+03  0.41800000000E+01 0.  1.
        -11    1    1    2    0    0 -0.44084220145E+02 -0.24412412923E+02 -0.26704311064E+03  0.27175615413E+03  0.00000000000E+00 0.  1.
         11    1    1    2    0    0 -0.67764960320E+02 -0.35122313326E+02 -0.91218779998E+02  0.11893919692E+03  0.00000000000E+00 0. -1.
</event>
<event>
 7    1  0.2661133E-009  0.1308665E+03  0.7561462E-02  0.1226176E+00
         -1   -1    0    0    0  501 -0.00000000000E+00  0.00000000000E+00  0.27406872976E+02  0.27406872976E+02  0.00000000000E+00 0.  1.
          1   -1    0    0  501    0  0.00000000000E+00 -0.00000000000E+00 -0.13331984493E+04  0.13331984493E+04  0.00000000000E+00 0. -1.
         25    2    1    2    0    0  0.10385336351E+03  0.45635403387E+02 -0.10777930815E+04  0.10909479287E+04  0.12514529678E+03 0.  0.
          5    1    3    3  502    0  0.94937471184E+02 -0.33455408455E+01 -0.93187310159E+03  0.93671194396E+03  0.41800000000E+01 0. -1.
         -5    1    3    3    0  502  0.89158923266E+01  0.48980944233E+02 -0.14591997994E+03  0.15423598471E+03  0.41800000000E+01 0. -1.
        -11    1    1    2    0    0 -0.82754459645E+02 -0.23329344374E+02 -0.76522889177E+02  0.11510130958E+03  0.00000000000E+00 0. -1.
         11    1    1    2    0    0 -0.21098903865E+02 -0.22306059013E+02 -0.15147560565E+03  0.15455608406E+03  0.00000000000E+00 0.  1.
</event>
<event>
 7    1  0.2661133E-009  0.1234681E+03  0.7561462E-02  0.1237483E+00
          2   -1    0    0  501    0  0.00000000000E+00  0.00000000000E+00  0.97166257500E+02  0.97166257500E+02  0.00000000000E+00 0. -1.
         -2   -1    0    0    0  501 -0.00000000000E+00 -0.00000000000E+00 -0.19078959531E+03  0.19078959531E+03  0.00000000000E+00 0.  1.
         25    2    1    2    0    0 -0.52740242440E+02 -0.62112579667E+02 -0.42752612354E+02  0.15528558385E+03  0.12508525478E+03 0.  0.
          5    1    3    3  502    0  0.43021157147E+01  0.31616422823E+02 -0.31293957923E+02  0.44887532726E+02  0.41800000000E+01 0. -1.
         -5    1    3    3    0  502 -0.57042358155E+02 -0.93729002490E+02 -0.11458654431E+02  0.11039805113E+03  0.41800000000E+01 0. -1.
        -11    1    1    2    0    0  0.22129343506E+02  0.69940719995E+02 -0.65043509906E+02  0.98041166550E+02  0.00000000000E+00 0.  1.
         11    1    1    2    0    0  0.30610898935E+02 -0.78281403284E+01  0.14172784449E+02  0.34629102409E+02  0.00000000000E+00 0. -1.
</event>
<event>
 7    1  0.2661133E-009  0.1597671E+03  0.7561462E-02  0.1188960E+00
          2   -1    0    0  501    0  0.00000000000E+00  0.00000000000E+00  0.24137090350E+03  0.24137090350E+03  0.00000000000E+00 0.  1.
         -2   -1    0    0    0  501 -0.00000000000E+00 -0.00000000000E+00 -0.10805313607E+03  0.10805313607E+03  0.00000000000E+00 0. -1.
         25    2    1    2    0    0 -0.54076965957E+02 -0.10426935696E+03  0.94647817231E+02  0.19596317106E+03  0.12508772145E+03 0.  0.
          5    1    3    3  502    0  0.27372491809E+02  0.11027155419E+02  0.22709579555E+02  0.37470640081E+02  0.41800000000E+01 0.  1.
         -5    1    3    3    0  502 -0.81449457766E+02 -0.11529651238E+03  0.71938237676E+02  0.15849253098E+03  0.41800000000E+01 0.  1.
        -11    1    1    2    0    0  0.45106637036E+02  0.12806779458E+01  0.12353868735E+02  0.46785327972E+02  0.00000000000E+00 0.  1.
         11    1    1    2    0    0  0.89703289205E+01  0.10298867901E+03  0.26316081466E+02  0.10667554054E+03  0.00000000000E+00 0. -1.
</event>
<event>
 7    1  0.2661133E-009  0.1158662E+03  0.7561462E-02  0.1250077E+00
         -1   -1    0    0    0  501 -0.00000000000E+00  0.00000000000E+00  0.84082116444E+03  0.84082116444E+03  0.00000000000E+00 0.  1.
          1   -1    0    0  501    0  0.00000000000E+00 -0.00000000000E+00 -0.23035725623E+02  0.23035725623E+02  0.00000000000E+00 0. -1.
         25    2    1    2    0    0 -0.85530414450E+02  0.45096497746E+01  0.40495996657E+03  0.43240701123E+03  0.12508980813E+03 0.  0.
          5    1    3    3  502    0 -0.28508168299E+02  0.32904337222E+02  0.32432898436E+02  0.54449760042E+02  0.41800000000E+01 0. -1.
         -5    1    3    3    0  502 -0.57022246151E+02 -0.28394687447E+02  0.37252706814E+03  0.37795725119E+03  0.41800000000E+01 0. -1.
        -11    1    1    2    0    0  0.90966512523E+02 -0.31774816339E+02  0.29282904693E+03  0.30827487098E+03  0.00000000000E+00 0.  1.
         11    1    1    2    0    0 -0.54360980733E+01  0.27265166564E+02  0.11999642532E+03  0.12317500785E+03  0.00000000000E+00 0. -1.
</event>
<event>
 7    1  0.2661133E-009  0.1039253E+03  0.7561462E-02  0.1272252E+00
         -1   -1    0    0    0  501 -0.00000000000E+00  0.00000000000E+00  0.22605500596E+02  0.22605500596E+02  0.00000000000E+00 0.  1.
          1   -1    0    0  501    0  0.00000000000E+00 -0.00000000000E+00 -0.60421888087E+03  0.60421888087E+03  0.00000000000E+00 0. -1.
         25    2    1    2    0    0  0.94916536810E+01 -0.40056266004E+02 -0.29139264433E+03  0.31976896417E+03  0.12509165175E+03 0.  0.
          5    1    3    3  502    0 -0.38524766761E+02 -0.59737842142E+02 -0.10985428594E+03  0.13091296337E+03  0.41800000000E+01 0.  1.
         -5    1    3    3    0  502  0.48016420442E+02  0.19681576137E+02 -0.18153835839E+03  0.18885600080E+03  0.41800000000E+01 0.  1.
        -11    1    1    2    0    0  0.28497257988E+02  0.36673844817E+02 -0.23742437695E+03  0.24192436705E+03  0.00000000000E+00 0. -1.
         11    1    1    2    0    0 -0.37988911669E+02  0.33824211875E+01 -0.52796359003E+02  0.65131050252E+02  0.00000000000E+00 0.  1.
</event>
<event>
 7    1  0.2661133E-009  0.1470038E+03  0.7561462E-02  0.1204204E+00
          1   -1    0    0  501    0  0.00000000000E+00  0.00000000000E+00  0.14307597467E+03  0.14307597467E+03  0.00000000000E+00 0. -1.
         -1   -1    0    0    0  501 -0.00000000000E+00 -0.00000000000E+00 -0.16743335639E+03  0.16743335639E+03  0.00000000000E+00 0.  1.
         25    2    1    2    0    0  0.82091364807E+02  0.73735269510E+02 -0.25740074463E+02  0.16877855056E+03  0.12509102906E+03 0.  0.
          5    1    3    3  502    0  0.57787217368E+02 -0.16424470572E+02  0.21631254633E+02  0.63988352859E+02  0.41800000000E+01 0.  1.
         -5    1    3    3    0  502  0.24304147439E+02  0.90159740082E+02 -0.47371329096E+02  0.10479019770E+03  0.41800000000E+01 0.  1.
        -11    1    1    2    0    0 -0.46756478040E+02 -0.89996464150E+02  0.99399745619E+01  0.10190355682E+03  0.00000000000E+00 0. -1.
         11    1    1    2    0    0 -0.35334886767E+02  0.16261194640E+02 -0.85572818177E+01  0.39827223680E+02  0.00000000000E+00 0.  1.
</event>
<event>
 7    1  0.2661133E-009  0.8920705E+02  0.7561462E-02  0.1304783E+00
          2   -1    0    0  501    0  0.00000000000E+00  0.00000000000E+00  0.39614616924E+03  0.39614616924E+03  0.00000000000E+00 0. -1.
         -2   -1    0    0    0  501 -0.00000000000E+00 -0.00000000000E+00 -0.32879546790E+02  0.32879546790E+02  0.00000000000E+00 0.  1.
         25    2    1    2    0    0  0.24957047263E+02  0.86167600151E+01  0.25511257514E+03  0.28535329414E+03  0.12508786400E+03 0.  0.
          5    1    3    3  502    0 -0.19874550065E+02 -0.21598504604E+02  0.57966074440E+01  0.30208710653E+02  0.41800000000E+01 0. -1.
         -5    1    3    3    0  502  0.44831597328E+02  0.30215264620E+02  0.24931596769E+03  0.25514458348E+03  0.41800000000E+01 0. -1.
        -11    1    1    2    0    0  0.23003073823E+02  0.26506605460E+02  0.41993630747E+02  0.54728480352E+02  0.00000000000E+00 0. -1.
         11    1    1    2    0    0 -0.47960121086E+02 -0.35123365475E+02  0.66160416570E+02  0.88943941545E+02  0.00000000000E+00 0.  1.
</event>
<event>
 7    1  0.2661133E-009  0.8337523E+02  0.7561462E-02  0.1319737E+00
          2   -1    0    0  501    0  0.00000000000E+00  0.00000000000E+00  0.40577055068E+02  0.40577055068E+02  0.00000000000E+00 0. -1.
         -2   -1    0    0    0  501 -0.00000000000E+00 -0.00000000000E+00 -0.48472839421E+03  0.48472839421E+03  0.00000000000E+00 0.  1.
         25    2    1    2    0    0 -0.39974364858E+02  0.14955807318E+02 -0.38996148275E+03  0.41175272648E+03  0.12509485889E+03 0.  0.
          5    1    3    3  502    0 -0.29568486839E+02 -0.28729809920E+02 -0.34699511956E+03  0.34946070278E+03  0.41800000000E+01 0. -1.
         -5    1    3    3    0  502 -0.10405878018E+02  0.43685617239E+02 -0.42966363193E+02  0.62292023702E+02  0.41800000000E+01 0. -1.
        -11    1    1    2    0    0  0.84623393212E+01 -0.39418741137E+02 -0.60963384470E+02  0.73088867728E+02  0.00000000000E+00 0.  1.
         11    1    1    2    0    0  0.31512025536E+02  0.24462933819E+02  0.67735280770E+01  0.40463855069E+02  0.00000000000E+00 0. -1.
</event>
<event>
 7    1  0.2661133E-009  0.1056639E+03  0.7561462E-02  0.1268817E+00
         -4   -1    0    0    0  501 -0.00000000000E+00  0.00000000000E+00  0.13906474688E+03  0.13906474688E+03  0.00000000000E+00 0.  1.
          4   -1    0    0  501    0  0.00000000000E+00 -0.00000000000E+00 -0.10389602428E+03  0.10389602428E+03  0.00000000000E+00 0. -1.
         25    2    1    2    0    0 -0.17877926006E+02 -0.38144466727E+02  0.57584681999E+02  0.14401643093E+03  0.12510042445E+03 0.  0.
          5    1    3    3  502    0  0.41583855400E+02 -0.39730502817E+02 -0.46174879990E+01  0.57849144154E+02  0.41800000000E+01 0.  1.
         -5    1    3    3    0  502 -0.59461781405E+02  0.15860360899E+01  0.62202169998E+02  0.86167286779E+02  0.41800000000E+01 0.  1.
        -11    1    1    2    0    0  0.51853368944E+02  0.20597382507E+02 -0.25499903860E+01  0.55852721402E+02  0.00000000000E+00 0.  1.
         11    1    1    2    0    0 -0.33975442939E+02  0.17547084220E+02 -0.19865969012E+02  0.43091618817E+02  0.00000000000E+00 0. -1.
</event>
<event>
 7    1  0.2661133E-009  0.1281367E+03  0.7561462E-02  0.1230247E+00
          2   -1    0    0  501    0  0.00000000000E+00  0.00000000000E+00  0.15810315680E+03  0.15810315680E+03  0.00000000000E+00 0. -1.
         -2   -1    0    0    0  501 -0.00000000000E+00 -0.00000000000E+00 -0.17552858361E+03  0.17552858361E+03  0.00000000000E+00 0.  1.
         25    2    1    2    0    0  0.85849723471E+02 -0.60467790650E+02 -0.78527905415E+02  0.18124836192E+03  0.12513116336E+03 0.  0.
          5    1    3    3  502    0  0.31783129688E+02  0.49805031794E+01 -0.89826943940E+02  0.95505628118E+02  0.41800000000E+01 0. -1.
         -5    1    3    3    0  502  0.54066593783E+02 -0.65448293829E+02  0.11299038525E+02  0.85742733804E+02  0.41800000000E+01 0. -1.
        -11    1    1    2    0    0 -0.35515669761E+02 -0.22321369676E+02  0.25888395724E+02  0.49293157497E+02  0.00000000000E+00 0. -1.
         11    1    1    2    0    0 -0.50334053710E+02  0.82789160326E+02  0.35214082886E+02  0.10309022099E+03  0.00000000000E+00 0.  1.
</event>
<event>
 7    1  0.2661133E-009  0.1862917E+03  0.7561462E-02  0.1161849E+00
         -2   -1    0    0    0  501 -0.00000000000E+00  0.00000000000E+00  0.30177855919E+02  0.30177855919E+02  0.00000000000E+00 0.  1.
          2   -1    0    0  501    0  0.00000000000E+00 -0.00000000000E+00 -0.13506517269E+04  0.13506517269E+04  0.00000000000E+00 0. -1.
         25    2    1    2    0    0  0.16314821250E+03 -0.35061315073E+02 -0.58149131432E+03  0.61775957801E+03  0.12509241599E+03 0.  0.
          5    1    3    3  502    0  0.34098945102E+02 -0.44177048904E+02 -0.33206372683E+03  0.33674640426E+03  0.41800000000E+01 0.  1.
         -5    1    3    3    0  502  0.12904926740E+03  0.91157338309E+01 -0.24942758749E+03  0.28101317375E+03  0.41800000000E+01 0.  1.
        -11    1    1    2    0    0 -0.10960280718E+02  0.33222108922E+02 -0.92007715089E+02  0.98434018056E+02  0.00000000000E+00 0.  1.
         11    1    1    2    0    0 -0.15218793178E+03  0.18392061504E+01 -0.64697484156E+03  0.66463598675E+03  0.00000000000E+00 0. -1.
</event>
<event>
 7    1  0.2872814E-009  0.7116024E+02  0.7561462E-02  0.1356191E+00
          2   -1    0    0  501    0  0.00000000000E+00  0.00000000000E+00  0.50672063517E+03  0.50672063517E+03  0.00000000000E+00 0. -1.
         -2   -1    0    0    0  501 -0.00000000000E+00 -0.00000000000E+00 -0.26664368883E+02  0.26664368883E+02  0.00000000000E+00 0.  1.
         25    2    1    2    0    0 -0.92799121576E+00 -0.14312060170E+02  0.36149858982E+03  0.38279857314E+03  0.12509125037E+03 0.  0.
          5    1    3    3  502    0  0.24795909331E+02  0.31409147544E+02  0.29625769401E+03  0.29897736591E+03  0.41800000000E+01 0.  1.
         -5    1    3    3    0  502 -0.25723900547E+02 -0.45721207715E+02  0.65240895812E+02  0.83821207224E+02  0.41800000000E+01 0.  1.
        -11    1    1    2    0    0 -0.22224963825E+02  0.14069918230E+02 -0.33343843570E+01  0.26514707901E+02  0.00000000000E+00 0.  1.
         11    1    1    2    0    0  0.23152955041E+02  0.24214193991E+00  0.12189206082E+03  0.12407172301E+03  0.00000000000E+00 0. -1.
</event>
<event>
 7    1  0.2661133E-009  0.1373066E+03  0.7561462E-02  0.1217000E+00
         -2   -1    0    0    0  501 -0.00000000000E+00  0.00000000000E+00  0.62279029434E+02  0.62279029434E+02  0.00000000000E+00 0.  1.
          2   -1    0    0  501    0  0.00000000000E+00 -0.00000000000E+00 -0.42198877495E+03  0.42198877495E+03  0.00000000000E+00 0. -1.
         25    2    1    2    0    0  0.74404934926E+02 -0.49951132009E+02 -0.31455569125E+03  0.35017651824E+03  0.12508837314E+03 0.  0.
          5    1    3    3  502    0 -0.26542635390E+02  0.15385567808E+02 -0.93556085117E+02  0.98546642016E+02  0.41800000000E+01 0. -1.
         -5    1    3    3    0  502  0.10094757032E+03 -0.65336699817E+02 -0.22099960614E+03  0.25162987622E+03  0.41800000000E+01 0. -1.
        -11    1    1    2    0    0  0.12258492660E+02  0.32760454296E+02 -0.26266645018E+02  0.43743052574E+02  0.00000000000E+00 0. -1.
         11    1    1    2    0    0 -0.86663427587E+02  0.17190677713E+02 -0.18887409246E+02  0.90348233571E+02  0.00000000000E+00 0.  1.
</event>
<event>
 7    1  0.2661133E-009  0.8773034E+02  0.7561462E-02  0.1308443E+00
         -1   -1    0    0    0  501 -0.00000000000E+00  0.00000000000E+00  0.90106128521E+02  0.90106128521E+02  0.00000000000E+00 0.  1.
          1   -1    0    0  501    0  0.00000000000E+00 -0.00000000000E+00 -0.17047898365E+03  0.17047898365E+03  0.00000000000E+00 0. -1.
         25    2    1    2    0    0 -0.48689352316E+02 -0.10315094513E+02 -0.11518422211E+02  0.13511710102E+03  0.12508758026E+03 0.  0.
          5    1    3    3  502    0  0.26324502884E+02  0.38524669997E+01 -0.44369900944E+02  0.51903578526E+02  0.41800000000E+01 0.  1.
         -5    1    3    3    0  502 -0.75013855200E+02 -0.14167561513E+02  0.32851478732E+02  0.83213522496E+02  0.41800000000E+01 0.  1.
        -11    1    1    2    0    0  0.20514873988E+02  0.30964431192E+02 -0.80492238842E+02  0.88649064111E+02  0.00000000000E+00 0. -1.
         11    1    1    2    0    0  0.28174478328E+02 -0.20649336679E+02  0.11637805924E+02  0.36818947039E+02  0.00000000000E+00 0.  1.
</event>
<event>
 7    1  0.2661133E-009  0.7992941E+02  0.7561462E-02  0.1329252E+00
          2   -1    0    0  501    0  0.00000000000E+00  0.00000000000E+00  0.36403325982E+03  0.36403325982E+03  0.00000000000E+00 0. -1.
         -2   -1    0    0    0  501 -0.00000000000E+00 -0.00000000000E+00 -0.34222186420E+02  0.34222186420E+02  0.00000000000E+00 0.  1.
         25    2    1    2    0    0 -0.19650511785E+02 -0.57850520713E+01  0.16027653774E+03  0.20434323091E+03  0.12509187835E+03 0.  0.
          5    1    3    3  502    0 -0.22821544545E+02  0.25895319861E+02 -0.57489473479E+01  0.35240790027E+02  0.41800000000E+01 0. -1.
         -5    1    3    3    0  502  0.31710327594E+01 -0.31680371933E+02  0.16602548509E+03  0.16910244088E+03  0.41800000000E+01 0. -1.
        -11    1    1    2    0    0  0.53824833205E+02  0.17895109822E+02  0.11771578773E+03  0.13066887275E+03  0.00000000000E+00 0.  1.
         11    1    1    2    0    0 -0.34174321420E+02 -0.12110057751E+02  0.51818747925E+02  0.63243342573E+02  0.00000000000E+00 0. -1.
</event>
<event>
 7    1  0.2661133E-009  0.9434837E+02  0.7561462E-02  0.1292650E+00
          2   -1    0    0  501    0  0.00000000000E+00  0.00000000000E+00  0.21371466343E+03  0.21371466343E+03  0.00000000000E+00 0.  1.
         -2   -1    0    0    0  501 -0.00000000000E+00 -0.00000000000E+00 -0.67247471201E+02  0.67247471201E+02  0.00000000000E+00 0. -1.
         25    2    1    2    0    0  0.33902376461E+02 -0.22221610358E+02  0.12145770947E+03  0.17900485582E+03  0.12509033584E+03 0.  0.
          5    1    3    3  502    0  0.49311279703E+02 -0.42615595187E+02  0.13486096461E+03  0.14984206163E+03  0.41800000000E+01 0.  1.
         -5    1    3    3    0  502 -0.15408903242E+02  0.20393984829E+02 -0.13403255141E+02  0.29162794186E+02  0.41800000000E+01 0.  1.
        -11    1    1    2    0    0  0.60889268731E+01  0.48988752903E+02  0.42512549049E+01  0.49548421869E+02  0.00000000000E+00 0. -1.
         11    1    1    2    0    0 -0.39991303334E+02 -0.26767142545E+02  0.20758227857E+02  0.52408856944E+02  0.00000000000E+00 0.  1.
</event>
<event>
 7    1  0.2661133E-009  0.1061370E+03  0.7561462E-02  0.1267895E+00
          1   -1    0    0  501    0  0.00000000000E+00  0.00000000000E+00  0.68003409890E+02  0.68003409890E+02  0.00000000000E+00 0. -1.
         -1   -1    0    0    0  501 -0.00000000000E+00 -0.00000000000E+00 -0.25957157666E+03  0.25957157666E+03  0.00000000000E+00 0.  1.
         25    2    1    2    0    0  0.43833639860E+02 -0.63447541452E+02 -0.11400755413E+03  0.18599129163E+03  0.12509220464E+03 0.  0.
          5    1    3    3  502    0  0.51140620107E+02 -0.24826651357E+02 -0.13107745687E+03  0.14293529215E+03  0.41800000000E+01 0. -1.
         -5    1    3    3    0  502 -0.73069802467E+01 -0.38620890095E+02  0.17069902734E+02  0.43055999482E+02  0.41800000000E+01 0. -1.
        -11    1    1    2    0    0 -0.36869243469E+01 -0.21486367783E+02 -0.27630030916E+02  0.35194829451E+02  0.00000000000E+00 0.  1.
         11    1    1    2    0    0 -0.40146715513E+02  0.84933909236E+02 -0.49930581718E+02  0.10638886547E+03  0.00000000000E+00 0. -1.
</event>
<event>
 7    1  0.2661133E-009  0.1295696E+03  0.7561462E-02  0.1228096E+00
          2   -1    0    0  501    0  0.00000000000E+00  0.00000000000E+00  0.10432051085E+03  0.10432051085E+03  0.00000000000E+00 0. -1.
         -2   -1    0    0    0  501 -0.00000000000E+00 -0.00000000000E+00 -0.22398931567E+03  0.22398931567E+03  0.00000000000E+00 0.  1.
         25    2    1    2    0    0 -0.76189138954E+02 -0.76419108321E+02 -0.66039613038E+02  0.17791785730E+03  0.12509543734E+03 0.  0.
          5    1    3    3  502    0 -0.87738837954E+02 -0.15701446866E+02 -0.73391723525E+02  0.11553552095E+03  0.41800000000E+01 0.  1.
         -5    1    3    3    0  502  0.11549699000E+02 -0.60717661455E+02  0.73521104863E+01  0.62382336347E+02  0.41800000000E+01 0.  1.
        -11    1    1    2    0    0  0.19011276970E+02  0.17082026217E+02 -0.62489668790E+02  0.67514316831E+02  0.00000000000E+00 0.  1.
         11    1    1    2    0    0  0.57177861984E+02  0.59337082105E+02  0.88604770039E+01  0.82877652395E+02  0.00000000000E+00 0. -1.
</event>
<event>
 7    1  0.2661133E-009  0.1183226E+03  0.7561462E-02  0.1245890E+00
         -1   -1    0    0    0  501 -0.00000000000E+00  0.00000000000E+00  0.35208730772E+03  0.35208730772E+03  0.00000000000E+00 0.  1.
          1   -1    0    0  501    0  0.00000000000E+00 -0.00000000000E+00 -0.71492237325E+02  0.71492237325E+02  0.00000000000E+00 0. -1.
         25    2    1    2    0    0 -0.23749794843E+02 -0.11185148785E+03  0.18089316910E+03  0.24787982762E+03  0.12508901721E+03 0.  0.
          5    1    3    3  502    0 -0.20518709045E+02 -0.61189069600E+02  0.18577401517E+03  0.19670937134E+03  0.41800000000E+01 0. -1.
         -5    1    3    3    0  502 -0.32310857973E+01 -0.50662418245E+02 -0.48808460706E+01  0.51170456283E+02  0.41800000000E+01 0. -1.
        -11    1    1    2    0    0 -0.11052310697E+02  0.34197992563E+02  0.80940035555E+02  0.88560406632E+02  0.00000000000E+00 0.  1.
         11    1    1    2    0    0  0.34802105540E+02  0.77653495282E+02  0.18761865740E+02  0.87139310793E+02  0.00000000000E+00 0. -1.
</event>
<event>
 7    1  0.2661133E-009  0.1290060E+03  0.7561462E-02  0.1228938E+00
         -2   -1    0    0    0  501 -0.00000000000E+00  0.00000000000E+00  0.21479758760E+02  0.21479758760E+02  0.00000000000E+00 0.  1.
          2   -1    0    0  501    0  0.00000000000E+00 -0.00000000000E+00 -0.14493424635E+04  0.14493424635E+04  0.00000000000E+00 0. -1.
         25    2    1    2    0    0 -0.20277635530E+02 -0.69988193031E+02 -0.12545763410E+04  0.12629003263E+04  0.12508360804E+03 0.  0.
          5    1    3    3  502    0 -0.54059507164E+02 -0.89197300375E+02 -0.98279947871E+03  0.98832731241E+03  0.41800000000E+01 0.  1.
         -5    1    3    3    0  502  0.33781871633E+02  0.19209107344E+02 -0.27177686229E+03  0.27457301385E+03  0.41800000000E+01 0.  1.
        -11    1    1    2    0    0 -0.21109014120E+02  0.70043949438E+02 -0.11846322700E+03  0.13923103634E+03  0.00000000000E+00 0. -1.
         11    1    1    2    0    0  0.41386649650E+02 -0.55756407374E-01 -0.54823136723E+02  0.68690859641E+02  0.00000000000E+00 0.  1.
</event>
<event>
 7    1  0.2661133E-009  0.8932737E+02  0.7561462E-02  0.1304489E+00
          1   -1    0    0  501    0  0.00000000000E+00  0.00000000000E+00  0.55643868373E+03  0.55643868373E+03  0.00000000000E+00 0. -1.
         -1   -1    0    0    0  501 -0.00000000000E+00 -0.00000000000E+00 -0.28024764196E+02  0.28024764196E+02  0.00000000000E+00 0.  1.
         25    2    1    2    0    0 -0.37888815929E+02 -0.45065837587E+02  0.31667933913E+03  0.34554187202E+03  0.12508752695E+03 0.  0.
          5    1    3    3  502    0 -0.51275531482E+02 -0.89493244305E+01  0.39005229251E+02  0.65177840141E+02  0.41800000000E+01 0. -1.
         -5    1    3    3    0  502  0.13386715553E+02 -0.36116513157E+02  0.27767410988E+03  0.28036403188E+03  0.41800000000E+01 0. -1.
        -11    1    1    2    0    0  0.38651372963E+02  0.60742758889E+02  0.21129003520E+03  0.22321982520E+03  0.00000000000E+00 0. -1.
         11    1    1    2    0    0 -0.76255703442E+00 -0.15676921302E+02  0.44454520830E+00  0.15701750704E+02  0.00000000000E+00 0.  1.
</event>
<event>
 7    1  0.2661133E-009  0.1623615E+03  0.7561462E-02  0.1186056E+00
         -1   -1    0    0    0  501 -0.00000000000E+00  0.00000000000E+00  0.23360558445E+03  0.23360558445E+03  0.00000000000E+00 0.  1.
          1   -1    0    0  501    0  0.00000000000E+00 -0.00000000000E+00 -0.11307207108E+03  0.11307207108E+03  0.00000000000E+00 0. -1.
         25    2    1    2    0    0 -0.11096729484E+03  0.50125933910E+02  0.71887982558E+02  0.18879101463E+03  0.12509122828E+03 0.  0.
          5    1    3    3  502    0 -0.62699636595E+02 -0.38394119705E+02  0.31654457272E+02  0.80155036787E+02  0.41800000000E+01 0. -1.
         -5    1    3    3    0  502 -0.48267658240E+02  0.88520053615E+02  0.40233525285E+02  0.10863597784E+03  0.41800000000E+01 0. -1.
        -11    1    1    2    0    0  0.59338596756E+02 -0.72684552898E+02  0.32011071821E+02  0.99140415644E+02  0.00000000000E+00 0.  1.
         11    1    1    2    0    0  0.51628698080E+02  0.22558618988E+02  0.16634458991E+02  0.58746225257E+02  0.00000000000E+00 0. -1.
</event>
<event>
 7    1  0.2661133E-009  0.1925013E+03  0.7561462E-02  0.1156224E+00
          1   -1    0    0  501    0  0.00000000000E+00  0.00000000000E+00  0.10157502894E+03  0.10157502894E+03  0.00000000000E+00 0. -1.
         -1   -1    0    0    0  501 -0.00000000000E+00 -0.00000000000E+00 -0.91540184001E+03  0.91540184001E+03  0.00000000000E+00 0.  1.
         25    2    1    2    0    0 -0.12073644982E+03 -0.11163430322E+03 -0.80334685982E+03  0.82949056148E+03  0.12509558914E+03 0.  0.
          5    1    3    3  502    0 -0.92569569881E+02 -0.90603669858E+01 -0.48382584157E+03  0.49270288500E+03  0.41800000000E+01 0. -1.
         -5    1    3    3    0  502 -0.28166879937E+02 -0.10257393624E+03 -0.31952101825E+03  0.33678767647E+03  0.41800000000E+01 0. -1.
        -11    1    1    2    0    0  0.43609315439E+02  0.97804724597E+02  0.65978747508E+01  0.10728964767E+03  0.00000000000E+00 0. -1.
         11    1    1    2    0    0  0.77127134379E+02  0.13829578626E+02 -0.17077825996E+02  0.80196659801E+02  0.00000000000E+00 0.  1.
</event>
<event>
 7    1  0.2661133E-009  0.1273490E+03  0.7561462E-02  0.1231443E+00
         -1   -1    0    0    0  501 -0.00000000000E+00  0.00000000000E+00  0.38955791367E+02  0.38955791367E+02  0.00000000000E+00 0.  1.
          1   -1    0    0  501    0  0.00000000000E+00 -0.00000000000E+00 -0.52552501683E+03  0.52552501683E+03  0.00000000000E+00 0. -1.
         25    2    1    2    0    0 -0.42494086883E+02 -0.71764624519E+02 -0.18375994646E+03  0.23742511259E+03  0.12508819853E+03 0.  0.
          5    1    3    3  502    0 -0.50298108015E+02 -0.94963606385E+02 -0.18338396634E+03  0.21259148082E+03  0.41800000000E+01 0.  1.
         -5    1    3    3    0  502  0.78040211324E+01  0.23198981866E+02 -0.37598011531E+00  0.24833631762E+02  0.41800000000E+01 0.  1.
        -11    1    1    2    0    0  0.41546800670E+02 -0.82049627447E+01 -0.12792087076E+03  0.13474868176E+03  0.00000000000E+00 0. -1.
         11    1    1    2    0    0  0.94728621312E+00  0.79969587264E+02 -0.17488840824E+03  0.19230701385E+03  0.00000000000E+00 0.  1.
</event>
<event>
 7    1  0.2661133E-009  0.9197872E+02  0.7561462E-02  0.1298129E+00
          1   -1    0    0  501    0  0.00000000000E+00  0.00000000000E+00  0.90905786810E+02  0.90905786810E+02  0.00000000000E+00 0. -1.
         -1   -1    0    0    0  501 -0.00000000000E+00 -0.00000000000E+00 -0.17958375525E+03  0.17958375525E+03  0.00000000000E+00 0.  1.
         25    2    1    2    0    0  0.33151374365E+02 -0.48685449172E+02 -0.85539585518E+02  0.16258901135E+03  0.12509548089E+03 0.  0.
          5    1    3    3  502    0  0.11088841677E+01  0.25974873370E+02 -0.76295958393E+02  0.80712262623E+02  0.41800000000E+01 0.  1.
         -5    1    3    3    0  502  0.32042490197E+02 -0.74660322541E+02 -0.92436271255E+01  0.81876748729E+02  0.41800000000E+01 0.  1.
        -11    1    1    2    0    0 -0.10807195973E+01  0.43820933477E+02  0.36245178781E+02  0.56878424297E+02  0.00000000000E+00 0. -1.
         11    1    1    2    0    0 -0.32070654768E+02  0.48645156941E+01 -0.39383561699E+02  0.51022106407E+02  0.00000000000E+00 0.  1.
</event>
<event>
 7    1  0.2661133E-009  0.1077799E+03  0.7561462E-02  0.1264737E+00
          2   -1    0    0  501    0  0.00000000000E+00  0.00000000000E+00  0.40693818182E+03  0.40693818182E+03  0.00000000000E+00 0.  1.
         -2   -1    0    0    0  501 -0.00000000000E+00 -0.00000000000E+00 -0.46007698405E+02  0.46007698405E+02  0.00000000000E+00 0. -1.
         25    2    1    2    0    0 -0.64332157193E+02  0.26172464494E+02  0.16725302494E+03  0.22010033819E+03  0.12508780984E+03 0.  0.
          5    1    3    3  502    0  0.96560121236E+01 -0.17773944881E+01  0.13363296711E+03  0.13405834550E+03  0.41800000000E+01 0.  1.
         -5    1    3    3    0  502 -0.73988169317E+02  0.27949858982E+02  0.33620057836E+02  0.86041992683E+02  0.41800000000E+01 0.  1.
        -11    1    1    2    0    0  0.92995611769E+02 -0.27549514595E+02  0.16964973535E+03  0.19541799371E+03  0.00000000000E+00 0.  1.
         11    1    1    2    0    0 -0.28663454576E+02  0.13770501011E+01  0.24027723122E+02  0.37427548325E+02  0.00000000000E+00 0. -1.
</event>
<event>
 7    1  0.2661133E-009  0.1375492E+03  0.7561462E-02  0.1216665E+00
          2   -1    0    0  501    0  0.00000000000E+00  0.00000000000E+00  0.16497494645E+03  0.16497494645E+03  0.00000000000E+00 0. -1.
         -2   -1    0    0    0  501 -0.00000000000E+00 -0.00000000000E+00 -0.13460609895E+03  0.13460609895E+03  0.00000000000E+00 0.  1.
         25    2    1    2    0    0  0.61447240812E+02  0.77359870402E+02 -0.63451663991E+01  0.15952453082E+03  0.12508997499E+03 0.  0.
          5    1    3    3  502    0  0.16772245048E+02 -0.25367942570E+02 -0.32193927675E+02  0.44483278806E+02  0.41800000000E+01 0. -1.
         -5    1    3    3    0  502  0.44674995764E+02  0.10272781297E+03  0.25848761276E+02  0.11504125201E+03  0.41800000000E+01 0. -1.
        -11    1    1    2    0    0 -0.51635179840E+02  0.26397447795E+01  0.52384570207E+00  0.51705265340E+02  0.00000000000E+00 0.  1.
         11    1    1    2    0    0 -0.98120609718E+01 -0.79999615181E+02  0.36190168197E+02  0.88351249249E+02  0.00000000000E+00 0. -1.
</event>
<event>
 7    1  0.2661133E-009  0.1339054E+03  0.7561462E-02  0.1221773E+00
         -1   -1    0    0    0  501 -0.00000000000E+00  0.00000000000E+00  0.25529957494E+03  0.25529957494E+03  0.00000000000E+00 0.  1.
          1   -1    0    0  501    0  0.00000000000E+00 -0.00000000000E+00 -0.85057992497E+02  0.85057992497E+02  0.00000000000E+00 0. -1.
         25    2    1    2    0    0  0.87431957434E+02 -0.18531334345E+02  0.42428251777E+02  0.15948300862E+03  0.12508763310E+03 0.  0.
          5    1    3    3  502    0  0.47895624155E+02 -0.72321931253E+02  0.24488705490E+02  0.90230935105E+02  0.41800000000E+01 0.  1.
         -5    1    3    3    0  502  0.39536333279E+02  0.53790596907E+02  0.17939546286E+02  0.69252073512E+02  0.41800000000E+01 0.  1.
        -11    1    1    2    0    0 -0.51165346113E+02  0.45826879292E+02  0.11458538275E+03  0.13359567901E+03  0.00000000000E+00 0.  1.
         11    1    1    2    0    0 -0.36266611321E+02 -0.27295544946E+02  0.13227947917E+02  0.47278879817E+02  0.00000000000E+00 0. -1.
</event>
<event>
 7    1  0.2661133E-009  0.1546148E+03  0.7561462E-02  0.1194914E+00
          3   -1    0    0  501    0  0.00000000000E+00  0.00000000000E+00  0.33722402524E+03  0.33722402524E+03  0.00000000000E+00 0. -1.
         -3   -1    0    0    0  501 -0.00000000000E+00 -0.00000000000E+00 -0.10967819610E+03  0.10967819610E+03  0.00000000000E+00 0.  1.
         25    2    1    2    0    0 -0.31597789899E+02 -0.11643126091E+03 -0.12674714572E+01  0.17379146537E+03  0.12508880089E+03 0.  0.
          5    1    3    3  502    0 -0.66609397949E+01  0.20031622894E+02  0.24526719214E+02  0.32629226011E+02  0.41800000000E+01 0.  1.
         -5    1    3    3    0  502 -0.24936850104E+02 -0.13646288380E+03 -0.25794190671E+02  0.14116223936E+03  0.41800000000E+01 0.  1.
        -11    1    1    2    0    0  0.61065663923E+02  0.61969479994E+02  0.14035223842E+03  0.16513019891E+03  0.00000000000E+00 0. -1.
         11    1    1    2    0    0 -0.29467874025E+02  0.54461780917E+02  0.88461062175E+02  0.10798055705E+03  0.00000000000E+00 0.  1.
</event>
<event>
 7    1  0.2661133E-009  0.1414856E+03  0.7561462E-02  0.1211344E+00
          1   -1    0    0  501    0  0.00000000000E+00  0.00000000000E+00  0.10310158056E+03  0.10310158056E+03  0.00000000000E+00 0. -1.
         -1   -1    0    0    0  501 -0.00000000000E+00 -0.00000000000E+00 -0.23316679139E+03  0.23316679139E+03  0.00000000000E+00 0.  1.
         25    2    1    2    0    0 -0.88066274359E+02  0.66952253292E+02 -0.64942734442E+02  0.17917466940E+03  0.12509088894E+03 0.  0.
          5    1    3    3  502    0 -0.78217635541E+02 -0.16776581488E+02 -0.16282921792E+02  0.81743856883E+02  0.41800000000E+01 0. -1.
         -5    1    3    3    0  502 -0.98486388180E+01  0.83728834780E+02 -0.48659812650E+02  0.97430812515E+02  0.41800000000E+01 0. -1.
        -11    1    1    2    0    0  0.75567848124E+02 -0.33341103684E+02 -0.82939492927E+02  0.11705164822E+03  0.00000000000E+00 0.  1.
         11    1    1    2    0    0  0.12498426236E+02 -0.33611149609E+02  0.17817016534E+02  0.40042054325E+02  0.00000000000E+00 0. -1.
</event>
<event>
 7    1  0.2661133E-009  0.9459614E+02  0.7561462E-02  0.1292088E+00
         -2   -1    0    0    0  501 -0.00000000000E+00  0.00000000000E+00  0.25841110018E+02  0.25841110018E+02  0.00000000000E+00 0.  1.
          2   -1    0    0  501    0  0.00000000000E+00 -0.00000000000E+00 -0.57168676612E+03  0.57168676612E+03  0.00000000000E+00 0. -1.
         25    2    1    2    0    0  0.29119282432E+02  0.43561940672E+02 -0.33952684266E+03  0.36561107992E+03  0.12508960624E+03 0.  0.
          5    1    3    3  502    0 -0.38708063659E+02  0.53594173077E+02 -0.14836170223E+03  0.16247866527E+03  0.41800000000E+01 0.  1.
         -5    1    3    3    0  502  0.67827346091E+02 -0.10032232405E+02 -0.19116514043E+03  0.20313241465E+03  0.41800000000E+01 0.  1.
        -11    1    1    2    0    0 -0.16550941315E+02 -0.35914442087E+02 -0.21236151851E+03  0.21601202594E+03  0.00000000000E+00 0. -1.
         11    1    1    2    0    0 -0.12568341117E+02 -0.76474985849E+01  0.60427050654E+01  0.15904770276E+02  0.00000000000E+00 0.  1.
</event>
<event>
 7    1  0.2661133E-009  0.1837547E+03  0.7561462E-02  0.1164218E+00
         -2   -1    0    0    0  501 -0.00000000000E+00  0.00000000000E+00  0.58142171813E+02  0.58142171813E+02  0.00000000000E+00 0.  1.
          2   -1    0    0  501    0  0.00000000000E+00 -0.00000000000E+00 -0.62598550029E+03  0.62598550029E+03  0.00000000000E+00 0. -1.
         25    2    1    2    0    0 -0.13545453850E+03 -0.62975968293E+02 -0.38892011834E+03  0.43498923732E+03  0.12507147377E+03 0.  0.
          5    1    3    3  502    0 -0.57411284923E+02  0.36279415133E+02 -0.12230689348E+03  0.13995963772E+03  0.41800000000E+01 0. -1.
         -5    1    3    3    0  502 -0.78043253580E+02 -0.99255383426E+02 -0.26661322486E+03  0.29502959960E+03  0.41800000000E+01 0. -1.
        -11    1    1    2    0    0  0.12246342830E+03  0.14937616807E+02 -0.13323754566E+03  0.18158377472E+03  0.00000000000E+00 0. -1.
         11    1    1    2    0    0  0.12991110202E+02  0.48038351486E+02 -0.45685664475E+02  0.67554660063E+02  0.00000000000E+00 0.  1.
</event>
<event>
 7    1  0.2661133E-009  0.1117640E+03  0.7561462E-02  0.1257338E+00
         -1   -1    0    0    0  501 -0.00000000000E+00  0.00000000000E+00  0.20451934057E+03  0.20451934057E+03  0.00000000000E+00 0.  1.
          1   -1    0    0  501    0  0.00000000000E+00 -0.00000000000E+00 -0.86997075192E+02  0.86997075192E+02  0.00000000000E+00 0. -1.
         25    2    1    2    0    0 -0.61384021059E+02 -0.58455113830E+01 -0.70569924211E+00  0.13946254643E+03  0.12508851186E+03 0.  0.
          5    1    3    3  502    0 -0.48592908314E+02  0.52376789993E+02 -0.23764126880E+02  0.75410907664E+02  0.41800000000E+01 0. -1.
         -5    1    3    3    0  502 -0.12791112746E+02 -0.58222301376E+02  0.23058427638E+02  0.64051638761E+02  0.41800000000E+01 0. -1.
        -11    1    1    2    0    0 -0.74986086720E+01 -0.17847438692E+02  0.43918906118E+02  0.47996151038E+02  0.00000000000E+00 0.  1.
         11    1    1    2    0    0  0.68882629731E+02  0.23692950075E+02  0.74309058498E+02  0.10405771830E+03  0.00000000000E+00 0. -1.
</event>
<event>
 7    1  0.2661133E-009  0.2042174E+03  0.7561462E-02  0.1146229E+00
         -3   -1    0    0    0  501 -0.00000000000E+00  0.00000000000E+00  0.53904925831E+03  0.53904925831E+03  0.00000000000E+00 0.  1.
          3   -1    0    0  501    0  0.00000000000E+00 -0.00000000000E+00 -0.15884397264E+03  0.15884397264E+03  0.00000000000E+00 0. -1.
         25    2    1    2    0    0  0.15948352042E+03  0.92751031048E+02 -0.46575923717E+02  0.22771590744E+03  0.12508985084E+03 0.  0.
          5    1    3    3  502    0  0.14970311643E+03  0.36814624451E+02 -0.10409111238E+00  0.15422004694E+03  0.41800000000E+01 0. -1.
         -5    1    3    3    0  502  0.97804039911E+01  0.55936406597E+02 -0.46471832605E+02  0.73495860501E+02  0.41800000000E+01 0. -1.
        -11    1    1    2    0    0 -0.96025280547E+02 -0.15443550259E+02  0.20734374196E+03  0.22902136380E+03  0.00000000000E+00 0. -1.
         11    1    1    2    0    0 -0.63458239877E+02 -0.77307480789E+02  0.21943746743E+03  0.24115595971E+03  0.00000000000E+00 0.  1.
</event>
<event>
 7    1  0.2661133E-009  0.1792178E+03  0.7561462E-02  0.1168562E+00
          1   -1    0    0  501    0  0.00000000000E+00  0.00000000000E+00  0.76678779353E+03  0.76678779353E+03  0.00000000000E+00 0. -1.
         -1   -1    0    0    0  501 -0.00000000000E+00 -0.00000000000E+00 -0.48370983638E+02  0.48370983638E+02  0.00000000000E+00 0.  1.
         25    2    1    2    0    0  0.38286158890E+02 -0.15423896716E+03  0.36778085293E+03  0.41972185207E+03  0.12509271906E+03 0.  0.
          5    1    3    3  502    0 -0.32830152329E+02 -0.77723848675E+02  0.24111228180E+03  0.25548272033E+03  0.41800000000E+01 0. -1.
         -5    1    3    3    0  502  0.71116311220E+02 -0.76515118488E+02  0.12666857113E+03  0.16423913173E+03  0.41800000000E+01 0. -1.
        -11    1    1    2    0    0  0.11546622820E+02  0.74465599214E+02  0.23263481297E+03  0.24453508167E+03  0.00000000000E+00 0. -1.
         11    1    1    2    0    0 -0.49832781710E+02  0.79773367949E+02  0.11800114399E+03  0.15090184343E+03  0.00000000000E+00 0.  1.
</event>
<event>
 7    1  0.2661133E-009  0.1183432E+03  0.7561462E-02  0.1245856E+00
          2   -1    0    0  501    0  0.00000000000E+00  0.00000000000E+00  0.91850901538E+03  0.91850901538E+03  0.00000000000E+00 0. -1.
         -2   -1    0    0    0  501 -0.00000000000E+00 -0.00000000000E+00 -0.19558487353E+02  0.19558487353E+02  0.00000000000E+00 0.  1.
         25    2    1    2    0    0  0.58701451476E+02  0.51851065824E+02  0.50305427821E+03  0.52425724883E+03  0.12509061792E+03 0.  0.
          5    1    3    3  502    0  0.68044228780E+02  0.48024365795E+01  0.11925317354E+03  0.13744770739E+03  0.41800000000E+01 0. -1.
         -5    1    3    3    0  502 -0.93427773045E+01  0.47048629245E+02  0.38380110467E+03  0.38680954144E+03  0.41800000000E+01 0. -1.
        -11    1    1    2    0    0 -0.77616704796E+02 -0.61438046943E+02  0.33552782260E+03  0.34982553683E+03  0.00000000000E+00 0. -1.
         11    1    1    2    0    0  0.18915253320E+02  0.95869811189E+01  0.60368427219E+02  0.63984717082E+02  0.00000000000E+00 0.  1.
</event>
<event>
 7    1  0.2661133E-009  0.7409895E+02  0.7561462E-02  0.1346684E+00
          2   -1    0    0  501    0  0.00000000000E+00  0.00000000000E+00  0.99174380300E+03  0.99174380300E+03  0.00000000000E+00 0. -1.
         -2   -1    0    0    0  501 -0.00000000000E+00 -0.00000000000E+00 -0.12245824950E+02  0.12245824950E+02  0.00000000000E+00 0.  1.
         25    2    1    2    0    0 -0.19133759681E+02  0.20858083216E+01  0.55182128006E+03  0.56614893640E+03  0.12508973463E+03 0.  0.
          5    1    3    3  502    0  0.17376223153E+02 -0.57717910213E-01  0.56575688751E+01  0.18746118212E+02  0.41800000000E+01 0.  1.
         -5    1    3    3    0  502 -0.36509982835E+02  0.21435262318E+01  0.54616371118E+03  0.54740281819E+03  0.41800000000E+01 0.  1.
        -11    1    1    2    0    0  0.28969059091E+02  0.40507831742E+02  0.21086584575E+03  0.21666678499E+03  0.00000000000E+00 0.  1.
         11    1    1    2    0    0 -0.98352994098E+01 -0.42593640064E+02  0.21681085225E+03  0.22117390656E+03  0.00000000000E+00 0. -1.
</event>
<event>
 7    1  0.2661133E-009  0.1049447E+03  0.7561462E-02  0.1270229E+00
          2   -1    0    0  501    0  0.00000000000E+00  0.00000000000E+00  0.92226513123E+03  0.92226513123E+03  0.00000000000E+00 0. -1.
         -2   -1    0    0    0  501 -0.00000000000E+00 -0.00000000000E+00 -0.23574263555E+02  0.23574263555E+02  0.00000000000E+00 0.  1.
         25    2    1    2    0    0  0.33019710461E+02 -0.89755707511E+02  0.38180894464E+03  0.41300332368E+03  0.12508911566E+03 0.  0.
          5    1    3    3  502    0 -0.48711141249E+01 -0.14134189120E+00  0.24493968390E+03  0.24502381288E+03  0.41800000000E+01 0.  1.
         -5    1    3    3    0  502  0.37890824586E+02 -0.89614365620E+02  0.13686926074E+03  0.16797951080E+03  0.41800000000E+01 0.  1.
        -11    1    1    2    0    0 -0.13392408393E+02  0.84785668483E+02  0.49735296759E+03  0.50470579604E+03  0.00000000000E+00 0. -1.
         11    1    1    2    0    0 -0.19627302068E+02  0.49700390279E+01  0.19528955439E+02  0.28130275060E+02  0.00000000000E+00 0.  1.
</event>
<event>
 7    1  0.2661133E-009  0.1465807E+03  0.7561462E-02  0.1204739E+00
         -2   -1    0    0    0  501 -0.00000000000E+00  0.00000000000E+00  0.67882365552E+02  0.67882365552E+02  0.00000000000E+00 0.  1.
          2   -1    0    0  501    0  0.00000000000E+00 -0.00000000000E+00 -0.41976388200E+03  0.41976388200E+03  0.00000000000E+00 0. -1.
         25    2    1    2    0    0 -0.65405949813E+02 -0.96389235363E+02 -0.27617182018E+03  0.32478704228E+03  0.12508767169E+03 0.  0.
          5    1    3    3  502    0  0.24108967731E+02 -0.95499368102E+01 -0.12985573969E+03  0.13248558091E+03  0.41800000000E+01 0.  1.
         -5    1    3    3    0  502 -0.89514917544E+02 -0.86839298553E+02 -0.14631608048E+03  0.19230146137E+03  0.41800000000E+01 0.  1.
        -11    1    1    2    0    0 -0.18885720945E+02  0.26899260556E+02 -0.63990942220E+01  0.33484161643E+02  0.00000000000E+00 0.  1.
         11    1    1    2    0    0  0.84291670758E+02  0.69489974806E+02 -0.69310602053E+02  0.12937504363E+03  0.00000000000E+00 0. -1.
</event>
<event>
 7    1  0.2661133E-009  0.2777058E+03  0.7561462E-02  0.1096949E+00
          1   -1    0    0  501    0  0.00000000000E+00  0.00000000000E+00  0.44976488724E+03  0.44976488724E+03  0.00000000000E+00 0. -1.
         -1   -1    0    0    0  501 -0.00000000000E+00 -0.00000000000E+00 -0.19584087521E+03  0.19584087521E+03  0.00000000000E+00 0.  1.
         25    2    1    2    0    0  0.22807009432E+03 -0.13843051445E+03  0.20519270568E+03  0.35907093264E+03  0.12509561521E+03 0.  0.
          5    1    3    3  502    0  0.19847970113E+03 -0.86089676853E+02  0.10121595633E+03  0.23888860675E+03  0.41800000000E+01 0.  1.
         -5    1    3    3    0  502  0.29590393197E+02 -0.52340837601E+02  0.10397674935E+03  0.12018232589E+03  0.41800000000E+01 0.  1.
        -11    1    1    2    0    0 -0.16774514859E+02  0.44432257739E+02  0.26040092298E+02  0.54163606632E+02  0.00000000000E+00 0. -1.
         11    1    1    2    0    0 -0.21129557946E+03  0.93998256715E+02  0.22691214058E+02  0.23237122318E+03  0.00000000000E+00 0.  1.
</event>
<event>
 7    1  0.3443404E-009  0.1055803E+03  0.7561462E-02  0.1268981E+00
         -1   -1    0    0    0  501 -0.00000000000E+00  0.00000000000E+00  0.18237999091E+02  0.18237999091E+02  0.00000000000E+00 0.  1.
          1   -1    0    0  501    0  0.00000000000E+00 -0.00000000000E+00 -0.83751845411E+03  0.83751845411E+03  0.00000000000E+00 0. -1.
         25    2    1    2    0    0  0.10533120637E+02 -0.46913411624E+02 -0.58225922605E+03  0.59748204477E+03  0.12508865932E+03 0.  0.
          5    1    3    3  502    0 -0.57125398651E+02 -0.21096765129E+02 -0.24229473127E+03  0.24986515137E+03  0.41800000000E+01 0.  1.
         -5    1    3    3    0  502  0.67658519288E+02 -0.25816646495E+02 -0.33996449478E+03  0.34761689340E+03  0.41800000000E+01 0.  1.
        -11    1    1    2    0    0  0.22459240399E+02  0.30019724859E+01 -0.10112949092E+02  0.24813324192E+02  0.00000000000E+00 0.  1.
         11    1    1    2    0    0 -0.32992361037E+02  0.43911439138E+02 -0.22690827988E+03  0.23346108424E+03  0.00000000000E+00 0. -1.
</event>
<event>
 7    1  0.2661133E-009  0.1201198E+03  0.7561462E-02  0.1242899E+00
          3   -1    0    0  501    0  0.00000000000E+00  0.00000000000E+00  0.65042344790E+02  0.65042344790E+02  0.00000000000E+00 0. -1.
         -3   -1    0    0    0  501 -0.00000000000E+00 -0.00000000000E+00 -0.28482983627E+03  0.28482983627E+03  0.00000000000E+00 0.  1.
         25    2    1    2    0    0  0.28038206992E+02  0.78296726747E+02 -0.11514841249E+03  0.18926895326E+03  0.12508821407E+03 0.  0.
          5    1    3    3  502    0 -0.29774268244E+02  0.14704117947E+02  0.12159822936E+02  0.35609715358E+02  0.41800000000E+01 0. -1.
         -5    1    3    3    0  502  0.57812475236E+02  0.63592608801E+02 -0.12730823542E+03  0.15365923790E+03  0.41800000000E+01 0. -1.
        -11    1    1    2    0    0  0.31910893581E+02 -0.25681763292E+02 -0.46065078527E+02  0.61642919744E+02  0.00000000000E+00 0. -1.
         11    1    1    2    0    0 -0.59949100573E+02 -0.52614963456E+02 -0.58574000462E+02  0.98960308049E+02  0.00000000000E+00 0.  1.
</event>
<event>
 7    1  0.2661133E-009  0.1108998E+03  0.7561462E-02  0.1258913E+00
         -1   -1    0    0    0  501 -0.00000000000E+00  0.00000000000E+00  0.20262416315E+02  0.20262416315E+02  0.00000000000E+00 0.  1.
          1   -1    0    0  501    0  0.00000000000E+00 -0.00000000000E+00 -0.11308115704E+04  0.11308115704E+04  0.00000000000E+00 0. -1.
         25    2    1    2    0    0  0.36887723959E+02 -0.27337991323E+02 -0.95379441410E+03  0.96305742165E+03  0.12509093918E+03 0.  0.
          5    1    3    3  502    0  0.30839737235E+02 -0.76582110494E+02 -0.54289454030E+03  0.54915194922E+03  0.41800000000E+01 0.  1.
         -5    1    3    3    0  502  0.60479867236E+01  0.49244119171E+02 -0.41089987380E+03  0.41390547243E+03  0.41800000000E+01 0.  1.
        -11    1    1    2    0    0 -0.57763922177E+02  0.38076310048E+01 -0.49251854513E+02  0.76006012473E+02  0.00000000000E+00 0.  1.
         11    1    1    2    0    0  0.20876198218E+02  0.23530360318E+02 -0.10750288550E+03  0.11201055263E+03  0.00000000000E+00 0. -1.
</event>
<event>
 7    1  0.2661133E-009  0.1036555E+03  0.7561462E-02  0.1272791E+00
          1   -1    0    0  501    0  0.00000000000E+00  0.00000000000E+00  0.17641204896E+03  0.17641204896E+03  0.00000000000E+00 0. -1.
         -1   -1    0    0    0  501 -0.00000000000E+00 -0.00000000000E+00 -0.81769133430E+02  0.81769133430E+02  0.00000000000E+00 0.  1.
         25    2    1    2    0    0  0.46150205400E+02  0.68759320271E+01  0.32140130334E+02  0.13732481464E+03  0.12509195353E+03 0.  0.
          5    1    3    3  502    0  0.53065014887E+02  0.59524092690E+02  0.14100304769E+02  0.81088250753E+02  0.41800000000E+01 0. -1.
         -5    1    3    3    0  502 -0.69148094872E+01 -0.52648160663E+02  0.18039825564E+02  0.56236563887E+02  0.41800000000E+01 0. -1.
        -11    1    1    2    0    0 -0.41763649117E+02 -0.29510546884E+02 -0.31879903756E+01  0.51237076884E+02  0.00000000000E+00 0.  1.
         11    1    1    2    0    0 -0.43865562832E+01  0.22634614857E+02  0.65690775576E+02  0.69619290872E+02  0.00000000000E+00 0. -1.
</event>
<event>
 6    1  0.2661133E-009  0.1560513E+03  0.7561462E-02  0.1193228E+00
          1   -1    0    0  501    0  0.00000000000E+00  0.00000000000E+00  0.10343913569E+04  0.10343913569E+04  0.00000000000E+00 0. -1.
         -1   -1    0    0    0  501 -0.00000000000E+00 -0.00000000000E+00 -0.26900649791E+02  0.26900649791E+02  0.00000000000E+00 0.  1.
          5    1    1    2  502    0  0.24793520308E+02  0.13740620101E+03  0.64289096411E+03  0.65789166803E+03  0.41800000000E+01 0.  1.
         -5    1    1    2    0  502 -0.91070164565E+01 -0.23786509316E+02  0.61891665875E+02  0.67058082875E+02  0.41800000000E+01 0.  1.
        -11    1    1    2    0    0 -0.53821545202E+02 -0.75152611196E+02  0.19210622525E+03  0.21318882587E+03  0.00000000000E+00 0.  1.
         11    1    1    2    0    0  0.38135041350E+02 -0.38467080500E+02  0.11060185185E+03  0.12315342989E+03  0.00000000000E+00 0. -1.
</event>
<event>
 7    1  0.2661133E-009  0.1139940E+03  0.7561462E-02  0.1253347E+00
         -4   -1    0    0    0  501 -0.00000000000E+00  0.00000000000E+00  0.27858318630E+02  0.27858318630E+02  0.00000000000E+00 0.  1.
          4   -1    0    0  501    0  0.00000000000E+00 -0.00000000000E+00 -0.59495179072E+03  0.59495179072E+03  0.00000000000E+00 0. -1.
         25    2    1    2    0    0  0.44963767387E+02  0.30522782795E+02 -0.38158397495E+03  0.40522505764E+03  0.12509051424E+03 0.  0.
          5    1    3    3  502    0 -0.12152499147E+02  0.54767319891E+02 -0.28393641916E+03  0.28945553214E+03  0.41800000000E+01 0.  1.
         -5    1    3    3    0  502  0.57116266535E+02 -0.24244537096E+02 -0.97647555791E+02  0.11576952550E+03  0.41800000000E+01 0.  1.
        -11    1    1    2    0    0  0.26047622999E+02  0.98615733969E+01 -0.24749132967E+02  0.37259211967E+02  0.00000000000E+00 0.  1.
         11    1    1    2    0    0 -0.71011390387E+02 -0.40384356192E+02 -0.16076036417E+03  0.18032583974E+03  0.00000000000E+00 0. -1.
</event>
<event>
 7    1  0.2661133E-009  0.1332711E+03  0.7561462E-02  0.1222681E+00
         -1   -1    0    0    0  501 -0.00000000000E+00  0.00000000000E+00  0.44848299912E+02  0.44848299912E+02  0.00000000000E+00 0.  1.
          1   -1    0    0  501    0  0.00000000000E+00 -0.00000000000E+00 -0.60240984916E+03  0.60240984916E+03  0.00000000000E+00 0. -1.
         25    2    1    2    0    0 -0.10469342247E+03 -0.26908827810E+02 -0.41635781763E+03  0.44797983707E+03  0.12508918578E+03 0.  0.
          5    1    3    3  502    0 -0.10561238477E+03 -0.55598205247E+01 -0.16727856251E+03  0.19795069410E+03  0.41800000000E+01 0. -1.
         -5    1    3    3    0  502  0.91896229608E+00 -0.21349007285E+02 -0.24907925512E+03  0.25002914297E+03  0.41800000000E+01 0. -1.
        -11    1    1    2    0    0  0.46714172798E+02  0.56925059565E+02 -0.90120940530E+02  0.11638066965E+03  0.00000000000E+00 0. -1.
         11    1    1    2    0    0  0.57979249671E+02 -0.30016231755E+02 -0.51082791084E+02  0.82897642344E+02  0.00000000000E+00 0.  1.
</event>
<event>
 7    1  0.2661133E-009  0.2265412E+03  0.7561462E-02  0.1129098E+00
         -2   -1    0    0    0  501 -0.00000000000E+00  0.00000000000E+00  0.16577157792E+03  0.16577157792E+03  0.00000000000E+00 0. -1.
          2   -1    0    0  501    0  0.00000000000E+00 -0.00000000000E+00 -0.96131582801E+03  0.96131582801E+03  0.00000000000E+00 0.  1.
         25    2    1    2    0    0  0.16864688037E+03 -0.11869368253E+03  0.54836834374E+02  0.24735323334E+03  0.12508630265E+03 0.  0.
          5    1    3    3  502    0 -0.10601614255E+02 -0.34638163934E+02 -0.11948165614E+02  0.38372225464E+02  0.41800000000E+01 0. -1.
         -5    1    3    3    0  502  0.17924849462E+03 -0.84055518595E+02  0.66784999989E+02  0.20898100788E+03  0.41800000000E+01 0. -1.
        -11    1    1    2    0    0 -0.45989920324E+02  0.75788772771E+02 -0.24451216372E+03  0.26008692597E+03  0.00000000000E+00 0. -1.
         11    1    1    2    0    0 -0.12265696004E+03  0.42904909759E+02 -0.60586892074E+03  0.61964724663E+03  0.00000000000E+00 0.  1.
</event>
<event>
 7    1  0.2661133E-009  0.1954250E+03  0.7561462E-02  0.1153657E+00
          2   -1    0    0  501    0  0.00000000000E+00  0.00000000000E+00  0.24812090765E+04  0.24812090765E+04  0.00000000000E+00 0. -1.
         -2   -1    0    0    0  501 -0.00000000000E+00 -0.00000000000E+00 -0.22223412727E+02  0.22223412727E+02  0.00000000000E+00 0.  1.
         25    2    1    2    0    0  0.16723361398E+03 -0.54509895146E+02  0.18564038756E+04  0.18689109065E+04  0.12511681255E+03 0.  0.
          5    1    3    3  502    0  0.10467090513E+03  0.30054599885E+02  0.83053271831E+03  0.83765228224E+03  0.41800000000E+01 0. -1.
         -5    1    3    3    0  502  0.62562708853E+02 -0.84564495031E+02  0.10258711573E+04  0.10312586243E+04  0.41800000000E+01 0. -1.
        -11    1    1    2    0    0 -0.73419127789E+02  0.15753506634E+02  0.12136969177E+03  0.14272050791E+03  0.00000000000E+00 0.  1.
         11    1    1    2    0    0 -0.93814486191E+02  0.38756388511E+02  0.48121209639E+03  0.49180107481E+03  0.00000000000E+00 0. -1.
</event>
<event>
 7    1  0.2661133E-009  0.1093990E+03  0.7561462E-02  0.1261687E+00
         -3   -1    0    0    0  501 -0.00000000000E+00  0.00000000000E+00  0.21278083610E+03  0.21278083610E+03  0.00000000000E+00 0.  1.
          3   -1    0    0  501    0  0.00000000000E+00 -0.00000000000E+00 -0.89748924632E+02  0.89748924632E+02  0.00000000000E+00 0. -1.
         25    2    1    2    0    0 -0.16167524997E+02 -0.69296513375E+02  0.11485854349E+03  0.18413494365E+03  0.12509914801E+03 0.  0.
          5    1    3    3  502    0  0.12622982591E+02  0.31066909763E+02  0.81052920673E+01  0.34751413370E+02  0.41800000000E+01 0. -1.
         -5    1    3    3    0  502 -0.28790507588E+02 -0.10036342314E+03  0.10675325142E+03  0.14938353028E+03  0.41800000000E+01 0. -1.
        -11    1    1    2    0    0  0.25637763768E+02  0.65443164797E+02  0.42798964721E+02  0.82291276153E+02  0.00000000000E+00 0.  1.
         11    1    1    2    0    0 -0.94702387706E+01  0.38533485777E+01 -0.34625596741E+02  0.36103540925E+02  0.00000000000E+00 0. -1.
</event>
<event>
 7    1  0.2661133E-009  0.9901457E+02  0.7561462E-02  0.1282382E+00
          2   -1    0    0  501    0  0.00000000000E+00  0.00000000000E+00  0.21337604404E+02  0.21337604404E+02  0.00000000000E+00 0. -1.
         -2   -1    0    0    0  501 -0.00000000000E+00 -0.00000000000E+00 -0.56015827551E+03  0.56015827551E+03  0.00000000000E+00 0.  1.
         25    2    1    2    0    0  0.20132220390E+01 -0.10652818404E+02 -0.32025566524E+03  0.34398796959E+03  0.12508595643E+03 0.  0.
          5    1    3    3  502    0 -0.44481601546E+02 -0.33546390991E+02 -0.76387649266E+02  0.94638885163E+02  0.41800000000E+01 0.  1.
         -5    1    3    3    0  502  0.46494823585E+02  0.22893572587E+02 -0.24386801598E+03  0.24934908442E+03  0.41800000000E+01 0.  1.
        -11    1    1    2    0    0 -0.45597962335E+02  0.94338730768E+01 -0.14148615482E+03  0.14895134822E+03  0.00000000000E+00 0.  1.
         11    1    1    2    0    0  0.43584740296E+02  0.12189453272E+01 -0.77078851044E+02  0.88556562110E+02  0.00000000000E+00 0. -1.
</event>
<event>
 7    1  0.2661133E-009  0.1046129E+03  0.7561462E-02  0.1270884E+00
         -1   -1    0    0    0  501 -0.00000000000E+00  0.00000000000E+00  0.98245000487E+02  0.98245000487E+02  0.00000000000E+00 0.  1.
          1   -1    0    0  501    0  0.00000000000E+00 -0.00000000000E+00 -0.20563383763E+03  0.20563383763E+03  0.00000000000E+00 0. -1.
         25    2    1    2    0    0 -0.31736107255E+02 -0.69417605537E+02 -0.53398223652E+01  0.14663526348E+03  0.12508957722E+03 0.  0.
          5    1    3    3  502    0  0.16723378278E+02  0.16291391404E+02 -0.36278941475E+02  0.43344143888E+02  0.41800000000E+01 0.  1.
         -5    1    3    3    0  502 -0.48459485533E+02 -0.85708996941E+02  0.30939119109E+02  0.10329111959E+03  0.41800000000E+01 0.  1.
        -11    1    1    2    0    0 -0.95007118481E+01  0.22913140771E+02 -0.90739611336E+02  0.94068871637E+02  0.00000000000E+00 0. -1.
         11    1    1    2    0    0  0.41236819103E+02  0.46504464766E+02 -0.11309403439E+02  0.63174702999E+02  0.00000000000E+00 0.  1.
</event>
<event>
 7    1  0.2661133E-009  0.2652120E+03  0.7561462E-02  0.1104052E+00
         -1   -1    0    0    0  501 -0.00000000000E+00  0.00000000000E+00  0.14112750801E+04  0.14112750801E+04  0.00000000000E+00 0.  1.
          1   -1    0    0  501    0  0.00000000000E+00 -0.00000000000E+00 -0.96854643984E+02  0.96854643984E+02  0.00000000000E+00 0. -1.
         25    2    1    2    0    0  0.20814645408E+03  0.15335848883E+03  0.11549280697E+04  0.11901049916E+04  0.12508905823E+03 0.  0.
          5    1    3    3  502    0  0.81972645298E+02  0.26750312542E+02  0.62252792214E+03  0.62848514704E+03  0.41800000000E+01 0. -1.
         -5    1    3    3    0  502  0.12617380878E+03  0.12660817629E+03  0.53240014753E+03  0.56161984457E+03  0.41800000000E+01 0. -1.
        -11    1    1    2    0    0 -0.13746132666E+03 -0.64732124224E+02  0.48804847513E+02  0.15958626938E+03  0.00000000000E+00 0.  1.
         11    1    1    2    0    0 -0.70685127427E+02 -0.88626364606E+02  0.11068751893E+03  0.15843846310E+03  0.00000000000E+00 0. -1.
</event>
<event>
 6    1  0.2661133E-009  0.2126168E+03  0.7561462E-02  0.1139510E+00
         -2   -1    0    0    0  501 -0.00000000000E+00  0.00000000000E+00  0.30760583676E+02  0.30760583676E+02  0.00000000000E+00 0.  1.
          2   -1    0    0  501    0  0.00000000000E+00 -0.00000000000E+00 -0.20901603795E+04  0.20901603795E+04  0.00000000000E+00 0. -1.
          5    1    1    2  502    0  0.13599451979E+03 -0.93399705449E+02 -0.13317383886E+04  0.13419249690E+04  0.41800000000E+01 0. -1.
         -5    1    1    2    0  502  0.50953596223E+02  0.34502631323E+01 -0.12462309059E+03  0.13474628156E+03  0.41800000000E+01 0. -1.
        -11    1    1    2    0    0 -0.55275608023E+02  0.14265270728E+02 -0.29886891029E+03  0.30427210902E+03  0.00000000000E+00 0. -1.
         11    1    1    2    0    0 -0.13167250799E+03  0.75684171589E+02 -0.30416940641E+03  0.33997760365E+03  0.00000000000E+00 0.  1.
</event>
<event>
 7    1  0.2661133E-009  0.1286584E+03  0.7561462E-02  0.1229460E+00
         -2   -1    0    0    0  501 -0.00000000000E+00  0.00000000000E+00  0.12547537019E+02  0.12547537019E+02  0.00000000000E+00 0.  1.
          2   -1    0    0  501    0  0.00000000000E+00 -0.00000000000E+00 -0.21874283944E+04  0.21874283944E+04  0.00000000000E+00 0. -1.
         25    2    1    2    0    0  0.73875742790E+02  0.46820139615E+02 -0.17432539576E+04  0.17499223625E+04  0.12507662938E+03 0.  0.
          5    1    3    3  502    0  0.52273200979E+01 -0.31702888260E+02 -0.16095045995E+03  0.16417953879E+03  0.41800000000E+01 0.  1.
         -5    1    3    3    0  502  0.68648422692E+02  0.78523027875E+02 -0.15823034977E+04  0.15857428238E+04  0.41800000000E+01 0.  1.
        -11    1    1    2    0    0 -0.12004550619E+02 -0.56629073297E+02 -0.28133572854E+03  0.28722944370E+03  0.00000000000E+00 0. -1.
         11    1    1    2    0    0 -0.61871192170E+02  0.98089336829E+01 -0.15029117122E+03  0.16282412520E+03  0.00000000000E+00 0.  1.
</event>
<event>
 7    1  0.2661133E-009  0.3024973E+03  0.7561462E-02  0.1083999E+00
          2   -1    0    0  501    0  0.00000000000E+00  0.00000000000E+00  0.46323297131E+04  0.46323297131E+04  0.00000000000E+00 0. -1.
         -2   -1    0    0    0  501 -0.00000000000E+00 -0.00000000000E+00 -0.45183340294E+02  0.45183340294E+02  0.00000000000E+00 0.  1.
         25    2    1    2    0    0  0.22327298085E+03  0.19031724699E+03  0.40177579416E+04  0.40303966026E+04  0.12508564667E+03 0.  0.
          5    1    3    3  502    0 -0.77029020955E+00 -0.16496685826E+01  0.57477482070E+03  0.57479290328E+03  0.41800000000E+01 0. -1.
         -5    1    3    3    0  502  0.22404327106E+03  0.19196691557E+03  0.34429831209E+04  0.34556036994E+04  0.41800000000E+01 0. -1.
        -11    1    1    2    0    0 -0.16394859452E+03 -0.85440927681E+02  0.38107818318E+03  0.42355622468E+03  0.00000000000E+00 0.  1.
         11    1    1    2    0    0 -0.59324386338E+02 -0.10487631930E+03  0.18831024808E+03  0.22356022611E+03  0.00000000000E+00 0. -1.
</event>
<event>
 7    1  0.2661133E-009  0.1257600E+03  0.7561462E-02  0.1233886E+00
          1   -1    0    0  501    0  0.00000000000E+00  0.00000000000E+00  0.42654702816E+03  0.42654702816E+03  0.00000000000E+00 0. -1.
         -1   -1    0    0    0  501 -0.00000000000E+00 -0.00000000000E+00 -0.45564292557E+02  0.45564292557E+02  0.00000000000E+00 0.  1.
         25    2    1    2    0    0  0.62866832876E+02 -0.61802140709E+02  0.22482829221E+03  0.27196959466E+03  0.12509179097E+03 0.  0.
          5    1    3    3  502    0  0.38657129721E+02 -0.90951166820E+02  0.20795501165E+03  0.23028080183E+03  0.41800000000E+01 0.  1.
         -5    1    3    3    0  502  0.24209703155E+02  0.29149026111E+02  0.16873280561E+02  0.41688792822E+02  0.41800000000E+01 0.  1.
        -11    1    1    2    0    0 -0.79083792529E+02  0.57281266359E+02  0.93245093377E+02  0.13501865484E+03  0.00000000000E+00 0.  1.
         11    1    1    2    0    0  0.16216959653E+02  0.45208743497E+01  0.62909350014E+02  0.65123071215E+02  0.00000000000E+00 0. -1.
</event>
<event>
 7    1  0.2661133E-009  0.8878382E+02  0.7561462E-02  0.1305824E+00
         -2   -1    0    0    0  501 -0.00000000000E+00  0.00000000000E+00  0.23153329887E+03  0.23153329887E+03  0.00000000000E+00 0. -1.
          2   -1    0    0  501    0  0.00000000000E+00 -0.00000000000E+00 -0.53894020390E+02  0.53894020390E+02  0.00000000000E+00 0.  1.
         25    2    1    2    0    0  0.10342921879E+02 -0.21496819276E+02  0.78593654295E+02  0.14964422853E+03  0.12508934154E+03 0.  0.
          5    1    3    3  502    0  0.82938775002E+00  0.46549595252E+02  0.21757353409E+01  0.46794860043E+02  0.41800000000E+01 0. -1.
         -5    1    3    3    0  502  0.95135341293E+01 -0.68046414528E+02  0.76417918954E+02  0.10284936849E+03  0.41800000000E+01 0. -1.
        -11    1    1    2    0    0 -0.18745340446E+02 -0.15329553315E+02 -0.53194841206E+01  0.24792738949E+02  0.00000000000E+00 0.  1.
         11    1    1    2    0    0  0.84024185662E+01  0.36826372591E+02  0.10436510831E+03  0.11099035178E+03  0.00000000000E+00 0. -1.
</event>
<event>
 7    1  0.2661133E-009  0.1963731E+03  0.7561462E-02  0.1152836E+00
         -2   -1    0    0    0  501 -0.00000000000E+00  0.00000000000E+00  0.26197912900E+03  0.26197912900E+03  0.00000000000E+00 0.  1.
          2   -1    0    0  501    0  0.00000000000E+00 -0.00000000000E+00 -0.27264387300E+03  0.27264387300E+03  0.00000000000E+00 0. -1.
         25    2    1    2    0    0  0.37204955104E+02 -0.18220053740E+03 -0.15645626876E+03  0.27332687981E+03  0.12509106554E+03 0.  0.
          5    1    3    3  502    0  0.36092541113E+02 -0.11485206595E+03 -0.21400845904E+02  0.12234842533E+03  0.41800000000E+01 0. -1.
         -5    1    3    3    0  502  0.11124139912E+01 -0.67348471450E+02 -0.13505542286E+03  0.15097845447E+03  0.41800000000E+01 0. -1.
        -11    1    1    2    0    0 -0.61097804275E+02  0.84858128042E+02  0.11720060890E+03  0.15706631182E+03  0.00000000000E+00 0.  1.
         11    1    1    2    0    0  0.23892849171E+02  0.97342409356E+02  0.28590915858E+02  0.10422981037E+03  0.00000000000E+00 0. -1.
</event>
<event>
 7    1  0.2661133E-009  0.1258053E+03  0.7561462E-02  0.1233816E+00
         -3   -1    0    0    0  501 -0.00000000000E+00  0.00000000000E+00  0.54577704635E+02  0.54577704635E+02  0.00000000000E+00 0.  1.
          3   -1    0    0  501    0  0.00000000000E+00 -0.00000000000E+00 -0.37440208512E+03  0.37440208512E+03  0.00000000000E+00 0. -1.
         25    2    1    2    0    0 -0.87658393673E+02 -0.19346850226E+02 -0.14223091443E+03  0.20960538880E+03  0.12508593606E+03 0.  0.
          5    1    3    3  502    0  0.13081393299E+02 -0.17400448285E+02 -0.96254535277E+02  0.98774016889E+02  0.41800000000E+01 0.  1.
         -5    1    3    3    0  502 -0.10073978697E+03 -0.19464019408E+01 -0.45976379157E+02  0.11083137191E+03  0.41800000000E+01 0.  1.
        -11    1    1    2    0    0  0.10723230897E+03  0.12979410624E+02 -0.14465507754E+03  0.18053344467E+03  0.00000000000E+00 0.  1.
         11    1    1    2    0    0 -0.19573915296E+02  0.63674396018E+01 -0.32938388504E+02  0.38840956275E+02  0.00000000000E+00 0. -1.
</event>
<event>
 7    1  0.2661133E-009  0.8444446E+02  0.7561462E-02  0.1316892E+00
          1   -1    0    0  501    0  0.00000000000E+00  0.00000000000E+00  0.35552858083E+03  0.35552858083E+03  0.00000000000E+00 0. -1.
         -1   -1    0    0    0  501 -0.00000000000E+00 -0.00000000000E+00 -0.75633610096E+02  0.75633610096E+02  0.00000000000E+00 0.  1.
         25    2    1    2    0    0  0.20923203792E+02  0.16639724831E+02  0.30784836851E+03  0.33336519458E+03  0.12508826510E+03 0.  0.
          5    1    3    3  502    0 -0.27108592731E+02 -0.23617106127E+02  0.23236430571E+03  0.23516650797E+03  0.41800000000E+01 0.  1.
         -5    1    3    3    0  502  0.48031796523E+02  0.40256830958E+02  0.75484062799E+02  0.98198686614E+02  0.41800000000E+01 0.  1.
        -11    1    1    2    0    0 -0.37174395638E+02  0.10162839291E+02 -0.47261748715E+02  0.60982717922E+02  0.00000000000E+00 0.  1.
         11    1    1    2    0    0  0.16251191846E+02 -0.26802564122E+02  0.19308350942E+02  0.36814278426E+02  0.00000000000E+00 0. -1.
</event>
<event>
 7    1  0.2661133E-009  0.1677576E+03  0.7561462E-02  0.1180207E+00
         -1   -1    0    0    0  501 -0.00000000000E+00  0.00000000000E+00  0.47614754220E+02  0.47614754220E+02  0.00000000000E+00 0.  1.
          1   -1    0    0  501    0  0.00000000000E+00 -0.00000000000E+00 -0.92612465984E+03  0.92612465984E+03  0.00000000000E+00 0. -1.
         25    2    1    2    0    0 -0.10685902648E+03  0.74812158372E+02 -0.16967134255E+03  0.24789607464E+03  0.12509352005E+03 0.  0.
          5    1    3    3  502    0 -0.95811218648E+02 -0.74789420287E+01 -0.75538328696E+02  0.12230795434E+03  0.41800000000E+01 0.  1.
         -5    1    3    3    0  502 -0.11047807833E+02  0.82291100401E+02 -0.94133013853E+02  0.12558812030E+03  0.41800000000E+01 0.  1.
        -11    1    1    2    0    0  0.65822784067E+01 -0.53202758713E+02 -0.24015973895E+03  0.24607023416E+03  0.00000000000E+00 0. -1.
         11    1    1    2    0    0  0.10027674807E+03 -0.21609399659E+02 -0.46867882412E+03  0.47977310526E+03  0.00000000000E+00 0.  1.
</event>
<event>
 7    1  0.2661133E-009  0.1025549E+03  0.7561462E-02  0.1275013E+00
          2   -1    0    0  501    0  0.00000000000E+00  0.00000000000E+00  0.28241732215E+03  0.28241732215E+03  0.00000000000E+00 0. -1.
         -2   -1    0    0    0  501 -0.00000000000E+00 -0.00000000000E+00 -0.62602838562E+02  0.62602838562E+02  0.00000000000E+00 0.  1.
         25    2    1    2    0    0 -0.42740833594E+02 -0.57272831474E+02  0.88010490414E+02  0.16881970235E+03  0.12508912582E+03 0.  0.
          5    1    3    3  502    0  0.14776157718E+02 -0.21716670477E+02 -0.25359177596E+02  0.36749270767E+02  0.41800000000E+01 0.  1.
         -5    1    3    3    0  502 -0.57516991312E+02 -0.35556160997E+02  0.11336966801E+03  0.13207043159E+03  0.41800000000E+01 0.  1.
        -11    1    1    2    0    0 -0.70760128561E+01  0.60433532367E+02  0.43612191551E+02  0.74861906496E+02  0.00000000000E+00 0.  1.
         11    1    1    2    0    0  0.49816846450E+02 -0.31607008933E+01  0.88191801623E+02  0.10133855186E+03  0.00000000000E+00 0. -1.
</event>
<event>
 7    1  0.2661133E-009  0.1542409E+03  0.7561462E-02  0.1195356E+00
          2   -1    0    0  501    0  0.00000000000E+00  0.00000000000E+00  0.60144771012E+03  0.60144771012E+03  0.00000000000E+00 0. -1.
         -2   -1    0    0    0  501 -0.00000000000E+00 -0.00000000000E+00 -0.17044366548E+03  0.17044366548E+03  0.00000000000E+00 0.  1.
         25    2    1    2    0    0 -0.78401562789E+02  0.95352836817E+02 -0.11153259249E+03  0.20814787530E+03  0.12508816998E+03 0.  0.
          5    1    3    3  502    0 -0.53054761013E+02 -0.13602373127E+02 -0.77057251089E+01  0.55467853936E+02  0.41800000000E+01 0. -1.
         -5    1    3    3    0  502 -0.25346801776E+02  0.10895520994E+03 -0.10382686738E+03  0.15268002136E+03  0.41800000000E+01 0. -1.
        -11    1    1    2    0    0  0.63057637557E+02 -0.22179749253E+02  0.36558119454E+03  0.37164205458E+03  0.00000000000E+00 0. -1.
         11    1    1    2    0    0  0.15343925232E+02 -0.73173087565E+02  0.17695544259E+03  0.19210144572E+03  0.00000000000E+00 0.  1.
</event>
<event>
 7    1  0.2661133E-009  0.1573474E+03  0.7561462E-02  0.1191724E+00
         -2   -1    0    0    0  501 -0.00000000000E+00  0.00000000000E+00  0.80148153123E+02  0.80148153123E+02  0.00000000000E+00 0. -1.
          2   -1    0    0  501    0  0.00000000000E+00 -0.00000000000E+00 -0.52308931862E+03  0.52308931862E+03  0.00000000000E+00 0.  1.
         25    2    1    2    0    0  0.92276875793E+02  0.10402261533E+03 -0.78976575429E+02  0.20302339869E+03  0.12508187176E+03 0.  0.
          5    1    3    3  502    0  0.30339518113E+02 -0.16543829143E+02 -0.55328284843E+02  0.65367240616E+02  0.41800000000E+01 0. -1.
         -5    1    3    3    0  502  0.61937357681E+02  0.12056644447E+03 -0.23648290586E+02  0.13765615807E+03  0.41800000000E+01 0. -1.
        -11    1    1    2    0    0 -0.46639229852E+02 -0.24735046470E+02 -0.48277613099E+02  0.71538578485E+02  0.00000000000E+00 0.  1.
         11    1    1    2    0    0 -0.45637645941E+02 -0.79287568855E+02 -0.31568697697E+03  0.32867549457E+03  0.00000000000E+00 0. -1.
</event>
<event>
 7    1  0.2661133E-009  0.6677191E+02  0.7561462E-02  0.1371428E+00
          2   -1    0    0  501    0  0.00000000000E+00  0.00000000000E+00  0.21487213932E+03  0.21487213932E+03  0.00000000000E+00 0. -1.
         -2   -1    0    0    0  501 -0.00000000000E+00 -0.00000000000E+00 -0.71518600911E+02  0.71518600911E+02  0.00000000000E+00 0.  1.
         25    2    1    2    0    0  0.66017261671E+01  0.36834298738E+02  0.26871091605E+02  0.13330261860E+03  0.12508870536E+03 0.  0.
          5    1    3    3  502    0 -0.29543546214E+02  0.10305697426E+02 -0.41066061929E+02  0.51796933931E+02  0.41800000000E+01 0. -1.
         -5    1    3    3    0  502  0.36145272381E+02  0.26528601312E+02  0.67937153534E+02  0.81505684669E+02  0.41800000000E+01 0. -1.
        -11    1    1    2    0    0 -0.24071611170E+02 -0.29302140173E+02  0.30200010039E+01  0.38041796607E+02  0.00000000000E+00 0.  1.
         11    1    1    2    0    0  0.17469885003E+02 -0.75321585651E+01  0.11346244580E+03  0.11504632503E+03  0.00000000000E+00 0. -1.
</event>
<event>
 7    1  0.2661133E-009  0.9031730E+02  0.7561462E-02  0.1302085E+00
         -3   -1    0    0    0  501 -0.00000000000E+00  0.00000000000E+00  0.29679861082E+03  0.29679861082E+03  0.00000000000E+00 0.  1.
          3   -1    0    0  501    0  0.00000000000E+00 -0.00000000000E+00 -0.43075225944E+02  0.43075225944E+02  0.00000000000E+00 0. -1.
         25    2    1    2    0    0 -0.25912848744E+02 -0.21301775371E+02  0.14179877100E+03  0.19203883464E+03  0.12508709442E+03 0.  0.
          5    1    3    3  502    0 -0.22099855752E+02  0.30462024492E+02 -0.31734335307E+01  0.37998442610E+02  0.41800000000E+01 0.  1.
         -5    1    3    3    0  502 -0.38129929913E+01 -0.51763799862E+02  0.14497220453E+03  0.15404039203E+03  0.41800000000E+01 0.  1.
        -11    1    1    2    0    0 -0.19104215835E+02  0.38121184939E+02  0.78383381110E+02  0.89230881639E+02  0.00000000000E+00 0.  1.
         11    1    1    2    0    0  0.45017064579E+02 -0.16819409569E+02  0.33541232763E+02  0.58604120476E+02  0.00000000000E+00 0. -1.
</event>
<event>
 7    1  0.2661133E-009  0.9189782E+02  0.7561462E-02  0.1298320E+00
          2   -1    0    0  501    0  0.00000000000E+00  0.00000000000E+00  0.18976450147E+04  0.18976450147E+04  0.00000000000E+00 0. -1.
         -2   -1    0    0    0  501 -0.00000000000E+00 -0.00000000000E+00 -0.71898074784E+01  0.71898074784E+01  0.00000000000E+00 0.  1.
         25    2    1    2    0    0 -0.12920732851E+02  0.20022969065E+02  0.13249762854E+04  0.13310816202E+04  0.12509299727E+03 0.  0.
          5    1    3    3  502    0  0.36189715494E+01 -0.31733607594E+02  0.10364497208E+03  0.10853511618E+03  0.41800000000E+01 0. -1.
         -5    1    3    3    0  502 -0.16539704400E+02  0.51756576659E+02  0.12213313134E+04  0.12225465040E+04  0.41800000000E+01 0. -1.
        -11    1    1    2    0    0 -0.21486005615E+01  0.37531908037E+02  0.22020333996E+03  0.22338928249E+03  0.00000000000E+00 0.  1.
         11    1    1    2    0    0  0.15069333412E+02 -0.57554877102E+02  0.34527558178E+03  0.35036391946E+03  0.00000000000E+00 0. -1.
</event>
<event>
 7    1  0.2661133E-009  0.1265487E+03  0.7561462E-02  0.1232669E+00
          2   -1    0    0  501    0  0.00000000000E+00  0.00000000000E+00  0.46679214013E+03  0.46679214013E+03  0.00000000000E+00 0. -1.
         -2   -1    0    0    0  501 -0.00000000000E+00 -0.00000000000E+00 -0.40890736622E+02  0.40890736622E+02  0.00000000000E+00 0.  1.
         25    2    1    2    0    0  0.36244516188E+02  0.76183256581E+02  0.20854551145E+03  0.25740260888E+03  0.12508924483E+03 0.  0.
          5    1    3    3  502    0  0.78427609732E+02  0.38349562772E+02  0.87443233514E+02  0.12363401806E+03  0.41800000000E+01 0. -1.
         -5    1    3    3    0  502 -0.42183093544E+02  0.37833693810E+02  0.12110227794E+03  0.13376859082E+03  0.41800000000E+01 0. -1.
        -11    1    1    2    0    0 -0.48604859925E+01 -0.77320519443E+02  0.88348862735E+02  0.11750578112E+03  0.00000000000E+00 0.  1.
         11    1    1    2    0    0 -0.31384030195E+02  0.11372628614E+01  0.12900702932E+03  0.13277448675E+03  0.00000000000E+00 0. -1.
</event>
<event>
 7    1  0.2661133E-009  0.1374267E+03  0.7561462E-02  0.1216834E+00
          1   -1    0    0  501    0  0.00000000000E+00  0.00000000000E+00  0.10173792609E+04  0.10173792609E+04  0.00000000000E+00 0. -1.
         -1   -1    0    0    0  501 -0.00000000000E+00 -0.00000000000E+00 -0.20027444073E+02  0.20027444073E+02  0.00000000000E+00 0.  1.
         25    2    1    2    0    0  0.24388384561E+02  0.81089818146E+02  0.67868498177E+03  0.69529189585E+03  0.12508862476E+03 0.  0.
          5    1    3    3  502    0  0.26573475413E+02  0.11431178009E+03  0.53619519257E+03  0.54890444487E+03  0.41800000000E+01 0. -1.
         -5    1    3    3    0  502 -0.21850908516E+01 -0.33221961945E+02  0.14248978920E+03  0.14638745098E+03  0.41800000000E+01 0. -1.
        -11    1    1    2    0    0  0.31940895205E+02 -0.10646907349E+02  0.72251094421E+02  0.79710714885E+02  0.00000000000E+00 0.  1.
         11    1    1    2    0    0 -0.56329279766E+02 -0.70442910797E+02  0.24641574064E+03  0.26240409424E+03  0.00000000000E+00 0. -1.
</event>
<event>
 7    1  0.2661133E-009  0.1072201E+03  0.7561462E-02  0.1265806E+00
          2   -1    0    0  501    0  0.00000000000E+00  0.00000000000E+00  0.63022537646E+02  0.63022537646E+02  0.00000000000E+00 0.  1.
         -2   -1    0    0    0  501 -0.00000000000E+00 -0.00000000000E+00 -0.22007939833E+03  0.22007939833E+03  0.00000000000E+00 0. -1.
         25    2    1    2    0    0  0.45050206214E+02  0.66584513650E+01 -0.91153645487E+02  0.16134103277E+03  0.12509230877E+03 0.  0.
          5    1    3    3  502    0  0.76513099221E+02 -0.28070107550E+02 -0.77029016535E+02  0.11221910300E+03  0.41800000000E+01 0. -1.
         -5    1    3    3    0  502 -0.31462893006E+02  0.34728558915E+02 -0.14124628952E+02  0.49121929763E+02  0.41800000000E+01 0. -1.
        -11    1    1    2    0    0 -0.50102831717E+02  0.23405694280E+02 -0.74027048847E+01  0.55793550796E+02  0.00000000000E+00 0.  1.
         11    1    1    2    0    0  0.50526255031E+01 -0.30064145645E+02 -0.58500510316E+02  0.65967352418E+02  0.00000000000E+00 0. -1.
</event>
<event>
 7    1  0.2661133E-009  0.1530787E+03  0.7561462E-02  0.1196740E+00
         -2   -1    0    0    0  501 -0.00000000000E+00  0.00000000000E+00  0.31080706663E+03  0.31080706663E+03  0.00000000000E+00 0. -1.
          2   -1    0    0  501    0  0.00000000000E+00 -0.00000000000E+00 -0.10651625627E+03  0.10651625627E+03  0.00000000000E+00 0.  1.
         25    2    1    2    0    0  0.79587841886E+02 -0.11883636877E+03  0.77125576312E+02  0.20506384940E+03  0.12508605314E+03 0.  0.
          5    1    3    3  502    0  0.80645489033E+02 -0.77170354074E+02 -0.61282770758E+01  0.11186593149E+03  0.41800000000E+01 0.  1.
         -5    1    3    3    0  502 -0.10576471472E+01 -0.41666014701E+02  0.83253853388E+02  0.93197917909E+02  0.41800000000E+01 0.  1.
        -11    1    1    2    0    0 -0.17043949964E+02  0.73172246424E+02  0.16058418024E+02  0.76828033077E+02  0.00000000000E+00 0.  1.
         11    1    1    2    0    0 -0.62543891922E+02  0.45664122351E+02  0.11110681603E+03  0.13543144042E+03  0.00000000000E+00 0. -1.
</event>
<event>
 7    1  0.2661133E-009  0.1096219E+03  0.7561462E-02  0.1261272E+00
          1   -1    0    0  501    0  0.00000000000E+00  0.00000000000E+00  0.34171148569E+03  0.34171148569E+03  0.00000000000E+00 0. -1.
         -1   -1    0    0    0  501 -0.00000000000E+00 -0.00000000000E+00 -0.58119034340E+02  0.58119034340E+02  0.00000000000E+00 0.  1.
         25    2    1    2    0    0  0.55773199426E+02  0.10438620381E+02  0.25443283802E+03  0.28914259765E+03  0.12509099945E+03 0.  0.
          5    1    3    3  502    0  0.67686833660E+02  0.53079379375E+02  0.12117283331E+03  0.14865818477E+03  0.41800000000E+01 0. -1.
         -5    1    3    3    0  502 -0.11913634234E+02 -0.42640758993E+02  0.13326000471E+03  0.14048441288E+03  0.41800000000E+01 0. -1.
        -11    1    1    2    0    0 -0.26857251229E+02  0.29146098103E+02 -0.17211525451E+02  0.43209299769E+02  0.00000000000E+00 0.  1.
         11    1    1    2    0    0 -0.28915948197E+02 -0.39584718484E+02  0.46371138786E+02  0.67478622615E+02  0.00000000000E+00 0. -1.
</event>
<event>
 7    1  0.2661133E-009  0.1397870E+03  0.7561462E-02  0.1213616E+00
         -1   -1    0    0    0  501 -0.00000000000E+00  0.00000000000E+00  0.13203274313E+03  0.13203274313E+03  0.00000000000E+00 0.  1.
          1   -1    0    0  501    0  0.00000000000E+00 -0.00000000000E+00 -0.17286946314E+03  0.17286946314E+03  0.00000000000E+00 0. -1.
         25    2    1    2    0    0  0.10179687922E+03  0.27048942009E+02 -0.31575766187E+02  0.16654829969E+03  0.12508819784E+03 0.  0.
          5    1    3    3  502    0  0.67501353535E+02 -0.38120107072E+02  0.15334665751E+02  0.79134061352E+02  0.41800000000E+01 0.  1.
         -5    1    3    3    0  502  0.34295525681E+02  0.65169049082E+02 -0.46910431938E+02  0.87414238340E+02  0.41800000000E+01 0.  1.
        -11    1    1    2    0    0 -0.60621947929E+02 -0.52141378772E+02 -0.30611490894E+02  0.85620133881E+02  0.00000000000E+00 0. -1.
         11    1    1    2    0    0 -0.41174931287E+02  0.25092436762E+02  0.21350537072E+02  0.52733772693E+02  0.00000000000E+00 0.  1.
</event>
<event>
 7    1  0.2661133E-009  0.1123840E+03  0.7561462E-02  0.1256218E+00
          4   -1    0    0  501    0  0.00000000000E+00  0.00000000000E+00  0.11427195663E+03  0.11427195663E+03  0.00000000000E+00 0. -1.
         -4   -1    0    0    0  501 -0.00000000000E+00 -0.00000000000E+00 -0.18093924602E+03  0.18093924602E+03  0.00000000000E+00 0.  1.
         25    2    1    2    0    0  0.25338452254E+02 -0.87535132058E+02 -0.61011859073E+02  0.16636215588E+03  0.12509789549E+03 0.  0.
          5    1    3    3  502    0  0.18203381631E+02  0.16688267976E+01  0.32084367969E+02  0.37162173694E+02  0.41800000000E+01 0. -1.
         -5    1    3    3    0  502  0.71350706230E+01 -0.89203958856E+02 -0.93096227042E+02  0.12919998219E+03  0.41800000000E+01 0. -1.
        -11    1    1    2    0    0  0.25152579116E+02  0.38910032602E+02 -0.29360255918E+02  0.54851321779E+02  0.00000000000E+00 0.  1.
         11    1    1    2    0    0 -0.50491031370E+02  0.48625099456E+02  0.23704825605E+02  0.73997724984E+02  0.00000000000E+00 0. -1.
</event>
<event>
 7    1  0.2661133E-009  0.1136590E+03  0.7561462E-02  0.1253940E+00
         -2   -1    0    0    0  501 -0.00000000000E+00  0.00000000000E+00  0.61709248535E+02  0.61709248535E+02  0.00000000000E+00 0.  1.
          2   -1    0    0  501    0  0.00000000000E+00 -0.00000000000E+00 -0.26688781576E+03  0.26688781576E+03  0.00000000000E+00 0. -1.
         25    2    1    2    0    0  0.29949419620E+02 -0.53854736296E+02 -0.15226230334E+03  0.20646822141E+03  0.12509203443E+03 0.  0.
          5    1    3    3  502    0  0.71834481829E+02 -0.20680657261E+02 -0.12651941619E+03  0.14701196359E+03  0.41800000000E+01 0. -1.
         -5    1    3    3    0  502 -0.41885062209E+02 -0.33174079035E+02 -0.25742887152E+02  0.59456257829E+02  0.41800000000E+01 0. -1.
        -11    1    1    2    0    0  0.25309178811E+02  0.66231567999E+01 -0.40748994082E+02  0.48424180497E+02  0.00000000000E+00 0. -1.
         11    1    1    2    0    0 -0.55258598431E+02  0.47231579497E+02 -0.12167269798E+02  0.73704662381E+02  0.00000000000E+00 0.  1.
</event>
<event>
 7    1  0.2661133E-009  0.1510655E+03  0.7561462E-02  0.1199170E+00
         -1   -1    0    0    0  501 -0.00000000000E+00  0.00000000000E+00  0.29502489921E+02  0.29502489921E+02  0.00000000000E+00 0.  1.
          1   -1    0    0  501    0  0.00000000000E+00 -0.00000000000E+00 -0.10534509572E+04  0.10534509572E+04  0.00000000000E+00 0. -1.
         25    2    1    2    0    0  0.11442882020E+03 -0.61821621258E+02 -0.68813550519E+03  0.71140271070E+03  0.12508986987E+03 0.  0.
          5    1    3    3  502    0  0.11593098202E+03 -0.36171236447E+02 -0.31915599415E+03  0.34150603500E+03  0.41800000000E+01 0.  1.
         -5    1    3    3    0  502 -0.15021618174E+01 -0.25650384811E+02 -0.36897951103E+03  0.36989667570E+03  0.41800000000E+01 0.  1.
        -11    1    1    2    0    0 -0.67552222090E+01 -0.18861931505E+02 -0.80478200959E+02  0.82934590593E+02  0.00000000000E+00 0. -1.
         11    1    1    2    0    0 -0.10767359799E+03  0.80683552763E+02 -0.25533476114E+03  0.28861614584E+03  0.00000000000E+00 0.  1.
</event>
<event>
 7    1  0.2661133E-009  0.2136255E+03  0.7561462E-02  0.1138727E+00
          1   -1    0    0  501    0  0.00000000000E+00  0.00000000000E+00  0.19148889023E+04  0.19148889023E+04  0.00000000000E+00 0. -1.
         -1   -1    0    0    0  501 -0.00000000000E+00 -0.00000000000E+00 -0.28353416085E+02  0.28353416085E+02  0.00000000000E+00 0.  1.
         25    2    1    2    0    0  0.15879095270E+03 -0.12375664217E+03  0.11607616862E+04  0.11847126499E+04  0.12508436184E+03 0.  0.
          5    1    3    3  502    0  0.60811562590E+02  0.52345275713E+01  0.52802033175E+03  0.53155280976E+03  0.41800000000E+01 0.  1.
         -5    1    3    3    0  502  0.97979390108E+02 -0.12899116974E+03  0.63274135443E+03  0.65315984013E+03  0.41800000000E+01 0.  1.
        -11    1    1    2    0    0 -0.94298298264E+02  0.52508511396E+02  0.23730637320E+03  0.26069834596E+03  0.00000000000E+00 0.  1.
         11    1    1    2    0    0 -0.64492654434E+02  0.71248130773E+02  0.48846742680E+03  0.49783132250E+03  0.00000000000E+00 0. -1.
</event>
<event>
 7    1  0.2661133E-009  0.1874779E+03  0.7561462E-02  0.1160756E+00
          1   -1    0    0  501    0  0.00000000000E+00  0.00000000000E+00  0.10964549534E+04  0.10964549534E+04  0.00000000000E+00 0. -1.
         -1   -1    0    0    0  501 -0.00000000000E+00 -0.00000000000E+00 -0.42258263669E+02  0.42258263669E+02  0.00000000000E+00 0.  1.
         25    2    1    2    0    0  0.90746626295E+02  0.15802042151E+03  0.44882929213E+03  0.50029963526E+03  0.12508632130E+03 0.  0.
          5    1    3    3  502    0 -0.10053722044E+01 -0.43516292662E+01  0.13552228042E+03  0.13566026810E+03  0.41800000000E+01 0.  1.
         -5    1    3    3    0  502  0.91751998499E+02  0.16237205077E+03  0.31330701171E+03  0.36463936717E+03  0.41800000000E+01 0.  1.
        -11    1    1    2    0    0 -0.16718277555E+02 -0.25441070709E+02  0.27824764402E+02  0.41242773879E+02  0.00000000000E+00 0. -1.
         11    1    1    2    0    0 -0.74028348739E+02 -0.13257935080E+03  0.57754263316E+03  0.59717080789E+03  0.00000000000E+00 0.  1.
</event>
<event>
 7    1  0.2661133E-009  0.2652796E+03  0.7561462E-02  0.1104012E+00
         -2   -1    0    0    0  501 -0.00000000000E+00  0.00000000000E+00  0.20800584398E+03  0.20800584398E+03  0.00000000000E+00 0.  1.
          2   -1    0    0  501    0  0.00000000000E+00 -0.00000000000E+00 -0.35142446866E+03  0.35142446866E+03  0.00000000000E+00 0. -1.
         25    2    1    2    0    0  0.22239636348E+03 -0.96807499077E+02 -0.12508004933E+03  0.30019995712E+03  0.12507262349E+03 0.  0.
          5    1    3    3  502    0  0.15606734363E+03 -0.92751331368E+00 -0.67303233154E+02  0.17001492176E+03  0.41800000000E+01 0. -1.
         -5    1    3    3    0  502  0.66329019855E+02 -0.95879985763E+02 -0.57776816180E+02  0.13018503536E+03  0.41800000000E+01 0. -1.
        -11    1    1    2    0    0 -0.19775252775E+03  0.11349705136E+03 -0.22756780749E+02  0.22914081690E+03  0.00000000000E+00 0.  1.
         11    1    1    2    0    0 -0.24643835727E+02 -0.16689552286E+02  0.44182054044E+01  0.30089538611E+02  0.00000000000E+00 0. -1.
</event>
<event>
 6    1  0.2661133E-009  0.1077585E+03  0.7561462E-02  0.1264778E+00
         -1   -1    0    0    0  501 -0.00000000000E+00  0.00000000000E+00  0.28855565532E+03  0.28855565532E+03  0.00000000000E+00 0.  1.
          1   -1    0    0  501    0  0.00000000000E+00 -0.00000000000E+00 -0.58919891275E+02  0.58919891275E+02  0.00000000000E+00 0. -1.
          5    1    1    2  502    0  0.20503776246E+01  0.27866318830E+02 -0.11793986421E+02  0.30615458338E+02  0.41800000000E+01 0. -1.
         -5    1    1    2    0  502 -0.70724705910E+02 -0.20165510500E+02  0.15587155708E+03  0.17240083105E+03  0.41800000000E+01 0. -1.
        -11    1    1    2    0    0 -0.20398494955E+02  0.10109607341E+02  0.31124459909E+02  0.38562089695E+02  0.00000000000E+00 0.  1.
         11    1    1    2    0    0  0.89072823241E+02 -0.17810415671E+02  0.54433733472E+02  0.10589716751E+03  0.00000000000E+00 0. -1.
</event>
<event>
 7    1  0.2661133E-009  0.1297996E+03  0.7561462E-02  0.1227753E+00
          1   -1    0    0  501    0  0.00000000000E+00  0.00000000000E+00  0.15653315450E+04  0.15653315450E+04  0.00000000000E+00 0. -1.
         -1   -1    0    0    0  501 -0.00000000000E+00 -0.00000000000E+00 -0.20301592415E+02  0.20301592415E+02  0.00000000000E+00 0.  1.
         25    2    1    2    0    0  0.38245529694E+02  0.10805927478E+03  0.11976979877E+04  0.12096564855E+04  0.12509522698E+03 0.  0.
          5    1    3    3  502    0 -0.13317188898E+02  0.46237349949E+02  0.12613555546E+03  0.13506624597E+03  0.41800000000E+01 0. -1.
         -5    1    3    3    0  502  0.51562718592E+02  0.61821924835E+02  0.10715624322E+04  0.10745902396E+04  0.41800000000E+01 0. -1.
        -11    1    1    2    0    0 -0.23709305487E+02 -0.21707831314E+01  0.18324746466E+02  0.30043964437E+02  0.00000000000E+00 0. -1.
         11    1    1    2    0    0 -0.14536224207E+02 -0.10588849165E+03  0.32900721840E+03  0.34593268744E+03  0.00000000000E+00 0.  1.
</event>
<event>
 7    1  0.2661133E-009  0.9778537E+02  0.7561462E-02  0.1285023E+00
         -1   -1    0    0    0  501 -0.00000000000E+00  0.00000000000E+00  0.84955281662E+02  0.84955281662E+02  0.00000000000E+00 0.  1.
          1   -1    0    0  501    0  0.00000000000E+00 -0.00000000000E+00 -0.25320777322E+03  0.25320777322E+03  0.00000000000E+00 0. -1.
         25    2    1    2    0    0  0.60000795490E+02  0.17785082938E+02  0.10439967458E+01  0.13987546016E+03  0.12509056636E+03 0.  0.
          5    1    3    3  502    0  0.59366699362E+02  0.47098946132E+02 -0.42673509738E+02  0.87070181769E+02  0.41800000000E+01 0.  1.
         -5    1    3    3    0  502  0.63409612861E+00 -0.29313863194E+02  0.43717506484E+02  0.52805278396E+02  0.41800000000E+01 0.  1.
        -11    1    1    2    0    0 -0.68593915932E+02  0.18560266903E+01 -0.75293470431E+02  0.10187088312E+03  0.00000000000E+00 0.  1.
         11    1    1    2    0    0  0.85931204415E+01 -0.19641109628E+02 -0.94003017872E+02  0.96416711598E+02  0.00000000000E+00 0. -1.
</event>
<event>
 7    1  0.2661133E-009  0.1895157E+03  0.7561462E-02  0.1158899E+00
          2   -1    0    0  501    0  0.00000000000E+00  0.00000000000E+00  0.10708256150E+04  0.10708256150E+04  0.00000000000E+00 0. -1.
         -2   -1    0    0    0  501 -0.00000000000E+00 -0.00000000000E+00 -0.40291882569E+02  0.40291882569E+02  0.00000000000E+00 0.  1.
         25    2    1    2    0    0  0.18674044372E+01  0.17621881774E+03  0.55399424922E+03  0.59465597701E+03  0.12509813710E+03 0.  0.
          5    1    3    3  502    0 -0.33489934131E+02  0.16825027983E+02  0.38434124927E+02  0.53845256185E+02  0.41800000000E+01 0.  1.
         -5    1    3    3    0  502  0.35357338568E+02  0.15939378975E+03  0.51556012429E+03  0.54081072083E+03  0.41800000000E+01 0.  1.
        -11    1    1    2    0    0  0.11619190190E+02 -0.80635186357E+02  0.33753106158E+03  0.34722364031E+03  0.00000000000E+00 0. -1.
         11    1    1    2    0    0 -0.13486594627E+02 -0.95583631380E+02  0.13900842158E+03  0.16923788020E+03  0.00000000000E+00 0.  1.
</event>
<event>
 7    1  0.2661133E-009  0.3659113E+03  0.7561462E-02  0.1056267E+00
         -3   -1    0    0    0  501 -0.00000000000E+00  0.00000000000E+00  0.77701598177E+03  0.77701598177E+03  0.00000000000E+00 0.  1.
          3   -1    0    0  501    0  0.00000000000E+00 -0.00000000000E+00 -0.17917773302E+03  0.17917773302E+03  0.00000000000E+00 0. -1.
         25    2    1    2    0    0 -0.12928055641E+03  0.33049375510E+03  0.34718606133E+03  0.51198193274E+03  0.12509098225E+03 0.  0.
          5    1    3    3  502    0 -0.76164754043E+02  0.68808111374E+02  0.56478953078E+02  0.11723041623E+03  0.41800000000E+01 0. -1.
         -5    1    3    3    0  502 -0.53115802371E+02  0.26168564373E+03  0.29070710826E+03  0.39475151651E+03  0.41800000000E+01 0. -1.
        -11    1    1    2    0    0 -0.29291081302E+01 -0.68639676922E+02  0.21529441271E+02  0.71996539943E+02  0.00000000000E+00 0. -1.
         11    1    1    2    0    0  0.13220966454E+03 -0.26185407818E+03  0.22912274615E+03  0.37221524211E+03  0.00000000000E+00 0.  1.
</event>
<event>
 7    1  0.2661133E-009  0.8657354E+02  0.7561462E-02  0.1311368E+00
         -1   -1    0    0    0  501 -0.00000000000E+00  0.00000000000E+00  0.12838926173E+03  0.12838926173E+03  0.00000000000E+00 0.  1.
          1   -1    0    0  501    0  0.00000000000E+00 -0.00000000000E+00 -0.13362507872E+03  0.13362507872E+03  0.00000000000E+00 0. -1.
         25    2    1    2    0    0  0.75719107578E+01  0.20489803486E+00  0.69489985311E+02  0.14328304405E+03  0.12507516475E+03 0.  0.
          5    1    3    3  502    0  0.20825792038E+02  0.60088273663E+02  0.32547740636E+02  0.71562155266E+02  0.41800000000E+01 0. -1.
         -5    1    3    3    0  502 -0.13253881281E+02 -0.59883375629E+02  0.36942244675E+02  0.71720888779E+02  0.41800000000E+01 0. -1.
        -11    1    1    2    0    0  0.19778102069E+02  0.42501621482E+01  0.14767361643E+02  0.25046200703E+02  0.00000000000E+00 0.  1.
         11    1    1    2    0    0 -0.27350012827E+02 -0.44550601830E+01 -0.89493163951E+02  0.93685095703E+02  0.00000000000E+00 0. -1.
</event>
<event>
 7    1  0.2661133E-009  0.8455150E+02  0.7561462E-02  0.1316610E+00
         -1   -1    0    0    0  501 -0.00000000000E+00  0.00000000000E+00  0.11582318903E+03  0.11582318903E+03  0.00000000000E+00 0.  1.
          1   -1    0    0  501    0  0.00000000000E+00 -0.00000000000E+00 -0.10970691781E+03  0.10970691781E+03  0.00000000000E+00 0. -1.
         25    2    1    2    0    0  0.61822043293E+01 -0.29512701585E+01  0.34152793271E+02  0.12985010047E+03  0.12509078966E+03 0.  0.
          5    1    3    3  502    0 -0.20906784937E+02  0.28753994844E+02 -0.34306152748E+02  0.49580947876E+02  0.41800000000E+01 0. -1.
         -5    1    3    3    0  502  0.27088989266E+02 -0.31705265003E+02  0.68458946019E+02  0.80269152595E+02  0.41800000000E+01 0. -1.
        -11    1    1    2    0    0 -0.48763962770E+02  0.19338831155E+01 -0.17012961726E+02  0.51682732471E+02  0.00000000000E+00 0. -1.
         11    1    1    2    0    0  0.42581758441E+02  0.10173870430E+01 -0.11023560323E+02  0.43997273899E+02  0.00000000000E+00 0.  1.
</event>
<event>
 7    1  0.2661133E-009  0.9060427E+02  0.7561462E-02  0.1301395E+00
         -2   -1    0    0    0  501 -0.00000000000E+00  0.00000000000E+00  0.20181067394E+03  0.20181067394E+03  0.00000000000E+00 0.  1.
          2   -1    0    0  501    0  0.00000000000E+00 -0.00000000000E+00 -0.74393557988E+02  0.74393557988E+02  0.00000000000E+00 0. -1.
         25    2    1    2    0    0  0.37524068896E+02 -0.35956259293E+01  0.22811054726E+02  0.13262182525E+03  0.12508884859E+03 0.  0.
          5    1    3    3  502    0  0.21769349780E+02  0.38794985335E+02  0.59379948597E+02  0.74312893716E+02  0.41800000000E+01 0.  1.
         -5    1    3    3    0  502  0.15754719116E+02 -0.42390611265E+02 -0.36568893870E+02  0.58308931535E+02  0.41800000000E+01 0.  1.
        -11    1    1    2    0    0  0.16372908127E+02 -0.25163253186E+02  0.62653293913E+02  0.69474431769E+02  0.00000000000E+00 0. -1.
         11    1    1    2    0    0 -0.53896977023E+02  0.28758879116E+02  0.41952767316E+02  0.74107974913E+02  0.00000000000E+00 0.  1.
</event>
<event>
 7    1  0.2661133E-009  0.1462565E+03  0.7561462E-02  0.1205150E+00
          1   -1    0    0  501    0  0.00000000000E+00  0.00000000000E+00  0.18987467255E+04  0.18987467255E+04  0.00000000000E+00 0. -1.
         -1   -1    0    0    0  501 -0.00000000000E+00 -0.00000000000E+00 -0.13646645593E+02  0.13646645593E+02  0.00000000000E+00 0.  1.
         25    2    1    2    0    0  0.67706174559E+02  0.86816690988E+02  0.12980723212E+04  0.13087247591E+04  0.12508988776E+03 0.  0.
          5    1    3    3  502    0  0.71269208964E+02 -0.76900908266E+01  0.58923753937E+03  0.59359648571E+03  0.41800000000E+01 0. -1.
         -5    1    3    3    0  502 -0.35630344056E+01  0.94506781814E+02  0.70883478183E+03  0.71512827336E+03  0.41800000000E+01 0. -1.
        -11    1    1    2    0    0 -0.12725719255E+02  0.89896316512E+01  0.17094856562E+02  0.23129883888E+02  0.00000000000E+00 0.  1.
         11    1    1    2    0    0 -0.54980455303E+02 -0.95806322639E+02  0.56993290217E+03  0.58053872816E+03  0.00000000000E+00 0. -1.
</event>
<event>
 7    1  0.2661133E-009  0.9705268E+02  0.7561462E-02  0.1286619E+00
          2   -1    0    0  501    0  0.00000000000E+00  0.00000000000E+00  0.23787345808E+03  0.23787345808E+03  0.00000000000E+00 0. -1.
         -2   -1    0    0    0  501 -0.00000000000E+00 -0.00000000000E+00 -0.58964148430E+02  0.58964148430E+02  0.00000000000E+00 0.  1.
         25    2    1    2    0    0 -0.25471740380E+02 -0.35157058697E+02  0.12582359886E+03  0.18265558019E+03  0.12508658844E+03 0.  0.
          5    1    3    3  502    0  0.41735451580E+02 -0.56903341433E+01  0.69528596503E+01  0.42895716320E+02  0.41800000000E+01 0.  1.
         -5    1    3    3    0  502 -0.67207191961E+02 -0.29466724554E+02  0.11887073921E+03  0.13975986387E+03  0.41800000000E+01 0.  1.
        -11    1    1    2    0    0  0.45816923241E+02  0.35445783727E+02  0.64373635357E+00  0.57931066240E+02  0.00000000000E+00 0.  1.
         11    1    1    2    0    0 -0.20345182860E+02 -0.28872502954E+00  0.52441974433E+02  0.56250960083E+02  0.00000000000E+00 0. -1.
</event>
<event>
 7    1  0.2661133E-009  0.5969573E+02  0.7561462E-02  0.1399113E+00
         -1   -1    0    0    0  501 -0.00000000000E+00  0.00000000000E+00  0.17158326611E+03  0.17158326611E+03  0.00000000000E+00 0.  1.
          1   -1    0    0  501    0  0.00000000000E+00 -0.00000000000E+00 -0.85552645013E+02  0.85552645013E+02  0.00000000000E+00 0. -1.
         25    2    1    2    0    0 -0.34799149167E+02 -0.25937802786E+02  0.83391530796E+02  0.15649014646E+03  0.12510502841E+03 0.  0.
          5    1    3    3  502    0 -0.49007884380E+02 -0.40270005675E+01  0.10901567021E+03  0.11966569356E+03  0.41800000000E+01 0. -1.
         -5    1    3    3    0  502  0.14208735213E+02 -0.21910802219E+02 -0.25624139414E+02  0.36824452894E+02  0.41800000000E+01 0. -1.
        -11    1    1    2    0    0  0.15596409338E+02  0.14171258915E+02  0.46660286056E+02  0.51198191943E+02  0.00000000000E+00 0.  1.
         11    1    1    2    0    0  0.19202739829E+02  0.11766543872E+02 -0.44021195758E+02  0.49447572717E+02  0.00000000000E+00 0. -1.
</event>
<event>
 7    1  0.2945296E-009  0.7588416E+02  0.7561462E-02  0.1341155E+00
         -1   -1    0    0    0  501 -0.00000000000E+00  0.00000000000E+00  0.29211196530E+03  0.29211196530E+03  0.00000000000E+00 0.  1.
          1   -1    0    0  501    0  0.00000000000E+00 -0.00000000000E+00 -0.56546103620E+02  0.56546103620E+02  0.00000000000E+00 0. -1.
         25    2    1    2    0    0 -0.60843759372E+02  0.98630622584E+01  0.89705140071E+02  0.16581936832E+03  0.12509919146E+03 0.  0.
          5    1    3    3  502    0 -0.40460843094E+02  0.10760703290E+02 -0.25198241574E+02  0.49043820585E+02  0.41800000000E+01 0.  1.
         -5    1    3    3    0  502 -0.20382916278E+02 -0.89764103121E+00  0.11490338165E+03  0.11677554774E+03  0.41800000000E+01 0.  1.
        -11    1    1    2    0    0  0.58959781543E+02  0.17450429919E+02  0.14256879394E+03  0.15526311329E+03  0.00000000000E+00 0.  1.
         11    1    1    2    0    0  0.18839778292E+01 -0.27313492178E+02  0.32919276681E+01  0.27575587304E+02  0.00000000000E+00 0. -1.
</event>
<event>
 7    1  0.2661133E-009  0.1210676E+03  0.7561462E-02  0.1241346E+00
         -2   -1    0    0    0  501 -0.00000000000E+00  0.00000000000E+00  0.42643733289E+02  0.42643733289E+02  0.00000000000E+00 0.  1.
          2   -1    0    0  501    0  0.00000000000E+00 -0.00000000000E+00 -0.49320985292E+03  0.49320985292E+03  0.00000000000E+00 0. -1.
         25    2    1    2    0    0 -0.27181181843E+02 -0.57189589565E+02 -0.21873609914E+03  0.25981303149E+03  0.12509142443E+03 0.  0.
          5    1    3    3  502    0  0.36808276849E+02 -0.59867078529E+02 -0.15040492852E+03  0.16606634595E+03  0.41800000000E+01 0.  1.
         -5    1    3    3    0  502 -0.63989458693E+02  0.26774889645E+01 -0.68331170620E+02  0.93746685537E+02  0.41800000000E+01 0.  1.
        -11    1    1    2    0    0 -0.26889096416E+02  0.44531049177E+02 -0.21004061245E+03  0.21638645227E+03  0.00000000000E+00 0. -1.
         11    1    1    2    0    0  0.54070278259E+02  0.12658540388E+02 -0.21789408040E+02  0.59654102445E+02  0.00000000000E+00 0.  1.
</event>
<event>
 7    1  0.2661133E-009  0.1190007E+03  0.7561462E-02  0.1244755E+00
          2   -1    0    0  501    0  0.00000000000E+00  0.00000000000E+00  0.25550562166E+02  0.25550562166E+02  0.00000000000E+00 0. -1.
         -2   -1    0    0    0  501 -0.00000000000E+00 -0.00000000000E+00 -0.87219525260E+03  0.87219525260E+03  0.00000000000E+00 0.  1.
         25    2    1    2    0    0 -0.65071771538E+02 -0.44661226972E+02 -0.65629312440E+03  0.67275421531E+03  0.12509439807E+03 0.  0.
          5    1    3    3  502    0 -0.20788239789E+02 -0.72461034363E+02 -0.20569425487E+03  0.21911264523E+03  0.41800000000E+01 0. -1.
         -5    1    3    3    0  502 -0.44283531749E+02  0.27799807390E+02 -0.45059886953E+03  0.45364157007E+03  0.41800000000E+01 0. -1.
        -11    1    1    2    0    0  0.29024907255E+01  0.47716019255E+02 -0.40237410476E+02  0.62484335219E+02  0.00000000000E+00 0. -1.
         11    1    1    2    0    0  0.62169280813E+02 -0.30547922827E+01 -0.15011415556E+03  0.16250726424E+03  0.00000000000E+00 0.  1.
</event>
<event>
 7    1  0.2661133E-009  0.1074677E+03  0.7561462E-02  0.1265332E+00
          1   -1    0    0  501    0  0.00000000000E+00  0.00000000000E+00  0.46302097544E+03  0.46302097544E+03  0.00000000000E+00 0. -1.
         -1   -1    0    0    0  501 -0.00000000000E+00 -0.00000000000E+00 -0.25784625733E+02  0.25784625733E+02  0.00000000000E+00 0.  1.
         25    2    1    2    0    0  0.14372870280E+02  0.18273521752E+01  0.27037650081E+03  0.29826143990E+03  0.12508603329E+03 0.  0.
          5    1    3    3  502    0 -0.11291468327E+02 -0.57950821490E+02  0.15209054571E+03  0.16320172015E+03  0.41800000000E+01 0. -1.
         -5    1    3    3    0  502  0.25664338607E+02  0.59778173665E+02  0.11828595510E+03  0.13505971975E+03  0.41800000000E+01 0. -1.
        -11    1    1    2    0    0  0.35983579711E+02 -0.14233130982E+02  0.55025119047E+02  0.67269337387E+02  0.00000000000E+00 0.  1.
         11    1    1    2    0    0 -0.50356449991E+02  0.12405778807E+02  0.11183472985E+03  0.12327482388E+03  0.00000000000E+00 0. -1.
</event>
<event>
 7    1  0.2661133E-009  0.1286869E+03  0.7561462E-02  0.1229417E+00
          2   -1    0    0  501    0  0.00000000000E+00  0.00000000000E+00  0.14102310830E+03  0.14102310830E+03  0.00000000000E+00 0. -1.
         -2   -1    0    0    0  501 -0.00000000000E+00 -0.00000000000E+00 -0.14151064484E+03  0.14151064484E+03  0.00000000000E+00 0.  1.
         25    2    1    2    0    0  0.77695887275E+02  0.39307456580E+02  0.24519708985E+02  0.15436685485E+03  0.12508470213E+03 0.  0.
          5    1    3    3  502    0 -0.25958936340E+02  0.12017814412E+02 -0.23098460805E+02  0.37004128563E+02  0.41800000000E+01 0. -1.
         -5    1    3    3    0  502  0.10365482362E+03  0.27289642168E+02  0.47618169790E+02  0.11736272629E+03  0.41800000000E+01 0. -1.
        -11    1    1    2    0    0 -0.64934121318E+02 -0.65392994396E+02 -0.33264947637E+02  0.97975714178E+02  0.00000000000E+00 0.  1.
         11    1    1    2    0    0 -0.12761765957E+02  0.26085537816E+02  0.82577021205E+01  0.30191184107E+02  0.00000000000E+00 0. -1.
</event>
<event>
 7    1  0.2661133E-009  0.1541821E+03  0.7561462E-02  0.1195426E+00
         -1   -1    0    0    0  501 -0.00000000000E+00  0.00000000000E+00  0.80147673938E+02  0.80147673938E+02  0.00000000000E+00 0.  1.
          1   -1    0    0  501    0  0.00000000000E+00 -0.00000000000E+00 -0.50357310387E+03  0.50357310387E+03  0.00000000000E+00 0. -1.
         25    2    1    2    0    0  0.12558897078E+03  0.36459050379E+02 -0.66352159954E+02  0.19274442897E+03  0.12508378724E+03 0.  0.
          5    1    3    3  502    0  0.60671797626E+02  0.71803884482E+02 -0.11692109021E+01  0.94104751782E+02  0.41800000000E+01 0.  1.
         -5    1    3    3    0  502  0.64917173157E+02 -0.35344834103E+02 -0.65182949052E+02  0.98639677187E+02  0.41800000000E+01 0.  1.
        -11    1    1    2    0    0 -0.10374366022E+03 -0.49333602417E+02 -0.34353192541E+03  0.36223022395E+03  0.00000000000E+00 0. -1.
         11    1    1    2    0    0 -0.21845310561E+02  0.12874552038E+02 -0.13541344569E+02  0.28746124894E+02  0.00000000000E+00 0.  1.
</event>
<event>
 7    1  0.2661133E-009  0.1223733E+03  0.7561462E-02  0.1239232E+00
          3   -1    0    0  501    0  0.00000000000E+00  0.00000000000E+00  0.76153463963E+02  0.76153463963E+02  0.00000000000E+00 0. -1.
         -3   -1    0    0    0  501 -0.00000000000E+00 -0.00000000000E+00 -0.25589305312E+03  0.25589305312E+03  0.00000000000E+00 0.  1.
         25    2    1    2    0    0  0.33761026419E+02 -0.63734152319E+02 -0.14493749015E+03  0.20458601956E+03  0.12508682693E+03 0.  0.
          5    1    3    3  502    0 -0.34289326013E+02 -0.67790928790E+02 -0.77359208790E+02  0.10850478095E+03  0.41800000000E+01 0.  1.
         -5    1    3    3    0  502  0.68050352432E+02  0.40567764706E+01 -0.67578281356E+02  0.96081238608E+02  0.41800000000E+01 0.  1.
        -11    1    1    2    0    0 -0.17297744138E+01  0.68023740975E+02 -0.56575331331E+02  0.88492878645E+02  0.00000000000E+00 0.  1.
         11    1    1    2    0    0 -0.32031252005E+02 -0.42895886557E+01  0.21773232316E+02  0.38967618882E+02  0.00000000000E+00 0. -1.
</event>
<event>
 7    1  0.2661133E-009  0.1249124E+03  0.7561462E-02  0.1235206E+00
          2   -1    0    0  501    0  0.00000000000E+00  0.00000000000E+00  0.29821060724E+03  0.29821060724E+03  0.00000000000E+00 0. -1.
         -2   -1    0    0    0  501 -0.00000000000E+00 -0.00000000000E+00 -0.75885337068E+02  0.75885337068E+02  0.00000000000E+00 0.  1.
         25    2    1    2    0    0  0.26599063140E+02 -0.90846148575E+02  0.19206878675E+03  0.24798727434E+03  0.12508691586E+03 0.  0.
          5    1    3    3  502    0  0.60214144070E+02 -0.29375652275E+02  0.15433353123E+03  0.16830027734E+03  0.41800000000E+01 0. -1.
         -5    1    3    3    0  502 -0.33615080930E+02 -0.61470496301E+02  0.37735255528E+02  0.79686997001E+02  0.41800000000E+01 0. -1.
        -11    1    1    2    0    0  0.16735466645E+02  0.70238002185E+01 -0.12979936344E+02  0.22313412129E+02  0.00000000000E+00 0.  1.
         11    1    1    2    0    0 -0.43334529785E+02  0.83822348357E+02  0.43236419766E+02  0.10379525784E+03  0.00000000000E+00 0. -1.
</event>
<event>
 7    1  0.2661133E-009  0.9259202E+02  0.7561462E-02  0.1296693E+00
          2   -1    0    0  501    0  0.00000000000E+00  0.00000000000E+00  0.30218522465E+03  0.30218522465E+03  0.00000000000E+00 0. -1.
         -2   -1    0    0    0  501 -0.00000000000E+00 -0.00000000000E+00 -0.87316425829E+02  0.87316425829E+02  0.00000000000E+00 0.  1.
         25    2    1    2    0    0  0.66015795837E+02 -0.30572565060E+01  0.23666365347E+03  0.27571987516E+03  0.12507730638E+03 0.  0.
          5    1    3    3  502    0 -0.13746632663E+02  0.22419518487E+02  0.22010883781E+01  0.26719317148E+02  0.41800000000E+01 0.  1.
         -5    1    3    3    0  502  0.79762428500E+02 -0.25476774993E+02  0.23446256509E+03  0.24900055802E+03  0.41800000000E+01 0.  1.
        -11    1    1    2    0    0 -0.27818302211E+02  0.18617748710E+02  0.31788486009E+02  0.46162607679E+02  0.00000000000E+00 0. -1.
         11    1    1    2    0    0 -0.38197493625E+02 -0.15560492204E+02 -0.53583340652E+02  0.67619167640E+02  0.00000000000E+00 0.  1.
</event>
<event>
 7    1  0.2661133E-009  0.1014882E+03  0.7561462E-02  0.1277197E+00
         -4   -1    0    0    0  501 -0.00000000000E+00  0.00000000000E+00  0.56875234002E+03  0.56875234002E+03  0.00000000000E+00 0.  1.
          4   -1    0    0  501    0  0.00000000000E+00 -0.00000000000E+00 -0.28103321264E+02  0.28103321264E+02  0.00000000000E+00 0. -1.
         25    2    1    2    0    0  0.57120162212E+02 -0.17993378122E+02  0.35992054969E+03  0.38571670896E+03  0.12509237745E+03 0.  0.
          5    1    3    3  502    0  0.48672939360E+02 -0.69638415381E+02  0.19803672351E+03  0.21553324612E+03  0.41800000000E+01 0. -1.
         -5    1    3    3    0  502  0.84472228516E+01  0.51645037259E+02  0.16188382618E+03  0.17018346284E+03  0.41800000000E+01 0. -1.
        -11    1    1    2    0    0 -0.48157202801E+02  0.33866124612E+01  0.18681566152E+03  0.19295252451E+03  0.00000000000E+00 0.  1.
         11    1    1    2    0    0 -0.89629594111E+01  0.14606765661E+02 -0.60871924569E+01  0.18186427810E+02  0.00000000000E+00 0. -1.
</event>
<event>
 7    1  0.2759277E-009  0.1086651E+03  0.7561462E-02  0.1263062E+00
          2   -1    0    0  501    0  0.00000000000E+00  0.00000000000E+00  0.11050209291E+04  0.11050209291E+04  0.00000000000E+00 0.  1.
         -2   -1    0    0    0  501 -0.00000000000E+00 -0.00000000000E+00 -0.12764957461E+02  0.12764957461E+02  0.00000000000E+00 0. -1.
         25    2    1    2    0    0  0.31242359778E+02 -0.14037285666E+02  0.77180922508E+03  0.78263031852E+03  0.12509038780E+03 0.  0.
          5    1    3    3  502    0 -0.29828114259E+02  0.31151107081E+02  0.14844636065E+03  0.15464120494E+03  0.41800000000E+01 0. -1.
         -5    1    3    3    0  502  0.61070474037E+02 -0.45188392748E+02  0.62336286443E+03  0.62798911359E+03  0.41800000000E+01 0. -1.
        -11    1    1    2    0    0 -0.37505498195E+02 -0.33304879858E+02  0.15135099291E+03  0.15944591707E+03  0.00000000000E+00 0. -1.
         11    1    1    2    0    0  0.62631384162E+01  0.47342165525E+02  0.16909575364E+03  0.17570965096E+03  0.00000000000E+00 0.  1.
</event>
<event>
 7    1  0.2661133E-009  0.6426296E+02  0.7561462E-02  0.1380766E+00
          2   -1    0    0  501    0  0.00000000000E+00  0.00000000000E+00  0.90435702840E+02  0.90435702840E+02  0.00000000000E+00 0. -1.
         -2   -1    0    0    0  501 -0.00000000000E+00 -0.00000000000E+00 -0.14394805034E+03  0.14394805034E+03  0.00000000000E+00 0.  1.
         25    2    1    2    0    0  0.12367702422E+01  0.60413646234E+01  0.44825517948E+01  0.12532217805E+03  0.12509007696E+03 0.  0.
          5    1    3    3  502    0 -0.11573259867E+02  0.22412511392E+02 -0.55821824551E+02  0.61398774475E+02  0.41800000000E+01 0. -1.
         -5    1    3    3    0  502  0.12810030110E+02 -0.16371146768E+02  0.60304376346E+02  0.63923403573E+02  0.41800000000E+01 0. -1.
        -11    1    1    2    0    0  0.53047305755E+01 -0.43452739718E+02 -0.55933069891E+02  0.71026678529E+02  0.00000000000E+00 0.  1.
         11    1    1    2    0    0 -0.65415008177E+01  0.37411375094E+02 -0.20618294090E+01  0.38034896607E+02  0.00000000000E+00 0. -1.
</event>
<event>
 7    1  0.2661133E-009  0.1205167E+03  0.7561462E-02  0.1242247E+00
         -1   -1    0    0    0  501 -0.00000000000E+00  0.00000000000E+00  0.30422888338E+02  0.30422888338E+02  0.00000000000E+00 0.  1.
          1   -1    0    0  501    0  0.00000000000E+00 -0.00000000000E+00 -0.72790388669E+03  0.72790388669E+03  0.00000000000E+00 0. -1.
         25    2    1    2    0    0  0.31898026432E+02 -0.62131808255E+02 -0.19591658589E+03  0.24270805657E+03  0.12508415731E+03 0.  0.
          5    1    3    3  502    0  0.60461065192E+02 -0.91720846312E+01 -0.16267138011E+03  0.17383646870E+03  0.41800000000E+01 0. -1.
         -5    1    3    3    0  502 -0.28563038759E+02 -0.52959723624E+02 -0.33245205779E+02  0.68871587878E+02  0.41800000000E+01 0. -1.
        -11    1    1    2    0    0  0.99630900700E+00 -0.25654956723E+02 -0.97793529958E+02  0.10110758596E+03  0.00000000000E+00 0.  1.
         11    1    1    2    0    0 -0.32894335439E+02  0.87786764978E+02 -0.40377088250E+03  0.41451113249E+03  0.00000000000E+00 0. -1.
</event>
<event>
 7    1  0.2661133E-009  0.1259823E+03  0.7561462E-02  0.1233542E+00
          1   -1    0    0  501    0  0.00000000000E+00  0.00000000000E+00  0.34447247483E+03  0.34447247483E+03  0.00000000000E+00 0. -1.
         -1   -1    0    0    0  501 -0.00000000000E+00 -0.00000000000E+00 -0.73558334505E+02  0.73558334505E+02  0.00000000000E+00 0.  1.
         25    2    1    2    0    0 -0.38215221561E+02  0.65925899336E+02  0.26114189485E+03  0.29941492509E+03  0.12509029043E+03 0.  0.
          5    1    3    3  502    0  0.34244657643E+02 -0.17122299872E+01  0.23175973034E+02  0.41595990608E+02  0.41800000000E+01 0. -1.
         -5    1    3    3    0  502 -0.72459879205E+02  0.67638129323E+02  0.23796592182E+03  0.25781893449E+03  0.41800000000E+01 0. -1.
        -11    1    1    2    0    0  0.56090550598E+02 -0.68691888156E+01  0.45268698280E+01  0.56690635663E+02  0.00000000000E+00 0.  1.
         11    1    1    2    0    0 -0.17875329037E+02 -0.59056710521E+02  0.52453756446E+01  0.61925248577E+02  0.00000000000E+00 0. -1.
</event>
<event>
 7    1  0.2661133E-009  0.8398027E+02  0.7561462E-02  0.1318121E+00
          2   -1    0    0  501    0  0.00000000000E+00  0.00000000000E+00  0.49121810174E+03  0.49121810174E+03  0.00000000000E+00 0. -1.
         -2   -1    0    0    0  501 -0.00000000000E+00 -0.00000000000E+00 -0.36987238910E+02  0.36987238910E+02  0.00000000000E+00 0.  1.
         25    2    1    2    0    0 -0.36539234204E+02 -0.60610055173E+02  0.18230956445E+03  0.23215487652E+03  0.12510161861E+03 0.  0.
          5    1    3    3  502    0 -0.40185288257E+02 -0.66694092410E+02  0.19889721875E+03  0.21363645612E+03  0.41800000000E+01 0.  1.
         -5    1    3    3    0  502  0.36460540529E+01  0.60840372368E+01 -0.16587654298E+02  0.18518420407E+02  0.41800000000E+01 0.  1.
        -11    1    1    2    0    0  0.19318355830E+02  0.61543517915E+02  0.27122538833E+03  0.27879027017E+03  0.00000000000E+00 0. -1.
         11    1    1    2    0    0  0.17220878374E+02 -0.93346274195E+00  0.69591005238E+00  0.17260193958E+02  0.00000000000E+00 0.  1.
</event>
<event>
 7    1  0.2661133E-009  0.1032312E+03  0.7561462E-02  0.1273644E+00
         -3   -1    0    0    0  501 -0.00000000000E+00  0.00000000000E+00  0.20525136820E+02  0.20525136820E+02  0.00000000000E+00 0.  1.
          3   -1    0    0  501    0  0.00000000000E+00 -0.00000000000E+00 -0.65530182248E+03  0.65530182248E+03  0.00000000000E+00 0. -1.
         25    2    1    2    0    0 -0.24889252789E+02 -0.22831970073E+02 -0.43352409825E+03  0.45247223970E+03  0.12508880913E+03 0.  0.
          5    1    3    3  502    0 -0.56335458680E+02 -0.44546938216E+02 -0.15006790508E+03  0.16642103877E+03  0.41800000000E+01 0.  1.
         -5    1    3    3    0  502  0.31446205891E+02  0.21714968143E+02 -0.28345619317E+03  0.28605120093E+03  0.41800000000E+01 0.  1.
        -11    1    1    2    0    0  0.55937672294E+02  0.31026419907E+02 -0.11994023673E+03  0.13593131464E+03  0.00000000000E+00 0. -1.
         11    1    1    2    0    0 -0.31048419504E+02 -0.81944498346E+01 -0.81312350673E+02  0.87423404954E+02  0.00000000000E+00 0.  1.
</event>
<event>
 7    1  0.2661133E-009  0.8853804E+02  0.7561462E-02  0.1306431E+00
         -1   -1    0    0    0  501 -0.00000000000E+00  0.00000000000E+00  0.77844198151E+02  0.77844198151E+02  0.00000000000E+00 0.  1.
          1   -1    0    0  501    0  0.00000000000E+00 -0.00000000000E+00 -0.15030447870E+03  0.15030447870E+03  0.00000000000E+00 0. -1.
         25    2    1    2    0    0 -0.51852898891E+01 -0.70036950789E+01 -0.42097733859E+02  0.13227187869E+03  0.12509073395E+03 0.  0.
          5    1    3    3  502    0 -0.38730291168E+02  0.19260477986E+02 -0.69121742088E+02  0.81647345919E+02  0.41800000000E+01 0.  1.
         -5    1    3    3    0  502  0.33545001279E+02 -0.26264173065E+02  0.27024008229E+02  0.50624532772E+02  0.41800000000E+01 0.  1.
        -11    1    1    2    0    0 -0.20871806958E+02  0.42164519453E+02 -0.13159235883E+02  0.48853295850E+02  0.00000000000E+00 0.  1.
         11    1    1    2    0    0  0.26057096847E+02 -0.35160824374E+02 -0.17203310807E+02  0.47023502310E+02  0.00000000000E+00 0. -1.
</event>
<event>
 7    1  0.2661133E-009  0.8460882E+02  0.7561462E-02  0.1316459E+00
         -1   -1    0    0    0  501 -0.00000000000E+00  0.00000000000E+00  0.58966346764E+03  0.58966346764E+03  0.00000000000E+00 0.  1.
          1   -1    0    0  501    0  0.00000000000E+00 -0.00000000000E+00 -0.32194256214E+02  0.32194256214E+02  0.00000000000E+00 0. -1.
         25    2    1    2    0    0 -0.41035761379E+02 -0.18320000687E+02  0.47232855642E+03  0.49067374787E+03  0.12508759132E+03 0.  0.
          5    1    3    3  502    0  0.21931965968E+02 -0.17746859483E+02  0.22199196325E+02  0.36141926764E+02  0.41800000000E+01 0.  1.
         -5    1    3    3    0  502 -0.62967727347E+02 -0.57314120403E+00  0.45012936009E+03  0.45453182110E+03  0.41800000000E+01 0.  1.
        -11    1    1    2    0    0  0.56218432666E+02  0.34309698153E+01  0.15569334787E+02  0.58435331016E+02  0.00000000000E+00 0. -1.
         11    1    1    2    0    0 -0.15182671287E+02  0.14889030872E+02  0.69571320220E+02  0.72748644969E+02  0.00000000000E+00 0.  1.
</event>
<event>
 7    1  0.2661133E-009  0.8467720E+02  0.7561462E-02  0.1316279E+00
          1   -1    0    0  501    0  0.00000000000E+00  0.00000000000E+00  0.53744247753E+03  0.53744247753E+03  0.00000000000E+00 0. -1.
         -1   -1    0    0    0  501 -0.00000000000E+00 -0.00000000000E+00 -0.29263416792E+02  0.29263416792E+02  0.00000000000E+00 0.  1.
         25    2    1    2    0    0  0.14660662448E+02  0.17885402891E+02  0.14991502033E+03  0.19661317787E+03  0.12508959083E+03 0.  0.
          5    1    3    3  502    0 -0.73185021521E+01  0.43418953651E+02  0.13831615209E+01  0.44251006154E+02  0.41800000000E+01 0. -1.
         -5    1    3    3    0  502  0.21979164600E+02 -0.25533550760E+02  0.14853185880E+03  0.15236217172E+03  0.41800000000E+01 0. -1.
        -11    1    1    2    0    0 -0.52019438234E+02 -0.11505723317E+02  0.17409430016E+03  0.18206380467E+03  0.00000000000E+00 0.  1.
         11    1    1    2    0    0  0.37358775786E+02 -0.63796795746E+01  0.18416974025E+03  0.18802891177E+03  0.00000000000E+00 0. -1.
</event>
<event>
 7    1  0.2661133E-009  0.4925194E+02  0.7561462E-02  0.1449419E+00
         -4   -1    0    0    0  501 -0.00000000000E+00  0.00000000000E+00  0.48588690839E+02  0.48588690839E+02  0.00000000000E+00 0.  1.
          4   -1    0    0  501    0  0.00000000000E+00 -0.00000000000E+00 -0.26072770937E+03  0.26072770937E+03  0.00000000000E+00 0. -1.
         25    2    1    2    0    0  0.12567277477E+02 -0.14428235764E+02 -0.16269088043E+03  0.20611218684E+03  0.12509116891E+03 0.  0.
          5    1    3    3  502    0  0.18218937839E+02  0.99308588211E+01 -0.17614377643E+03  0.17741097494E+03  0.41800000000E+01 0. -1.
         -5    1    3    3    0  502 -0.56516603625E+01 -0.24359094585E+02  0.13452896001E+02  0.28701211903E+02  0.41800000000E+01 0. -1.
        -11    1    1    2    0    0  0.18687247064E+02  0.54291262804E+01 -0.64495796920E+02  0.67367621565E+02  0.00000000000E+00 0. -1.
         11    1    1    2    0    0 -0.31254524541E+02  0.89991094835E+01  0.15047658823E+02  0.35836591800E+02  0.00000000000E+00 0.  1.
</event>
<event>
 7    1  0.2661133E-009  0.7228293E+02  0.7561462E-02  0.1352498E+00
         -1   -1    0    0    0  501 -0.00000000000E+00  0.00000000000E+00  0.10201773278E+03  0.10201773278E+03  0.00000000000E+00 0.  1.
          1   -1    0    0  501    0  0.00000000000E+00 -0.00000000000E+00 -0.33674158794E+03  0.33674158794E+03  0.00000000000E+00 0. -1.
         25    2    1    2    0    0  0.95416169064E+00  0.35860088038E+02 -0.29472368493E+03  0.32217471099E+03  0.12509051765E+03 0.  0.
          5    1    3    3  502    0 -0.11866802719E+02  0.25237546589E+02 -0.12794464383E+01  0.28228782258E+02  0.41800000000E+01 0.  1.
         -5    1    3    3    0  502  0.12820964410E+02  0.10622541449E+02 -0.29344423849E+03  0.29394592873E+03  0.41800000000E+01 0.  1.
        -11    1    1    2    0    0  0.15214275420E+02  0.28787604540E+02  0.26596390565E+02  0.42042458810E+02  0.00000000000E+00 0. -1.
         11    1    1    2    0    0 -0.16168437110E+02 -0.64647692578E+02  0.33403439199E+02  0.74542150925E+02  0.00000000000E+00 0.  1.
</event>
<event>
 7    1  0.2661133E-009  0.1066077E+03  0.7561462E-02  0.1266984E+00
          1   -1    0    0  501    0  0.00000000000E+00  0.00000000000E+00  0.68366365033E+03  0.68366365033E+03  0.00000000000E+00 0. -1.
         -1   -1    0    0    0  501 -0.00000000000E+00 -0.00000000000E+00 -0.18471963874E+02  0.18471963874E+02  0.00000000000E+00 0.  1.
         25    2    1    2    0    0 -0.27017365855E+02 -0.10029109331E+02  0.36940206435E+03  0.39106410816E+03  0.12507090171E+03 0.  0.
          5    1    3    3  502    0  0.26119617345E+02 -0.47836008771E+02  0.10123878263E+03  0.11505338610E+03  0.41800000000E+01 0. -1.
         -5    1    3    3    0  502 -0.53136983200E+02  0.37806899440E+02  0.26816328172E+03  0.27601072206E+03  0.41800000000E+01 0. -1.
        -11    1    1    2    0    0 -0.32405403387E+02  0.95381586846E+01  0.72064450065E+02  0.79588765558E+02  0.00000000000E+00 0. -1.
         11    1    1    2    0    0  0.59422769242E+02  0.49095064656E+00  0.22372517204E+03  0.23148274048E+03  0.00000000000E+00 0.  1.
</event>
<event>
 7    1  0.2661133E-009  0.1073273E+03  0.7561462E-02  0.1265601E+00
         -2   -1    0    0    0  501 -0.00000000000E+00  0.00000000000E+00  0.15999262602E+02  0.15999262602E+02  0.00000000000E+00 0.  1.
          2   -1    0    0  501    0  0.00000000000E+00 -0.00000000000E+00 -0.84111360236E+03  0.84111360236E+03  0.00000000000E+00 0. -1.
         25    2    1    2    0    0 -0.32669740786E+02 -0.75826184011E+01 -0.55522965269E+03  0.57013372945E+03  0.12509074375E+03 0.  0.
          5    1    3    3  502    0  0.34283235311E+02  0.25179094475E+02 -0.98942861909E+02  0.10777981882E+03  0.41800000000E+01 0. -1.
         -5    1    3    3    0  502 -0.66952976097E+02 -0.32761712876E+02 -0.45628679078E+03  0.46235391064E+03  0.41800000000E+01 0. -1.
        -11    1    1    2    0    0 -0.13831590081E+02 -0.32845797536E+02 -0.11012531629E+03  0.11574862672E+03  0.00000000000E+00 0.  1.
         11    1    1    2    0    0  0.46501330866E+02  0.40428415937E+02 -0.15975937078E+03  0.17123050879E+03  0.00000000000E+00 0. -1.
</event>
<event>
 7    1  0.2661133E-009  0.1224660E+03  0.7561462E-02  0.1239083E+00
         -1   -1    0    0    0  501 -0.00000000000E+00  0.00000000000E+00  0.13478237839E+02  0.13478237839E+02  0.00000000000E+00 0.  1.
          1   -1    0    0  501    0  0.00000000000E+00 -0.00000000000E+00 -0.12049923152E+04  0.12049923152E+04  0.00000000000E+00 0. -1.
         25    2    1    2    0    0 -0.30094293487E+02 -0.51792368100E+02 -0.79355679844E+03  0.80558538748E+03  0.12508920124E+03 0.  0.
          5    1    3    3  502    0 -0.42360214137E+02  0.32348411878E+02 -0.32083627588E+03  0.32526019709E+03  0.41800000000E+01 0. -1.
         -5    1    3    3    0  502  0.12265920651E+02 -0.84140779977E+02 -0.47272052257E+03  0.48032519039E+03  0.41800000000E+01 0. -1.
        -11    1    1    2    0    0  0.58447011251E+02  0.51626753201E+02 -0.33300412271E+03  0.34201333382E+03  0.00000000000E+00 0. -1.
         11    1    1    2    0    0 -0.28352717764E+02  0.16561489851E+00 -0.64953156215E+02  0.70871831747E+02  0.00000000000E+00 0.  1.
</event>
<event>
 7    1  0.2661133E-009  0.1027717E+03  0.7561462E-02  0.1274573E+00
          2   -1    0    0  501    0  0.00000000000E+00  0.00000000000E+00  0.54272024863E+02  0.54272024863E+02  0.00000000000E+00 0. -1.
         -2   -1    0    0    0  501 -0.00000000000E+00 -0.00000000000E+00 -0.25355870789E+03  0.25355870789E+03  0.00000000000E+00 0.  1.
         25    2    1    2    0    0  0.25382313296E+02 -0.10148873795E+02 -0.10000497934E+03  0.16246762724E+03  0.12508985787E+03 0.  0.
          5    1    3    3  502    0  0.31220325605E+02  0.40174302542E+02 -0.99272316880E+02  0.11162951498E+03  0.41800000000E+01 0. -1.
         -5    1    3    3    0  502 -0.58380123092E+01 -0.50323176337E+02 -0.73266245845E+00  0.50838112265E+02  0.41800000000E+01 0. -1.
        -11    1    1    2    0    0 -0.56856177719E+02 -0.19808933041E+02 -0.72823681060E+02  0.94489720585E+02  0.00000000000E+00 0.  1.
         11    1    1    2    0    0  0.31473864423E+02  0.29957806837E+02 -0.26458022628E+02  0.50873384924E+02  0.00000000000E+00 0. -1.
</event>
<event>
 7    1  0.2661133E-009  0.1130117E+03  0.7561462E-02  0.1255092E+00
         -4   -1    0    0    0  501 -0.00000000000E+00  0.00000000000E+00  0.12151758243E+03  0.12151758243E+03  0.00000000000E+00 0.  1.
          4   -1    0    0  501    0  0.00000000000E+00 -0.00000000000E+00 -0.23976816777E+03  0.23976816777E+03  0.00000000000E+00 0. -1.
         25    2    1    2    0    0 -0.77647521314E+02  0.28774862519E+02 -0.17124273977E+03  0.22765849494E+03  0.12508870498E+03 0.  0.
          5    1    3    3  502    0  0.19758970882E+02  0.80746819550E+01  0.74981965521E+01  0.23006798354E+02  0.41800000000E+01 0. -1.
         -5    1    3    3    0  502 -0.97406492196E+02  0.20700180564E+02 -0.17874093632E+03  0.20465169658E+03  0.41800000000E+01 0. -1.
        -11    1    1    2    0    0  0.42133525478E+02  0.18047623209E+02 -0.10592724836E+02  0.47044197221E+02  0.00000000000E+00 0. -1.
         11    1    1    2    0    0  0.35513995836E+02 -0.46822485729E+02  0.63584879258E+02  0.86583058045E+02  0.00000000000E+00 0.  1.
</event>
<event>
 7    1  0.2831128E-009  0.1038004E+03  0.7561462E-02  0.1272501E+00
          2   -1    0    0  501    0  0.00000000000E+00  0.00000000000E+00  0.13204937144E+03  0.13204937144E+03  0.00000000000E+00 0.  1.
         -2   -1    0    0    0  501 -0.00000000000E+00 -0.00000000000E+00 -0.11844441503E+03  0.11844441503E+03  0.00000000000E+00 0. -1.
         25    2    1    2    0    0 -0.29631918195E+02 -0.51029317099E+02  0.26133054242E+02  0.14075926971E+03  0.12509274042E+03 0.  0.
          5    1    3    3  502    0 -0.64016226921E+02 -0.35680117604E+02  0.56152727535E+02  0.92421584660E+02  0.41800000000E+01 0. -1.
         -5    1    3    3    0  502  0.34384308726E+02 -0.15349199495E+02 -0.30019673292E+02  0.48337685053E+02  0.41800000000E+01 0. -1.
        -11    1    1    2    0    0  0.44581704476E+02  0.15386564986E+01  0.19751481404E+02  0.48785416422E+02  0.00000000000E+00 0.  1.
         11    1    1    2    0    0 -0.14949786281E+02  0.49490660600E+02 -0.32279579230E+02  0.60949100336E+02  0.00000000000E+00 0. -1.
</event>
<event>
 7    1  0.2661133E-009  0.9572538E+02  0.7561462E-02  0.1289551E+00
         -2   -1    0    0    0  501 -0.00000000000E+00  0.00000000000E+00  0.92992880557E+02  0.92992880557E+02  0.00000000000E+00 0.  1.
          2   -1    0    0  501    0  0.00000000000E+00 -0.00000000000E+00 -0.14964478974E+03  0.14964478974E+03  0.00000000000E+00 0. -1.
         25    2    1    2    0    0  0.40574993725E+02  0.25257042922E+01 -0.63463086651E+02  0.14603964082E+03  0.12508918429E+03 0.  0.
          5    1    3    3  502    0  0.68688052689E+02  0.24300365098E+02  0.22177240437E+00  0.72979982934E+02  0.41800000000E+01 0. -1.
         -5    1    3    3    0  502 -0.28113058963E+02 -0.21774660806E+02 -0.63684859055E+02  0.73059657885E+02  0.41800000000E+01 0. -1.
        -11    1    1    2    0    0 -0.23237542542E+02 -0.37221902933E+02  0.28340856512E+02  0.52236554147E+02  0.00000000000E+00 0.  1.
         11    1    1    2    0    0 -0.17337451183E+02  0.34696198640E+02 -0.21529679040E+02  0.44361475327E+02  0.00000000000E+00 0. -1.
</event>
<event>
 7    1  0.2661133E-009  0.2268478E+03  0.7561462E-02  0.1128878E+00
          1   -1    0    0  501    0  0.00000000000E+00  0.00000000000E+00  0.71869459148E+02  0.71869459148E+02  0.00000000000E+00 0. -1.
         -1   -1    0    0    0  501 -0.00000000000E+00 -0.00000000000E+00 -0.88947642129E+03  0.88947642129E+03  0.00000000000E+00 0.  1.
         25    2    1    2    0    0  0.15720144444E+03 -0.15506197207E+03 -0.52223867728E+03  0.58063516059E+03  0.12508974519E+03 0.  0.
          5    1    3    3  502    0  0.88756331017E+02 -0.65950619898E+02 -0.12112995958E+03  0.16406434734E+03  0.41800000000E+01 0.  1.
         -5    1    3    3    0  502  0.68445113421E+02 -0.89111352170E+02 -0.40110871770E+03  0.41657081325E+03  0.41800000000E+01 0.  1.
        -11    1    1    2    0    0 -0.14369177445E+03  0.16103899714E+03 -0.29551503077E+03  0.36593717774E+03  0.00000000000E+00 0.  1.
         11    1    1    2    0    0 -0.13509669993E+02 -0.59770250719E+01  0.14674590619E+00  0.14773542107E+02  0.00000000000E+00 0. -1.
</event>
<event>
 7    1  0.2661133E-009  0.1397938E+03  0.7561462E-02  0.1213607E+00
         -2   -1    0    0    0  501 -0.00000000000E+00  0.00000000000E+00  0.93797332339E+02  0.93797332339E+02  0.00000000000E+00 0.  1.
          2   -1    0    0  501    0  0.00000000000E+00 -0.00000000000E+00 -0.46667060311E+03  0.46667060311E+03  0.00000000000E+00 0. -1.
         25    2    1    2    0    0 -0.93516549522E+02 -0.43409856726E+02 -0.38850220573E+03  0.42096454952E+03  0.12508967745E+03 0.  0.
          5    1    3    3  502    0 -0.12249280655E+03 -0.43786394517E+02 -0.34293365615E+03  0.36680062830E+03  0.41800000000E+01 0.  1.
         -5    1    3    3    0  502  0.28976257024E+02  0.37653779153E+00 -0.45568549576E+02  0.54163921223E+02  0.41800000000E+01 0.  1.
        -11    1    1    2    0    0  0.98995334124E+02  0.26641440064E+02  0.39463343750E+02  0.10985079885E+03  0.00000000000E+00 0.  1.
         11    1    1    2    0    0 -0.54787846026E+01  0.16768416661E+02 -0.23834408795E+02  0.29652587082E+02  0.00000000000E+00 0. -1.
</event>
<event>
 7    1  0.2661133E-009  0.1094645E+03  0.7561462E-02  0.1261565E+00
          1   -1    0    0  501    0  0.00000000000E+00  0.00000000000E+00  0.33827835171E+03  0.33827835171E+03  0.00000000000E+00 0. -1.
         -1   -1    0    0    0  501 -0.00000000000E+00 -0.00000000000E+00 -0.48266988695E+02  0.48266988695E+02  0.00000000000E+00 0.  1.
         25    2    1    2    0    0 -0.11227629380E+02  0.66249900779E+02  0.18691741921E+03  0.23473376463E+03  0.12508680842E+03 0.  0.
          5    1    3    3  502    0 -0.59345853051E+02  0.22605688680E+02  0.43083266318E+02  0.76854327605E+02  0.41800000000E+01 0. -1.
         -5    1    3    3    0  502  0.48118223670E+02  0.43644212099E+02  0.14383415289E+03  0.15787943703E+03  0.41800000000E+01 0. -1.
        -11    1    1    2    0    0 -0.24731839533E+02 -0.21415678734E+02 -0.11919443414E+01  0.32737072465E+02  0.00000000000E+00 0.  1.
         11    1    1    2    0    0  0.35959468913E+02 -0.44834222045E+02  0.10428588815E+03  0.11907450331E+03  0.00000000000E+00 0. -1.
</event>
<event>
 7    1  0.2661133E-009  0.9200813E+02  0.7561462E-02  0.1298060E+00
         -2   -1    0    0    0  501 -0.00000000000E+00  0.00000000000E+00  0.72009953538E+01  0.72009953538E+01  0.00000000000E+00 0.  1.
          2   -1    0    0  501    0  0.00000000000E+00 -0.00000000000E+00 -0.19990543505E+04  0.19990543505E+04  0.00000000000E+00 0. -1.
         25    2    1    2    0    0  0.31947167779E+02  0.36030454035E+02 -0.17911619596E+04  0.17961701733E+04  0.12508921229E+03 0.  0.
          5    1    3    3  502    0 -0.19284996440E+02 -0.37182294806E+02 -0.74613300898E+03  0.74731945888E+03  0.41800000000E+01 0. -1.
         -5    1    3    3    0  502  0.51232164219E+02  0.73212748840E+02 -0.10450289506E+04  0.10488507145E+04  0.41800000000E+01 0. -1.
        -11    1    1    2    0    0 -0.13258636211E+01 -0.15597982309E+02 -0.18603864808E+02  0.24313756440E+02  0.00000000000E+00 0.  1.
         11    1    1    2    0    0 -0.30621304158E+02 -0.20432471726E+02 -0.18208753073E+03  0.18577141604E+03  0.00000000000E+00 0. -1.
</event>
<event>
 7    1  0.2661133E-009  0.2086513E+03  0.7561462E-02  0.1142639E+00
         -1   -1    0    0    0  501 -0.00000000000E+00  0.00000000000E+00  0.31568182499E+03  0.31568182499E+03  0.00000000000E+00 0.  1.
          1   -1    0    0  501    0  0.00000000000E+00 -0.00000000000E+00 -0.15136594267E+03  0.15136594267E+03  0.00000000000E+00 0. -1.
         25    2    1    2    0    0 -0.12147525695E+03 -0.14161535168E+03  0.42326140417E+02  0.22858217375E+03  0.12508861704E+03 0.  0.
          5    1    3    3  502    0  0.14075971563E+02 -0.48909525206E+02 -0.17155657176E+02  0.53870804751E+02  0.41800000000E+01 0.  1.
         -5    1    3    3    0  502 -0.13555122851E+03 -0.92705826476E+02  0.59481797593E+02  0.17471136900E+03  0.41800000000E+01 0.  1.
        -11    1    1    2    0    0  0.13253521602E+03  0.13440345283E+03  0.10212898630E+03  0.21461640539E+03  0.00000000000E+00 0. -1.
         11    1    1    2    0    0 -0.11059959072E+02  0.72118988514E+01  0.19860755601E+02  0.23849188513E+02  0.00000000000E+00 0.  1.
</event>
<event>
 7    1  0.2661133E-009  0.1123512E+03  0.7561462E-02  0.1256277E+00
          1   -1    0    0  501    0  0.00000000000E+00  0.00000000000E+00  0.18471580273E+03  0.18471580273E+03  0.00000000000E+00 0. -1.
         -1   -1    0    0    0  501 -0.00000000000E+00 -0.00000000000E+00 -0.15515462265E+03  0.15515462265E+03  0.00000000000E+00 0.  1.
         25    2    1    2    0    0 -0.75692776591E+02 -0.25243712389E+02  0.11903027168E+03  0.19021846134E+03  0.12509282959E+03 0.  0.
          5    1    3    3  502    0  0.30595636701E+02 -0.16582866315E+02  0.74829644972E+01  0.35840641708E+02  0.41800000000E+01 0. -1.
         -5    1    3    3    0  502 -0.10628841329E+03 -0.86608460745E+01  0.11154730718E+03  0.15437781963E+03  0.41800000000E+01 0. -1.
        -11    1    1    2    0    0  0.20719624459E+02  0.18065356832E+02 -0.90108649134E+02  0.94208431703E+02  0.00000000000E+00 0.  1.
         11    1    1    2    0    0  0.54973152132E+02  0.71783555576E+01  0.63955753901E+00  0.55443532334E+02  0.00000000000E+00 0. -1.
</event>
<event>
 7    1  0.2661133E-009  0.8764608E+02  0.7561462E-02  0.1308654E+00
         -2   -1    0    0    0  501 -0.00000000000E+00  0.00000000000E+00  0.60479241996E+03  0.60479241996E+03  0.00000000000E+00 0.  1.
          2   -1    0    0  501    0  0.00000000000E+00 -0.00000000000E+00 -0.17153526752E+02  0.17153526752E+02  0.00000000000E+00 0. -1.
         25    2    1    2    0    0  0.22296813158E+02 -0.53531984671E+01  0.27918324602E+03  0.30678386451E+03  0.12508896855E+03 0.  0.
          5    1    3    3  502    0 -0.43833051026E+02  0.11683766367E+01  0.19253154402E+03  0.19750587158E+03  0.41800000000E+01 0.  1.
         -5    1    3    3    0  502  0.66129864184E+02 -0.65215751038E+01  0.86651701999E+02  0.10927799293E+03  0.41800000000E+01 0.  1.
        -11    1    1    2    0    0 -0.13632814462E+02 -0.27496036571E+02  0.14399082675E+03  0.14722514678E+03  0.00000000000E+00 0.  1.
         11    1    1    2    0    0 -0.86639986960E+01  0.32849235038E+02  0.16446482044E+03  0.16793693542E+03  0.00000000000E+00 0. -1.
</event>
<event>
 7    1  0.2661133E-009  0.2974874E+03  0.7561462E-02  0.1086503E+00
          2   -1    0    0  501    0  0.00000000000E+00  0.00000000000E+00  0.13141468823E+04  0.13141468823E+04  0.00000000000E+00 0. -1.
         -2   -1    0    0    0  501 -0.00000000000E+00 -0.00000000000E+00 -0.71355908036E+02  0.71355908036E+02  0.00000000000E+00 0.  1.
         25    2    1    2    0    0 -0.20972444975E+03 -0.19149041528E+03  0.54878086258E+03  0.63044283879E+03  0.12507923039E+03 0.  0.
          5    1    3    3  502    0 -0.21818511977E+03 -0.18066003569E+03  0.54694381333E+03  0.61596087727E+03  0.41800000000E+01 0.  1.
         -5    1    3    3    0  502  0.84606700202E+01 -0.10830379598E+02  0.18370492471E+01  0.14481961517E+02  0.41800000000E+01 0.  1.
        -11    1    1    2    0    0  0.49779159447E+02  0.10328009538E+03  0.25708387647E+03  0.28149043032E+03  0.00000000000E+00 0. -1.
         11    1    1    2    0    0  0.15994529031E+03  0.88210319902E+02  0.43692623525E+03  0.47356952127E+03  0.00000000000E+00 0.  1.
</event>
<event>
 7    1  0.2661133E-009  0.1296652E+03  0.7561462E-02  0.1227953E+00
          1   -1    0    0  501    0  0.00000000000E+00  0.00000000000E+00  0.14384809200E+04  0.14384809200E+04  0.00000000000E+00 0. -1.
         -1   -1    0    0    0  501 -0.00000000000E+00 -0.00000000000E+00 -0.13571452096E+02  0.13571452096E+02  0.00000000000E+00 0.  1.
         25    2    1    2    0    0  0.33088651289E+01 -0.75798828315E+02  0.99822083305E+03  0.10088795762E+04  0.12504701849E+03 0.  0.
          5    1    3    3  502    0 -0.28399564314E+02 -0.97957824192E+02  0.82800277825E+03  0.83427114523E+03  0.41800000000E+01 0. -1.
         -5    1    3    3    0  502  0.31708429442E+02  0.22158995877E+02  0.17021805480E+03  0.17460843100E+03  0.41800000000E+01 0. -1.
        -11    1    1    2    0    0 -0.19061646834E+02  0.93050301033E+02  0.31236941447E+03  0.32649097384E+03  0.00000000000E+00 0.  1.
         11    1    1    2    0    0  0.15752781705E+02 -0.17251472719E+02  0.11431922036E+03  0.11668182201E+03  0.00000000000E+00 0. -1.
</event>
<event>
 7    1  0.2661133E-009  0.1521186E+03  0.7561462E-02  0.1197894E+00
          2   -1    0    0  501    0  0.00000000000E+00  0.00000000000E+00  0.60927082518E+02  0.60927082518E+02  0.00000000000E+00 0.  1.
         -2   -1    0    0    0  501 -0.00000000000E+00 -0.00000000000E+00 -0.56631985491E+03  0.56631985491E+03  0.00000000000E+00 0. -1.
         25    2    1    2    0    0  0.12898761690E+03 -0.23996163625E+01 -0.13525205729E+03  0.22491177179E+03  0.12509445479E+03 0.  0.
          5    1    3    3  502    0  0.35917923206E+01 -0.24669324802E+02 -0.83731856683E+02  0.87464122827E+02  0.41800000000E+01 0.  1.
         -5    1    3    3    0  502  0.12539582458E+03  0.22269708439E+02 -0.51520200607E+02  0.13744764897E+03  0.41800000000E+01 0.  1.
        -11    1    1    2    0    0 -0.28879455824E+02 -0.34364199563E+02 -0.16668723956E+03  0.17262548193E+03  0.00000000000E+00 0.  1.
         11    1    1    2    0    0 -0.10010816108E+03  0.36763815926E+02 -0.20345347554E+03  0.22970968370E+03  0.00000000000E+00 0. -1.
</event>
<event>
 7    1  0.2661133E-009  0.1387372E+03  0.7561462E-02  0.1215038E+00
         -4   -1    0    0    0  501 -0.00000000000E+00  0.00000000000E+00  0.37582555013E+03  0.37582555013E+03  0.00000000000E+00 0.  1.
          4   -1    0    0  501    0  0.00000000000E+00 -0.00000000000E+00 -0.84811972431E+02  0.84811972431E+02  0.00000000000E+00 0. -1.
         25    2    1    2    0    0 -0.96840001090E+02  0.53258838379E+02  0.26641699336E+03  0.31438876779E+03  0.12509113992E+03 0.  0.
          5    1    3    3  502    0 -0.86103755456E+02  0.71323543727E+02  0.11136155668E+03  0.15785998004E+03  0.41800000000E+01 0.  1.
         -5    1    3    3    0  502 -0.10736245634E+02 -0.18064705347E+02  0.15505543668E+03  0.15652878775E+03  0.41800000000E+01 0.  1.
        -11    1    1    2    0    0 -0.12179398871E+02  0.12005114694E+02  0.32032408295E+01  0.17398887536E+02  0.00000000000E+00 0.  1.
         11    1    1    2    0    0  0.10901939996E+03 -0.65263953073E+02  0.21393343504E+02  0.12884986723E+03  0.00000000000E+00 0. -1.
</event>
<event>
 7    1  0.2928641E-009  0.1343852E+03  0.7561462E-02  0.1221090E+00
         -2   -1    0    0    0  501 -0.00000000000E+00  0.00000000000E+00  0.26799112808E+02  0.26799112808E+02  0.00000000000E+00 0.  1.
          2   -1    0    0  501    0  0.00000000000E+00 -0.00000000000E+00 -0.69674018275E+03  0.69674018275E+03  0.00000000000E+00 0. -1.
         25    2    1    2    0    0  0.72698719719E+01  0.79679006802E+02 -0.31030876056E+03  0.34400547534E+03  0.12508655012E+03 0.  0.
          5    1    3    3  502    0 -0.34814374376E+01 -0.33663615706E+02 -0.83382456151E+02  0.90085880263E+02  0.41800000000E+01 0.  1.
         -5    1    3    3    0  502  0.10751309409E+02  0.11334262251E+03 -0.22692630441E+03  0.25391959508E+03  0.41800000000E+01 0.  1.
        -11    1    1    2    0    0  0.41236475900E+02 -0.27878831895E+02 -0.13084889483E+03  0.13999681957E+03  0.00000000000E+00 0.  1.
         11    1    1    2    0    0 -0.48506347872E+02 -0.51800174907E+02 -0.22878341455E+03  0.23953700064E+03  0.00000000000E+00 0. -1.
</event>
<event>
 7    1  0.2661133E-009  0.1579384E+03  0.7561462E-02  0.1191044E+00
         -1   -1    0    0    0  501 -0.00000000000E+00  0.00000000000E+00  0.24899983496E+03  0.24899983496E+03  0.00000000000E+00 0.  1.
          1   -1    0    0  501    0  0.00000000000E+00 -0.00000000000E+00 -0.18207199960E+03  0.18207199960E+03  0.00000000000E+00 0. -1.
         25    2    1    2    0    0 -0.83400230012E+02  0.98937796638E+02 -0.95380610276E+02  0.20368221861E+03  0.12507877275E+03 0.  0.
          5    1    3    3  502    0 -0.10887570609E+03  0.45819132626E+02 -0.79758978288E+02  0.14259130166E+03  0.41800000000E+01 0.  1.
         -5    1    3    3    0  502  0.25475476082E+02  0.53118664012E+02 -0.15621631988E+02  0.61090916952E+02  0.41800000000E+01 0.  1.
        -11    1    1    2    0    0  0.43554048330E+02 -0.86551025265E+02  0.53116003145E+02  0.11049590441E+03  0.00000000000E+00 0. -1.
         11    1    1    2    0    0  0.39846181683E+02 -0.12386771373E+02  0.10919244250E+03  0.11689371154E+03  0.00000000000E+00 0.  1.
</event>
<event>
 7    1  0.2661133E-009  0.2232159E+03  0.7561462E-02  0.1131508E+00
         -2   -1    0    0    0  501 -0.00000000000E+00  0.00000000000E+00  0.23100091965E+03  0.23100091965E+03  0.00000000000E+00 0. -1.
          2   -1    0    0  501    0  0.00000000000E+00 -0.00000000000E+00 -0.22807890106E+03  0.22807890106E+03  0.00000000000E+00 0.  1.
         25    2    1    2    0    0 -0.15596749169E+03  0.12076957008E+03 -0.42438707739E+02  0.23740383582E+03  0.12509352432E+03 0.  0.
          5    1    3    3  502    0 -0.15936028242E+02  0.86724509413E+02 -0.48279242025E+01  0.88407458855E+02  0.41800000000E+01 0. -1.
         -5    1    3    3    0  502 -0.14003146345E+03  0.34045060668E+02 -0.37610783536E+02  0.14899637697E+03  0.41800000000E+01 0. -1.
        -11    1    1    2    0    0  0.89028120955E+02 -0.11689055840E+03  0.47992751271E+02  0.15457267915E+03  0.00000000000E+00 0.  1.
         11    1    1    2    0    0  0.66939370734E+02 -0.38790116775E+01 -0.26320249456E+01  0.67103305739E+02  0.00000000000E+00 0. -1.
</event>
<event>
 7    1  0.2661133E-009  0.1478427E+03  0.7561462E-02  0.1203149E+00
          1   -1    0    0  501    0  0.00000000000E+00  0.00000000000E+00  0.47243102302E+03  0.47243102302E+03  0.00000000000E+00 0. -1.
         -1   -1    0    0    0  501 -0.00000000000E+00 -0.00000000000E+00 -0.79150327706E+02  0.79150327706E+02  0.00000000000E+00 0.  1.
         25    2    1    2    0    0  0.11576438116E+03  0.26149906845E+02  0.36353476879E+03  0.40235514060E+03  0.12508765516E+03 0.  0.
          5    1    3    3  502    0 -0.11061596290E+02 -0.14924776242E+02  0.48133088105E+01  0.19640473520E+02  0.41800000000E+01 0. -1.
         -5    1    3    3    0  502  0.12682597745E+03  0.41074683087E+02  0.35872145998E+03  0.38271466708E+03  0.41800000000E+01 0. -1.
        -11    1    1    2    0    0 -0.42517232938E+02  0.29097217641E+02 -0.35066682471E+01  0.51639712367E+02  0.00000000000E+00 0.  1.
         11    1    1    2    0    0 -0.73247148222E+02 -0.55247124486E+02  0.33252594772E+02  0.97586497763E+02  0.00000000000E+00 0. -1.
</event>
<event>
 7    1  0.2661133E-009  0.7645757E+02  0.7561462E-02  0.1339416E+00
         -1   -1    0    0    0  501 -0.00000000000E+00  0.00000000000E+00  0.75509551960E+02  0.75509551960E+02  0.00000000000E+00 0.  1.
          1   -1    0    0  501    0  0.00000000000E+00 -0.00000000000E+00 -0.18886569251E+03  0.18886569251E+03  0.00000000000E+00 0. -1.
         25    2    1    2    0    0 -0.12302373006E+01 -0.45931372310E+02 -0.85203537585E+02  0.15817068991E+03  0.12508844825E+03 0.  0.
          5    1    3    3  502    0  0.94634140675E+01  0.43143639334E+01  0.29966264725E+02  0.31994052003E+02  0.41800000000E+01 0. -1.
         -5    1    3    3    0  502 -0.10693651368E+02 -0.50245736243E+02 -0.11516980231E+03  0.12617663791E+03  0.41800000000E+01 0. -1.
        -11    1    1    2    0    0 -0.14360195776E+02 -0.18758025990E+02 -0.31739856863E+02  0.39566365456E+02  0.00000000000E+00 0.  1.
         11    1    1    2    0    0  0.15590433076E+02  0.64689398300E+02  0.35872538984E+01  0.66638189099E+02  0.00000000000E+00 0. -1.
</event>
<event>
 6    1  0.2661133E-009  0.1912706E+03  0.7561462E-02  0.1157320E+00
         -1   -1    0    0    0  501 -0.00000000000E+00  0.00000000000E+00  0.64989742835E+02  0.64989742835E+02  0.00000000000E+00 0.  1.
          1   -1    0    0  501    0  0.00000000000E+00 -0.00000000000E+00 -0.10017527300E+04  0.10017527300E+04  0.00000000000E+00 0. -1.
          5    1    1    2  502    0  0.33984725153E+02  0.10327915475E+03 -0.65636881923E+03  0.66532626929E+03  0.41800000000E+01 0.  1.
         -5    1    1    2    0  502  0.12735360925E+02  0.74054638233E+02 -0.11599726060E+03  0.13827189059E+03  0.41800000000E+01 0.  1.
        -11    1    1    2    0    0 -0.55536742979E+02 -0.63740094385E+02 -0.10452919491E+03  0.13443765113E+03  0.00000000000E+00 0. -1.
         11    1    1    2    0    0  0.88166569014E+01 -0.11359369860E+03 -0.59867712378E+02  0.12870666177E+03  0.00000000000E+00 0.  1.
</event>
<event>
 7    1  0.2661133E-009  0.9987105E+02  0.7561462E-02  0.1280567E+00
         -2   -1    0    0    0  501 -0.00000000000E+00  0.00000000000E+00  0.16424568530E+02  0.16424568530E+02  0.00000000000E+00 0.  1.
          2   -1    0    0  501    0  0.00000000000E+00 -0.00000000000E+00 -0.80458019683E+03  0.80458019683E+03  0.00000000000E+00 0. -1.
         25    2    1    2    0    0  0.32566928052E+02 -0.10707573612E+02 -0.56999587500E+03  0.58456658370E+03  0.12509011280E+03 0.  0.
          5    1    3    3  502    0  0.48739568551E+02 -0.57915923496E+02 -0.40885382622E+03  0.41582294712E+03  0.41800000000E+01 0.  1.
         -5    1    3    3    0  502 -0.16172640499E+02  0.47208349884E+02 -0.16114204879E+03  0.16874363658E+03  0.41800000000E+01 0.  1.
        -11    1    1    2    0    0  0.13605388275E+02 -0.15611489665E+02 -0.12872475194E+02  0.24382900101E+02  0.00000000000E+00 0.  1.
         11    1    1    2    0    0 -0.46172316327E+02  0.26319063277E+02 -0.20528727810E+03  0.21205528156E+03  0.00000000000E+00 0. -1.
</event>
<event>
 7    1  0.2661133E-009  0.8755027E+02  0.7561462E-02  0.1308895E+00
         -2   -1    0    0    0  501 -0.00000000000E+00  0.00000000000E+00  0.53276281331E+02  0.53276281331E+02  0.00000000000E+00 0.  1.
          2   -1    0    0  501    0  0.00000000000E+00 -0.00000000000E+00 -0.25033257500E+03  0.25033257500E+03  0.00000000000E+00 0. -1.
         25    2    1    2    0    0  0.29561971921E+02 -0.27726547910E+02 -0.90691333342E+02  0.15973525438E+03  0.12509101449E+03 0.  0.
          5    1    3    3  502    0  0.59244917018E+02 -0.13966085023E+02  0.23124363506E+01  0.61055970103E+02  0.41800000000E+01 0.  1.
         -5    1    3    3    0  502 -0.29682945096E+02 -0.13760462887E+02 -0.93003769692E+02  0.98679284277E+02  0.41800000000E+01 0.  1.
        -11    1    1    2    0    0  0.22331385311E+02  0.17120375820E+02 -0.37399523533E+01  0.28386357317E+02  0.00000000000E+00 0.  1.
         11    1    1    2    0    0 -0.51893357233E+02  0.10606172090E+02 -0.10262500797E+03  0.11548724463E+03  0.00000000000E+00 0. -1.
</event>
<event>
 7    1  0.2661133E-009  0.1181540E+03  0.7561462E-02  0.1246174E+00
          4   -1    0    0  501    0  0.00000000000E+00  0.00000000000E+00  0.72832605640E+02  0.72832605640E+02  0.00000000000E+00 0. -1.
         -4   -1    0    0    0  501 -0.00000000000E+00 -0.00000000000E+00 -0.30121312950E+03  0.30121312950E+03  0.00000000000E+00 0.  1.
         25    2    1    2    0    0 -0.52200600299E+02 -0.36973087831E+02 -0.26503788306E+02  0.14297548035E+03  0.12509046842E+03 0.  0.
          5    1    3    3  502    0 -0.79470896621E+02  0.15626483439E+02 -0.15000674309E+02  0.82476075466E+02  0.41800000000E+01 0.  1.
         -5    1    3    3    0  502  0.27270296322E+02 -0.52599571270E+02 -0.11503113997E+02  0.60499404881E+02  0.41800000000E+01 0.  1.
        -11    1    1    2    0    0  0.21213828782E+02 -0.21143040499E+02 -0.16184058216E+02  0.34043772315E+02  0.00000000000E+00 0. -1.
         11    1    1    2    0    0  0.30986771518E+02  0.58116128330E+02 -0.18569267734E+03  0.19702648248E+03  0.00000000000E+00 0.  1.
</event>
<event>
 7    1  0.2661133E-009  0.1565077E+03  0.7561462E-02  0.1192697E+00
          1   -1    0    0  501    0  0.00000000000E+00  0.00000000000E+00  0.41114283334E+03  0.41114283334E+03  0.00000000000E+00 0. -1.
         -1   -1    0    0    0  501 -0.00000000000E+00 -0.00000000000E+00 -0.77884181643E+02  0.77884181643E+02  0.00000000000E+00 0.  1.
         25    2    1    2    0    0  0.76724407777E+02 -0.11740867855E+03  0.14039012459E+03  0.23458102828E+03  0.12508972460E+03 0.  0.
          5    1    3    3  502    0  0.80509644682E+02 -0.62814642138E+02  0.14727957979E+03  0.17926580593E+03  0.41800000000E+01 0. -1.
         -5    1    3    3    0  502 -0.37852369055E+01 -0.54594036416E+02 -0.68894552041E+01  0.55315222350E+02  0.41800000000E+01 0. -1.
        -11    1    1    2    0    0 -0.29454001965E+02  0.98328432870E-01  0.78816011663E+02  0.84139833579E+02  0.00000000000E+00 0. -1.
         11    1    1    2    0    0 -0.47270405811E+02  0.11731035012E+03  0.11405251545E+03  0.17030615312E+03  0.00000000000E+00 0.  1.
</event>
<event>
 7    1  0.2661133E-009  0.1601838E+03  0.7561462E-02  0.1188489E+00
          2   -1    0    0  501    0  0.00000000000E+00  0.00000000000E+00  0.38681971891E+03  0.38681971891E+03  0.00000000000E+00 0. -1.
         -2   -1    0    0    0  501 -0.00000000000E+00 -0.00000000000E+00 -0.71289844416E+02  0.71289844416E+02  0.00000000000E+00 0.  1.
         25    2    1    2    0    0 -0.10857189374E+03  0.62041512499E+02  0.15966628992E+03  0.23828543069E+03  0.12509842909E+03 0.  0.
          5    1    3    3  502    0 -0.41531595628E+02  0.85881272019E+02  0.12947805526E+03  0.16088040749E+03  0.41800000000E+01 0. -1.
         -5    1    3    3    0  502 -0.67040298117E+02 -0.23839759519E+02  0.30188234651E+02  0.77405023202E+02  0.41800000000E+01 0. -1.
        -11    1    1    2    0    0  0.10555803671E+03 -0.81846234798E+02  0.12442532207E+03  0.18254579162E+03  0.00000000000E+00 0.  1.
         11    1    1    2    0    0  0.30138570370E+01  0.19804722299E+02  0.31438262508E+02  0.37278341019E+02  0.00000000000E+00 0. -1.
</event>
<event>
 7    1  0.2661133E-009  0.2284757E+03  0.7561462E-02  0.1127717E+00
         -1   -1    0    0    0  501 -0.00000000000E+00  0.00000000000E+00  0.39941442345E+02  0.39941442345E+02  0.00000000000E+00 0.  1.
          1   -1    0    0  501    0  0.00000000000E+00 -0.00000000000E+00 -0.15004002587E+04  0.15004002587E+04  0.00000000000E+00 0. -1.
         25    2    1    2    0    0  0.11675607107E+03 -0.18213765399E+03 -0.86241529213E+03  0.89789400982E+03  0.12508961438E+03 0.  0.
          5    1    3    3  502    0  0.44968636451E+02 -0.60066583899E+00 -0.27997990860E+03  0.28359964859E+03  0.41800000000E+01 0. -1.
         -5    1    3    3    0  502  0.71787434623E+02 -0.18153698815E+03 -0.58243538354E+03  0.61429436123E+03  0.41800000000E+01 0. -1.
        -11    1    1    2    0    0 -0.45431686680E+02  0.78888239681E+02 -0.13592722563E+03  0.16359585319E+03  0.00000000000E+00 0.  1.
         11    1    1    2    0    0 -0.71324384394E+02  0.10324941431E+03 -0.46211629862E+03  0.47885183806E+03  0.00000000000E+00 0. -1.
</event>
<event>
 7    1  0.2661133E-009  0.7754031E+02  0.7561462E-02  0.1336180E+00
          1   -1    0    0  501    0  0.00000000000E+00  0.00000000000E+00  0.73984240190E+02  0.73984240190E+02  0.00000000000E+00 0. -1.
         -1   -1    0    0    0  501 -0.00000000000E+00 -0.00000000000E+00 -0.24108270051E+03  0.24108270051E+03  0.00000000000E+00 0.  1.
         25    2    1    2    0    0 -0.42707030796E+02 -0.32646386341E+02 -0.15137698699E+03  0.20359291315E+03  0.12508159366E+03 0.  0.
          5    1    3    3  502    0 -0.21156218080E+02 -0.61441493027E+02 -0.21209649470E+02  0.68483313730E+02  0.41800000000E+01 0.  1.
         -5    1    3    3    0  502 -0.21550812717E+02  0.28795106686E+02 -0.13016733752E+03  0.13510959942E+03  0.41800000000E+01 0.  1.
        -11    1    1    2    0    0  0.34208659699E+02  0.26189733194E+02 -0.55516608587E+02  0.70272529143E+02  0.00000000000E+00 0.  1.
         11    1    1    2    0    0  0.84983710969E+01  0.64566531474E+01  0.39795135257E+02  0.41201498410E+02  0.00000000000E+00 0. -1.
</event>
<event>
 7    1  0.2661133E-009  0.1040627E+03  0.7561462E-02  0.1271977E+00
          1   -1    0    0  501    0  0.00000000000E+00  0.00000000000E+00  0.28263558365E+02  0.28263558365E+02  0.00000000000E+00 0. -1.
         -1   -1    0    0    0  501 -0.00000000000E+00 -0.00000000000E+00 -0.50699196727E+03  0.50699196727E+03  0.00000000000E+00 0.  1.
         25    2    1    2    0    0  0.12218098931E+02 -0.72997223086E+01 -0.15812570855E+03  0.20212416409E+03  0.12509144701E+03 0.  0.
          5    1    3    3  502    0 -0.21651851404E+02 -0.54992913038E+02 -0.11487634375E+03  0.12925583123E+03  0.41800000000E+01 0. -1.
         -5    1    3    3    0  502  0.33869950335E+02  0.47693190729E+02 -0.43249364802E+02  0.72868332857E+02  0.41800000000E+01 0. -1.
        -11    1    1    2    0    0 -0.42877838480E+02 -0.21675776028E+02 -0.15781233534E+03  0.16496387933E+03  0.00000000000E+00 0.  1.
         11    1    1    2    0    0  0.30659739549E+02  0.28975498337E+02 -0.16279036501E+03  0.16816748221E+03  0.00000000000E+00 0. -1.
</event>
<event>
 7    1  0.2661133E-009  0.1352629E+03  0.7561462E-02  0.1219849E+00
          2   -1    0    0  501    0  0.00000000000E+00  0.00000000000E+00  0.24199113388E+03  0.24199113388E+03  0.00000000000E+00 0.  1.
         -2   -1    0    0    0  501 -0.00000000000E+00 -0.00000000000E+00 -0.95172662680E+02  0.95172662680E+02  0.00000000000E+00 0. -1.
         25    2    1    2    0    0  0.98005742489E+02 -0.26435422549E+02  0.10974395009E+03  0.19492969848E+03  0.12509954293E+03 0.  0.
          5    1    3    3  502    0 -0.15860607660E+02 -0.23781082788E+02 -0.90787268586E+01  0.30281916308E+02  0.41800000000E+01 0.  1.
         -5    1    3    3    0  502  0.11386635015E+03 -0.26543397610E+01  0.11882267695E+03  0.16464778217E+03  0.41800000000E+01 0.  1.
        -11    1    1    2    0    0  0.11108832330E+02 -0.74876673900E+01  0.23651649230E+02  0.27182196931E+02  0.00000000000E+00 0.  1.
         11    1    1    2    0    0 -0.10911457482E+03  0.33923089939E+02  0.13422871879E+02  0.11505190115E+03  0.00000000000E+00 0. -1.
</event>
<event>
 7    1  0.2661133E-009  0.1976600E+03  0.7561462E-02  0.1151728E+00
          2   -1    0    0  501    0  0.00000000000E+00  0.00000000000E+00  0.15888598872E+03  0.15888598872E+03  0.00000000000E+00 0.  1.
         -2   -1    0    0    0  501 -0.00000000000E+00 -0.00000000000E+00 -0.35544608647E+03  0.35544608647E+03  0.00000000000E+00 0. -1.
         25    2    1    2    0    0 -0.13747418708E+03  0.12249079547E+03  0.92737332224E+01  0.22279353943E+03  0.12509121470E+03 0.  0.
          5    1    3    3  502    0 -0.73316145084E+02  0.10073823501E+03  0.59716246654E+02  0.13822789747E+03  0.41800000000E+01 0. -1.
         -5    1    3    3    0  502 -0.64158041999E+02  0.21752560460E+02 -0.50442513432E+02  0.84565641966E+02  0.41800000000E+01 0. -1.
        -11    1    1    2    0    0  0.38611826145E+02 -0.91280072084E+02 -0.12807935139E+03  0.16194827856E+03  0.00000000000E+00 0.  1.
         11    1    1    2    0    0  0.98862360939E+02 -0.31210723387E+02 -0.77754479583E+02  0.12959025720E+03  0.00000000000E+00 0. -1.
</event>
<event>
 6    1  0.2661133E-009  0.1116841E+03  0.7561462E-02  0.1257483E+00
          1   -1    0    0  501    0  0.00000000000E+00  0.00000000000E+00  0.51405622209E+02  0.51405622209E+02  0.00000000000E+00 0. -1.
         -1   -1    0    0    0  501 -0.00000000000E+00 -0.00000000000E+00 -0.40720223492E+03  0.40720223492E+03  0.00000000000E+00 0.  1.
          5    1    1    2  502    0 -0.83501726513E+02 -0.13988616589E+02 -0.18808426253E+03  0.20630410063E+03  0.41800000000E+01 0.  1.
         -5    1    1    2    0  502 -0.10842028530E+02  0.62602232285E+01  0.19797280527E+02  0.23793795279E+02  0.41800000000E+01 0.  1.
        -11    1    1    2    0    0  0.43356979944E+01  0.31908314045E+02 -0.23483128290E+02  0.39854687259E+02  0.00000000000E+00 0. -1.
         11    1    1    2    0    0  0.90008057048E+02 -0.24179920684E+02 -0.16402650242E+03  0.18865527396E+03  0.00000000000E+00 0.  1.
</event>
<event>
 7    1  0.2661133E-009  0.6089576E+02  0.7561462E-02  0.1394111E+00
         -2   -1    0    0    0  501 -0.00000000000E+00  0.00000000000E+00  0.28823022635E+02  0.28823022635E+02  0.00000000000E+00 0.  1.
          2   -1    0    0  501    0  0.00000000000E+00 -0.00000000000E+00 -0.40222423914E+03  0.40222423914E+03  0.00000000000E+00 0. -1.
         25    2    1    2    0    0  0.30707199504E+01 -0.17185902549E+01 -0.22743321584E+03  0.25959071875E+03  0.12509632577E+03 0.  0.
          5    1    3    3  502    0  0.55698108937E+01  0.21013423155E+02  0.76037938317E+01  0.23406768822E+02  0.41800000000E+01 0. -1.
         -5    1    3    3    0  502 -0.24990909433E+01 -0.22732013409E+02 -0.23503700967E+03  0.23618394993E+03  0.41800000000E+01 0. -1.
        -11    1    1    2    0    0 -0.16334258857E+02  0.36063039454E+02 -0.12011028553E+03  0.12646672098E+03  0.00000000000E+00 0. -1.
         11    1    1    2    0    0  0.13263538906E+02 -0.34344449199E+02 -0.25857715144E+02  0.44989822044E+02  0.00000000000E+00 0.  1.
</event>
<event>
 7    1  0.2661133E-009  0.6355495E+02  0.7561462E-02  0.1383491E+00
         -2   -1    0    0    0  501 -0.00000000000E+00  0.00000000000E+00  0.28744384224E+03  0.28744384224E+03  0.00000000000E+00 0.  1.
          2   -1    0    0  501    0  0.00000000000E+00 -0.00000000000E+00 -0.46658400120E+02  0.46658400120E+02  0.00000000000E+00 0. -1.
         25    2    1    2    0    0 -0.13135427935E+02  0.18817370053E+02  0.18381896051E+03  0.22352546186E+03  0.12509032326E+03 0.  0.
          5    1    3    3  502    0  0.37054514655E+01  0.40067880440E+02  0.29229030843E+01  0.40560833029E+02  0.41800000000E+01 0.  1.
         -5    1    3    3    0  502 -0.16840879401E+02 -0.21250510387E+02  0.18089605743E+03  0.18296462883E+03  0.41800000000E+01 0.  1.
        -11    1    1    2    0    0 -0.13231777210E+02  0.12553766592E+02 -0.17692228140E+02  0.25410468715E+02  0.00000000000E+00 0. -1.
         11    1    1    2    0    0  0.26367205145E+02 -0.31371136645E+02  0.74658709753E+02  0.85166311788E+02  0.00000000000E+00 0.  1.
</event>
<event>
 7    1  0.2687302E-009  0.9195973E+02  0.7561462E-02  0.1298174E+00
          4   -1    0    0  501    0  0.00000000000E+00  0.00000000000E+00  0.87981287498E+03  0.87981287498E+03  0.00000000000E+00 0. -1.
         -4   -1    0    0    0  501 -0.00000000000E+00 -0.00000000000E+00 -0.23463650560E+02  0.23463650560E+02  0.00000000000E+00 0.  1.
         25    2    1    2    0    0  0.83327498857E+02 -0.37430376690E+01  0.59604264678E+03  0.61471254700E+03  0.12508875350E+03 0.  0.
          5    1    3    3  502    0  0.11265579201E+02  0.19881403094E+02  0.12756855018E+02  0.26502702007E+02  0.41800000000E+01 0. -1.
         -5    1    3    3    0  502  0.72061919657E+02 -0.23624440764E+02  0.58328579177E+03  0.58820984499E+03  0.41800000000E+01 0. -1.
        -11    1    1    2    0    0 -0.11609631310E+02  0.58275137713E+01 -0.48543888282E+01  0.13867535715E+02  0.00000000000E+00 0.  1.
         11    1    1    2    0    0 -0.71717867547E+02 -0.20844761023E+01  0.26516096647E+03  0.27469644283E+03  0.00000000000E+00 0. -1.
</event>
<event>
 7    1  0.2661133E-009  0.9883506E+02  0.7561462E-02  0.1282765E+00
          2   -1    0    0  501    0  0.00000000000E+00  0.00000000000E+00  0.14877793743E+03  0.14877793743E+03  0.00000000000E+00 0. -1.
         -2   -1    0    0    0  501 -0.00000000000E+00 -0.00000000000E+00 -0.10682419164E+03  0.10682419164E+03  0.00000000000E+00 0.  1.
         25    2    1    2    0    0  0.15089392082E+02 -0.16388807715E+02  0.85308367302E+02  0.15304115413E+03  0.12509114499E+03 0.  0.
          5    1    3    3  502    0  0.40575636727E+02  0.31227932086E+02  0.84470171511E+02  0.98864798150E+02  0.41800000000E+01 0.  1.
         -5    1    3    3    0  502 -0.25486244645E+02 -0.47616739800E+02  0.83819579017E+00  0.54176355982E+02  0.41800000000E+01 0.  1.
        -11    1    1    2    0    0 -0.10681864403E+02  0.53601690477E+02 -0.32321857243E+02  0.63497605504E+02  0.00000000000E+00 0.  1.
         11    1    1    2    0    0 -0.44075276792E+01 -0.37212882762E+02 -0.11032764273E+02  0.39063369430E+02  0.00000000000E+00 0. -1.
</event>
<event>
 7    1  0.2661133E-009  0.1121116E+03  0.7561462E-02  0.1256709E+00
          1   -1    0    0  501    0  0.00000000000E+00  0.00000000000E+00  0.45900278971E+03  0.45900278971E+03  0.00000000000E+00 0. -1.
         -1   -1    0    0    0  501 -0.00000000000E+00 -0.00000000000E+00 -0.37353872873E+02  0.37353872873E+02  0.00000000000E+00 0.  1.
         25    2    1    2    0    0  0.57263138355E+02 -0.47289677615E+02  0.26767755675E+03  0.30465442404E+03  0.12509061947E+03 0.  0.
          5    1    3    3  502    0  0.87876574881E+02  0.35105158076E+00  0.14765549241E+03  0.17187795813E+03  0.41800000000E+01 0. -1.
         -5    1    3    3    0  502 -0.30613436527E+02 -0.47640729196E+02  0.12002206433E+03  0.13277646592E+03  0.41800000000E+01 0. -1.
        -11    1    1    2    0    0 -0.12603399872E+02 -0.22092897725E+01 -0.89854090294E+01  0.15635351773E+02  0.00000000000E+00 0.  1.
         11    1    1    2    0    0 -0.44659738483E+02  0.49498967388E+02  0.16295676912E+03  0.17606688676E+03  0.00000000000E+00 0. -1.
</event>
<event>
 7    1  0.2661133E-009  0.9074666E+02  0.7561462E-02  0.1301054E+00
         -2   -1    0    0    0  501 -0.00000000000E+00  0.00000000000E+00  0.11892487822E+03  0.11892487822E+03  0.00000000000E+00 0.  1.
          2   -1    0    0  501    0  0.00000000000E+00 -0.00000000000E+00 -0.11479614514E+03  0.11479614514E+03  0.00000000000E+00 0. -1.
         25    2    1    2    0    0  0.41065715167E+02  0.50281072896E+01  0.15032373876E+02  0.13260949280E+03  0.12509048921E+03 0.  0.
          5    1    3    3  502    0  0.80610466388E+02  0.28456881561E+02  0.10652045265E+02  0.86248361537E+02  0.41800000000E+01 0.  1.
         -5    1    3    3    0  502 -0.39544751221E+02 -0.23428774272E+02  0.43803286112E+01  0.46361131260E+02  0.41800000000E+01 0.  1.
        -11    1    1    2    0    0 -0.49939577670E+01  0.96042096444E+01  0.37480495325E+02  0.39012408114E+02  0.00000000000E+00 0.  1.
         11    1    1    2    0    0 -0.36071757400E+02 -0.14632316934E+02 -0.48384136126E+02  0.62099122453E+02  0.00000000000E+00 0. -1.
</event>
<event>
 7    1  0.2661133E-009  0.1353800E+03  0.7561462E-02  0.1219684E+00
         -1   -1    0    0    0  501 -0.00000000000E+00  0.00000000000E+00  0.37227952196E+02  0.37227952196E+02  0.00000000000E+00 0.  1.
          1   -1    0    0  501    0  0.00000000000E+00 -0.00000000000E+00 -0.61824800840E+03  0.61824800840E+03  0.00000000000E+00 0. -1.
         25    2    1    2    0    0  0.42134888635E+02  0.91022365701E+02 -0.23502883798E+03  0.28451115088E+03  0.12509044886E+03 0.  0.
          5    1    3    3  502    0  0.73260330555E+02  0.37120059095E+02 -0.69680637172E+02  0.10778607710E+03  0.41800000000E+01 0.  1.
         -5    1    3    3    0  502 -0.31125441920E+02  0.53902306606E+02 -0.16534820080E+03  0.17672507378E+03  0.41800000000E+01 0.  1.
        -11    1    1    2    0    0 -0.38635438693E+02 -0.37692212566E+01 -0.56204084584E+02  0.68306685440E+02  0.00000000000E+00 0.  1.
         11    1    1    2    0    0 -0.34994499420E+01 -0.87253144445E+02 -0.28978713364E+03  0.30265812427E+03  0.00000000000E+00 0. -1.
</event>
<event>
 7    1  0.2661133E-009  0.1098503E+03  0.7561462E-02  0.1260847E+00
          1   -1    0    0  501    0  0.00000000000E+00  0.00000000000E+00  0.98040227751E+02  0.98040227751E+02  0.00000000000E+00 0. -1.
         -1   -1    0    0    0  501 -0.00000000000E+00 -0.00000000000E+00 -0.13887285722E+03  0.13887285722E+03  0.00000000000E+00 0.  1.
         25    2    1    2    0    0 -0.37645342467E+02 -0.72608882703E+01 -0.40673792325E+02  0.13701023769E+03  0.12509018963E+03 0.  0.
          5    1    3    3  502    0  0.33400973850E+02 -0.35517270874E+02  0.26947095729E+01  0.49008524198E+02  0.41800000000E+01 0.  1.
         -5    1    3    3    0  502 -0.71046316317E+02  0.28256382603E+02 -0.43368501898E+02  0.88001713488E+02  0.41800000000E+01 0.  1.
        -11    1    1    2    0    0 -0.26559428942E+02 -0.88546012345E+01 -0.15431069376E+02  0.31967563730E+02  0.00000000000E+00 0.  1.
         11    1    1    2    0    0  0.64204771409E+02  0.16115489505E+02  0.15272232236E+02  0.67935283551E+02  0.00000000000E+00 0. -1.
</event>
<event>
 7    1  0.2661133E-009  0.5307540E+02  0.7561462E-02  0.1429426E+00
         -1   -1    0    0    0  501 -0.00000000000E+00  0.00000000000E+00  0.55020302394E+02  0.55020302394E+02  0.00000000000E+00 0.  1.
          1   -1    0    0  501    0  0.00000000000E+00 -0.00000000000E+00 -0.23149191467E+03  0.23149191467E+03  0.00000000000E+00 0. -1.
         25    2    1    2    0    0  0.75235480185E+01 -0.51958794372E+01 -0.70721250735E+02  0.14398793123E+03  0.12508968021E+03 0.  0.
          5    1    3    3  502    0 -0.14537136926E+02  0.23671744803E+02  0.27418986437E+02  0.39254975089E+02  0.41800000000E+01 0.  1.
         -5    1    3    3    0  502  0.22060684945E+02 -0.28867624240E+02 -0.98140237172E+02  0.10473295614E+03  0.41800000000E+01 0.  1.
        -11    1    1    2    0    0 -0.16500523232E+02 -0.13125895956E+02 -0.11723183232E+03  0.11911279915E+03  0.00000000000E+00 0. -1.
         11    1    1    2    0    0  0.89769752134E+01  0.18321775393E+02  0.11481470782E+02  0.23411486686E+02  0.00000000000E+00 0.  1.
</event>
<event>
 7    1  0.2661133E-009  0.9763226E+02  0.7561462E-02  0.1285355E+00
          2   -1    0    0  501    0  0.00000000000E+00  0.00000000000E+00  0.36283915203E+03  0.36283915203E+03  0.00000000000E+00 0. -1.
         -2   -1    0    0    0  501 -0.00000000000E+00 -0.00000000000E+00 -0.55863816795E+02  0.55863816795E+02  0.00000000000E+00 0.  1.
         25    2    1    2    0    0 -0.29392777329E+02  0.67206528885E+02  0.85987635102E+02  0.16859140348E+03  0.12509410479E+03 0.  0.
          5    1    3    3  502    0 -0.71840437239E+01  0.47747780237E+02  0.11634530984E+03  0.12603636191E+03  0.41800000000E+01 0. -1.
         -5    1    3    3    0  502 -0.22208733605E+02  0.19458748648E+02 -0.30357674741E+02  0.42555041570E+02  0.41800000000E+01 0. -1.
        -11    1    1    2    0    0 -0.31746387687E+02 -0.10095746815E+02  0.68895915952E+02  0.76527148580E+02  0.00000000000E+00 0. -1.
         11    1    1    2    0    0  0.61139165016E+02 -0.57110782070E+02  0.15209178418E+03  0.17358441677E+03  0.00000000000E+00 0.  1.
</event>
<event>
 7    1  0.2661133E-009  0.9160756E+02  0.7561462E-02  0.1299005E+00
         -1   -1    0    0    0  501 -0.00000000000E+00  0.00000000000E+00  0.94205495634E+02  0.94205495634E+02  0.00000000000E+00 0.  1.
          1   -1    0    0  501    0  0.00000000000E+00 -0.00000000000E+00 -0.37005005621E+03  0.37005005621E+03  0.00000000000E+00 0. -1.
         25    2    1    2    0    0 -0.16155268386E+01  0.49574115616E+02  0.33118812049E+02  0.13857727569E+03  0.12508638119E+03 0.  0.
          5    1    3    3  502    0  0.24916930079E+02 -0.11999909415E+01 -0.38935013781E+02  0.46429528114E+02  0.41800000000E+01 0. -1.
         -5    1    3    3    0  502 -0.26532456917E+02  0.50774106557E+02  0.72053825830E+02  0.92147747577E+02  0.41800000000E+01 0. -1.
        -11    1    1    2    0    0 -0.32707642453E+02 -0.56670184288E+02 -0.16477010620E+03  0.17728645622E+03  0.00000000000E+00 0. -1.
         11    1    1    2    0    0  0.34323169292E+02  0.70960686720E+01 -0.14419326642E+03  0.14839181993E+03  0.00000000000E+00 0.  1.
</event>
<event>
 7    1  0.2661133E-009  0.1756844E+03  0.7561462E-02  0.1172046E+00
          1   -1    0    0  501    0  0.00000000000E+00  0.00000000000E+00  0.59790753335E+03  0.59790753335E+03  0.00000000000E+00 0. -1.
         -1   -1    0    0    0  501 -0.00000000000E+00 -0.00000000000E+00 -0.83026110669E+02  0.83026110669E+02  0.00000000000E+00 0.  1.
         25    2    1    2    0    0 -0.15095494338E+03 -0.54991484510E+02  0.99274637767E+02  0.22652599902E+03  0.12508843364E+03 0.  0.
          5    1    3    3  502    0 -0.14726995958E+03 -0.26889082825E+02  0.31632997704E+02  0.15306724899E+03  0.41800000000E+01 0. -1.
         -5    1    3    3    0  502 -0.36849837975E+01 -0.28102401684E+02  0.67641640063E+02  0.73458750033E+02  0.41800000000E+01 0. -1.
        -11    1    1    2    0    0  0.46324299931E+02  0.50066441843E+02  0.93770877665E+02  0.11595502085E+03  0.00000000000E+00 0.  1.
         11    1    1    2    0    0  0.10463064345E+03  0.49250426666E+01  0.32183590725E+03  0.33845262414E+03  0.00000000000E+00 0. -1.
</event>
<event>
 7    1  0.2661133E-009  0.4231396E+03  0.7561462E-02  0.1036049E+00
          2   -1    0    0  501    0  0.00000000000E+00  0.00000000000E+00  0.21337527407E+03  0.21337527407E+03  0.00000000000E+00 0. -1.
         -2   -1    0    0    0  501 -0.00000000000E+00 -0.00000000000E+00 -0.88908766030E+03  0.88908766030E+03  0.00000000000E+00 0.  1.
         25    2    1    2    0    0 -0.41136385037E+03 -0.28467709073E+02 -0.22991862409E+03  0.48840626830E+03  0.12508989313E+03 0.  0.
          5    1    3    3  502    0 -0.27233150751E+03 -0.68621495941E+02 -0.11475499327E+03  0.30341315161E+03  0.41800000000E+01 0.  1.
         -5    1    3    3    0  502 -0.13903234285E+03  0.40153786867E+02 -0.11516363082E+03  0.18499311669E+03  0.41800000000E+01 0.  1.
        -11    1    1    2    0    0  0.18111396197E+03  0.53937354334E+02 -0.22756739491E+03  0.29580132629E+03  0.00000000000E+00 0.  1.
         11    1    1    2    0    0  0.23024988840E+03 -0.25469645260E+02 -0.21822636724E+03  0.31825533978E+03  0.00000000000E+00 0. -1.
</event>
<event>
 7    1  0.2661133E-009  0.7885144E+02  0.7561462E-02  0.1332343E+00
         -2   -1    0    0    0  501 -0.00000000000E+00  0.00000000000E+00  0.97163276690E+01  0.97163276690E+01  0.00000000000E+00 0.  1.
          2   -1    0    0  501    0  0.00000000000E+00 -0.00000000000E+00 -0.19338089565E+04  0.19338089565E+04  0.00000000000E+00 0. -1.
         25    2    1    2    0    0 -0.17889500057E+02  0.16845856872E+02 -0.16246824454E+04  0.16296760498E+04  0.12508861598E+03 0.  0.
          5    1    3    3  502    0 -0.46378341123E+02 -0.38571519574E+01 -0.23817472613E+03  0.24271485475E+03  0.41800000000E+01 0. -1.
         -5    1    3    3    0  502  0.28488841066E+02  0.20703008829E+02 -0.13865077193E+04  0.13869611951E+04  0.41800000000E+01 0. -1.
        -11    1    1    2    0    0  0.14007893700E+02  0.27571763548E+02 -0.39621648097E+02  0.50262294307E+02  0.00000000000E+00 0.  1.
         11    1    1    2    0    0  0.38816063571E+01 -0.44417620420E+02 -0.25978853534E+03  0.26358694005E+03  0.00000000000E+00 0. -1.
</event>
<event>
 7    1  0.2661133E-009  0.1016851E+03  0.7561462E-02  0.1276792E+00
          1   -1    0    0  501    0  0.00000000000E+00  0.00000000000E+00  0.27374115602E+03  0.27374115602E+03  0.00000000000E+00 0. -1.
         -1   -1    0    0    0  501 -0.00000000000E+00 -0.00000000000E+00 -0.54881882205E+02  0.54881882205E+02  0.00000000000E+00 0.  1.
         25    2    1    2    0    0 -0.41216278207E+02 -0.29964374341E+02  0.86228302943E+02  0.16024847590E+03  0.12509040124E+03 0.  0.
          5    1    3    3  502    0 -0.29326707496E+02 -0.62785829125E+02  0.25339611952E+01  0.69469485897E+02  0.41800000000E+01 0.  1.
         -5    1    3    3    0  502 -0.11889570711E+02  0.32821454784E+02  0.83694341748E+02  0.90778990006E+02  0.41800000000E+01 0.  1.
        -11    1    1    2    0    0  0.41539578484E+02 -0.21875891087E+02  0.37701481437E+02  0.60212066017E+02  0.00000000000E+00 0.  1.
         11    1    1    2    0    0 -0.32330027685E+00  0.51840265429E+02  0.94929489436E+02  0.10816249631E+03  0.00000000000E+00 0. -1.
</event>
<event>
 7    1  0.2661133E-009  0.1016827E+03  0.7561462E-02  0.1276797E+00
         -2   -1    0    0    0  501 -0.00000000000E+00  0.00000000000E+00  0.13540767440E+02  0.13540767440E+02  0.00000000000E+00 0. -1.
          2   -1    0    0  501    0  0.00000000000E+00 -0.00000000000E+00 -0.92485853325E+03  0.92485853325E+03  0.00000000000E+00 0.  1.
         25    2    1    2    0    0 -0.10556407951E+02  0.21495907854E+02 -0.62025876207E+03  0.63320028570E+03  0.12509259801E+03 0.  0.
          5    1    3    3  502    0  0.53438379682E+02 -0.61486871958E+01 -0.19863247852E+03  0.20582954282E+03  0.41800000000E+01 0.  1.
         -5    1    3    3    0  502 -0.63994787633E+02  0.27644595049E+02 -0.42162628355E+03  0.42737074287E+03  0.41800000000E+01 0.  1.
        -11    1    1    2    0    0  0.10422348783E+02  0.28105067746E+02 -0.44196470464E+02  0.53402698327E+02  0.00000000000E+00 0. -1.
         11    1    1    2    0    0  0.13405916799E+00 -0.49600975600E+02 -0.24686253328E+03  0.25179631667E+03  0.00000000000E+00 0.  1.
</event>
<event>
 7    1  0.2661133E-009  0.8345197E+02  0.7561462E-02  0.1319531E+00
          1   -1    0    0  501    0  0.00000000000E+00  0.00000000000E+00  0.29137287124E+03  0.29137287124E+03  0.00000000000E+00 0. -1.
         -1   -1    0    0    0  501 -0.00000000000E+00 -0.00000000000E+00 -0.34752929145E+02  0.34752929145E+02  0.00000000000E+00 0.  1.
         25    2    1    2    0    0  0.34624157312E+02  0.27363756031E+02  0.14840517839E+03  0.19904490355E+03  0.12508864553E+03 0.  0.
          5    1    3    3  502    0 -0.15335806708E+02  0.44613986966E+02  0.68090435925E+01  0.47847991337E+02  0.41800000000E+01 0.  1.
         -5    1    3    3    0  502  0.49959964020E+02 -0.17250230934E+02  0.14159613480E+03  0.15119691221E+03  0.41800000000E+01 0.  1.
        -11    1    1    2    0    0 -0.39075981165E+02 -0.28054178266E+00  0.60059075074E+02  0.71652658753E+02  0.00000000000E+00 0. -1.
         11    1    1    2    0    0  0.44518238528E+01 -0.27083214249E+02  0.48155688628E+02  0.55428238082E+02  0.00000000000E+00 0.  1.
</event>
<event>
 7    1  0.2661133E-009  0.1067113E+03  0.7561462E-02  0.1266784E+00
         -1   -1    0    0    0  501 -0.00000000000E+00  0.00000000000E+00  0.19596086239E+03  0.19596086239E+03  0.00000000000E+00 0.  1.
          1   -1    0    0  501    0  0.00000000000E+00 -0.00000000000E+00 -0.96821816001E+02  0.96821816001E+02  0.00000000000E+00 0. -1.
         25    2    1    2    0    0  0.22695691513E+02 -0.71287101843E+02  0.93980896647E+02  0.17341149831E+03  0.12506875512E+03 0.  0.
          5    1    3    3  502    0  0.62791099062E+02 -0.20649919562E+02  0.93817196062E+01  0.66892677941E+02  0.41800000000E+01 0.  1.
         -5    1    3    3    0  502 -0.40095407550E+02 -0.50637182281E+02  0.84599177041E+02  0.10651882036E+03  0.41800000000E+01 0.  1.
        -11    1    1    2    0    0 -0.28616575840E+02  0.32807839731E+02  0.45731882517E+02  0.63140065245E+02  0.00000000000E+00 0.  1.
         11    1    1    2    0    0  0.59208843277E+01  0.38479262112E+02 -0.40573732779E+02  0.56231114835E+02  0.00000000000E+00 0. -1.
</event>
<event>
 7    1  0.2661133E-009  0.2534852E+03  0.7561462E-02  0.1111122E+00
          2   -1    0    0  501    0  0.00000000000E+00  0.00000000000E+00  0.26219388443E+03  0.26219388443E+03  0.00000000000E+00 0. -1.
         -2   -1    0    0    0  501 -0.00000000000E+00 -0.00000000000E+00 -0.34399335525E+03  0.34399335525E+03  0.00000000000E+00 0.  1.
         25    2    1    2    0    0  0.15942830311E+03  0.16938544869E+03 -0.19895024013E+03  0.33065853380E+03  0.12508018975E+03 0.  0.
          5    1    3    3  502    0  0.13819531169E+03  0.68285732644E+02 -0.82321229793E+02  0.17480029385E+03  0.41800000000E+01 0.  1.
         -5    1    3    3    0  502  0.21232991427E+02  0.10109971605E+03 -0.11662901034E+03  0.15585823996E+03  0.41800000000E+01 0.  1.
        -11    1    1    2    0    0 -0.12672712793E+03 -0.70051218357E+02  0.68852758458E+02  0.16033602370E+03  0.00000000000E+00 0. -1.
         11    1    1    2    0    0 -0.32701175180E+02 -0.99334230334E+02  0.48298010853E+02  0.11519268217E+03  0.00000000000E+00 0.  1.
</event>
<event>
 7    1  0.2661133E-009  0.7930428E+02  0.7561462E-02  0.1331037E+00
         -2   -1    0    0    0  501 -0.00000000000E+00  0.00000000000E+00  0.63569401519E+03  0.63569401519E+03  0.00000000000E+00 0.  1.
          2   -1    0    0  501    0  0.00000000000E+00 -0.00000000000E+00 -0.24444018008E+02  0.24444018008E+02  0.00000000000E+00 0. -1.
         25    2    1    2    0    0 -0.34881921811E+02 -0.15201089034E+02  0.47174431988E+03  0.48952877245E+03  0.12509154303E+03 0.  0.
          5    1    3    3  502    0 -0.58007323187E+02  0.20310116950E+01  0.93276235655E+02  0.10994045247E+03  0.41800000000E+01 0.  1.
         -5    1    3    3    0  502  0.23125401376E+02 -0.17232100729E+02  0.37846808422E+03  0.37958831997E+03  0.41800000000E+01 0.  1.
        -11    1    1    2    0    0  0.23940015904E+02  0.38612665788E+02  0.13735954886E+03  0.14467794574E+03  0.00000000000E+00 0.  1.
         11    1    1    2    0    0  0.10941905907E+02 -0.23411576754E+02  0.21461284444E+01  0.25931315012E+02  0.00000000000E+00 0. -1.
</event>
<event>
 7    1  0.4290162E-009  0.1018254E+03  0.7561462E-02  0.1276503E+00
         -2   -1    0    0    0  501 -0.00000000000E+00  0.00000000000E+00  0.23784085833E+02  0.23784085833E+02  0.00000000000E+00 0.  1.
          2   -1    0    0  501    0  0.00000000000E+00 -0.00000000000E+00 -0.63608457156E+03  0.63608457156E+03  0.00000000000E+00 0. -1.
         25    2    1    2    0    0 -0.41325866325E+02 -0.28519539788E+02 -0.26461878377E+03  0.29697166905E+03  0.12509148698E+03 0.  0.
          5    1    3    3  502    0 -0.74383483915E+02  0.70157612465E+01 -0.97548459077E+02  0.12294428760E+03  0.41800000000E+01 0. -1.
         -5    1    3    3    0  502  0.33057617590E+02 -0.35535301035E+02 -0.16707032469E+03  0.17402738145E+03  0.41800000000E+01 0. -1.
        -11    1    1    2    0    0  0.40636481216E+01 -0.19164258383E+02 -0.14782202865E+02  0.24541710555E+02  0.00000000000E+00 0.  1.
         11    1    1    2    0    0  0.37262218203E+02  0.47683798171E+02 -0.33289949909E+03  0.33835527779E+03  0.00000000000E+00 0. -1.
</event>
<event>
 7    1  0.2661133E-009  0.8555912E+02  0.7561462E-02  0.1313977E+00
         -2   -1    0    0    0  501 -0.00000000000E+00  0.00000000000E+00  0.37828092073E+02  0.37828092073E+02  0.00000000000E+00 0.  1.
          2   -1    0    0  501    0  0.00000000000E+00 -0.00000000000E+00 -0.38798901218E+03  0.38798901218E+03  0.00000000000E+00 0. -1.
         25    2    1    2    0    0 -0.68379730470E+01 -0.34667336195E+02 -0.26955762656E+03  0.29925384530E+03  0.12507185061E+03 0.  0.
          5    1    3    3  502    0  0.32753900230E+02 -0.19020707547E+02 -0.24881075809E+03  0.25171188100E+03  0.41800000000E+01 0. -1.
         -5    1    3    3    0  502 -0.39591873277E+02 -0.15646628648E+02 -0.20746868464E+02  0.47541964291E+02  0.41800000000E+01 0. -1.
        -11    1    1    2    0    0  0.45022531529E+02  0.16511706263E+02 -0.18427761078E+02  0.51373603799E+02  0.00000000000E+00 0.  1.
         11    1    1    2    0    0 -0.38184558482E+02  0.18155629932E+02 -0.62175532470E+02  0.75189655157E+02  0.00000000000E+00 0. -1.
</event>
<event>
 7    1  0.2661133E-009  0.1812339E+03  0.7561462E-02  0.1166614E+00
         -1   -1    0    0    0  501 -0.00000000000E+00  0.00000000000E+00  0.32484126522E+02  0.32484126522E+02  0.00000000000E+00 0.  1.
          1   -1    0    0  501    0  0.00000000000E+00 -0.00000000000E+00 -0.11193311704E+04  0.11193311704E+04  0.00000000000E+00 0. -1.
         25    2    1    2    0    0  0.15440952165E+03  0.22816385884E+02 -0.54443069311E+03  0.58001309118E+03  0.12509004159E+03 0.  0.
          5    1    3    3  502    0  0.10175187831E+03  0.58909378209E+02 -0.22149545680E+03  0.25080165343E+03  0.41800000000E+01 0. -1.
         -5    1    3    3    0  502  0.52657643341E+02 -0.36092992325E+02 -0.32293523631E+03  0.32921143775E+03  0.41800000000E+01 0. -1.
        -11    1    1    2    0    0 -0.70066073530E+02 -0.56513397862E+02 -0.27977077061E+03  0.29389573472E+03  0.00000000000E+00 0. -1.
         11    1    1    2    0    0 -0.84343448123E+02  0.33697011978E+02 -0.26264558016E+03  0.27790647102E+03  0.00000000000E+00 0.  1.
</event>
<event>
 7    1  0.2661133E-009  0.1266327E+03  0.7561462E-02  0.1232540E+00
          2   -1    0    0  501    0  0.00000000000E+00  0.00000000000E+00  0.51660255552E+02  0.51660255552E+02  0.00000000000E+00 0.  1.
         -2   -1    0    0    0  501 -0.00000000000E+00 -0.00000000000E+00 -0.41054878355E+03  0.41054878355E+03  0.00000000000E+00 0. -1.
         25    2    1    2    0    0 -0.16438404657E+02 -0.87714232528E+02 -0.25442357750E+03  0.29722485786E+03  0.12508897476E+03 0.  0.
          5    1    3    3  502    0  0.27501207893E+02  0.25511767853E+01 -0.50728010900E+01  0.28390678919E+02  0.41800000000E+01 0. -1.
         -5    1    3    3    0  502 -0.43939612551E+02 -0.90265409314E+02 -0.24935077641E+03  0.26883417894E+03  0.41800000000E+01 0. -1.
        -11    1    1    2    0    0 -0.27343507284E+02  0.59405561992E+00 -0.38647655008E+02  0.47346188129E+02  0.00000000000E+00 0. -1.
         11    1    1    2    0    0  0.43781911941E+02  0.87120176908E+02 -0.65817295484E+02  0.11763799311E+03  0.00000000000E+00 0.  1.
</event>
<event>
 7    1  0.2661133E-009  0.8779357E+02  0.7561462E-02  0.1308285E+00
         -2   -1    0    0    0  501 -0.00000000000E+00  0.00000000000E+00  0.16760030983E+02  0.16760030983E+02  0.00000000000E+00 0.  1.
          2   -1    0    0  501    0  0.00000000000E+00 -0.00000000000E+00 -0.10694278381E+04  0.10694278381E+04  0.00000000000E+00 0. -1.
         25    2    1    2    0    0 -0.43744362539E+02  0.52491691120E+02 -0.74615049438E+03  0.75964295053E+03  0.12509158699E+03 0.  0.
          5    1    3    3  502    0 -0.68275426118E+02  0.37906641985E+02 -0.23483284498E+03  0.24751239323E+03  0.41800000000E+01 0. -1.
         -5    1    3    3    0  502  0.24531063580E+02  0.14585049135E+02 -0.51131764940E+03  0.51213055730E+03  0.41800000000E+01 0. -1.
        -11    1    1    2    0    0  0.34493896628E+02 -0.37757171606E+02 -0.30480238323E+03  0.30906298021E+03  0.00000000000E+00 0. -1.
         11    1    1    2    0    0  0.92504659105E+01 -0.14734519514E+02 -0.17149295003E+01  0.17481938338E+02  0.00000000000E+00 0.  1.
</event>
<event>
 7    1  0.2661133E-009  0.1289204E+03  0.7561462E-02  0.1229066E+00
          1   -1    0    0  501    0  0.00000000000E+00  0.00000000000E+00  0.20884505340E+03  0.20884505340E+03  0.00000000000E+00 0. -1.
         -1   -1    0    0    0  501 -0.00000000000E+00 -0.00000000000E+00 -0.12426007831E+03  0.12426007831E+03  0.00000000000E+00 0.  1.
         25    2    1    2    0    0  0.60979671384E+02  0.51876159263E+02 -0.45473437422E+02  0.15532205132E+03  0.12508976734E+03 0.  0.
          5    1    3    3  502    0  0.94782999940E+02  0.11766438280E+02 -0.33977174284E+02  0.10146027262E+03  0.41800000000E+01 0. -1.
         -5    1    3    3    0  502 -0.33803328556E+02  0.40109720983E+02 -0.11496263138E+02  0.53861778702E+02  0.41800000000E+01 0. -1.
        -11    1    1    2    0    0 -0.33627869243E+02 -0.69411319641E+02  0.51420085134E+02  0.92697303301E+02  0.00000000000E+00 0.  1.
         11    1    1    2    0    0 -0.27351802141E+02  0.17535160378E+02  0.78638327381E+02  0.85085777091E+02  0.00000000000E+00 0. -1.
</event>
<event>
 7    1  0.2661133E-009  0.2464122E+03  0.7561462E-02  0.1115593E+00
          2   -1    0    0  501    0  0.00000000000E+00  0.00000000000E+00  0.70500456667E+02  0.70500456667E+02  0.00000000000E+00 0. -1.
         -2   -1    0    0    0  501 -0.00000000000E+00 -0.00000000000E+00 -0.92617580137E+03  0.92617580137E+03  0.00000000000E+00 0.  1.
         25    2    1    2    0    0  0.55130339720E+02 -0.22130883939E+03 -0.36862323741E+03  0.45116222067E+03  0.12508917400E+03 0.  0.
          5    1    3    3  502    0  0.17617676396E+02 -0.21152410087E+03 -0.25947092447E+03  0.33525432259E+03  0.41800000000E+01 0.  1.
         -5    1    3    3    0  502  0.37512663324E+02 -0.97847385220E+01 -0.10915231293E+03  0.11590789807E+03  0.41800000000E+01 0.  1.
        -11    1    1    2    0    0 -0.74842685824E+02  0.19330850511E+03 -0.44762310182E+03  0.49329103686E+03  0.00000000000E+00 0. -1.
         11    1    1    2    0    0  0.19712346104E+02  0.28000334280E+02 -0.39429005484E+02  0.52223000509E+02  0.00000000000E+00 0.  1.
</event>
<event>
 7    1  0.2661133E-009  0.1398342E+03  0.7561462E-02  0.1213552E+00
          1   -1    0    0  501    0  0.00000000000E+00  0.00000000000E+00  0.18675209172E+04  0.18675209172E+04  0.00000000000E+00 0. -1.
         -1   -1    0    0    0  501 -0.00000000000E+00 -0.00000000000E+00 -0.15564598087E+02  0.15564598087E+02  0.00000000000E+00 0.  1.
         25    2    1    2    0    0  0.59409928335E+02 -0.11204263352E+03  0.11524609445E+04  0.11661461062E+04  0.12508965160E+03 0.  0.
          5    1    3    3  502    0  0.53163942309E+02 -0.93762732916E+02  0.42692813371E+03  0.44034413655E+03  0.41800000000E+01 0.  1.
         -5    1    3    3    0  502  0.62459860262E+01 -0.18279900599E+02  0.72553281081E+03  0.72580196960E+03  0.41800000000E+01 0.  1.
        -11    1    1    2    0    0 -0.21263846368E+02  0.11188753500E+03  0.59251638536E+03  0.60336277526E+03  0.00000000000E+00 0. -1.
         11    1    1    2    0    0 -0.38146081967E+02  0.15509851932E+00  0.10697898921E+03  0.11357663385E+03  0.00000000000E+00 0.  1.
</event>
<event>
 7    1  0.2661133E-009  0.1124533E+03  0.7561462E-02  0.1256093E+00
          2   -1    0    0  501    0  0.00000000000E+00  0.00000000000E+00  0.41357211307E+03  0.41357211307E+03  0.00000000000E+00 0. -1.
         -2   -1    0    0    0  501 -0.00000000000E+00 -0.00000000000E+00 -0.40626320409E+02  0.40626320409E+02  0.00000000000E+00 0.  1.
         25    2    1    2    0    0 -0.60719849844E+02 -0.34251898217E+02  0.18091679395E+03  0.23073311280E+03  0.12508713088E+03 0.  0.
          5    1    3    3  502    0  0.17851147064E+02 -0.25878580174E+02 -0.16488223251E+01  0.31757760916E+02  0.41800000000E+01 0.  1.
         -5    1    3    3    0  502 -0.78570996908E+02 -0.83733180432E+01  0.18256561628E+03  0.19897535188E+03  0.41800000000E+01 0.  1.
        -11    1    1    2    0    0  0.27012087521E+02  0.63772969017E+02  0.12331781949E+03  0.14143524685E+03  0.00000000000E+00 0.  1.
         11    1    1    2    0    0  0.33707762322E+02 -0.29521070800E+02  0.68711179228E+02  0.82030073832E+02  0.00000000000E+00 0. -1.
</event>
<event>
 7    1  0.2661133E-009  0.2438214E+03  0.7561462E-02  0.1117273E+00
          2   -1    0    0  501    0  0.00000000000E+00  0.00000000000E+00  0.40092580646E+03  0.40092580646E+03  0.00000000000E+00 0. -1.
         -2   -1    0    0    0  501 -0.00000000000E+00 -0.00000000000E+00 -0.16020210588E+03  0.16020210588E+03  0.00000000000E+00 0.  1.
         25    2    1    2    0    0 -0.12425151328E+03 -0.19114732396E+03  0.10496351906E+03  0.28042402286E+03  0.12507819258E+03 0.  0.
          5    1    3    3  502    0 -0.12677379167E+03 -0.20684406128E+03  0.10390868015E+03  0.26395178756E+03  0.41800000000E+01 0.  1.
         -5    1    3    3    0  502  0.25222783939E+01  0.15696737324E+02  0.10548389028E+01  0.16472235308E+02  0.41800000000E+01 0.  1.
        -11    1    1    2    0    0  0.40644682973E+02  0.77074927463E+02  0.37163183630E+01  0.87214366475E+02  0.00000000000E+00 0.  1.
         11    1    1    2    0    0  0.83606830303E+02  0.11407239650E+03  0.13204386316E+03  0.19348952301E+03  0.00000000000E+00 0. -1.
</event>
<event>
 7    1  0.2661133E-009  0.1186262E+03  0.7561462E-02  0.1245381E+00
         -2   -1    0    0    0  501 -0.00000000000E+00  0.00000000000E+00  0.52693209609E+02  0.52693209609E+02  0.00000000000E+00 0. -1.
          2   -1    0    0  501    0  0.00000000000E+00 -0.00000000000E+00 -0.44139151308E+03  0.44139151308E+03  0.00000000000E+00 0.  1.
         25    2    1    2    0    0 -0.58314263854E+02 -0.38555538446E+01 -0.63884150794E+02  0.15213913469E+03  0.12509881261E+03 0.  0.
          5    1    3    3  502    0 -0.26242961259E+02 -0.63382319099E+02 -0.43724860114E+02  0.81457640415E+02  0.41800000000E+01 0. -1.
         -5    1    3    3    0  502 -0.32071302595E+02  0.59526765254E+02 -0.20159290680E+02  0.70681494272E+02  0.41800000000E+01 0. -1.
        -11    1    1    2    0    0 -0.13535521576E+02 -0.20800254353E+02 -0.13910220252E+03  0.14129856217E+03  0.00000000000E+00 0.  1.
         11    1    1    2    0    0  0.71849785430E+02  0.24655808198E+02 -0.18571195016E+03  0.20064702583E+03  0.00000000000E+00 0. -1.
</event>
<event>
 7    1  0.2661133E-009  0.1086518E+03  0.7561462E-02  0.1263087E+00
          2   -1    0    0  501    0  0.00000000000E+00  0.00000000000E+00  0.15883580966E+04  0.15883580966E+04  0.00000000000E+00 0. -1.
         -2   -1    0    0    0  501 -0.00000000000E+00 -0.00000000000E+00 -0.12089118754E+02  0.12089118754E+02  0.00000000000E+00 0.  1.
         25    2    1    2    0    0 -0.38017820356E+02 -0.37209358337E+02  0.12372974053E+04  0.12447393822E+04  0.12506546060E+03 0.  0.
          5    1    3    3  502    0 -0.18618344085E+02 -0.71010062748E+02  0.41187275142E+03  0.41838464062E+03  0.41800000000E+01 0.  1.
         -5    1    3    3    0  502 -0.19399476271E+02  0.33800704410E+02  0.82542465390E+03  0.82635474160E+03  0.41800000000E+01 0.  1.
        -11    1    1    2    0    0  0.67849566247E+02  0.27438127107E+02  0.19327606434E+03  0.20666894181E+03  0.00000000000E+00 0.  1.
         11    1    1    2    0    0 -0.29831745891E+02  0.97712312306E+01  0.14569550821E+03  0.14903889135E+03  0.00000000000E+00 0. -1.
</event>
<event>
 7    1  0.3440013E-009  0.7374223E+02  0.7561462E-02  0.1347811E+00
         -2   -1    0    0    0  501 -0.00000000000E+00  0.00000000000E+00  0.35801396836E+02  0.35801396836E+02  0.00000000000E+00 0.  1.
          2   -1    0    0  501    0  0.00000000000E+00 -0.00000000000E+00 -0.44635930234E+03  0.44635930234E+03  0.00000000000E+00 0. -1.
         25    2    1    2    0    0 -0.99613467602E+01  0.53023094679E+02 -0.29558234206E+03  0.32546363003E+03  0.12508787524E+03 0.  0.
          5    1    3    3  502    0 -0.39470286142E+01  0.55001583410E+02 -0.36478687899E+02  0.66248926658E+02  0.41800000000E+01 0. -1.
         -5    1    3    3    0  502 -0.60143181460E+01 -0.19784887314E+01 -0.25910365416E+03  0.25921470337E+03  0.41800000000E+01 0. -1.
        -11    1    1    2    0    0  0.34722533289E+02 -0.12109609767E+02 -0.54359517611E+01  0.37173196504E+02  0.00000000000E+00 0.  1.
         11    1    1    2    0    0 -0.24761186529E+02 -0.40913484912E+02 -0.10953961168E+03  0.11952387265E+03  0.00000000000E+00 0. -1.
</event>
<event>
 7    1  0.2661133E-009  0.1527453E+03  0.7561462E-02  0.1197140E+00
          1   -1    0    0  501    0  0.00000000000E+00  0.00000000000E+00  0.39125768794E+03  0.39125768794E+03  0.00000000000E+00 0. -1.
         -1   -1    0    0    0  501 -0.00000000000E+00 -0.00000000000E+00 -0.96571754219E+02  0.96571754219E+02  0.00000000000E+00 0.  1.
         25    2    1    2    0    0 -0.14102438078E+03  0.13127111588E+02  0.24520575942E+03  0.30957217335E+03  0.12509543968E+03 0.  0.
          5    1    3    3  502    0  0.73024222508E+01 -0.24541997496E+01 -0.10403816723E+02  0.13603685881E+02  0.41800000000E+01 0.  1.
         -5    1    3    3    0  502 -0.14832680304E+03  0.15581311337E+02  0.25560957614E+03  0.29596848747E+03  0.41800000000E+01 0.  1.
        -11    1    1    2    0    0  0.36743703390E+02  0.14730943835E+02 -0.25268783483E+02  0.46963942166E+02  0.00000000000E+00 0.  1.
         11    1    1    2    0    0  0.10428067739E+03 -0.27858055422E+02  0.74748957784E+02  0.13129332664E+03  0.00000000000E+00 0. -1.
</event>
<event>
 7    1  0.2661133E-009  0.1320623E+03  0.7561462E-02  0.1224427E+00
         -2   -1    0    0    0  501 -0.00000000000E+00  0.00000000000E+00  0.91119050490E+02  0.91119050490E+02  0.00000000000E+00 0. -1.
          2   -1    0    0  501    0  0.00000000000E+00 -0.00000000000E+00 -0.45296682068E+03  0.45296682068E+03  0.00000000000E+00 0.  1.
         25    2    1    2    0    0  0.12104665150E+02 -0.76717954113E+02  0.15764010696E+02  0.14807931508E+03  0.12508721805E+03 0.  0.
          5    1    3    3  502    0  0.62687172962E+02 -0.72344074985E+02  0.15955157406E+02  0.97135916566E+02  0.41800000000E+01 0.  1.
         -5    1    3    3    0  502 -0.50582507812E+02 -0.43738791289E+01 -0.19114670986E+00  0.50943398515E+02  0.41800000000E+01 0.  1.
        -11    1    1    2    0    0  0.28897952805E+02  0.70111650432E+02 -0.20827307105E+03  0.22164928903E+03  0.00000000000E+00 0. -1.
         11    1    1    2    0    0 -0.41002617955E+02  0.66063036815E+01 -0.16933870984E+03  0.17435726706E+03  0.00000000000E+00 0.  1.
</event>
<event>
 7    1  0.2661133E-009  0.1982521E+03  0.7561462E-02  0.1151222E+00
         -1   -1    0    0    0  501 -0.00000000000E+00  0.00000000000E+00  0.48040516841E+02  0.48040516841E+02  0.00000000000E+00 0.  1.
          1   -1    0    0  501    0  0.00000000000E+00 -0.00000000000E+00 -0.86822379169E+03  0.86822379169E+03  0.00000000000E+00 0. -1.
         25    2    1    2    0    0 -0.16076493953E+03 -0.73673355939E+02 -0.43841038963E+03  0.48899940803E+03  0.12507446645E+03 0.  0.
          5    1    3    3  502    0 -0.97313276073E+02  0.16029413758E+02 -0.27372567202E+03  0.29098115356E+03  0.41800000000E+01 0.  1.
         -5    1    3    3    0  502 -0.63451663453E+02 -0.89702769697E+02 -0.16468471761E+03  0.19801825446E+03  0.41800000000E+01 0.  1.
        -11    1    1    2    0    0  0.15028221343E+03  0.44341996373E+02 -0.34604283384E+03  0.37986392191E+03  0.00000000000E+00 0. -1.
         11    1    1    2    0    0  0.10482726100E+02  0.29331359566E+02 -0.35730051373E+02  0.47400978594E+02  0.00000000000E+00 0.  1.
</event>
<event>
 7    1  0.2661133E-009  0.5247107E+02  0.7561462E-02  0.1432451E+00
         -1   -1    0    0    0  501 -0.00000000000E+00  0.00000000000E+00  0.10404314649E+03  0.10404314649E+03  0.00000000000E+00 0.  1.
          1   -1    0    0  501    0  0.00000000000E+00 -0.00000000000E+00 -0.11234581941E+03  0.11234581941E+03  0.00000000000E+00 0. -1.
         25    2    1    2    0    0 -0.94218185838E-01  0.31523077666E+01  0.10306735664E+02  0.12554781661E+03  0.12508428972E+03 0.  0.
          5    1    3    3  502    0 -0.10467856476E+02 -0.73262740779E+01  0.66220698604E+02  0.67571470568E+02  0.41800000000E+01 0.  1.
         -5    1    3    3    0  502  0.10373638290E+02  0.10478581845E+02 -0.55913962940E+02  0.57976346043E+02  0.41800000000E+01 0.  1.
        -11    1    1    2    0    0  0.13044478407E+02 -0.37372802261E+02 -0.32988762123E+02  0.51528081589E+02  0.00000000000E+00 0. -1.
         11    1    1    2    0    0 -0.12950260221E+02  0.34220494495E+02  0.14379353541E+02  0.39313067694E+02  0.00000000000E+00 0.  1.
</event>
<event>
 7    1  0.2661133E-009  0.1575282E+03  0.7561462E-02  0.1191516E+00
          1   -1    0    0  501    0  0.00000000000E+00  0.00000000000E+00  0.10827025864E+04  0.10827025864E+04  0.00000000000E+00 0. -1.
         -1   -1    0    0    0  501 -0.00000000000E+00 -0.00000000000E+00 -0.27727255911E+02  0.27727255911E+02  0.00000000000E+00 0.  1.
         25    2    1    2    0    0  0.13262953116E+03 -0.12786265210E+02  0.48629037674E+03  0.51950182720E+03  0.12509890822E+03 0.  0.
          5    1    3    3  502    0  0.11551721875E+03 -0.60678063414E+02  0.37486816958E+03  0.39695046564E+03  0.41800000000E+01 0. -1.
         -5    1    3    3    0  502  0.17112312408E+02  0.47891798205E+02  0.11142220716E+03  0.12255136156E+03  0.41800000000E+01 0. -1.
        -11    1    1    2    0    0 -0.31717819661E+02 -0.30731997534E+00  0.33418655631E+02  0.46075167649E+02  0.00000000000E+00 0.  1.
         11    1    1    2    0    0 -0.10091171150E+03  0.13093585185E+02  0.53526629812E+03  0.54485284747E+03  0.00000000000E+00 0. -1.
</event>
<event>
 7    1  0.2661133E-009  0.1172991E+03  0.7561462E-02  0.1247620E+00
         -2   -1    0    0    0  501 -0.00000000000E+00  0.00000000000E+00  0.10186533098E+03  0.10186533098E+03  0.00000000000E+00 0.  1.
          2   -1    0    0  501    0  0.00000000000E+00 -0.00000000000E+00 -0.19468135070E+03  0.19468135070E+03  0.00000000000E+00 0. -1.
         25    2    1    2    0    0 -0.86409538310E+02  0.98222418234E+00 -0.34008583196E+02  0.15579533831E+03  0.12509208861E+03 0.  0.
          5    1    3    3  502    0 -0.88617004775E+02  0.22136549617E+02 -0.69058556410E+02  0.11458427893E+03  0.41800000000E+01 0. -1.
         -5    1    3    3    0  502  0.22074664650E+01 -0.21154325434E+02  0.35049973214E+02  0.41211059378E+02  0.41800000000E+01 0. -1.
        -11    1    1    2    0    0  0.32707007151E+02 -0.42484467100E+02 -0.48122828846E+02  0.72045020076E+02  0.00000000000E+00 0. -1.
         11    1    1    2    0    0  0.53702531159E+02  0.41502242918E+02 -0.10684607672E+02  0.68706323299E+02  0.00000000000E+00 0.  1.
</event>
<event>
 7    1  0.2661133E-009  0.1123482E+03  0.7561462E-02  0.1256282E+00
         -2   -1    0    0    0  501 -0.00000000000E+00  0.00000000000E+00  0.75353085011E+02  0.75353085011E+02  0.00000000000E+00 0.  1.
          2   -1    0    0  501    0  0.00000000000E+00 -0.00000000000E+00 -0.25810634291E+03  0.25810634291E+03  0.00000000000E+00 0. -1.
         25    2    1    2    0    0 -0.62472768741E+02 -0.34954853367E+02 -0.39298002088E+02  0.14940000042E+03  0.12510530984E+03 0.  0.
          5    1    3    3  502    0  0.17256931863E+02 -0.44180864296E+02  0.17776639208E+02  0.50825503134E+02  0.41800000000E+01 0. -1.
         -5    1    3    3    0  502 -0.79729700604E+02  0.92260109287E+01 -0.57074641296E+02  0.98574497286E+02  0.41800000000E+01 0. -1.
        -11    1    1    2    0    0 -0.37289150221E+01  0.30101159530E+02 -0.53081880437E+01  0.30792230718E+02  0.00000000000E+00 0.  1.
         11    1    1    2    0    0  0.66201683763E+02  0.48536938374E+01 -0.13814706777E+03  0.15326719678E+03  0.00000000000E+00 0. -1.
</event>
<event>
 7    1  0.2661133E-009  0.5801859E+02  0.7561462E-02  0.1406340E+00
          1   -1    0    0  501    0  0.00000000000E+00  0.00000000000E+00  0.76863453844E+02  0.76863453844E+02  0.00000000000E+00 0. -1.
         -1   -1    0    0    0  501 -0.00000000000E+00 -0.00000000000E+00 -0.16628158189E+03  0.16628158189E+03  0.00000000000E+00 0.  1.
         25    2    1    2    0    0 -0.77481368307E+01  0.17603906410E+02 -0.50853621135E+02  0.13639852532E+03  0.12509410771E+03 0.  0.
          5    1    3    3  502    0 -0.12287574629E+02 -0.20608547941E+02  0.34758883867E+02  0.42442303733E+02  0.41800000000E+01 0. -1.
         -5    1    3    3    0  502  0.45394377986E+01  0.38212454351E+02 -0.85612505001E+02  0.93956221591E+02  0.41800000000E+01 0. -1.
        -11    1    1    2    0    0  0.39201218618E+01  0.17362369582E+02 -0.61983434000E+02  0.64488489852E+02  0.00000000000E+00 0.  1.
         11    1    1    2    0    0  0.38280149690E+01 -0.34966275992E+02  0.23418927090E+02  0.42258020557E+02  0.00000000000E+00 0. -1.
</event>
<event>
 7    1  0.2661133E-009  0.9286700E+02  0.7561462E-02  0.1296054E+00
          1   -1    0    0  501    0  0.00000000000E+00  0.00000000000E+00  0.24324741125E+02  0.24324741125E+02  0.00000000000E+00 0. -1.
         -1   -1    0    0    0  501 -0.00000000000E+00 -0.00000000000E+00 -0.89610097707E+03  0.89610097707E+03  0.00000000000E+00 0.  1.
         25    2    1    2    0    0  0.17834941035E+02 -0.52472576222E+02 -0.72915521874E+03  0.74188052431E+03  0.12509165819E+03 0.  0.
          5    1    3    3  502    0  0.58350423536E+02 -0.12744013484E+02 -0.17806997771E+03  0.18786583289E+03  0.41800000000E+01 0.  1.
         -5    1    3    3    0  502 -0.40515482500E+02 -0.39728562738E+02 -0.55108524103E+03  0.55401469141E+03  0.41800000000E+01 0.  1.
        -11    1    1    2    0    0  0.13080635289E+02  0.21743721689E+02 -0.13099768078E+03  0.13343269773E+03  0.00000000000E+00 0.  1.
         11    1    1    2    0    0 -0.30915576325E+02  0.30728854533E+02 -0.11623336420E+02  0.45112496161E+02  0.00000000000E+00 0. -1.
</event>
<event>
 7    1  0.2661133E-009  0.1154335E+03  0.7561462E-02  0.1250826E+00
         -2   -1    0    0    0  501 -0.00000000000E+00  0.00000000000E+00  0.19506079931E+03  0.19506079931E+03  0.00000000000E+00 0.  1.
          2   -1    0    0  501    0  0.00000000000E+00 -0.00000000000E+00 -0.10505088582E+03  0.10505088582E+03  0.00000000000E+00 0. -1.
         25    2    1    2    0    0  0.38100334995E+02  0.82277674733E+02  0.26958533882E+02  0.15682145778E+03  0.12507979767E+03 0.  0.
          5    1    3    3  502    0  0.38275842402E+02  0.10770688315E+03  0.47512467226E+02  0.12385765916E+03  0.41800000000E+01 0.  1.
         -5    1    3    3    0  502 -0.17550740683E+00 -0.25429208421E+02 -0.20553933345E+02  0.32963798624E+02  0.41800000000E+01 0.  1.
        -11    1    1    2    0    0 -0.14058741860E+02 -0.33602593031E+02 -0.21879297599E+02  0.42491012515E+02  0.00000000000E+00 0. -1.
         11    1    1    2    0    0 -0.24041593135E+02 -0.48675081702E+02  0.84930677204E+02  0.10079921483E+03  0.00000000000E+00 0.  1.
</event>
<event>
 7    1  0.2661133E-009  0.1043200E+03  0.7561462E-02  0.1271465E+00
          1   -1    0    0  501    0  0.00000000000E+00  0.00000000000E+00  0.66655156085E+03  0.66655156085E+03  0.00000000000E+00 0. -1.
         -1   -1    0    0    0  501 -0.00000000000E+00 -0.00000000000E+00 -0.22777118410E+02  0.22777118410E+02  0.00000000000E+00 0.  1.
         25    2    1    2    0    0 -0.19081313941E+02 -0.13788543083E+02  0.50905138154E+03  0.52471718278E+03  0.12506235403E+03 0.  0.
          5    1    3    3  502    0 -0.69818048380E+02 -0.17256447020E+02  0.22930439731E+03  0.24035457947E+03  0.41800000000E+01 0. -1.
         -5    1    3    3    0  502  0.50736734439E+02  0.34679039374E+01  0.27974698422E+03  0.28436260331E+03  0.41800000000E+01 0. -1.
        -11    1    1    2    0    0  0.25102583484E+02 -0.31278250452E+02  0.98916266785E+02  0.10673751207E+03  0.00000000000E+00 0.  1.
         11    1    1    2    0    0 -0.60212695430E+01  0.45066793535E+02  0.35806794118E+02  0.57873984409E+02  0.00000000000E+00 0. -1.
</event>
<event>
 7    1  0.2661133E-009  0.1388955E+03  0.7561462E-02  0.1214823E+00
         -1   -1    0    0    0  501 -0.00000000000E+00  0.00000000000E+00  0.46664020742E+02  0.46664020742E+02  0.00000000000E+00 0.  1.
          1   -1    0    0  501    0  0.00000000000E+00 -0.00000000000E+00 -0.47970442922E+03  0.47970442922E+03  0.00000000000E+00 0. -1.
         25    2    1    2    0    0 -0.55870536379E+02  0.84946313006E+02 -0.20267969187E+03  0.25896513667E+03  0.12508593679E+03 0.  0.
          5    1    3    3  502    0 -0.55967247314E+02 -0.17249876413E+02 -0.67787532677E+02  0.89680059069E+02  0.41800000000E+01 0. -1.
         -5    1    3    3    0  502  0.96710934662E-01  0.10219618942E+03 -0.13489215920E+03  0.16928507760E+03  0.41800000000E+01 0. -1.
        -11    1    1    2    0    0  0.28833000439E+02 -0.12721859612E+01 -0.10674359120E+02  0.30771777883E+02  0.00000000000E+00 0.  1.
         11    1    1    2    0    0  0.27037535940E+02 -0.83674127045E+02 -0.21968635748E+03  0.23663153541E+03  0.00000000000E+00 0. -1.
</event>
<event>
 7    1  0.2661133E-009  0.8900034E+02  0.7561462E-02  0.1305291E+00
         -2   -1    0    0    0  501 -0.00000000000E+00  0.00000000000E+00  0.25845716745E+03  0.25845716745E+03  0.00000000000E+00 0.  1.
          2   -1    0    0  501    0  0.00000000000E+00 -0.00000000000E+00 -0.60235295347E+02  0.60235295347E+02  0.00000000000E+00 0. -1.
         25    2    1    2    0    0 -0.33412396279E+02  0.47887053818E+02  0.12012045553E+03  0.18299621672E+03  0.12509649615E+03 0.  0.
          5    1    3    3  502    0 -0.51607947228E+02  0.23712138579E+02 -0.21294848434E+01  0.56988181571E+02  0.41800000000E+01 0. -1.
         -5    1    3    3    0  502  0.18195550949E+02  0.24174915239E+02  0.12224994037E+03  0.12600803515E+03  0.41800000000E+01 0. -1.
        -11    1    1    2    0    0  0.54786609404E+02 -0.29021336651E+02  0.86088146232E+02  0.10608948804E+03  0.00000000000E+00 0.  1.
         11    1    1    2    0    0 -0.21374213125E+02 -0.18865717167E+02 -0.79867296569E+01  0.29606758039E+02  0.00000000000E+00 0. -1.
</event>
<event>
 7    1  0.2661133E-009  0.8873642E+02  0.7561462E-02  0.1305941E+00
         -1   -1    0    0    0  501 -0.00000000000E+00  0.00000000000E+00  0.13698966877E+02  0.13698966877E+02  0.00000000000E+00 0.  1.
          1   -1    0    0  501    0  0.00000000000E+00 -0.00000000000E+00 -0.73945175606E+03  0.73945175606E+03  0.00000000000E+00 0. -1.
         25    2    1    2    0    0 -0.19425647443E+02  0.41104351651E+02 -0.51027276979E+03  0.52734598170E+03  0.12509420981E+03 0.  0.
          5    1    3    3  502    0  0.41768702984E+02  0.21386899487E+02 -0.36996754909E+03  0.37295506941E+03  0.41800000000E+01 0.  1.
         -5    1    3    3    0  502 -0.61194350427E+02  0.19717452164E+02 -0.14030522070E+03  0.15439091229E+03  0.41800000000E+01 0.  1.
        -11    1    1    2    0    0  0.21770922058E+02  0.28140924094E+01 -0.50538188832E+02  0.55099915551E+02  0.00000000000E+00 0.  1.
         11    1    1    2    0    0 -0.23452746147E+01 -0.43918444060E+02 -0.16494183057E+03  0.17070482569E+03  0.00000000000E+00 0. -1.
</event>
<event>
 7    1  0.2661133E-009  0.7920474E+02  0.7561462E-02  0.1331324E+00
         -1   -1    0    0    0  501 -0.00000000000E+00  0.00000000000E+00  0.12947074147E+03  0.12947074147E+03  0.00000000000E+00 0.  1.
          1   -1    0    0  501    0  0.00000000000E+00 -0.00000000000E+00 -0.10154975920E+03  0.10154975920E+03  0.00000000000E+00 0. -1.
         25    2    1    2    0    0  0.26951459010E+01 -0.13998065224E+00 -0.22078656649E+02  0.12705814181E+03  0.12509604675E+03 0.  0.
          5    1    3    3  502    0  0.28046323214E+02 -0.20256954177E+02  0.42345381314E+02  0.54841080924E+02  0.41800000000E+01 0. -1.
         -5    1    3    3    0  502 -0.25351177313E+02  0.20116973524E+02 -0.64424037962E+02  0.72217060881E+02  0.41800000000E+01 0. -1.
        -11    1    1    2    0    0  0.37974018334E+02 -0.22743519982E+02  0.27953571312E+02  0.52351656313E+02  0.00000000000E+00 0.  1.
         11    1    1    2    0    0 -0.40669164234E+02  0.22883500634E+02  0.22046067607E+02  0.51610702550E+02  0.00000000000E+00 0. -1.
</event>
<event>
 7    1  0.2661133E-009  0.1330738E+03  0.7561462E-02  0.1222965E+00
         -2   -1    0    0    0  501 -0.00000000000E+00  0.00000000000E+00  0.31449180433E+02  0.31449180433E+02  0.00000000000E+00 0.  1.
          2   -1    0    0  501    0  0.00000000000E+00 -0.00000000000E+00 -0.73236504710E+03  0.73236504710E+03  0.00000000000E+00 0. -1.
         25    2    1    2    0    0  0.37409967641E+02  0.71893643528E+02 -0.52231215495E+03  0.54316281870E+03  0.12509060218E+03 0.  0.
          5    1    3    3  502    0 -0.41477436380E+02  0.36449048499E+01 -0.10600854601E+03  0.11396906285E+03  0.41800000000E+01 0.  1.
         -5    1    3    3    0  502  0.78887404021E+02  0.68248738678E+02 -0.41630360895E+03  0.42919375586E+03  0.41800000000E+01 0.  1.
        -11    1    1    2    0    0  0.11389132106E+02  0.15841999205E+02 -0.50523339710E+01  0.20154586265E+02  0.00000000000E+00 0.  1.
         11    1    1    2    0    0 -0.48799099747E+02 -0.87735642733E+02 -0.17355137774E+03  0.20049682256E+03  0.00000000000E+00 0. -1.
</event>
<event>
 6    1  0.2661133E-009  0.1090943E+03  0.7561462E-02  0.1262256E+00
         -1   -1    0    0    0  501 -0.00000000000E+00  0.00000000000E+00  0.27093228059E+03  0.27093228059E+03  0.00000000000E+00 0.  1.
          1   -1    0    0  501    0  0.00000000000E+00 -0.00000000000E+00 -0.62716469964E+02  0.62716469964E+02  0.00000000000E+00 0. -1.
          5    1    1    2  502    0  0.68233022938E+02  0.36456024318E+02  0.16295415253E+03  0.18043368686E+03  0.41800000000E+01 0. -1.
         -5    1    1    2    0  502 -0.34706026059E+02 -0.24579673574E+02  0.29602004215E+02  0.51984802119E+02  0.41800000000E+01 0. -1.
        -11    1    1    2    0    0 -0.63763517786E+02 -0.19720717733E+02  0.20040042470E+02  0.69687130882E+02  0.00000000000E+00 0.  1.
         11    1    1    2    0    0  0.30236520907E+02  0.78443669898E+01 -0.43803885802E+01  0.31543130697E+02  0.00000000000E+00 0. -1.
</event>
<event>
 7    1  0.2661133E-009  0.1012773E+03  0.7561462E-02  0.1277633E+00
          2   -1    0    0  501    0  0.00000000000E+00  0.00000000000E+00  0.63796908140E+03  0.63796908140E+03  0.00000000000E+00 0. -1.
         -2   -1    0    0    0  501 -0.00000000000E+00 -0.00000000000E+00 -0.19519114203E+02  0.19519114203E+02  0.00000000000E+00 0.  1.
         25    2    1    2    0    0  0.44887263958E+00 -0.72484349404E+01  0.40838776448E+03  0.42717764858E+03  0.12508971170E+03 0.  0.
          5    1    3    3  502    0  0.52875804143E+02  0.26337415152E+02  0.25051419344E+03  0.25741861552E+03  0.41800000000E+01 0.  1.
         -5    1    3    3    0  502 -0.52426931503E+02 -0.33585850092E+02  0.15787357104E+03  0.16975903306E+03  0.41800000000E+01 0.  1.
        -11    1    1    2    0    0  0.35574468425E+02  0.22195968488E+02  0.48524723285E+02  0.64131525716E+02  0.00000000000E+00 0.  1.
         11    1    1    2    0    0 -0.36023341064E+02 -0.14947533547E+02  0.16153747943E+03  0.16617902130E+03  0.00000000000E+00 0. -1.
</event>
<event>
 7    1  0.2661133E-009  0.1997730E+03  0.7561462E-02  0.1149931E+00
         -2   -1    0    0    0  501 -0.00000000000E+00  0.00000000000E+00  0.88525279025E+02  0.88525279025E+02  0.00000000000E+00 0.  1.
          2   -1    0    0  501    0  0.00000000000E+00 -0.00000000000E+00 -0.71129152959E+03  0.71129152959E+03  0.00000000000E+00 0. -1.
         25    2    1    2    0    0 -0.70042202673E+02  0.17778951067E+03 -0.12894797706E+03  0.26227914745E+03  0.12509096746E+03 0.  0.
          5    1    3    3  502    0  0.31193288004E+01 -0.49936759572E+01 -0.49348894749E+02  0.49874370419E+02  0.41800000000E+01 0.  1.
         -5    1    3    3    0  502 -0.73161531473E+02  0.18278318663E+03 -0.79599082309E+02  0.21240477703E+03  0.41800000000E+01 0.  1.
        -11    1    1    2    0    0  0.58093511001E+02 -0.92170316985E+02 -0.37560252758E+03  0.39108500620E+03  0.00000000000E+00 0.  1.
         11    1    1    2    0    0  0.11948691672E+02 -0.85619193684E+02 -0.11821574593E+03  0.14645265496E+03  0.00000000000E+00 0. -1.
</event>
<event>
 7    1  0.2661133E-009  0.1501992E+03  0.7561462E-02  0.1200228E+00
          2   -1    0    0  501    0  0.00000000000E+00  0.00000000000E+00  0.25382694439E+03  0.25382694439E+03  0.00000000000E+00 0. -1.
         -2   -1    0    0    0  501 -0.00000000000E+00 -0.00000000000E+00 -0.15871159921E+03  0.15871159921E+03  0.00000000000E+00 0.  1.
         25    2    1    2    0    0 -0.11752543648E+03 -0.84791827887E+02 -0.38344639175E+02  0.19523539597E+03  0.12507864002E+03 0.  0.
          5    1    3    3  502    0 -0.64203644715E+02 -0.72233156730E+02  0.35634125496E+02  0.10308734270E+03  0.41800000000E+01 0. -1.
         -5    1    3    3    0  502 -0.53321791760E+02 -0.12558671157E+02 -0.73978764671E+02  0.92148053262E+02  0.41800000000E+01 0. -1.
        -11    1    1    2    0    0  0.19907257517E+02  0.32160598823E+02 -0.68682357402E+01  0.38441848039E+02  0.00000000000E+00 0.  1.
         11    1    1    2    0    0  0.97618178958E+02  0.52631229064E+02  0.14032822009E+03  0.17886129959E+03  0.00000000000E+00 0. -1.
</event>
<event>
 7    1  0.2661133E-009  0.1434953E+03  0.7561462E-02  0.1208702E+00
          2   -1    0    0  501    0  0.00000000000E+00  0.00000000000E+00  0.34438561871E+03  0.34438561871E+03  0.00000000000E+00 0. -1.
         -2   -1    0    0    0  501 -0.00000000000E+00 -0.00000000000E+00 -0.91896367644E+02  0.91896367644E+02  0.00000000000E+00 0.  1.
         25    2    1    2    0    0  0.11079361694E+03 -0.85503956179E+02  0.14052760871E+03  0.23448242836E+03  0.12509135990E+03 0.  0.
          5    1    3    3  502    0  0.27348556102E+02 -0.42737659495E+01  0.11071691359E+03  0.11420120818E+03  0.41800000000E+01 0.  1.
         -5    1    3    3    0  502  0.83445060842E+02 -0.81230190230E+02  0.29810695119E+02  0.12028122018E+03  0.41800000000E+01 0.  1.
        -11    1    1    2    0    0 -0.74452911280E+02  0.40946146433E+02  0.11641865507E+03  0.14412885261E+03  0.00000000000E+00 0.  1.
         11    1    1    2    0    0 -0.36340705664E+02  0.44557809747E+02 -0.44570127098E+01  0.57670705387E+02  0.00000000000E+00 0. -1.
</event>
<event>
 7    1  0.2661133E-009  0.1096083E+03  0.7561462E-02  0.1261297E+00
          2   -1    0    0  501    0  0.00000000000E+00  0.00000000000E+00  0.88496153277E+03  0.88496153277E+03  0.00000000000E+00 0. -1.
         -2   -1    0    0    0  501 -0.00000000000E+00 -0.00000000000E+00 -0.18980822937E+02  0.18980822937E+02  0.00000000000E+00 0.  1.
         25    2    1    2    0    0  0.40506316827E+02 -0.38976588222E+02  0.63994586499E+03  0.65447581912E+03  0.12509177258E+03 0.  0.
          5    1    3    3  502    0  0.70550304488E+02 -0.34664773401E+00  0.52124622154E+03  0.52601574263E+03  0.41800000000E+01 0. -1.
         -5    1    3    3    0  502 -0.30043987660E+02 -0.38629940488E+02  0.11869964345E+03  0.12846007649E+03  0.41800000000E+01 0. -1.
        -11    1    1    2    0    0 -0.36284955202E+02  0.64257625761E+02  0.12432110227E+03  0.14457308502E+03  0.00000000000E+00 0.  1.
         11    1    1    2    0    0 -0.42213616250E+01 -0.25281037539E+02  0.10171374258E+03  0.10489345157E+03  0.00000000000E+00 0. -1.
</event>
<event>
 7    1  0.2661133E-009  0.1083495E+03  0.7561462E-02  0.1263657E+00
          3   -1    0    0  501    0  0.00000000000E+00  0.00000000000E+00  0.18050677714E+02  0.18050677714E+02  0.00000000000E+00 0. -1.
         -3   -1    0    0    0  501 -0.00000000000E+00 -0.00000000000E+00 -0.92219537171E+03  0.92219537171E+03  0.00000000000E+00 0.  1.
         25    2    1    2    0    0  0.61760614945E+02  0.21871512050E+02 -0.40309251180E+03  0.42711140263E+03  0.12509132900E+03 0.  0.
          5    1    3    3  502    0 -0.17646667534E+02  0.22324167749E+02 -0.18078996847E+02  0.33971986514E+02  0.41800000000E+01 0. -1.
         -5    1    3    3    0  502  0.79407282479E+02 -0.45265569917E+00 -0.38501351495E+03  0.39313941612E+03  0.41800000000E+01 0. -1.
        -11    1    1    2    0    0 -0.29337648906E+02 -0.54829970910E+02 -0.33713397760E+03  0.34282115192E+03  0.00000000000E+00 0.  1.
         11    1    1    2    0    0 -0.32422966039E+02  0.32958458860E+02 -0.16391820460E+03  0.17031349488E+03  0.00000000000E+00 0. -1.
</event>
<event>
 7    1  0.2661133E-009  0.1298580E+03  0.7561462E-02  0.1227667E+00
          2   -1    0    0  501    0  0.00000000000E+00  0.00000000000E+00  0.10759771679E+04  0.10759771679E+04  0.00000000000E+00 0. -1.
         -2   -1    0    0    0  501 -0.00000000000E+00 -0.00000000000E+00 -0.25591584039E+02  0.25591584039E+02  0.00000000000E+00 0.  1.
         25    2    1    2    0    0  0.10765221035E+03 -0.48886135962E+02  0.42412144582E+03  0.45771649624E+03  0.12508612009E+03 0.  0.
          5    1    3    3  502    0  0.21873983679E+02 -0.25116112327E+02  0.11347028604E+02  0.35433285461E+02  0.41800000000E+01 0. -1.
         -5    1    3    3    0  502  0.85778226673E+02 -0.23770023635E+02  0.41277441722E+03  0.42228321078E+03  0.41800000000E+01 0. -1.
        -11    1    1    2    0    0 -0.11744848152E+03  0.40787288219E+02  0.61299995389E+03  0.62548116851E+03  0.00000000000E+00 0. -1.
         11    1    1    2    0    0  0.97962711715E+01  0.80988477435E+01  0.13264184174E+02  0.18371087215E+02  0.00000000000E+00 0.  1.
</event>
<event>
 7    1  0.2661133E-009  0.1336070E+03  0.7561462E-02  0.1222200E+00
         -1   -1    0    0    0  501 -0.00000000000E+00  0.00000000000E+00  0.20716733624E+02  0.20716733624E+02  0.00000000000E+00 0.  1.
          1   -1    0    0  501    0  0.00000000000E+00 -0.00000000000E+00 -0.10382841122E+04  0.10382841122E+04  0.00000000000E+00 0. -1.
         25    2    1    2    0    0 -0.44543831536E+02 -0.82085927151E+02 -0.65526890523E+03  0.67360755177E+03  0.12509014061E+03 0.  0.
          5    1    3    3  502    0 -0.71618559714E+02 -0.95342153979E+02 -0.58478733838E+03  0.59683586349E+03  0.41800000000E+01 0.  1.
         -5    1    3    3    0  502  0.27074728178E+02  0.13256226828E+02 -0.70481566850E+02  0.76771688279E+02  0.41800000000E+01 0.  1.
        -11    1    1    2    0    0  0.62863463805E+02  0.74896439224E+02 -0.34686358464E+03  0.36038262727E+03  0.00000000000E+00 0. -1.
         11    1    1    2    0    0 -0.18319632269E+02  0.71894879270E+01 -0.15434888688E+02  0.25010666764E+02  0.00000000000E+00 0.  1.
</event>
<event>
 7    1  0.2661133E-009  0.1607430E+03  0.7561462E-02  0.1187860E+00
         -2   -1    0    0    0  501 -0.00000000000E+00  0.00000000000E+00  0.22968331121E+03  0.22968331121E+03  0.00000000000E+00 0.  1.
          2   -1    0    0  501    0  0.00000000000E+00 -0.00000000000E+00 -0.16118304371E+03  0.16118304371E+03  0.00000000000E+00 0. -1.
         25    2    1    2    0    0  0.15353845606E+03  0.87637333531E+01  0.75977328820E+02  0.21230185934E+03  0.12509462208E+03 0.  0.
          5    1    3    3  502    0  0.66130734132E+02 -0.26147291591E+02  0.92395344519E+02  0.11666759166E+03  0.41800000000E+01 0. -1.
         -5    1    3    3    0  502  0.87407721929E+02  0.34911024944E+02 -0.16418015699E+02  0.95634267682E+02  0.41800000000E+01 0. -1.
        -11    1    1    2    0    0 -0.96229131005E+02 -0.18258494435E+02  0.37724243594E+02  0.10495969144E+03  0.00000000000E+00 0.  1.
         11    1    1    2    0    0 -0.57309325056E+02  0.94947610814E+01 -0.45201304910E+02  0.73604804136E+02  0.00000000000E+00 0. -1.
</event>
<event>
 7    1  0.2661133E-009  0.7845709E+02  0.7561462E-02  0.1333488E+00
         -1   -1    0    0    0  501 -0.00000000000E+00  0.00000000000E+00  0.31751618207E+03  0.31751618207E+03  0.00000000000E+00 0.  1.
          1   -1    0    0  501    0  0.00000000000E+00 -0.00000000000E+00 -0.47017690686E+02  0.47017690686E+02  0.00000000000E+00 0. -1.
         25    2    1    2    0    0 -0.13430133447E+02 -0.79205640207E+01  0.23833372163E+03  0.26961804849E+03  0.12509126824E+03 0.  0.
          5    1    3    3  502    0 -0.34612273478E+02 -0.44440714339E+02  0.21265128290E+03  0.22002506013E+03  0.41800000000E+01 0.  1.
         -5    1    3    3    0  502  0.21182140031E+02  0.36520150319E+02  0.25682438727E+02  0.49592988361E+02  0.41800000000E+01 0.  1.
        -11    1    1    2    0    0  0.28494889481E+02 -0.13729072734E+02  0.52717498782E+02  0.61478295702E+02  0.00000000000E+00 0.  1.
         11    1    1    2    0    0 -0.15064756034E+02  0.21649636754E+02 -0.20552729026E+02  0.33437528562E+02  0.00000000000E+00 0. -1.
</event>
<event>
 7    1  0.2661133E-009  0.1282018E+03  0.7561462E-02  0.1230149E+00
          3   -1    0    0  501    0  0.00000000000E+00  0.00000000000E+00  0.25096138873E+03  0.25096138873E+03  0.00000000000E+00 0. -1.
         -3   -1    0    0    0  501 -0.00000000000E+00 -0.00000000000E+00 -0.10188180376E+03  0.10188180376E+03  0.00000000000E+00 0.  1.
         25    2    1    2    0    0 -0.89860871850E+02 -0.68064540935E+02  0.11084131504E+03  0.20159597293E+03  0.12508949261E+03 0.  0.
          5    1    3    3  502    0 -0.34847208792E+02 -0.34917377176E+02 -0.21852359621E+02  0.54116071646E+02  0.41800000000E+01 0.  1.
         -5    1    3    3    0  502 -0.55013663059E+02 -0.33147163760E+02  0.13269367466E+03  0.14747990128E+03  0.41800000000E+01 0.  1.
        -11    1    1    2    0    0  0.99050857347E+02  0.80102444190E+02  0.22414910781E+02  0.12934412291E+03  0.00000000000E+00 0.  1.
         11    1    1    2    0    0 -0.91899854966E+01 -0.12037903255E+02  0.15823359147E+02  0.21903096651E+02  0.00000000000E+00 0. -1.
</event>
<event>
 7    1  0.2661133E-009  0.9551612E+02  0.7561462E-02  0.1290018E+00
         -1   -1    0    0    0  501 -0.00000000000E+00  0.00000000000E+00  0.45650865454E+02  0.45650865454E+02  0.00000000000E+00 0.  1.
          1   -1    0    0  501    0  0.00000000000E+00 -0.00000000000E+00 -0.31978055141E+03  0.31978055141E+03  0.00000000000E+00 0. -1.
         25    2    1    2    0    0 -0.13789380081E+02 -0.58481269334E+02 -0.12676030530E+03  0.18795323812E+03  0.12509212148E+03 0.  0.
          5    1    3    3  502    0 -0.91750670716E+01  0.15174659261E+02  0.17875280092E+02  0.25523522050E+02  0.41800000000E+01 0. -1.
         -5    1    3    3    0  502 -0.46143130099E+01 -0.73655928595E+02 -0.14463558539E+03  0.16242971607E+03  0.41800000000E+01 0. -1.
        -11    1    1    2    0    0 -0.31577191794E+02  0.11555849290E+02 -0.49460993287E+02  0.59808415389E+02  0.00000000000E+00 0.  1.
         11    1    1    2    0    0  0.45366571875E+02  0.46925420044E+02 -0.97908387368E+02  0.11766976335E+03  0.00000000000E+00 0. -1.
</event>
<event>
 7    1  0.2661133E-009  0.1292425E+03  0.7561462E-02  0.1228584E+00
          1   -1    0    0  501    0  0.00000000000E+00  0.00000000000E+00  0.10863881688E+04  0.10863881688E+04  0.00000000000E+00 0. -1.
         -1   -1    0    0    0  501 -0.00000000000E+00 -0.00000000000E+00 -0.16389015268E+02  0.16389015268E+02  0.00000000000E+00 0.  1.
         25    2    1    2    0    0  0.16775286484E+02  0.69690961852E+02  0.69076368998E+03  0.70564865083E+03  0.12508917866E+03 0.  0.
          5    1    3    3  502    0  0.53512968284E+02 -0.97609267019E+01  0.21048770743E+03  0.21744300596E+03  0.41800000000E+01 0.  1.
         -5    1    3    3    0  502 -0.36737681800E+02  0.79451888554E+02  0.48027598256E+03  0.48820564487E+03  0.41800000000E+01 0.  1.
        -11    1    1    2    0    0 -0.30269747365E+01  0.22692609807E+02  0.51827473185E+02  0.56658662997E+02  0.00000000000E+00 0.  1.
         11    1    1    2    0    0 -0.13748311748E+02 -0.92383571659E+02  0.32740799039E+03  0.34046987027E+03  0.00000000000E+00 0. -1.
</event>
<event>
 7    1  0.2871961E-009  0.9751631E+02  0.7561462E-02  0.1285607E+00
          1   -1    0    0  501    0  0.00000000000E+00  0.00000000000E+00  0.10287783973E+03  0.10287783973E+03  0.00000000000E+00 0. -1.
         -1   -1    0    0    0  501 -0.00000000000E+00 -0.00000000000E+00 -0.18936670393E+03  0.18936670393E+03  0.00000000000E+00 0.  1.
         25    2    1    2    0    0 -0.13611191291E+02  0.79508234044E+00 -0.13791962626E+03  0.18670545897E+03  0.12510478975E+03 0.  0.
          5    1    3    3  502    0 -0.69087180152E+02 -0.29979330088E+01 -0.86798321624E+02  0.11105605387E+03  0.41800000000E+01 0. -1.
         -5    1    3    3    0  502  0.55475988861E+02  0.37930153492E+01 -0.51121304632E+02  0.75649405105E+02  0.41800000000E+01 0. -1.
        -11    1    1    2    0    0 -0.28083902580E+02 -0.29669826240E+01  0.56810372861E+02  0.63442312651E+02  0.00000000000E+00 0. -1.
         11    1    1    2    0    0  0.41695093871E+02  0.21719002835E+01 -0.53796107976E+01  0.42096772039E+02  0.00000000000E+00 0.  1.
</event>
<event>
 7    1  0.2661133E-009  0.1680357E+03  0.7561462E-02  0.1179912E+00
          4   -1    0    0  501    0  0.00000000000E+00  0.00000000000E+00  0.22807104808E+02  0.22807104808E+02  0.00000000000E+00 0. -1.
         -4   -1    0    0    0  501 -0.00000000000E+00 -0.00000000000E+00 -0.17155898320E+04  0.17155898320E+04  0.00000000000E+00 0.  1.
         25    2    1    2    0    0  0.85716283477E+01  0.15720378905E+03 -0.11070755430E+04  0.11251892693E+04  0.12509248512E+03 0.  0.
          5    1    3    3  502    0 -0.37315287427E+02  0.83940121400E+02 -0.82567642396E+03  0.83078120113E+03  0.41800000000E+01 0. -1.
         -5    1    3    3    0  502  0.45886915775E+02  0.73263667649E+02 -0.28139911903E+03  0.29440806821E+03  0.41800000000E+01 0. -1.
        -11    1    1    2    0    0 -0.11054208120E+01 -0.79022451738E+02 -0.44591821848E+03  0.45286733975E+03  0.00000000000E+00 0.  1.
         11    1    1    2    0    0 -0.74662075357E+01 -0.78181337311E+02 -0.13978896570E+03  0.16034032771E+03  0.00000000000E+00 0. -1.
</event>
<event>
 7    1  0.2661133E-009  0.7603963E+02  0.7561462E-02  0.1340682E+00
          1   -1    0    0  501    0  0.00000000000E+00  0.00000000000E+00  0.37370372524E+02  0.37370372524E+02  0.00000000000E+00 0. -1.
         -1   -1    0    0    0  501 -0.00000000000E+00 -0.00000000000E+00 -0.32256686252E+03  0.32256686252E+03  0.00000000000E+00 0.  1.
         25    2    1    2    0    0 -0.10102061043E+02 -0.13006417774E+02 -0.18420053053E+03  0.22326739258E+03  0.12508906668E+03 0.  0.
          5    1    3    3  502    0 -0.39294475150E+02 -0.14668614924E+02 -0.59293739828E+01  0.42565877378E+02  0.41800000000E+01 0. -1.
         -5    1    3    3    0  502  0.29192414107E+02  0.16621971504E+01 -0.17827115654E+03  0.18070151520E+03  0.41800000000E+01 0. -1.
        -11    1    1    2    0    0 -0.18891656590E+02  0.37789842745E+02 -0.19178042412E+02  0.46397890191E+02  0.00000000000E+00 0. -1.
         11    1    1    2    0    0  0.28993717634E+02 -0.24783424972E+02 -0.81817917058E+02  0.90271952274E+02  0.00000000000E+00 0.  1.
</event>
<event>
 7    1  0.2661133E-009  0.7711110E+02  0.7561462E-02  0.1337456E+00
          1   -1    0    0  501    0  0.00000000000E+00  0.00000000000E+00  0.41532612531E+03  0.41532612531E+03  0.00000000000E+00 0. -1.
         -1   -1    0    0    0  501 -0.00000000000E+00 -0.00000000000E+00 -0.28423615422E+02  0.28423615422E+02  0.00000000000E+00 0.  1.
         25    2    1    2    0    0  0.40189925236E+02 -0.14031226841E+02  0.26032739521E+03  0.29194217892E+03  0.12509107767E+03 0.  0.
          5    1    3    3  502    0  0.33797925338E+01 -0.33171111012E+02  0.24534167871E+03  0.24763230265E+03  0.41800000000E+01 0.  1.
         -5    1    3    3    0  502  0.36810132703E+02  0.19139884171E+02  0.14985716506E+02  0.44309876267E+02  0.41800000000E+01 0.  1.
        -11    1    1    2    0    0  0.86785829552E+01  0.26999131215E+02  0.72140848112E+02  0.77514984712E+02  0.00000000000E+00 0.  1.
         11    1    1    2    0    0 -0.48868508192E+02 -0.12967904374E+02  0.54434266559E+02  0.74292577102E+02  0.00000000000E+00 0. -1.
</event>
<event>
 7    1  0.2661133E-009  0.1281835E+03  0.7561462E-02  0.1230176E+00
         -2   -1    0    0    0  501 -0.00000000000E+00  0.00000000000E+00  0.37092565058E+02  0.37092565058E+02  0.00000000000E+00 0. -1.
          2   -1    0    0  501    0  0.00000000000E+00 -0.00000000000E+00 -0.60123470078E+03  0.60123470078E+03  0.00000000000E+00 0.  1.
         25    2    1    2    0    0  0.52968074199E+02 -0.66727103552E+02 -0.19371721354E+03  0.24582786479E+03  0.12508739766E+03 0.  0.
          5    1    3    3  502    0  0.72974212278E+02 -0.87553649984E+02 -0.18113267858E+03  0.21404998699E+03  0.41800000000E+01 0.  1.
         -5    1    3    3    0  502 -0.20006138078E+02  0.20826546431E+02 -0.12584534962E+02  0.31777877797E+02  0.41800000000E+01 0.  1.
        -11    1    1    2    0    0 -0.18127748227E+02  0.75136344902E+02 -0.32789418853E+03  0.33688081640E+03  0.00000000000E+00 0.  1.
         11    1    1    2    0    0 -0.34840325972E+02 -0.84092413494E+01 -0.42530733645E+02  0.55618584649E+02  0.00000000000E+00 0. -1.
</event>
<event>
 7    1  0.2661133E-009  0.1327397E+03  0.7561462E-02  0.1223446E+00
          2   -1    0    0  501    0  0.00000000000E+00  0.00000000000E+00  0.32112710254E+03  0.32112710254E+03  0.00000000000E+00 0. -1.
         -2   -1    0    0    0  501 -0.00000000000E+00 -0.00000000000E+00 -0.64508312395E+02  0.64508312395E+02  0.00000000000E+00 0.  1.
         25    2    1    2    0    0  0.56305374137E+02  0.67125609301E+02  0.14329723513E+03  0.20942317576E+03  0.12509127215E+03 0.  0.
          5    1    3    3  502    0 -0.50768087803E+01  0.84636223509E+02  0.10439766108E+03  0.13455633897E+03  0.41800000000E+01 0.  1.
         -5    1    3    3    0  502  0.61382182917E+02 -0.17510614208E+02  0.38899574050E+02  0.74866836790E+02  0.41800000000E+01 0.  1.
        -11    1    1    2    0    0  0.10122737979E+01 -0.58674307523E+02  0.10125589917E+03  0.11703185967E+03  0.00000000000E+00 0. -1.
         11    1    1    2    0    0 -0.57317647935E+02 -0.84513017778E+01  0.12065655833E+02  0.59180379495E+02  0.00000000000E+00 0.  1.
</event>
<event>
 7    1  0.2661133E-009  0.1067677E+03  0.7561462E-02  0.1266675E+00
          2   -1    0    0  501    0  0.00000000000E+00  0.00000000000E+00  0.53166236750E+03  0.53166236750E+03  0.00000000000E+00 0.  1.
         -2   -1    0    0    0  501 -0.00000000000E+00 -0.00000000000E+00 -0.29415856705E+02  0.29415856705E+02  0.00000000000E+00 0. -1.
         25    2    1    2    0    0 -0.37810054484E+02 -0.23884480530E+02  0.31154738700E+03  0.33868777446E+03  0.12509022981E+03 0.  0.
          5    1    3    3  502    0  0.19741071911E+02 -0.59882464195E+02  0.17672362441E+03  0.18768146222E+03  0.41800000000E+01 0.  1.
         -5    1    3    3    0  502 -0.57551126395E+02  0.35997983665E+02  0.13482376259E+03  0.15100631224E+03  0.41800000000E+01 0.  1.
        -11    1    1    2    0    0  0.26868359113E+02  0.48472531249E+02  0.18722378156E+03  0.19525429417E+03  0.00000000000E+00 0.  1.
         11    1    1    2    0    0  0.10941695371E+02 -0.24588050719E+02  0.34753422325E+01  0.27136155575E+02  0.00000000000E+00 0. -1.
</event>
<event>
 7    1  0.2661133E-009  0.9087867E+02  0.7561462E-02  0.1300738E+00
         -2   -1    0    0    0  501 -0.00000000000E+00  0.00000000000E+00  0.17289791172E+03  0.17289791172E+03  0.00000000000E+00 0.  1.
          2   -1    0    0  501    0  0.00000000000E+00 -0.00000000000E+00 -0.71290961834E+02  0.71290961834E+02  0.00000000000E+00 0. -1.
         25    2    1    2    0    0  0.27723876003E+02 -0.18885682406E+01  0.57083554533E+02  0.14028206542E+03  0.12509334791E+03 0.  0.
          5    1    3    3  502    0  0.58293949207E+02  0.76327255788E+01 -0.15411007621E+02  0.60921380235E+02  0.41800000000E+01 0.  1.
         -5    1    3    3    0  502 -0.30570073204E+02 -0.95212938194E+01  0.72494562155E+02  0.79360685189E+02  0.41800000000E+01 0.  1.
        -11    1    1    2    0    0 -0.11521839372E+02  0.43959467003E+02  0.85753326872E+01  0.46246338800E+02  0.00000000000E+00 0. -1.
         11    1    1    2    0    0 -0.16202036631E+02 -0.42070898763E+02  0.35948062661E+02  0.57660469325E+02  0.00000000000E+00 0.  1.
</event>
<event>
 7    1  0.2661133E-009  0.1037647E+03  0.7561462E-02  0.1272573E+00
         -2   -1    0    0    0  501 -0.00000000000E+00  0.00000000000E+00  0.17944209988E+03  0.17944209988E+03  0.00000000000E+00 0.  1.
          2   -1    0    0  501    0  0.00000000000E+00 -0.00000000000E+00 -0.75401098958E+02  0.75401098958E+02  0.00000000000E+00 0. -1.
         25    2    1    2    0    0 -0.22864507310E+02 -0.11326489244E+02  0.23762181795E+02  0.12985742755E+03  0.12508890899E+03 0.  0.
          5    1    3    3  502    0 -0.62498935981E+02 -0.27910329142E+02  0.44723404421E+02  0.81870377882E+02  0.41800000000E+01 0.  1.
         -5    1    3    3    0  502  0.39634428671E+02  0.16583839898E+02 -0.20961222626E+02  0.47987049668E+02  0.41800000000E+01 0.  1.
        -11    1    1    2    0    0 -0.12735103714E+02  0.45010504900E+02  0.38381873324E+02  0.60508649116E+02  0.00000000000E+00 0. -1.
         11    1    1    2    0    0  0.35599611024E+02 -0.33684015656E+02  0.41896945799E+02  0.64477122168E+02  0.00000000000E+00 0.  1.
</event>
<event>
 7    1  0.2661133E-009  0.2503547E+03  0.7561462E-02  0.1113081E+00
          1   -1    0    0  501    0  0.00000000000E+00  0.00000000000E+00  0.14821925944E+04  0.14821925944E+04  0.00000000000E+00 0. -1.
         -1   -1    0    0    0  501 -0.00000000000E+00 -0.00000000000E+00 -0.71334504018E+02  0.71334504018E+02  0.00000000000E+00 0.  1.
         25    2    1    2    0    0  0.18307845283E+03 -0.13199489713E+03  0.12131075254E+04  0.12402488385E+04  0.12508773080E+03 0.  0.
          5    1    3    3  502    0  0.15487990393E+03 -0.15653728188E+03  0.10191252824E+04  0.10426531153E+04  0.41800000000E+01 0. -1.
         -5    1    3    3    0  502  0.28198548902E+02  0.24542384754E+02  0.19398224302E+03  0.19759572317E+03  0.41800000000E+01 0. -1.
        -11    1    1    2    0    0 -0.66216916080E+02 -0.44554178359E+00  0.49373223555E+02  0.82598993256E+02  0.00000000000E+00 0. -1.
         11    1    1    2    0    0 -0.11686153675E+03  0.13244043891E+03  0.14837734143E+03  0.23067926669E+03  0.00000000000E+00 0.  1.
</event>
<event>
 7    1  0.2661133E-009  0.1223439E+03  0.7561462E-02  0.1239280E+00
          2   -1    0    0  501    0  0.00000000000E+00  0.00000000000E+00  0.60061793833E+03  0.60061793833E+03  0.00000000000E+00 0. -1.
         -2   -1    0    0    0  501 -0.00000000000E+00 -0.00000000000E+00 -0.29116098563E+02  0.29116098563E+02  0.00000000000E+00 0.  1.
         25    2    1    2    0    0  0.42028037288E+02  0.61973358076E+02  0.32643185876E+03  0.35751109821E+03  0.12509745760E+03 0.  0.
          5    1    3    3  502    0  0.12007929890E+02 -0.36060832679E+02  0.52170551589E+02  0.64682400132E+02  0.41800000000E+01 0. -1.
         -5    1    3    3    0  502  0.30020107398E+02  0.98034190755E+02  0.27426130717E+03  0.29282869808E+03  0.41800000000E+01 0. -1.
        -11    1    1    2    0    0 -0.62016411610E+02 -0.54295767534E+02  0.23405284794E+03  0.24814270352E+03  0.00000000000E+00 0. -1.
         11    1    1    2    0    0  0.19988374321E+02 -0.76775905426E+01  0.11017133062E+02  0.24080235162E+02  0.00000000000E+00 0.  1.
</event>
<event>
 7    1  0.2661133E-009  0.1883051E+03  0.7561462E-02  0.1159999E+00
          1   -1    0    0  501    0  0.00000000000E+00  0.00000000000E+00  0.18293986792E+03  0.18293986792E+03  0.00000000000E+00 0. -1.
         -1   -1    0    0    0  501 -0.00000000000E+00 -0.00000000000E+00 -0.25295505003E+03  0.25295505003E+03  0.00000000000E+00 0.  1.
         25    2    1    2    0    0  0.51328765773E+02  0.17243430749E+03  0.12127209498E+02  0.21946011559E+03  0.12508972991E+03 0.  0.
          5    1    3    3  502    0  0.28922649107E+02  0.13414177287E+02 -0.39305313186E+02  0.50782278683E+02  0.41800000000E+01 0. -1.
         -5    1    3    3    0  502  0.22406116666E+02  0.15902013020E+03  0.51432522684E+02  0.16867783691E+03  0.41800000000E+01 0. -1.
        -11    1    1    2    0    0 -0.40642653554E+02 -0.16689730544E+03 -0.45258416545E+02  0.17763687713E+03  0.00000000000E+00 0. -1.
         11    1    1    2    0    0 -0.10686112219E+02 -0.55370020516E+01 -0.36883975059E+02  0.38797925232E+02  0.00000000000E+00 0.  1.
</event>
<event>
 7    1  0.2661133E-009  0.1900998E+03  0.7561462E-02  0.1158371E+00
          1   -1    0    0  501    0  0.00000000000E+00  0.00000000000E+00  0.23633377058E+03  0.23633377058E+03  0.00000000000E+00 0. -1.
         -1   -1    0    0    0  501 -0.00000000000E+00 -0.00000000000E+00 -0.18388974443E+03  0.18388974443E+03  0.00000000000E+00 0.  1.
         25    2    1    2    0    0  0.10119443187E+03  0.12062338460E+03 -0.54369314006E+02  0.20831225234E+03  0.12509060003E+03 0.  0.
          5    1    3    3  502    0  0.10133592772E+02 -0.25026338916E+02  0.22145480093E+01  0.27411383856E+02  0.41800000000E+01 0.  1.
         -5    1    3    3    0  502  0.91060839099E+02  0.14564972352E+03 -0.56583862015E+02  0.18090086849E+03  0.41800000000E+01 0.  1.
        -11    1    1    2    0    0 -0.41541544844E+02  0.51420376023E+01  0.38433624376E+02  0.56826789293E+02  0.00000000000E+00 0. -1.
         11    1    1    2    0    0 -0.59652887027E+02 -0.12576542221E+03  0.68379715774E+02  0.15508447338E+03  0.00000000000E+00 0.  1.
</event>
<event>
 6    1  0.2661133E-009  0.2028075E+03  0.7561462E-02  0.1147392E+00
          3   -1    0    0  501    0  0.00000000000E+00  0.00000000000E+00  0.32715324563E+03  0.32715324563E+03  0.00000000000E+00 0. -1.
         -3   -1    0    0    0  501 -0.00000000000E+00 -0.00000000000E+00 -0.17211490317E+03  0.17211490317E+03  0.00000000000E+00 0.  1.
          5    1    1    2  502    0 -0.43059990311E+01  0.21339614035E+02  0.24256120064E+02  0.32859587876E+02  0.41800000000E+01 0. -1.
         -5    1    1    2    0  502 -0.10298905138E+03 -0.17006096453E+03  0.16701120553E+03  0.25968768075E+03  0.41800000000E+01 0. -1.
        -11    1    1    2    0    0  0.45466879572E+02  0.45882243215E+02 -0.55532687176E+02  0.85183899450E+02  0.00000000000E+00 0.  1.
         11    1    1    2    0    0  0.61828170835E+02  0.10283910728E+03  0.19303704038E+02  0.12153698073E+03  0.00000000000E+00 0. -1.
</event>
<event>
 7    1  0.2675365E-009  0.9404231E+02  0.7561462E-02  0.1293348E+00
         -1   -1    0    0    0  501 -0.00000000000E+00  0.00000000000E+00  0.13088923475E+03  0.13088923475E+03  0.00000000000E+00 0.  1.
          1   -1    0    0  501    0  0.00000000000E+00 -0.00000000000E+00 -0.11093714709E+03  0.11093714709E+03  0.00000000000E+00 0. -1.
         25    2    1    2    0    0 -0.23722175050E+01 -0.45244763082E+01  0.63973270005E+02  0.14059116310E+03  0.12508875875E+03 0.  0.
          5    1    3    3  502    0  0.10489830776E+02  0.45004492804E+02  0.74892104088E+02  0.88100741070E+02  0.41800000000E+01 0. -1.
         -5    1    3    3    0  502 -0.12862048281E+02 -0.49528969112E+02 -0.10918834083E+02  0.52490422031E+02  0.41800000000E+01 0. -1.
        -11    1    1    2    0    0 -0.31527271738E+02 -0.28876467549E+02 -0.27618258913E+02  0.50897813968E+02  0.00000000000E+00 0. -1.
         11    1    1    2    0    0  0.33899489243E+02  0.33400943857E+02 -0.16402923429E+02  0.50337404765E+02  0.00000000000E+00 0.  1.
</event>
<event>
 7    1  0.2661133E-009  0.1217826E+03  0.7561462E-02  0.1240185E+00
         -2   -1    0    0    0  501 -0.00000000000E+00  0.00000000000E+00  0.98521192566E+02  0.98521192566E+02  0.00000000000E+00 0.  1.
          2   -1    0    0  501    0  0.00000000000E+00 -0.00000000000E+00 -0.20074709042E+03  0.20074709042E+03  0.00000000000E+00 0. -1.
         25    2    1    2    0    0  0.55715742933E+02  0.70500378209E+02 -0.41965876369E+02  0.15963524753E+03  0.12509088751E+03 0.  0.
          5    1    3    3  502    0  0.48132832603E+02  0.10635795689E+03 -0.27488457849E+02  0.12000780092E+03  0.41800000000E+01 0. -1.
         -5    1    3    3    0  502  0.75829103305E+01 -0.35857578678E+02 -0.14477418520E+02  0.39627446609E+02  0.41800000000E+01 0. -1.
        -11    1    1    2    0    0 -0.34089573717E+02 -0.43529152751E+02  0.14592857659E+02  0.57182494438E+02  0.00000000000E+00 0.  1.
         11    1    1    2    0    0 -0.21626169216E+02 -0.26971225457E+02 -0.74852879140E+02  0.82450541012E+02  0.00000000000E+00 0. -1.
</event>
<event>
 7    1  0.2661133E-009  0.1161950E+03  0.7561462E-02  0.1249509E+00
          1   -1    0    0  501    0  0.00000000000E+00  0.00000000000E+00  0.13306170417E+02  0.13306170417E+02  0.00000000000E+00 0. -1.
         -1   -1    0    0    0  501 -0.00000000000E+00 -0.00000000000E+00 -0.11453094370E+04  0.11453094370E+04  0.00000000000E+00 0.  1.
         25    2    1    2    0    0 -0.49642682007E+02 -0.16975612837E+02 -0.79658436599E+03  0.80805121061E+03  0.12509012560E+03 0.  0.
          5    1    3    3  502    0 -0.33389719876E+02  0.53458794158E+02 -0.35795904283E+03  0.36348984142E+03  0.41800000000E+01 0.  1.
         -5    1    3    3    0  502 -0.16252962131E+02 -0.70434406995E+02 -0.43862532316E+03  0.44456136920E+03  0.41800000000E+01 0.  1.
        -11    1    1    2    0    0  0.66969848903E+02  0.31685144159E+02 -0.20062119068E+03  0.21386390806E+03  0.00000000000E+00 0. -1.
         11    1    1    2    0    0 -0.17327166896E+02 -0.14709531322E+02 -0.13479770993E+03  0.13670048876E+03  0.00000000000E+00 0.  1.
</event>
<event>
 7    1  0.2661133E-009  0.1364513E+03  0.7561462E-02  0.1218185E+00
         -2   -1    0    0    0  501 -0.00000000000E+00  0.00000000000E+00  0.11995022033E+03  0.11995022033E+03  0.00000000000E+00 0.  1.
          2   -1    0    0  501    0  0.00000000000E+00 -0.00000000000E+00 -0.18519755106E+03  0.18519755106E+03  0.00000000000E+00 0. -1.
         25    2    1    2    0    0 -0.67612434000E+02  0.70118494481E+02 -0.38636285372E+01  0.15858956970E+03  0.12509068508E+03 0.  0.
          5    1    3    3  502    0 -0.53521192877E+02 -0.18263911450E+02  0.28325028077E+02  0.63386656041E+02  0.41800000000E+01 0.  1.
         -5    1    3    3    0  502 -0.14091241123E+02  0.88382405931E+02 -0.32188656615E+02  0.95202913659E+02  0.41800000000E+01 0.  1.
        -11    1    1    2    0    0  0.80116515817E+02 -0.78003593071E+02 -0.67442401714E+02  0.13058213579E+03  0.00000000000E+00 0. -1.
         11    1    1    2    0    0 -0.12504081816E+02  0.78850985903E+01  0.60586995255E+01  0.15976065905E+02  0.00000000000E+00 0.  1.
</event>
<event>
 7    1  0.2661133E-009  0.2300623E+03  0.7561462E-02  0.1126596E+00
         -1   -1    0    0    0  501 -0.00000000000E+00  0.00000000000E+00  0.11359863069E+03  0.11359863069E+03  0.00000000000E+00 0.  1.
          1   -1    0    0  501    0  0.00000000000E+00 -0.00000000000E+00 -0.67420332236E+03  0.67420332236E+03  0.00000000000E+00 0. -1.
         25    2    1    2    0    0  0.31747854948E+02  0.21127350951E+03 -0.48181182347E+03  0.54169572327E+03  0.12508877350E+03 0.  0.
          5    1    3    3  502    0  0.72581709164E+02  0.79000939984E+02 -0.24238175314E+03  0.26509552934E+03  0.41800000000E+01 0.  1.
         -5    1    3    3    0  502 -0.40833854216E+02  0.13227256953E+03 -0.23943007034E+03  0.27660019393E+03  0.41800000000E+01 0.  1.
        -11    1    1    2    0    0 -0.45266073908E+01 -0.83661741663E+02 -0.79676283203E+02  0.11562044498E+03  0.00000000000E+00 0. -1.
         11    1    1    2    0    0 -0.27221247557E+02 -0.12761176785E+03  0.88341500297E+00  0.13048578480E+03  0.00000000000E+00 0.  1.
</event>
<event>
 7    1  0.2661133E-009  0.1114720E+03  0.7561462E-02  0.1257868E+00
          2   -1    0    0  501    0  0.00000000000E+00  0.00000000000E+00  0.10946664712E+04  0.10946664712E+04  0.00000000000E+00 0. -1.
         -2   -1    0    0    0  501 -0.00000000000E+00 -0.00000000000E+00 -0.15864149392E+02  0.15864149392E+02  0.00000000000E+00 0.  1.
         25    2    1    2    0    0 -0.87805449455E+02 -0.18978936048E+02  0.72711809841E+03  0.74324854331E+03  0.12509065165E+03 0.  0.
          5    1    3    3  502    0 -0.10555129048E+03 -0.31295083641E+02  0.69857822756E+03  0.70721246426E+03  0.41800000000E+01 0.  1.
         -5    1    3    3    0  502  0.17745841027E+02  0.12316147594E+02  0.28539870850E+02  0.36036079052E+02  0.41800000000E+01 0.  1.
        -11    1    1    2    0    0  0.44798276858E+02  0.16328457362E+02  0.27687757448E+03  0.28095319073E+03  0.00000000000E+00 0. -1.
         11    1    1    2    0    0  0.43007172597E+02  0.26504786853E+01  0.74806648936E+02  0.86328886574E+02  0.00000000000E+00 0.  1.
</event>
<event>
 7    1  0.2661133E-009  0.1222218E+03  0.7561462E-02  0.1239476E+00
          2   -1    0    0  501    0  0.00000000000E+00  0.00000000000E+00  0.15896420999E+03  0.15896420999E+03  0.00000000000E+00 0. -1.
         -2   -1    0    0    0  501 -0.00000000000E+00 -0.00000000000E+00 -0.11469723629E+03  0.11469723629E+03  0.00000000000E+00 0.  1.
         25    2    1    2    0    0  0.60387448401E+02 -0.12655641129E+02 -0.28307662989E+02  0.14232453080E+03  0.12509252218E+03 0.  0.
          5    1    3    3  502    0  0.97701323322E+02  0.30714746814E+01 -0.12411782371E+02  0.98623056519E+02  0.41800000000E+01 0. -1.
         -5    1    3    3    0  502 -0.37313874921E+02 -0.15727115810E+02 -0.15895880618E+02  0.43701474277E+02  0.41800000000E+01 0. -1.
        -11    1    1    2    0    0 -0.17434178568E+01 -0.32086418667E+02  0.38314880491E+02  0.50006077988E+02  0.00000000000E+00 0. -1.
         11    1    1    2    0    0 -0.58644030544E+02  0.44742059796E+02  0.34259756193E+02  0.81330837495E+02  0.00000000000E+00 0.  1.
</event>
<event>
 7    1  0.2661133E-009  0.1314048E+03  0.7561462E-02  0.1225386E+00
          2   -1    0    0  501    0  0.00000000000E+00  0.00000000000E+00  0.12768506406E+03  0.12768506406E+03  0.00000000000E+00 0.  1.
         -2   -1    0    0    0  501 -0.00000000000E+00 -0.00000000000E+00 -0.16372511141E+03  0.16372511141E+03  0.00000000000E+00 0. -1.
         25    2    1    2    0    0  0.48831207634E+02 -0.78332549916E+02 -0.40566043267E+02  0.16067810841E+03  0.12510545728E+03 0.  0.
          5    1    3    3  502    0  0.34559836916E+02  0.24410017062E+02 -0.37701766950E+02  0.56825407098E+02  0.41800000000E+01 0. -1.
         -5    1    3    3    0  502  0.14271370718E+02 -0.10274256698E+03 -0.28642763164E+01  0.10385270131E+03  0.41800000000E+01 0. -1.
        -11    1    1    2    0    0 -0.29541746399E+02 -0.58497223460E+01  0.28120468386E+02  0.41203091802E+02  0.00000000000E+00 0.  1.
         11    1    1    2    0    0 -0.19289461235E+02  0.84182272262E+02 -0.23594472468E+02  0.89528975248E+02  0.00000000000E+00 0. -1.
</event>
<event>
 6    1  0.2661133E-009  0.1051923E+03  0.7561462E-02  0.1269741E+00
          2   -1    0    0  501    0  0.00000000000E+00  0.00000000000E+00  0.18920997035E+03  0.18920997035E+03  0.00000000000E+00 0. -1.
         -2   -1    0    0    0  501 -0.00000000000E+00 -0.00000000000E+00 -0.98028743785E+02  0.98028743785E+02  0.00000000000E+00 0.  1.
          5    1    1    2  502    0  0.85830555800E+02  0.34828415155E+02  0.62276665237E+02  0.11169493383E+03  0.41800000000E+01 0.  1.
         -5    1    1    2    0  502 -0.53689998089E+01 -0.36276253043E+02 -0.21374015581E+02  0.42651068402E+02  0.41800000000E+01 0.  1.
        -11    1    1    2    0    0 -0.45483590431E+02  0.41436489242E+01  0.76498623897E+02  0.89095265211E+02  0.00000000000E+00 0. -1.
         11    1    1    2    0    0 -0.34977965561E+02 -0.26958110363E+01 -0.26220046991E+02  0.43797446685E+02  0.00000000000E+00 0.  1.
</event>
<event>
 7    1  0.2661133E-009  0.1604747E+03  0.7561462E-02  0.1188162E+00
         -2   -1    0    0    0  501 -0.00000000000E+00  0.00000000000E+00  0.47925470242E+02  0.47925470242E+02  0.00000000000E+00 0.  1.
          2   -1    0    0  501    0  0.00000000000E+00 -0.00000000000E+00 -0.62962506240E+03  0.62962506240E+03  0.00000000000E+00 0. -1.
         25    2    1    2    0    0  0.25612766666E+02  0.13283214591E+03 -0.32122630087E+03  0.37031604060E+03  0.12508893138E+03 0.  0.
          5    1    3    3  502    0 -0.29063427131E+02  0.29408035866E+02 -0.18988135405E+03  0.19437570935E+03  0.41800000000E+01 0.  1.
         -5    1    3    3    0  502  0.54676193797E+02  0.10342411004E+03 -0.13134494682E+03  0.17594033125E+03  0.41800000000E+01 0.  1.
        -11    1    1    2    0    0 -0.54809131507E+02 -0.48854259741E+02 -0.13102805566E+03  0.15019697388E+03  0.00000000000E+00 0.  1.
         11    1    1    2    0    0  0.29196364840E+02 -0.83977886165E+02 -0.12944523563E+03  0.15703751816E+03  0.00000000000E+00 0. -1.
</event>
<event>
 7    1  0.2661133E-009  0.9844160E+02  0.7561462E-02  0.1283608E+00
          1   -1    0    0  501    0  0.00000000000E+00  0.00000000000E+00  0.82850602677E+02  0.82850602677E+02  0.00000000000E+00 0. -1.
         -1   -1    0    0    0  501 -0.00000000000E+00 -0.00000000000E+00 -0.26731694120E+03  0.26731694120E+03  0.00000000000E+00 0.  1.
         25    2    1    2    0    0 -0.24354862577E+02 -0.80425302986E+01  0.15759442733E+02  0.12866206046E+03  0.12509086355E+03 0.  0.
          5    1    3    3  502    0  0.41528764681E+02 -0.22182161067E+01 -0.27030138591E+02  0.49776094371E+02  0.41800000000E+01 0. -1.
         -5    1    3    3    0  502 -0.65883627258E+02 -0.58243141919E+01  0.42789581324E+02  0.78885966092E+02  0.41800000000E+01 0. -1.
        -11    1    1    2    0    0 -0.25453027856E+02 -0.19346907669E+02 -0.38287087013E+02  0.49880462060E+02  0.00000000000E+00 0. -1.
         11    1    1    2    0    0  0.49807890433E+02  0.27389437968E+02 -0.16193869424E+03  0.17162502135E+03  0.00000000000E+00 0.  1.
</event>
<event>
 7    1  0.2661133E-009  0.1122181E+03  0.7561462E-02  0.1256517E+00
          2   -1    0    0  501    0  0.00000000000E+00  0.00000000000E+00  0.70696701309E+03  0.70696701309E+03  0.00000000000E+00 0. -1.
         -2   -1    0    0    0  501 -0.00000000000E+00 -0.00000000000E+00 -0.30205878673E+02  0.30205878673E+02  0.00000000000E+00 0.  1.
         25    2    1    2    0    0  0.37769791458E+02  0.79803488370E+02  0.47150955050E+03  0.49574655698E+03  0.12509292003E+03 0.  0.
          5    1    3    3  502    0  0.15964073654E+02  0.91108617330E+02  0.45827377582E+03  0.46753391086E+03  0.41800000000E+01 0. -1.
         -5    1    3    3    0  502  0.21805717803E+02 -0.11305128960E+02  0.13235774681E+02  0.28212646121E+02  0.41800000000E+01 0. -1.
        -11    1    1    2    0    0 -0.46052536197E+02 -0.26799731110E+02  0.16765082685E+03  0.17591435820E+03  0.00000000000E+00 0.  1.
         11    1    1    2    0    0  0.82827447395E+01 -0.53003757260E+02  0.37600757071E+02  0.65511976588E+02  0.00000000000E+00 0. -1.
</event>
<event>
 7    1  0.2661133E-009  0.1008051E+03  0.7561462E-02  0.1278612E+00
         -1   -1    0    0    0  501 -0.00000000000E+00  0.00000000000E+00  0.38756071482E+03  0.38756071482E+03  0.00000000000E+00 0.  1.
          1   -1    0    0  501    0  0.00000000000E+00 -0.00000000000E+00 -0.52361871334E+02  0.52361871334E+02  0.00000000000E+00 0. -1.
         25    2    1    2    0    0 -0.59049606687E+02 -0.25662860934E+02  0.16576294009E+03  0.21741761983E+03  0.12509048973E+03 0.  0.
          5    1    3    3  502    0  0.26175955653E+02 -0.40683287118E+02  0.90273160564E+02  0.10250378736E+03  0.41800000000E+01 0. -1.
         -5    1    3    3    0  502 -0.85225562340E+02  0.15020426184E+02  0.75489779529E+02  0.11491383247E+03  0.41800000000E+01 0. -1.
        -11    1    1    2    0    0  0.16316564677E+02 -0.46912773021E+00 -0.20425807837E+02  0.26146969030E+02  0.00000000000E+00 0. -1.
         11    1    1    2    0    0  0.42733042010E+02  0.26131988665E+02  0.18986171123E+03  0.19635799729E+03  0.00000000000E+00 0.  1.
</event>
<event>
 7    1  0.2661133E-009  0.1011641E+03  0.7561462E-02  0.1277867E+00
         -1   -1    0    0    0  501 -0.00000000000E+00  0.00000000000E+00  0.15234109616E+03  0.15234109616E+03  0.00000000000E+00 0.  1.
          1   -1    0    0  501    0  0.00000000000E+00 -0.00000000000E+00 -0.77478221626E+02  0.77478221626E+02  0.00000000000E+00 0. -1.
         25    2    1    2    0    0  0.26436038871E+02  0.90247973455E+01  0.35954272580E+02  0.13313768173E+03  0.12511043706E+03 0.  0.
          5    1    3    3  502    0  0.69542600049E+02  0.21401940103E+02  0.47049335139E+02  0.86748651855E+02  0.41800000000E+01 0.  1.
         -5    1    3    3    0  502 -0.43106561178E+02 -0.12377142758E+02 -0.11095062558E+02  0.46389029873E+02  0.41800000000E+01 0.  1.
        -11    1    1    2    0    0 -0.51449579559E+02 -0.22313518910E+02  0.11458934844E+02  0.57238619399E+02  0.00000000000E+00 0. -1.
         11    1    1    2    0    0  0.25013540688E+02  0.13288721565E+02  0.27449667107E+02  0.39443016655E+02  0.00000000000E+00 0.  1.
</event>
<event>
 7    1  0.2661133E-009  0.8440488E+02  0.7561462E-02  0.1316996E+00
         -1   -1    0    0    0  501 -0.00000000000E+00  0.00000000000E+00  0.14916742171E+03  0.14916742171E+03  0.00000000000E+00 0.  1.
          1   -1    0    0  501    0  0.00000000000E+00 -0.00000000000E+00 -0.92214092100E+02  0.92214092100E+02  0.00000000000E+00 0. -1.
         25    2    1    2    0    0  0.15883531043E+02 -0.90469306521E+01  0.77434062139E+02  0.14824832806E+03  0.12508956504E+03 0.  0.
          5    1    3    3  502    0  0.38820589390E+02  0.17409063967E+02 -0.18092301143E+02  0.46421088198E+02  0.41800000000E+01 0. -1.
         -5    1    3    3    0  502 -0.22937058347E+02 -0.26455994619E+02  0.95526363283E+02  0.10182723987E+03  0.41800000000E+01 0. -1.
        -11    1    1    2    0    0 -0.16861374543E+02  0.48491558583E+02 -0.13216310200E+02  0.53013281926E+02  0.00000000000E+00 0.  1.
         11    1    1    2    0    0  0.97784350020E+00 -0.39444627930E+02 -0.72644223306E+01  0.40119903817E+02  0.00000000000E+00 0. -1.
</event>
<event>
 7    1  0.2661133E-009  0.1485577E+03  0.7561462E-02  0.1202257E+00
          2   -1    0    0  501    0  0.00000000000E+00  0.00000000000E+00  0.11078179638E+04  0.11078179638E+04  0.00000000000E+00 0. -1.
         -2   -1    0    0    0  501 -0.00000000000E+00 -0.00000000000E+00 -0.34691615318E+02  0.34691615318E+02  0.00000000000E+00 0.  1.
         25    2    1    2    0    0 -0.13295890927E+03  0.18433714288E+02  0.83179816362E+03  0.85179410622E+03  0.12508853267E+03 0.  0.
          5    1    3    3  502    0  0.12509220530E+02  0.10853733890E+02  0.29719392030E+03  0.29768436775E+03  0.41800000000E+01 0. -1.
         -5    1    3    3    0  502 -0.14546812980E+03  0.75799803980E+01  0.53460424332E+03  0.55410973847E+03  0.41800000000E+01 0. -1.
        -11    1    1    2    0    0  0.36521249806E+02 -0.30002197097E+01  0.76295256891E+01  0.37430103766E+02  0.00000000000E+00 0.  1.
         11    1    1    2    0    0  0.96437659464E+02 -0.15433494578E+02  0.23369865913E+03  0.25328536910E+03  0.00000000000E+00 0. -1.
</event>
<event>
 7    1  0.2661133E-009  0.1128679E+03  0.7561462E-02  0.1255349E+00
          1   -1    0    0  501    0  0.00000000000E+00  0.00000000000E+00  0.45834131128E+03  0.45834131128E+03  0.00000000000E+00 0. -1.
         -1   -1    0    0    0  501 -0.00000000000E+00 -0.00000000000E+00 -0.30087791569E+02  0.30087791569E+02  0.00000000000E+00 0.  1.
         25    2    1    2    0    0 -0.20212154185E+02  0.40573120355E+02  0.21235323510E+03  0.25058995020E+03  0.12508683949E+03 0.  0.
          5    1    3    3  502    0  0.51083432004E+02  0.20480908647E+01  0.94097422968E+02  0.10717046753E+03  0.41800000000E+01 0. -1.
         -5    1    3    3    0  502 -0.71295586188E+02  0.38525029490E+02  0.11825581213E+03  0.14341948267E+03  0.41800000000E+01 0. -1.
        -11    1    1    2    0    0  0.27654216063E+02  0.18811102967E+02  0.40588672766E+02  0.52593284912E+02  0.00000000000E+00 0.  1.
         11    1    1    2    0    0 -0.74420618785E+01 -0.59384223321E+02  0.17531161185E+03  0.18524586774E+03  0.00000000000E+00 0. -1.
</event>
<event>
 7    1  0.2661133E-009  0.1186463E+03  0.7561462E-02  0.1245347E+00
         -2   -1    0    0    0  501 -0.00000000000E+00  0.00000000000E+00  0.15250849443E+02  0.15250849443E+02  0.00000000000E+00 0.  1.
          2   -1    0    0  501    0  0.00000000000E+00 -0.00000000000E+00 -0.10649253994E+04  0.10649253994E+04  0.00000000000E+00 0. -1.
         25    2    1    2    0    0 -0.32255134452E+02  0.42024684034E+02 -0.74379964991E+03  0.75610593015E+03  0.12510711663E+03 0.  0.
          5    1    3    3  502    0  0.43304361340E+02 -0.35462882264E+01 -0.33771500274E+03  0.34052421257E+03  0.41800000000E+01 0.  1.
         -5    1    3    3    0  502 -0.75559495793E+02  0.45570972260E+02 -0.40608464717E+03  0.41558171758E+03  0.41800000000E+01 0.  1.
        -11    1    1    2    0    0  0.31550495141E+02 -0.70282338878E+02 -0.19545192632E+03  0.21008687823E+03  0.00000000000E+00 0.  1.
         11    1    1    2    0    0  0.70463931159E+00  0.28257654844E+02 -0.11042297371E+03  0.11398344045E+03  0.00000000000E+00 0. -1.
</event>
<event>
 7    1  0.2661133E-009  0.1098173E+03  0.7561462E-02  0.1260909E+00
          2   -1    0    0  501    0  0.00000000000E+00  0.00000000000E+00  0.54864266845E+03  0.54864266845E+03  0.00000000000E+00 0. -1.
         -2   -1    0    0    0  501 -0.00000000000E+00 -0.00000000000E+00 -0.36041701393E+02  0.36041701393E+02  0.00000000000E+00 0.  1.
         25    2    1    2    0    0 -0.37303872396E+01  0.89556451969E+02  0.32035047749E+03  0.35539563547E+03  0.12508938965E+03 0.  0.
          5    1    3    3  502    0 -0.28288617973E+02  0.48498984178E+02  0.35574896581E+02  0.66599121915E+02  0.41800000000E+01 0. -1.
         -5    1    3    3    0  502  0.24558230734E+02  0.41057467791E+02  0.28477558091E+03  0.28879651355E+03  0.41800000000E+01 0. -1.
        -11    1    1    2    0    0 -0.27627880699E+02 -0.76509525167E+02  0.88897155933E+02  0.12049776581E+03  0.00000000000E+00 0.  1.
         11    1    1    2    0    0  0.31358267938E+02 -0.13046926802E+02  0.10335333364E+03  0.10879096856E+03  0.00000000000E+00 0. -1.
</event>
<event>
 7    1  0.2661133E-009  0.8260862E+02  0.7561462E-02  0.1321807E+00
         -1   -1    0    0    0  501 -0.00000000000E+00  0.00000000000E+00  0.37786655882E+02  0.37786655882E+02  0.00000000000E+00 0.  1.
          1   -1    0    0  501    0  0.00000000000E+00 -0.00000000000E+00 -0.33882771876E+03  0.33882771876E+03  0.00000000000E+00 0. -1.
         25    2    1    2    0    0  0.12333477381E+02  0.32414684325E+02 -0.16934717816E+03  0.21336949562E+03  0.12508096773E+03 0.  0.
          5    1    3    3  502    0  0.39337449327E+02 -0.12403729264E+02 -0.61170088280E+01  0.41906772916E+02  0.41800000000E+01 0. -1.
         -5    1    3    3    0  502 -0.27003971947E+02  0.44818413589E+02 -0.16323016933E+03  0.17146272271E+03  0.41800000000E+01 0. -1.
        -11    1    1    2    0    0 -0.35277863978E+02 -0.33012947011E+02 -0.25564419935E+02  0.54661887305E+02  0.00000000000E+00 0.  1.
         11    1    1    2    0    0  0.22944386597E+02  0.59826268586E+00 -0.10612946478E+03  0.10858299171E+03  0.00000000000E+00 0. -1.
</event>
<event>
 7    1  0.2661133E-009  0.1230421E+03  0.7561462E-02  0.1238161E+00
          1   -1    0    0  501    0  0.00000000000E+00  0.00000000000E+00  0.28778863351E+03  0.28778863351E+03  0.00000000000E+00 0. -1.
         -1   -1    0    0    0  501 -0.00000000000E+00 -0.00000000000E+00 -0.56650870468E+02  0.56650870468E+02  0.00000000000E+00 0.  1.
         25    2    1    2    0    0  0.35515175543E+02 -0.34999175031E+02  0.97048748768E+02  0.16598696283E+03  0.12508773818E+03 0.  0.
          5    1    3    3  502    0 -0.34197319368E+02 -0.51462322801E+02  0.35053499333E+02  0.71162121494E+02  0.41800000000E+01 0.  1.
         -5    1    3    3    0  502  0.69712494911E+02  0.16463147770E+02  0.61995249435E+02  0.94824841332E+02  0.41800000000E+01 0.  1.
        -11    1    1    2    0    0 -0.70976648143E+02  0.27744117159E+02  0.11379611607E+03  0.13695611213E+03  0.00000000000E+00 0. -1.
         11    1    1    2    0    0  0.35461472601E+02  0.72550578719E+01  0.20292898209E+02  0.41496429020E+02  0.00000000000E+00 0.  1.
</event>
<event>
 7    1  0.2661133E-009  0.1244743E+03  0.7561462E-02  0.1235893E+00
         -1   -1    0    0    0  501 -0.00000000000E+00  0.00000000000E+00  0.13852637159E+03  0.13852637159E+03  0.00000000000E+00 0.  1.
          1   -1    0    0  501    0  0.00000000000E+00 -0.00000000000E+00 -0.14917591633E+03  0.14917591633E+03  0.00000000000E+00 0. -1.
         25    2    1    2    0    0  0.68103888451E+02  0.51687854404E+02  0.48838624923E+02  0.15919394734E+03  0.12509087765E+03 0.  0.
          5    1    3    3  502    0  0.31441866034E+02 -0.31533671488E+02  0.51384203695E+02  0.68123213126E+02  0.41800000000E+01 0.  1.
         -5    1    3    3    0  502  0.36662022417E+02  0.83221525892E+02 -0.25455787722E+01  0.91070734216E+02  0.41800000000E+01 0.  1.
        -11    1    1    2    0    0  0.13026758921E+02 -0.24276882290E+02 -0.84554019920E+01  0.28819390774E+02  0.00000000000E+00 0.  1.
         11    1    1    2    0    0 -0.81130647372E+02 -0.27410972114E+02 -0.51032767673E+02  0.99688949797E+02  0.00000000000E+00 0. -1.
</event>
<event>
 7    1  0.2661133E-009  0.7713594E+02  0.7561462E-02  0.1337381E+00
         -1   -1    0    0    0  501 -0.00000000000E+00  0.00000000000E+00  0.54003939192E+02  0.54003939192E+02  0.00000000000E+00 0.  1.
          1   -1    0    0  501    0  0.00000000000E+00 -0.00000000000E+00 -0.21281586984E+03  0.21281586984E+03  0.00000000000E+00 0. -1.
         25    2    1    2    0    0 -0.62768797653E+01  0.98278850516E+01 -0.92234369764E+02  0.15585967499E+03  0.12509625405E+03 0.  0.
          5    1    3    3  502    0 -0.40735041792E+02  0.24814152369E+01 -0.10911266273E+03  0.11656992159E+03  0.41800000000E+01 0.  1.
         -5    1    3    3    0  502  0.34458162027E+02  0.73464698148E+01  0.16878292963E+02  0.39289753402E+02  0.41800000000E+01 0.  1.
        -11    1    1    2    0    0  0.17541118776E+02 -0.41015331277E+02 -0.10524648512E+02  0.45833573654E+02  0.00000000000E+00 0.  1.
         11    1    1    2    0    0 -0.11264239011E+02  0.31187446225E+02 -0.56052912370E+02  0.65126560386E+02  0.00000000000E+00 0. -1.
</event>
<event>
 7    1  0.2661133E-009  0.8004047E+02  0.7561462E-02  0.1328937E+00
          3   -1    0    0  501    0  0.00000000000E+00  0.00000000000E+00  0.64444262848E+03  0.64444262848E+03  0.00000000000E+00 0. -1.
         -3   -1    0    0    0  501 -0.00000000000E+00 -0.00000000000E+00 -0.20050704955E+02  0.20050704955E+02  0.00000000000E+00 0.  1.
         25    2    1    2    0    0 -0.16345364236E+02 -0.54288375172E+01  0.44430905529E+03  0.46190365629E+03  0.12509119820E+03 0.  0.
          5    1    3    3  502    0 -0.15771041686E+02  0.37407778831E+02  0.46900020521E+02  0.62170346611E+02  0.41800000000E+01 0.  1.
         -5    1    3    3    0  502 -0.57432255026E+00 -0.42836616348E+02  0.39740903477E+03  0.39973330968E+03  0.41800000000E+01 0.  1.
        -11    1    1    2    0    0 -0.10694598853E+01  0.38677717934E+02  0.33189665304E+02  0.50977087912E+02  0.00000000000E+00 0.  1.
         11    1    1    2    0    0  0.17414824122E+02 -0.33248880417E+02  0.14689320293E+03  0.15161258923E+03  0.00000000000E+00 0. -1.
</event>
<event>
 7    1  0.2661133E-009  0.8942458E+02  0.7561462E-02  0.1304251E+00
         -1   -1    0    0    0  501 -0.00000000000E+00  0.00000000000E+00  0.39518576982E+02  0.39518576982E+02  0.00000000000E+00 0.  1.
          1   -1    0    0  501    0  0.00000000000E+00 -0.00000000000E+00 -0.46089506192E+03  0.46089506192E+03  0.00000000000E+00 0. -1.
         25    2    1    2    0    0  0.54426400265E+02  0.58229999290E+02 -0.26160429558E+03  0.30072846625E+03  0.12509131498E+03 0.  0.
          5    1    3    3  502    0  0.17100736800E+01  0.25147512686E+02  0.57541795824E+01  0.26189782911E+02  0.41800000000E+01 0. -1.
         -5    1    3    3    0  502  0.52716326585E+02  0.33082486605E+02 -0.26735847516E+03  0.27453868334E+03  0.41800000000E+01 0. -1.
        -11    1    1    2    0    0 -0.17656474529E+02 -0.50296894139E+02 -0.23392296135E+02  0.58212783573E+02  0.00000000000E+00 0.  1.
         11    1    1    2    0    0 -0.36769925735E+02 -0.79331051511E+01 -0.13637989322E+03  0.14147238908E+03  0.00000000000E+00 0. -1.
</event>
<event>
 7    1  0.2661133E-009  0.1110026E+03  0.7561462E-02  0.1258724E+00
         -1   -1    0    0    0  501 -0.00000000000E+00  0.00000000000E+00  0.51133777536E+02  0.51133777536E+02  0.00000000000E+00 0.  1.
          1   -1    0    0  501    0  0.00000000000E+00 -0.00000000000E+00 -0.39229998408E+03  0.39229998408E+03  0.00000000000E+00 0. -1.
         25    2    1    2    0    0  0.72782586832E+02 -0.45110539668E+02 -0.22627250079E+03  0.27235816852E+03  0.12508981417E+03 0.  0.
          5    1    3    3  502    0  0.93678125319E+01  0.95703435368E+01  0.12812605403E+02  0.18999543264E+02  0.41800000000E+01 0.  1.
         -5    1    3    3    0  502  0.63414774300E+02 -0.54680883204E+02 -0.23908510620E+03  0.25335862526E+03  0.41800000000E+01 0.  1.
        -11    1    1    2    0    0 -0.61252629321E+01  0.56226870028E+02 -0.35334693836E+02  0.66689731950E+02  0.00000000000E+00 0.  1.
         11    1    1    2    0    0 -0.66657323900E+02 -0.11116330360E+02 -0.79559011919E+02  0.10438586115E+03  0.00000000000E+00 0. -1.
</event>
<event>
 7    1  0.2661133E-009  0.1431311E+03  0.7561462E-02  0.1209177E+00
          2   -1    0    0  501    0  0.00000000000E+00  0.00000000000E+00  0.35289243004E+03  0.35289243004E+03  0.00000000000E+00 0. -1.
         -2   -1    0    0    0  501 -0.00000000000E+00 -0.00000000000E+00 -0.94629804795E+02  0.94629804795E+02  0.00000000000E+00 0.  1.
         25    2    1    2    0    0 -0.49848330806E+02  0.88166997844E+02  0.27014868863E+03  0.31446005456E+03  0.12508611574E+03 0.  0.
          5    1    3    3  502    0 -0.77671268052E+02  0.11897894009E+02  0.11568304877E+03  0.13990863424E+03  0.41800000000E+01 0.  1.
         -5    1    3    3    0  502  0.27822937246E+02  0.76269103834E+02  0.15446563986E+03  0.17455142032E+03  0.41800000000E+01 0.  1.
        -11    1    1    2    0    0 -0.15825493012E+02 -0.44971288812E+02 -0.24253336013E+02  0.53489133048E+02  0.00000000000E+00 0.  1.
         11    1    1    2    0    0  0.65673823818E+02 -0.43195709032E+02  0.12367272632E+02  0.79573047233E+02  0.00000000000E+00 0. -1.
</event>
<event>
 7    1  0.2661133E-009  0.1137036E+03  0.7561462E-02  0.1253861E+00
         -2   -1    0    0    0  501 -0.00000000000E+00  0.00000000000E+00  0.67610868788E+02  0.67610868788E+02  0.00000000000E+00 0.  1.
          2   -1    0    0  501    0  0.00000000000E+00 -0.00000000000E+00 -0.29760014531E+03  0.29760014531E+03  0.00000000000E+00 0. -1.
         25    2    1    2    0    0 -0.91538344634E+02  0.34677430997E+02 -0.16433603932E+03  0.22855084430E+03  0.12508941544E+03 0.  0.
          5    1    3    3  502    0 -0.55740213544E+02 -0.61188884314E+01 -0.16478266868E+03  0.17411264314E+03  0.41800000000E+01 0.  1.
         -5    1    3    3    0  502 -0.35798131090E+02  0.40796319428E+02  0.44662936505E+00  0.54438201166E+02  0.41800000000E+01 0.  1.
        -11    1    1    2    0    0  0.68872475225E+02  0.70722221318E+01 -0.23398652560E+02  0.73081674249E+02  0.00000000000E+00 0. -1.
         11    1    1    2    0    0  0.22665869409E+02 -0.41749653129E+02 -0.42254584644E+02  0.63578495546E+02  0.00000000000E+00 0.  1.
</event>
<event>
 7    1  0.2661133E-009  0.1464091E+03  0.7561462E-02  0.1204956E+00
         -1   -1    0    0    0  501 -0.00000000000E+00  0.00000000000E+00  0.83632577496E+02  0.83632577496E+02  0.00000000000E+00 0.  1.
          1   -1    0    0  501    0  0.00000000000E+00 -0.00000000000E+00 -0.36853334555E+03  0.36853334555E+03  0.00000000000E+00 0. -1.
         25    2    1    2    0    0 -0.73929653881E+02  0.10216305355E+03 -0.77798463987E+02  0.19391505683E+03  0.12509022757E+03 0.  0.
          5    1    3    3  502    0 -0.18433429578E+01  0.61788254008E+02 -0.91051149665E+02  0.11013160537E+03  0.41800000000E+01 0.  1.
         -5    1    3    3    0  502 -0.72086310923E+02  0.40374799538E+02  0.13252685678E+02  0.83783451456E+02  0.41800000000E+01 0.  1.
        -11    1    1    2    0    0  0.82584980095E+02 -0.52810028794E+02 -0.10013311338E+03  0.14012786473E+03  0.00000000000E+00 0. -1.
         11    1    1    2    0    0 -0.86553262138E+01 -0.49353024751E+02 -0.10696919069E+03  0.11812300149E+03  0.00000000000E+00 0.  1.
</event>
<event>
 7    1  0.2661133E-009  0.1286722E+03  0.7561462E-02  0.1229439E+00
          1   -1    0    0  501    0  0.00000000000E+00  0.00000000000E+00  0.59722336208E+03  0.59722336208E+03  0.00000000000E+00 0. -1.
         -1   -1    0    0    0  501 -0.00000000000E+00 -0.00000000000E+00 -0.53046559039E+02  0.53046559039E+02  0.00000000000E+00 0.  1.
         25    2    1    2    0    0 -0.18291507230E+02 -0.69402902815E+02  0.66616392195E+02  0.15885558883E+03  0.12508402071E+03 0.  0.
          5    1    3    3  502    0 -0.30990184308E+02  0.29662872163E+02  0.29469184783E+02  0.52212860103E+02  0.41800000000E+01 0. -1.
         -5    1    3    3    0  502  0.12698677078E+02 -0.99065774978E+02  0.37147207411E+02  0.10664272873E+03  0.41800000000E+01 0. -1.
        -11    1    1    2    0    0  0.18016166349E+02 -0.18821429559E+02  0.78244333986E+02  0.82468201517E+02  0.00000000000E+00 0. -1.
         11    1    1    2    0    0  0.27534088133E+00  0.88224332374E+02  0.39931607686E+03  0.40894613078E+03  0.00000000000E+00 0.  1.
</event>
<event>
 7    1  0.2661133E-009  0.8837796E+02  0.7561462E-02  0.1306828E+00
         -4   -1    0    0    0  501 -0.00000000000E+00  0.00000000000E+00  0.27994269523E+03  0.27994269523E+03  0.00000000000E+00 0. -1.
          4   -1    0    0  501    0  0.00000000000E+00 -0.00000000000E+00 -0.70904660708E+02  0.70904660708E+02  0.00000000000E+00 0.  1.
         25    2    1    2    0    0 -0.50597754260E+01  0.14086098144E+02  0.22435565147E+03  0.25730963793E+03  0.12509505161E+03 0.  0.
          5    1    3    3  502    0 -0.42889842628E+02  0.26624075916E+02  0.20791394906E+03  0.21399547340E+03  0.41800000000E+01 0. -1.
         -5    1    3    3    0  502  0.37830067202E+02 -0.12537977772E+02  0.16441702408E+02  0.43314164533E+02  0.41800000000E+01 0. -1.
        -11    1    1    2    0    0 -0.21182976978E+02 -0.42416703236E+02  0.84974475529E+01  0.48167435493E+02  0.00000000000E+00 0. -1.
         11    1    1    2    0    0  0.26242752404E+02  0.28330605092E+02 -0.23815064500E+02  0.45370282518E+02  0.00000000000E+00 0.  1.
</event>
<event>
 7    1  0.2661133E-009  0.9452456E+02  0.7561462E-02  0.1292251E+00
          2   -1    0    0  501    0  0.00000000000E+00  0.00000000000E+00  0.77878702382E+03  0.77878702382E+03  0.00000000000E+00 0. -1.
         -2   -1    0    0    0  501 -0.00000000000E+00 -0.00000000000E+00 -0.18098952196E+02  0.18098952196E+02  0.00000000000E+00 0.  1.
         25    2    1    2    0    0  0.41273105303E+00  0.45949253726E+02  0.38510413113E+03  0.40751054988E+03  0.12509257445E+03 0.  0.
          5    1    3    3  502    0  0.36264859169E+02  0.30735514494E+01  0.28195496998E+02  0.46228185991E+02  0.41800000000E+01 0. -1.
         -5    1    3    3    0  502 -0.35852128115E+02  0.42875702276E+02  0.35690863414E+03  0.36128236389E+03  0.41800000000E+01 0. -1.
        -11    1    1    2    0    0 -0.30470212655E+02  0.10654701537E+02  0.69175454103E+02  0.76336098763E+02  0.00000000000E+00 0.  1.
         11    1    1    2    0    0  0.30057481602E+02 -0.56603955263E+02  0.30640848638E+03  0.31303932737E+03  0.00000000000E+00 0. -1.
</event>
<event>
 7    1  0.2661133E-009  0.1064476E+03  0.7561462E-02  0.1267293E+00
          2   -1    0    0  501    0  0.00000000000E+00  0.00000000000E+00  0.12433663374E+03  0.12433663374E+03  0.00000000000E+00 0. -1.
         -2   -1    0    0    0  501 -0.00000000000E+00 -0.00000000000E+00 -0.16285374842E+03  0.16285374842E+03  0.00000000000E+00 0.  1.
         25    2    1    2    0    0  0.27640531330E+02 -0.67866505306E+02 -0.97861117004E+01  0.14530447759E+03  0.12509101371E+03 0.  0.
          5    1    3    3  502    0  0.16909302909E+02 -0.57276632666E+02  0.53392802560E+02  0.80217210993E+02  0.41800000000E+01 0.  1.
         -5    1    3    3    0  502  0.10731228421E+02 -0.10589872640E+02 -0.63178914260E+02  0.65087266597E+02  0.41800000000E+01 0.  1.
        -11    1    1    2    0    0 -0.30582500302E+00 -0.32937458622E+02 -0.16154665406E+02  0.36687094786E+02  0.00000000000E+00 0.  1.
         11    1    1    2    0    0 -0.27334706327E+02  0.10080396393E+03 -0.12576337567E+02  0.10519880979E+03  0.00000000000E+00 0. -1.
</event>
<event>
 7    1  0.2661133E-009  0.8961135E+02  0.7561462E-02  0.1303796E+00
         -2   -1    0    0    0  501 -0.00000000000E+00  0.00000000000E+00  0.19876452020E+03  0.19876452020E+03  0.00000000000E+00 0.  1.
          2   -1    0    0  501    0  0.00000000000E+00 -0.00000000000E+00 -0.64479054077E+02  0.64479054077E+02  0.00000000000E+00 0. -1.
         25    2    1    2    0    0 -0.14081288081E+01 -0.20758112552E+02  0.11067285379E+03  0.16831587420E+03  0.12509544707E+03 0.  0.
          5    1    3    3  502    0 -0.25329789199E+02 -0.65098111435E+02  0.37541098492E+02  0.79411389669E+02  0.41800000000E+01 0.  1.
         -5    1    3    3    0  502  0.23921660391E+02  0.44339998883E+02  0.73131755301E+02  0.88904484534E+02  0.41800000000E+01 0.  1.
        -11    1    1    2    0    0 -0.24013000878E+02 -0.26185244176E+01  0.47257723505E+02  0.53073282470E+02  0.00000000000E+00 0.  1.
         11    1    1    2    0    0  0.25421129686E+02  0.23376636969E+02 -0.23645111175E+02  0.41854417604E+02  0.00000000000E+00 0. -1.
</event>
<event>
 7    1  0.2661133E-009  0.1468135E+03  0.7561462E-02  0.1204444E+00
          1   -1    0    0  501    0  0.00000000000E+00  0.00000000000E+00  0.17385743765E+03  0.17385743765E+03  0.00000000000E+00 0. -1.
         -1   -1    0    0    0  501 -0.00000000000E+00 -0.00000000000E+00 -0.29354188440E+03  0.29354188440E+03  0.00000000000E+00 0.  1.
         25    2    1    2    0    0  0.18480821342E+01  0.13802763620E+03  0.84735428392E+02  0.20465153113E+03  0.12508841915E+03 0.  0.
          5    1    3    3  502    0 -0.29530365427E+02  0.59634268058E+02 -0.20411903141E+02  0.69730958683E+02  0.41800000000E+01 0.  1.
         -5    1    3    3    0  502  0.31378447561E+02  0.78393368145E+02  0.10514733153E+03  0.13492057245E+03  0.41800000000E+01 0.  1.
        -11    1    1    2    0    0  0.12215529785E+02 -0.11332589419E+03 -0.20473045099E+03  0.23432143526E+03  0.00000000000E+00 0.  1.
         11    1    1    2    0    0 -0.14063611919E+02 -0.24701742016E+02  0.31057584628E+00  0.28426355662E+02  0.00000000000E+00 0. -1.
</event>
<event>
 7    1  0.2661133E-009  0.9422113E+02  0.7561462E-02  0.1292940E+00
         -2   -1    0    0    0  501 -0.00000000000E+00  0.00000000000E+00  0.93540502161E+02  0.93540502161E+02  0.00000000000E+00 0.  1.
          2   -1    0    0  501    0  0.00000000000E+00 -0.00000000000E+00 -0.15583859445E+03  0.15583859445E+03  0.00000000000E+00 0. -1.
         25    2    1    2    0    0 -0.48880831683E+02 -0.10443045163E+02 -0.49926322129E+02  0.14365890050E+03  0.12508736608E+03 0.  0.
          5    1    3    3  502    0 -0.70802105450E+02 -0.15098046797E+02  0.15692399874E+02  0.74193078970E+02  0.41800000000E+01 0.  1.
         -5    1    3    3    0  502  0.21921273767E+02  0.46550016338E+01 -0.65618722003E+02  0.69465821532E+02  0.41800000000E+01 0.  1.
        -11    1    1    2    0    0  0.87325365312E+01  0.41477279636E+02  0.18581054678E+02  0.46280422569E+02  0.00000000000E+00 0.  1.
         11    1    1    2    0    0  0.40148295151E+02 -0.31034234473E+02 -0.30952824836E+02  0.59439773538E+02  0.00000000000E+00 0. -1.
</event>
<event>
 7    1  0.2661133E-009  0.7704197E+02  0.7561462E-02  0.1337662E+00
          1   -1    0    0  501    0  0.00000000000E+00  0.00000000000E+00  0.97789136720E+02  0.97789136720E+02  0.00000000000E+00 0. -1.
         -1   -1    0    0    0  501 -0.00000000000E+00 -0.00000000000E+00 -0.22085074543E+03  0.22085074543E+03  0.00000000000E+00 0.  1.
         25    2    1    2    0    0  0.40818549469E+02 -0.18760448092E+02  0.32817604033E+02  0.13690332883E+03  0.12508963952E+03 0.  0.
          5    1    3    3  502    0  0.36265935570E+02 -0.30377828984E+02  0.77184915967E+02  0.90625681953E+02  0.41800000000E+01 0.  1.
         -5    1    3    3    0  502  0.45526138989E+01  0.11617380892E+02 -0.44367311934E+02  0.46277646875E+02  0.41800000000E+01 0.  1.
        -11    1    1    2    0    0  0.18898764825E+02  0.27200958828E+02 -0.54866228619E+02  0.64088676971E+02  0.00000000000E+00 0.  1.
         11    1    1    2    0    0 -0.59717314294E+02 -0.84405107354E+01 -0.10101298412E+03  0.11764787635E+03  0.00000000000E+00 0. -1.
</event>
<event>
 7    1  0.2661133E-009  0.9609398E+02  0.7561462E-02  0.1288731E+00
         -2   -1    0    0    0  501 -0.00000000000E+00  0.00000000000E+00  0.13006413371E+03  0.13006413371E+03  0.00000000000E+00 0.  1.
          2   -1    0    0  501    0  0.00000000000E+00 -0.00000000000E+00 -0.10925646985E+03  0.10925646985E+03  0.00000000000E+00 0. -1.
         25    2    1    2    0    0  0.14559416465E+02 -0.72069423738E+01 -0.29437421598E+02  0.12952784857E+03  0.12508790964E+03 0.  0.
          5    1    3    3  502    0  0.12612229394E+02 -0.63368503802E+02 -0.33745630637E+02  0.73012845386E+02  0.41800000000E+01 0.  1.
         -5    1    3    3    0  502  0.19471870715E+01  0.56161561428E+02  0.43082090383E+01  0.56515003182E+02  0.41800000000E+01 0.  1.
        -11    1    1    2    0    0  0.25438821880E+02  0.16113884503E+02 -0.14302018084E+02  0.33336746297E+02  0.00000000000E+00 0. -1.
         11    1    1    2    0    0 -0.39998238345E+02 -0.89069421291E+01  0.64547103548E+02  0.76456008693E+02  0.00000000000E+00 0.  1.
</event>
<event>
 7    1  0.2661133E-009  0.1508012E+03  0.7561462E-02  0.1199492E+00
         -2   -1    0    0    0  501 -0.00000000000E+00  0.00000000000E+00  0.48131690244E+02  0.48131690244E+02  0.00000000000E+00 0.  1.
          2   -1    0    0  501    0  0.00000000000E+00 -0.00000000000E+00 -0.48052462559E+03  0.48052462559E+03  0.00000000000E+00 0. -1.
         25    2    1    2    0    0 -0.80935263303E+02  0.67292934537E+02 -0.25355816030E+03  0.30169134847E+03  0.12508826166E+03 0.  0.
          5    1    3    3  502    0  0.15657994249E+02  0.63138454203E+02 -0.82358391448E+02  0.10503339576E+03  0.41800000000E+01 0.  1.
         -5    1    3    3    0  502 -0.96593257552E+02  0.41544803339E+01 -0.17119976885E+03  0.19665795271E+03  0.41800000000E+01 0.  1.
        -11    1    1    2    0    0  0.96187311466E+02 -0.75541198946E+02 -0.15355416802E+03  0.19630933279E+03  0.00000000000E+00 0.  1.
         11    1    1    2    0    0 -0.15252048163E+02  0.82482644092E+01 -0.25280607026E+02  0.30655634564E+02  0.00000000000E+00 0. -1.
</event>
<event>
 6    1  0.2661133E-009  0.7780017E+02  0.7561462E-02  0.1335413E+00
         -2   -1    0    0    0  501 -0.00000000000E+00  0.00000000000E+00  0.52981509383E+03  0.52981509383E+03  0.00000000000E+00 0.  1.
          2   -1    0    0  501    0  0.00000000000E+00 -0.00000000000E+00 -0.37674818533E+02  0.37674818533E+02  0.00000000000E+00 0. -1.
          5    1    1    2  502    0 -0.95087521220E+01 -0.26467586365E+02  0.29942679772E+03  0.30077371741E+03  0.41800000000E+01 0. -1.
         -5    1    1    2    0  502 -0.14630484149E+02  0.70575260914E+02  0.12313174555E+03  0.14273688270E+03  0.41800000000E+01 0. -1.
        -11    1    1    2    0    0  0.17774057637E+02 -0.10245649852E+02 -0.19599854289E+02  0.28373310592E+02  0.00000000000E+00 0. -1.
         11    1    1    2    0    0  0.63651786336E+01 -0.33862024697E+02  0.89181586316E+02  0.95606001660E+02  0.00000000000E+00 0.  1.
</event>
<event>
 7    1  0.2661133E-009  0.2468521E+03  0.7561462E-02  0.1115311E+00
          1   -1    0    0  501    0  0.00000000000E+00  0.00000000000E+00  0.24358925915E+03  0.24358925915E+03  0.00000000000E+00 0.  1.
         -1   -1    0    0    0  501 -0.00000000000E+00 -0.00000000000E+00 -0.26880522668E+03  0.26880522668E+03  0.00000000000E+00 0. -1.
         25    2    1    2    0    0  0.22765352348E+03  0.33091010550E+02  0.12308319022E+02  0.26214401559E+03  0.12508736332E+03 0.  0.
          5    1    3    3  502    0  0.14811719763E+03 -0.38878790465E+02  0.20153322983E+02  0.15451179052E+03  0.41800000000E+01 0. -1.
         -5    1    3    3    0  502  0.79536325846E+02  0.71969801016E+02 -0.78450039604E+01  0.10763222507E+03  0.41800000000E+01 0. -1.
        -11    1    1    2    0    0 -0.53693239082E+02  0.83488041146E+01  0.26307444720E+02  0.60371749196E+02  0.00000000000E+00 0.  1.
         11    1    1    2    0    0 -0.17396028439E+03 -0.41439814665E+02 -0.63831731272E+02  0.18987872104E+03  0.00000000000E+00 0. -1.
</event>
<event>
 7    1  0.2661133E-009  0.1491010E+03  0.7561462E-02  0.1201582E+00
          3   -1    0    0  501    0  0.00000000000E+00  0.00000000000E+00  0.61709930498E+02  0.61709930498E+02  0.00000000000E+00 0. -1.
         -3   -1    0    0    0  501 -0.00000000000E+00 -0.00000000000E+00 -0.61854136222E+03  0.61854136222E+03  0.00000000000E+00 0.  1.
         25    2    1    2    0    0  0.56582184410E+02  0.91054557516E+02 -0.19919588667E+03  0.25849506670E+03  0.12509285433E+03 0.  0.
          5    1    3    3  502    0  0.66608626696E+02  0.34295584897E+02 -0.18404412164E+03  0.19875262867E+03  0.41800000000E+01 0.  1.
         -5    1    3    3    0  502 -0.10026442287E+02  0.56758972619E+02 -0.15151765032E+02  0.59742438026E+02  0.41800000000E+01 0.  1.
        -11    1    1    2    0    0  0.40611921939E+02 -0.31410228416E+02 -0.27791558132E+03  0.28261811866E+03  0.00000000000E+00 0.  1.
         11    1    1    2    0    0 -0.97194106349E+02 -0.59644329100E+02 -0.79719963723E+02  0.13913810736E+03  0.00000000000E+00 0. -1.
</event>
<event>
 7    1  0.2661133E-009  0.1351313E+03  0.7561462E-02  0.1220034E+00
          2   -1    0    0  501    0  0.00000000000E+00  0.00000000000E+00  0.61246593652E+03  0.61246593652E+03  0.00000000000E+00 0.  1.
         -2   -1    0    0    0  501 -0.00000000000E+00 -0.00000000000E+00 -0.48648064400E+02  0.48648064400E+02  0.00000000000E+00 0. -1.
         25    2    1    2    0    0  0.80396990052E+01  0.10498670325E+03  0.14198863015E+03  0.21655152693E+03  0.12508776162E+03 0.  0.
          5    1    3    3  502    0  0.47859295530E+02  0.14554537904E+02  0.92865272211E+01  0.51049571302E+02  0.41800000000E+01 0. -1.
         -5    1    3    3    0  502 -0.39819596525E+02  0.90432165346E+02  0.13270210292E+03  0.16550195563E+03  0.41800000000E+01 0. -1.
        -11    1    1    2    0    0 -0.23100346817E+02 -0.10348316543E+03  0.41430933415E+03  0.42766180086E+03  0.00000000000E+00 0.  1.
         11    1    1    2    0    0  0.15060647811E+02 -0.15035378186E+01  0.75199078212E+01  0.16900673126E+02  0.00000000000E+00 0. -1.
</event>
<event>
 7    1  0.2661133E-009  0.7546024E+02  0.7561462E-02  0.1342452E+00
          1   -1    0    0  501    0  0.00000000000E+00  0.00000000000E+00  0.11860819045E+03  0.11860819045E+03  0.00000000000E+00 0. -1.
         -1   -1    0    0    0  501 -0.00000000000E+00 -0.00000000000E+00 -0.10826201207E+03  0.10826201207E+03  0.00000000000E+00 0.  1.
         25    2    1    2    0    0  0.87822394445E+00  0.31211149278E+02 -0.30261197283E+01  0.12896391871E+03  0.12509047850E+03 0.  0.
          5    1    3    3  502    0 -0.32881894919E+02  0.52644512067E+02  0.36875341465E+02  0.72318233333E+02  0.41800000000E+01 0. -1.
         -5    1    3    3    0  502  0.33760118863E+02 -0.21433362788E+02 -0.39901461193E+02  0.56645685374E+02  0.41800000000E+01 0. -1.
        -11    1    1    2    0    0 -0.16757881542E+02 -0.43732759134E+01 -0.35748600598E+02  0.39722972959E+02  0.00000000000E+00 0.  1.
         11    1    1    2    0    0  0.15879657598E+02 -0.26837873365E+02  0.49120898706E+02  0.58183310853E+02  0.00000000000E+00 0. -1.
</event>
<event>
 7    1  0.2661133E-009  0.1384852E+03  0.7561462E-02  0.1215382E+00
         -2   -1    0    0    0  501 -0.00000000000E+00  0.00000000000E+00  0.25315701128E+02  0.25315701128E+02  0.00000000000E+00 0.  1.
          2   -1    0    0  501    0  0.00000000000E+00 -0.00000000000E+00 -0.85931536118E+03  0.85931536118E+03  0.00000000000E+00 0. -1.
         25    2    1    2    0    0  0.85190664981E+02  0.35428400554E+02 -0.56345385464E+03  0.58450027627E+03  0.12509078979E+03 0.  0.
          5    1    3    3  502    0  0.39002271026E+02 -0.41611513056E+02 -0.31783367992E+03  0.32293716983E+03  0.41800000000E+01 0. -1.
         -5    1    3    3    0  502  0.46188393955E+02  0.77039913610E+02 -0.24562017472E+03  0.26156310645E+03  0.41800000000E+01 0. -1.
        -11    1    1    2    0    0 -0.86899020343E+02  0.72032913348E+01 -0.17686931315E+03  0.19719554020E+03  0.00000000000E+00 0. -1.
         11    1    1    2    0    0  0.17083553618E+01 -0.42631691889E+02 -0.93676492265E+02  0.10293524583E+03  0.00000000000E+00 0.  1.
</event>
<event>
 7    1  0.2661133E-009  0.1214688E+03  0.7561462E-02  0.1240693E+00
         -2   -1    0    0    0  501 -0.00000000000E+00  0.00000000000E+00  0.50884920070E+03  0.50884920070E+03  0.00000000000E+00 0. -1.
          2   -1    0    0  501    0  0.00000000000E+00 -0.00000000000E+00 -0.84429801442E+02  0.84429801442E+02  0.00000000000E+00 0.  1.
         25    2    1    2    0    0 -0.14914347048E+02 -0.10139916973E+03  0.15926095714E+02  0.16249588281E+03  0.12508813707E+03 0.  0.
          5    1    3    3  502    0  0.20184452952E+02 -0.43295040704E+02  0.63446006467E+02  0.79528239181E+02  0.41800000000E+01 0. -1.
         -5    1    3    3    0  502 -0.35098800000E+02 -0.58104129024E+02 -0.47519910753E+02  0.82967643627E+02  0.41800000000E+01 0. -1.
        -11    1    1    2    0    0  0.33179056544E+02  0.11310776424E+02  0.19822328461E+03  0.20129891708E+03  0.00000000000E+00 0. -1.
         11    1    1    2    0    0 -0.18264709496E+02  0.90088393304E+02  0.21027001893E+03  0.22948420225E+03  0.00000000000E+00 0.  1.
</event>
<event>
 7    1  0.2995616E-009  0.1594917E+03  0.7561462E-02  0.1189272E+00
          1   -1    0    0  501    0  0.00000000000E+00  0.00000000000E+00  0.32113250173E+03  0.32113250173E+03  0.00000000000E+00 0. -1.
         -1   -1    0    0    0  501 -0.00000000000E+00 -0.00000000000E+00 -0.12301862212E+03  0.12301862212E+03  0.00000000000E+00 0.  1.
         25    2    1    2    0    0 -0.13499524117E+03  0.28026347750E+01  0.21170809714E+03  0.28053004679E+03  0.12508084928E+03 0.  0.
          5    1    3    3  502    0 -0.12579248644E+03  0.45653949514E+02  0.12444656820E+03  0.18279073687E+03  0.41800000000E+01 0.  1.
         -5    1    3    3    0  502 -0.92027547268E+01 -0.42851314739E+02  0.87261528940E+02  0.97739309914E+02  0.41800000000E+01 0.  1.
        -11    1    1    2    0    0  0.70892122183E+02  0.18942322993E+02 -0.48004019593E+02  0.87686318688E+02  0.00000000000E+00 0. -1.
         11    1    1    2    0    0  0.64103118982E+02 -0.21744957768E+02  0.34409802056E+02  0.75934758373E+02  0.00000000000E+00 0.  1.
</event>
<event>
 7    1  0.2661133E-009  0.1185380E+03  0.7561462E-02  0.1245529E+00
          2   -1    0    0  501    0  0.00000000000E+00  0.00000000000E+00  0.48953906461E+03  0.48953906461E+03  0.00000000000E+00 0. -1.
         -2   -1    0    0    0  501 -0.00000000000E+00 -0.00000000000E+00 -0.44642490014E+02  0.44642490014E+02  0.00000000000E+00 0.  1.
         25    2    1    2    0    0  0.66727897817E+00 -0.93842197394E+02  0.31075421871E+03  0.34788293892E+03  0.12509017338E+03 0.  0.
          5    1    3    3  502    0  0.30175003292E+02 -0.22381273865E+02  0.24012307460E+03  0.24308026575E+03  0.41800000000E+01 0.  1.
         -5    1    3    3    0  502 -0.29507724313E+02 -0.71460923529E+02  0.70631144107E+02  0.10480267317E+03  0.41800000000E+01 0.  1.
        -11    1    1    2    0    0 -0.22774425568E+02 -0.25839750300E+01  0.47272803264E+01  0.23402960629E+02  0.00000000000E+00 0.  1.
         11    1    1    2    0    0  0.22107146590E+02  0.96426172424E+02  0.12941507557E+03  0.16289565508E+03  0.00000000000E+00 0. -1.
</event>
<event>
 7    1  0.2661133E-009  0.1189535E+03  0.7561462E-02  0.1244833E+00
          2   -1    0    0  501    0  0.00000000000E+00  0.00000000000E+00  0.54285148379E+03  0.54285148379E+03  0.00000000000E+00 0. -1.
         -2   -1    0    0    0  501 -0.00000000000E+00 -0.00000000000E+00 -0.48051512116E+02  0.48051512116E+02  0.00000000000E+00 0.  1.
         25    2    1    2    0    0  0.69071271426E+02  0.90603434133E+02  0.32546085962E+03  0.36681283649E+03  0.12508822109E+03 0.  0.
          5    1    3    3  502    0  0.74431340256E+02  0.80148626381E+02  0.33414517011E+03  0.35161668593E+03  0.41800000000E+01 0. -1.
         -5    1    3    3    0  502 -0.53600688305E+01  0.10454807753E+02 -0.86843104854E+01  0.15196150553E+02  0.41800000000E+01 0. -1.
        -11    1    1    2    0    0 -0.22121412007E+02 -0.46809500964E+02  0.10584794835E+02  0.52844338688E+02  0.00000000000E+00 0.  1.
         11    1    1    2    0    0 -0.46949859419E+02 -0.43793933169E+02  0.15875431722E+03  0.17124582073E+03  0.00000000000E+00 0. -1.
</event>
<event>
 7    1  0.2661133E-009  0.9836340E+02  0.7561462E-02  0.1283776E+00
          3   -1    0    0  501    0  0.00000000000E+00  0.00000000000E+00  0.62428391382E+02  0.62428391382E+02  0.00000000000E+00 0. -1.
         -3   -1    0    0    0  501 -0.00000000000E+00 -0.00000000000E+00 -0.29853331492E+03  0.29853331492E+03  0.00000000000E+00 0.  1.
         25    2    1    2    0    0 -0.14607151668E+02 -0.75796081176E+02 -0.16995034715E+03  0.22469260673E+03  0.12508090270E+03 0.  0.
          5    1    3    3  502    0  0.47003413538E+00 -0.86345350832E+02 -0.43376493088E+02  0.96719869184E+02  0.41800000000E+01 0.  1.
         -5    1    3    3    0  502 -0.15077185803E+02  0.10549269656E+02 -0.12657385406E+03  0.12797273754E+03  0.41800000000E+01 0.  1.
        -11    1    1    2    0    0  0.31130456784E+02  0.63801419165E+02 -0.83414062531E+02  0.10953370374E+03  0.00000000000E+00 0.  1.
         11    1    1    2    0    0 -0.16523305116E+02  0.11994662011E+02  0.17259486140E+02  0.26735395837E+02  0.00000000000E+00 0. -1.
</event>
<event>
 7    1  0.2661133E-009  0.6844691E+02  0.7561462E-02  0.1365455E+00
          1   -1    0    0  501    0  0.00000000000E+00  0.00000000000E+00  0.57194922781E+03  0.57194922781E+03  0.00000000000E+00 0. -1.
         -1   -1    0    0    0  501 -0.00000000000E+00 -0.00000000000E+00 -0.28526331579E+02  0.28526331579E+02  0.00000000000E+00 0.  1.
         25    2    1    2    0    0 -0.44036873173E+02 -0.20499555504E+02  0.41909272480E+03  0.44005191696E+03  0.12508996630E+03 0.  0.
          5    1    3    3  502    0 -0.52585625594E+02  0.12294428065E+02  0.66310645500E+02  0.85621113560E+02  0.41800000000E+01 0.  1.
         -5    1    3    3    0  502  0.85487524212E+01 -0.32793983569E+02  0.35278207930E+03  0.35443080340E+03  0.41800000000E+01 0.  1.
        -11    1    1    2    0    0  0.31597504923E+02  0.14286138237E+02  0.13717726253E+03  0.14149239350E+03  0.00000000000E+00 0. -1.
         11    1    1    2    0    0  0.12439368251E+02  0.62134172668E+01 -0.12847091092E+02  0.18931248932E+02  0.00000000000E+00 0.  1.
</event>
<event>
 7    1  0.2661133E-009  0.2700322E+03  0.7561462E-02  0.1101261E+00
          2   -1    0    0  501    0  0.00000000000E+00  0.00000000000E+00  0.25046842678E+04  0.25046842678E+04  0.00000000000E+00 0. -1.
         -2   -1    0    0    0  501 -0.00000000000E+00 -0.00000000000E+00 -0.32705713490E+02  0.32705713490E+02  0.00000000000E+00 0.  1.
         25    2    1    2    0    0  0.17269506460E+03 -0.19954568995E+03  0.12517479155E+04  0.12853645459E+04  0.12508838563E+03 0.  0.
          5    1    3    3  502    0  0.16719622629E+03 -0.16464364827E+03  0.84263810657E+03  0.87471055786E+03  0.41800000000E+01 0. -1.
         -5    1    3    3    0  502  0.54988383179E+01 -0.34902041681E+02  0.40910980895E+03  0.41065398807E+03  0.41800000000E+01 0. -1.
        -11    1    1    2    0    0 -0.81037866722E+01  0.39133823787E+02  0.87229122036E+02  0.95948148778E+02  0.00000000000E+00 0.  1.
         11    1    1    2    0    0 -0.16459127793E+03  0.16041186616E+03  0.11330015167E+04  0.11560772866E+04  0.00000000000E+00 0. -1.
</event>
<event>
 7    1  0.2661133E-009  0.7770667E+02  0.7561462E-02  0.1335688E+00
          2   -1    0    0  501    0  0.00000000000E+00  0.00000000000E+00  0.39966065124E+03  0.39966065124E+03  0.00000000000E+00 0. -1.
         -2   -1    0    0    0  501 -0.00000000000E+00 -0.00000000000E+00 -0.38554646283E+02  0.38554646283E+02  0.00000000000E+00 0.  1.
         25    2    1    2    0    0  0.45177810343E+02 -0.14447347337E+00  0.13845583704E+03  0.19198185029E+03  0.12508379836E+03 0.  0.
          5    1    3    3  502    0  0.31236248259E+02 -0.29813255455E+02 -0.59992861411E+01  0.43794945374E+02  0.41800000000E+01 0.  1.
         -5    1    3    3    0  502  0.13941562084E+02  0.29668781982E+02  0.14445512318E+03  0.14818690492E+03  0.41800000000E+01 0.  1.
        -11    1    1    2    0    0 -0.14378796672E+02 -0.31622797671E+02  0.22819680030E+02  0.41563071625E+02  0.00000000000E+00 0.  1.
         11    1    1    2    0    0 -0.30799013671E+02  0.31767271144E+02  0.19983048789E+03  0.20467037560E+03  0.00000000000E+00 0. -1.
</event>
<event>
 7    1  0.2661133E-009  0.1056478E+03  0.7561462E-02  0.1268849E+00
         -1   -1    0    0    0  501 -0.00000000000E+00  0.00000000000E+00  0.12524251156E+02  0.12524251156E+02  0.00000000000E+00 0.  1.
          1   -1    0    0  501    0  0.00000000000E+00 -0.00000000000E+00 -0.16206733896E+04  0.16206733896E+04  0.00000000000E+00 0. -1.
         25    2    1    2    0    0 -0.39141862683E+02 -0.50794117730E+01 -0.13499655381E+04  0.13563229906E+04  0.12508882770E+03 0.  0.
          5    1    3    3  502    0 -0.66654387942E+02 -0.31534741600E+02 -0.49337649195E+03  0.49887381427E+03  0.41800000000E+01 0. -1.
         -5    1    3    3    0  502  0.27512525259E+02  0.26455329827E+02 -0.85658904618E+03  0.85744917631E+03  0.41800000000E+01 0. -1.
        -11    1    1    2    0    0  0.37117339965E+02  0.45416782492E+02 -0.17126966472E+03  0.18103502178E+03  0.00000000000E+00 0. -1.
         11    1    1    2    0    0  0.20245227182E+01 -0.40337370719E+02 -0.86913935573E+02  0.95839628367E+02  0.00000000000E+00 0.  1.
</event>
<event>
 7    1  0.2661133E-009  0.7344243E+02  0.7561462E-02  0.1348763E+00
          1   -1    0    0  501    0  0.00000000000E+00  0.00000000000E+00  0.31903034134E+02  0.31903034134E+02  0.00000000000E+00 0. -1.
         -1   -1    0    0    0  501 -0.00000000000E+00 -0.00000000000E+00 -0.38769401564E+03  0.38769401564E+03  0.00000000000E+00 0.  1.
         25    2    1    2    0    0  0.27854050024E+02 -0.13132738080E+02 -0.19909571944E+03  0.23714478968E+03  0.12510087473E+03 0.  0.
          5    1    3    3  502    0  0.11791568665E+02 -0.48044768586E+02 -0.19342192713E+02  0.53281645048E+02  0.41800000000E+01 0.  1.
         -5    1    3    3    0  502  0.16062481359E+02  0.34912030506E+02 -0.17975352673E+03  0.18386314463E+03  0.41800000000E+01 0.  1.
        -11    1    1    2    0    0 -0.70855005330E+01  0.30621292017E+02 -0.95878372303E+01  0.32860226191E+02  0.00000000000E+00 0. -1.
         11    1    1    2    0    0 -0.20768549491E+02 -0.17488553936E+02 -0.14710742483E+03  0.14959203390E+03  0.00000000000E+00 0.  1.
</event>
<event>
 7    1  0.2661133E-009  0.1049606E+03  0.7561462E-02  0.1270197E+00
         -2   -1    0    0    0  501 -0.00000000000E+00  0.00000000000E+00  0.36521721733E+02  0.36521721733E+02  0.00000000000E+00 0.  1.
          2   -1    0    0  501    0  0.00000000000E+00 -0.00000000000E+00 -0.43113952874E+03  0.43113952874E+03  0.00000000000E+00 0. -1.
         25    2    1    2    0    0  0.44222361402E+02 -0.56901528156E+01 -0.32463597358E+03  0.35074926193E+03  0.12509410185E+03 0.  0.
          5    1    3    3  502    0  0.81241449448E+02  0.24330979221E+02 -0.21212569419E+03  0.22848840713E+03  0.41800000000E+01 0. -1.
         -5    1    3    3    0  502 -0.37019088046E+02 -0.30021132037E+02 -0.11251027940E+03  0.12226085481E+03  0.41800000000E+01 0. -1.
        -11    1    1    2    0    0 -0.51785693407E+02  0.24207381507E+02 -0.16026531303E+02  0.59368384404E+02  0.00000000000E+00 0.  1.
         11    1    1    2    0    0  0.75633320056E+01 -0.18517228692E+02 -0.53955302120E+02  0.57543604131E+02  0.00000000000E+00 0. -1.
</event>
<event>
 7    1  0.2661133E-009  0.8901460E+02  0.7561462E-02  0.1305256E+00
         -3   -1    0    0    0  501 -0.00000000000E+00  0.00000000000E+00  0.33064482938E+02  0.33064482938E+02  0.00000000000E+00 0.  1.
          3   -1    0    0  501    0  0.00000000000E+00 -0.00000000000E+00 -0.49090039218E+03  0.49090039218E+03  0.00000000000E+00 0. -1.
         25    2    1    2    0    0  0.23867352066E+01 -0.55670810956E+02 -0.32902034173E+03  0.35637835045E+03  0.12508480204E+03 0.  0.
          5    1    3    3  502    0  0.19371622261E+01 -0.62905698044E+02 -0.33815692078E+03  0.34398903313E+03  0.41800000000E+01 0.  1.
         -5    1    3    3    0  502  0.44957298043E+00  0.72348870889E+01  0.91365790456E+01  0.12389317322E+02  0.41800000000E+01 0.  1.
        -11    1    1    2    0    0 -0.44563352411E+02  0.12612205532E+02 -0.64936229689E+02  0.79760103014E+02  0.00000000000E+00 0.  1.
         11    1    1    2    0    0  0.42176617205E+02  0.43058605423E+02 -0.63879337820E+02  0.87826421652E+02  0.00000000000E+00 0. -1.
</event>
<event>
 7    1  0.2661133E-009  0.2374849E+03  0.7561462E-02  0.1121480E+00
         -2   -1    0    0    0  501 -0.00000000000E+00  0.00000000000E+00  0.73256367905E+02  0.73256367905E+02  0.00000000000E+00 0. -1.
          2   -1    0    0  501    0  0.00000000000E+00 -0.00000000000E+00 -0.89202931728E+03  0.89202931728E+03  0.00000000000E+00 0.  1.
         25    2    1    2    0    0 -0.14506829669E+03  0.17039161076E+03 -0.32168042428E+03  0.41134471031E+03  0.12509222043E+03 0.  0.
          5    1    3    3  502    0 -0.49901024476E+02  0.18753374724E+02 -0.13884594743E+02  0.55245413189E+02  0.41800000000E+01 0. -1.
         -5    1    3    3    0  502 -0.95167272210E+02  0.15163823604E+03 -0.30779582953E+03  0.35609929712E+03  0.41800000000E+01 0. -1.
        -11    1    1    2    0    0  0.15698990763E+03 -0.16858673411E+03 -0.45271925056E+03  0.50795869699E+03  0.00000000000E+00 0.  1.
         11    1    1    2    0    0 -0.11921610940E+02 -0.18048766495E+01 -0.44373274536E+02  0.45982277892E+02  0.00000000000E+00 0. -1.
</event>
<event>
 7    1  0.2661133E-009  0.1623488E+03  0.7561462E-02  0.1186070E+00
          1   -1    0    0  501    0  0.00000000000E+00  0.00000000000E+00  0.56547043713E+03  0.56547043713E+03  0.00000000000E+00 0. -1.
         -1   -1    0    0    0  501 -0.00000000000E+00 -0.00000000000E+00 -0.76375067719E+02  0.76375067719E+02  0.00000000000E+00 0.  1.
         25    2    1    2    0    0 -0.13155198520E+03 -0.58678915133E+02  0.41044239607E+03  0.45261753836E+03  0.12510210092E+03 0.  0.
          5    1    3    3  502    0 -0.69519418408E+01  0.19755764949E+02  0.59905093545E+01  0.22180584898E+02  0.41800000000E+01 0. -1.
         -5    1    3    3    0  502 -0.12460004336E+03 -0.78434680083E+02  0.40445188671E+03  0.43043695347E+03  0.41800000000E+01 0. -1.
        -11    1    1    2    0    0  0.74252092688E+00  0.19479645397E+02  0.44325758878E+02  0.48422936943E+02  0.00000000000E+00 0. -1.
         11    1    1    2    0    0  0.13080946427E+03  0.39199269736E+02  0.34327214471E+02  0.14080502954E+03  0.00000000000E+00 0.  1.
</event>
<event>
 7    1  0.2661133E-009  0.1204829E+03  0.7561462E-02  0.1242302E+00
         -1   -1    0    0    0  501 -0.00000000000E+00  0.00000000000E+00  0.65348764683E+02  0.65348764683E+02  0.00000000000E+00 0.  1.
          1   -1    0    0  501    0  0.00000000000E+00 -0.00000000000E+00 -0.31411301329E+03  0.31411301329E+03  0.00000000000E+00 0. -1.
         25    2    1    2    0    0  0.26900793561E+01  0.37523467265E+02 -0.30089484052E+02  0.13404161928E+03  0.12508609646E+03 0.  0.
          5    1    3    3  502    0  0.19413914126E+02 -0.43210313144E+02 -0.16740087256E+02  0.50415614099E+02  0.41800000000E+01 0. -1.
         -5    1    3    3    0  502 -0.16723834770E+02  0.80733780408E+02 -0.13349396796E+02  0.83626005185E+02  0.41800000000E+01 0. -1.
        -11    1    1    2    0    0  0.24018246981E+02  0.29890691367E+02 -0.87605859449E+02  0.95630101057E+02  0.00000000000E+00 0. -1.
         11    1    1    2    0    0 -0.26708326337E+02 -0.67414158632E+02 -0.13106890511E+03  0.14979005763E+03  0.00000000000E+00 0.  1.
</event>
<event>
 7    1  0.2661133E-009  0.7846095E+02  0.7561462E-02  0.1333477E+00
         -3   -1    0    0    0  501 -0.00000000000E+00  0.00000000000E+00  0.86346972503E+02  0.86346972503E+02  0.00000000000E+00 0.  1.
          3   -1    0    0  501    0  0.00000000000E+00 -0.00000000000E+00 -0.18812213904E+03  0.18812213904E+03  0.00000000000E+00 0. -1.
         25    2    1    2    0    0 -0.99241417798E+01  0.61249408825E+02 -0.84984183478E+02  0.16346193347E+03  0.12509002191E+03 0.  0.
          5    1    3    3  502    0  0.11020277505E+02  0.64213184631E+02 -0.11154789958E+03  0.12924854312E+03  0.41800000000E+01 0. -1.
         -5    1    3    3    0  502 -0.20944419285E+02 -0.29637758062E+01  0.26563716103E+02  0.34213390352E+02  0.41800000000E+01 0. -1.
        -11    1    1    2    0    0  0.20711330328E+02 -0.51596870195E+02  0.29194367553E+02  0.62797351176E+02  0.00000000000E+00 0.  1.
         11    1    1    2    0    0 -0.10787188548E+02 -0.96525386297E+01 -0.45985350614E+02  0.48209826902E+02  0.00000000000E+00 0. -1.
</event>
<event>
 7    1  0.2661133E-009  0.1195683E+03  0.7561462E-02  0.1243811E+00
         -2   -1    0    0    0  501 -0.00000000000E+00  0.00000000000E+00  0.38605535432E+02  0.38605535432E+02  0.00000000000E+00 0. -1.
          2   -1    0    0  501    0  0.00000000000E+00 -0.00000000000E+00 -0.16762846829E+04  0.16762846829E+04  0.00000000000E+00 0.  1.
         25    2    1    2    0    0  0.80009756912E+02 -0.24010502309E+02 -0.15620745559E+04  0.15693001564E+04  0.12509195544E+03 0.  0.
          5    1    3    3  502    0  0.85691418456E+02 -0.42923208984E+02 -0.65372194084E+03  0.66072329262E+03  0.41800000000E+01 0.  1.
         -5    1    3    3    0  502 -0.56816615435E+01  0.18912706675E+02 -0.90835261505E+03  0.90857686379E+03  0.41800000000E+01 0.  1.
        -11    1    1    2    0    0 -0.96033992399E+02  0.36465548368E+02 -0.70723332019E+02  0.12471589155E+03  0.00000000000E+00 0.  1.
         11    1    1    2    0    0  0.16024235487E+02 -0.12455046059E+02 -0.48812596036E+01  0.20874170417E+02  0.00000000000E+00 0. -1.
</event>
<event>
 7    1  0.2661133E-009  0.2628478E+03  0.7561462E-02  0.1105444E+00
         -1   -1    0    0    0  501 -0.00000000000E+00  0.00000000000E+00  0.96403063418E+02  0.96403063418E+02  0.00000000000E+00 0.  1.
          1   -1    0    0  501    0  0.00000000000E+00 -0.00000000000E+00 -0.80138761576E+03  0.80138761576E+03  0.00000000000E+00 0. -1.
         25    2    1    2    0    0  0.55861724395E+02 -0.24839478500E+03 -0.37985391612E+03  0.47409306116E+03  0.12511886979E+03 0.  0.
          5    1    3    3  502    0 -0.19643709620E+02 -0.10327376211E+03 -0.22687185439E+03  0.25007929939E+03  0.41800000000E+01 0.  1.
         -5    1    3    3    0  502  0.75505434016E+02 -0.14512102289E+03 -0.15298206173E+03  0.22401376176E+03  0.41800000000E+01 0.  1.
        -11    1    1    2    0    0  0.35296755925E+01  0.39915793729E+02 -0.11505095251E+03  0.12182959769E+03  0.00000000000E+00 0. -1.
         11    1    1    2    0    0 -0.59391399988E+02  0.20847899127E+03 -0.21007968371E+03  0.30186802034E+03  0.00000000000E+00 0.  1.
</event>
<event>
 7    1  0.2661133E-009  0.1459952E+03  0.7561462E-02  0.1205482E+00
          4   -1    0    0  501    0  0.00000000000E+00  0.00000000000E+00  0.11160315826E+03  0.11160315826E+03  0.00000000000E+00 0. -1.
         -4   -1    0    0    0  501 -0.00000000000E+00 -0.00000000000E+00 -0.26968864337E+03  0.26968864337E+03  0.00000000000E+00 0.  1.
         25    2    1    2    0    0 -0.94073910825E+01 -0.10631064182E+03 -0.17306022484E+03  0.23872084337E+03  0.12508936032E+03 0.  0.
          5    1    3    3  502    0  0.48121346208E+01 -0.13265207616E+03 -0.15220651522E+03  0.20200006343E+03  0.41800000000E+01 0.  1.
         -5    1    3    3    0  502 -0.14219525703E+02  0.26341434342E+02 -0.20853709624E+02  0.36720779942E+02  0.41800000000E+01 0.  1.
        -11    1    1    2    0    0 -0.31573756889E+02  0.39304132946E+02  0.35170585918E+02  0.61471026546E+02  0.00000000000E+00 0. -1.
         11    1    1    2    0    0  0.40981147972E+02  0.67006508872E+02 -0.20195846184E+02  0.81099931710E+02  0.00000000000E+00 0.  1.
</event>
<event>
 7    1  0.2661133E-009  0.9043780E+02  0.7561462E-02  0.1301795E+00
          2   -1    0    0  501    0  0.00000000000E+00  0.00000000000E+00  0.10861883776E+03  0.10861883776E+03  0.00000000000E+00 0. -1.
         -2   -1    0    0    0  501 -0.00000000000E+00 -0.00000000000E+00 -0.11071467758E+03  0.11071467758E+03  0.00000000000E+00 0.  1.
         25    2    1    2    0    0 -0.59673674153E+01 -0.14980917734E+02  0.15074713380E+02  0.12702183759E+03  0.12508901979E+03 0.  0.
          5    1    3    3  502    0  0.26415953513E+02 -0.49145319055E+02  0.44379586141E+02  0.71414879759E+02  0.41800000000E+01 0. -1.
         -5    1    3    3    0  502 -0.32383320928E+02  0.34164401321E+02 -0.29304872761E+02  0.55606957833E+02  0.41800000000E+01 0. -1.
        -11    1    1    2    0    0 -0.30340029673E+02  0.25750989317E+02  0.15092822905E+02  0.42560828876E+02  0.00000000000E+00 0. -1.
         11    1    1    2    0    0  0.36307397088E+02 -0.10770071583E+02 -0.32263376106E+02  0.49750848867E+02  0.00000000000E+00 0.  1.
</event>
<event>
 7    1  0.2661133E-009  0.7766832E+02  0.7561462E-02  0.1335802E+00
         -1   -1    0    0    0  501 -0.00000000000E+00  0.00000000000E+00  0.23911067472E+02  0.23911067472E+02  0.00000000000E+00 0.  1.
          1   -1    0    0  501    0  0.00000000000E+00 -0.00000000000E+00 -0.49653778238E+03  0.49653778238E+03  0.00000000000E+00 0. -1.
         25    2    1    2    0    0  0.37304822707E+01 -0.24280299340E+01 -0.28336840287E+03  0.30978470302E+03  0.12509635746E+03 0.  0.
          5    1    3    3  502    0  0.16371110953E+02  0.28518402602E+02 -0.27232055482E+03  0.27433058441E+03  0.41800000000E+01 0.  1.
         -5    1    3    3    0  502 -0.12640628682E+02 -0.30946432536E+02 -0.11047848049E+02  0.35454118614E+02  0.41800000000E+01 0.  1.
        -11    1    1    2    0    0 -0.42579639228E+02  0.18541567756E+02 -0.68225588070E+02  0.82532092419E+02  0.00000000000E+00 0.  1.
         11    1    1    2    0    0  0.38849156958E+02 -0.16113537822E+02 -0.12103272396E+03  0.12813205441E+03  0.00000000000E+00 0. -1.
</event>
<event>
 7    1  0.2661133E-009  0.6331853E+02  0.7561462E-02  0.1384411E+00
         -2   -1    0    0    0  501 -0.00000000000E+00  0.00000000000E+00  0.11187678720E+03  0.11187678720E+03  0.00000000000E+00 0.  1.
          2   -1    0    0  501    0  0.00000000000E+00 -0.00000000000E+00 -0.11461239628E+03  0.11461239628E+03  0.00000000000E+00 0. -1.
         25    2    1    2    0    0  0.35660735134E+02 -0.59526937269E+01 -0.45964487995E+02  0.13808485948E+03  0.12509025409E+03 0.  0.
          5    1    3    3  502    0  0.62461927954E+02 -0.85811739905E+01 -0.75129811074E+02  0.98168680865E+02  0.41800000000E+01 0. -1.
         -5    1    3    3    0  502 -0.26801192820E+02  0.26284802636E+01  0.29165323078E+02  0.39916178616E+02  0.41800000000E+01 0. -1.
        -11    1    1    2    0    0 -0.16886262652E+02  0.19199502375E+01  0.60337736406E+02  0.62685520736E+02  0.00000000000E+00 0.  1.
         11    1    1    2    0    0 -0.18774472482E+02  0.40327434894E+01 -0.17108857492E+02  0.25718803271E+02  0.00000000000E+00 0. -1.
</event>
<event>
 7    1  0.2661133E-009  0.1457838E+03  0.7561462E-02  0.1205752E+00
          3   -1    0    0  501    0  0.00000000000E+00  0.00000000000E+00  0.77754551702E+02  0.77754551702E+02  0.00000000000E+00 0. -1.
         -3   -1    0    0    0  501 -0.00000000000E+00 -0.00000000000E+00 -0.38821489971E+03  0.38821489971E+03  0.00000000000E+00 0.  1.
         25    2    1    2    0    0 -0.12381350592E+03 -0.35015980764E+01 -0.23969626077E+03  0.29739392214E+03  0.12508717784E+03 0.  0.
          5    1    3    3  502    0  0.35487350110E+01 -0.14042161107E+02  0.91388737846E+01  0.17628591061E+02  0.41800000000E+01 0. -1.
         -5    1    3    3    0  502 -0.12736224093E+03  0.10540563031E+02 -0.24883513455E+03  0.27976533108E+03  0.41800000000E+01 0. -1.
        -11    1    1    2    0    0  0.94677492931E+02  0.39265623566E+02 -0.66652462462E+02  0.12226269919E+03  0.00000000000E+00 0.  1.
         11    1    1    2    0    0  0.29136012992E+02 -0.35764025489E+02 -0.41116247844E+01  0.46312830087E+02  0.00000000000E+00 0. -1.
</event>
<event>
 7    1  0.2661133E-009  0.1019802E+03  0.7561462E-02  0.1276186E+00
          2   -1    0    0  501    0  0.00000000000E+00  0.00000000000E+00  0.17587487513E+03  0.17587487513E+03  0.00000000000E+00 0. -1.
         -2   -1    0    0    0  501 -0.00000000000E+00 -0.00000000000E+00 -0.74106126272E+02  0.74106126272E+02  0.00000000000E+00 0.  1.
         25    2    1    2    0    0  0.15534603242E+02  0.54809699658E+01  0.27567922661E+02  0.12914648958E+03  0.12508980966E+03 0.  0.
          5    1    3    3  502    0  0.47556376404E+02  0.50881855715E+02  0.21983984378E+02  0.73152854673E+02  0.41800000000E+01 0. -1.
         -5    1    3    3    0  502 -0.32021773162E+02 -0.45400885749E+02  0.55839382833E+01  0.55993634906E+02  0.41800000000E+01 0. -1.
        -11    1    1    2    0    0  0.29204653458E+02  0.10398682395E+02 -0.19890527522E+01  0.31064460562E+02  0.00000000000E+00 0.  1.
         11    1    1    2    0    0 -0.44739256700E+02 -0.15879652360E+02  0.76189878949E+02  0.89770051261E+02  0.00000000000E+00 0. -1.
</event>
<event>
 7    1  0.2661133E-009  0.8549570E+02  0.7561462E-02  0.1314141E+00
          2   -1    0    0  501    0  0.00000000000E+00  0.00000000000E+00  0.24794651435E+03  0.24794651435E+03  0.00000000000E+00 0. -1.
         -2   -1    0    0    0  501 -0.00000000000E+00 -0.00000000000E+00 -0.46505001898E+02  0.46505001898E+02  0.00000000000E+00 0.  1.
         25    2    1    2    0    0 -0.17322448951E+02  0.12361337188E+02  0.14844296180E+03  0.19528452749E+03  0.12509142207E+03 0.  0.
          5    1    3    3  502    0 -0.51751783525E+02 -0.22176875959E+02  0.13213774909E+03  0.14369383446E+03  0.41800000000E+01 0. -1.
         -5    1    3    3    0  502  0.34429334574E+02  0.34538213147E+02  0.16305212703E+02  0.51590693035E+02  0.41800000000E+01 0. -1.
        -11    1    1    2    0    0  0.30779683178E+02  0.15635808029E+02  0.58201927570E+02  0.67670760024E+02  0.00000000000E+00 0.  1.
         11    1    1    2    0    0 -0.13457234228E+02 -0.27997145217E+02 -0.52033769106E+01  0.31496228737E+02  0.00000000000E+00 0. -1.
</event>
<event>
 7    1  0.2661133E-009  0.1294557E+03  0.7561462E-02  0.1228266E+00
          2   -1    0    0  501    0  0.00000000000E+00  0.00000000000E+00  0.21727547183E+03  0.21727547183E+03  0.00000000000E+00 0. -1.
         -2   -1    0    0    0  501 -0.00000000000E+00 -0.00000000000E+00 -0.93625274143E+02  0.93625274143E+02  0.00000000000E+00 0.  1.
         25    2    1    2    0    0  0.86941776189E+02 -0.12865294251E+02  0.33498941534E+02  0.15650658412E+03  0.12509094110E+03 0.  0.
          5    1    3    3  502    0  0.41099800636E+02 -0.68239198940E+02  0.26955918535E+02  0.84201400394E+02  0.41800000000E+01 0. -1.
         -5    1    3    3    0  502  0.45841975553E+02  0.55373904689E+02  0.65430229988E+01  0.72305183722E+02  0.41800000000E+01 0. -1.
        -11    1    1    2    0    0 -0.22558819798E+02  0.32733521141E+02 -0.25009574578E+01  0.39832631663E+02  0.00000000000E+00 0.  1.
         11    1    1    2    0    0 -0.64382956391E+02 -0.19868226890E+02  0.92652213616E+02  0.11456153020E+03  0.00000000000E+00 0. -1.
</event>
<event>
 7    1  0.2661133E-009  0.1409464E+03  0.7561462E-02  0.1212061E+00
         -1   -1    0    0    0  501 -0.00000000000E+00  0.00000000000E+00  0.23156641787E+02  0.23156641787E+02  0.00000000000E+00 0.  1.
          1   -1    0    0  501    0  0.00000000000E+00 -0.00000000000E+00 -0.20395463963E+04  0.20395463963E+04  0.00000000000E+00 0. -1.
         25    2    1    2    0    0 -0.71986525233E+02 -0.10427037420E+03 -0.17071824610E+04  0.17164422681E+04  0.12509090191E+03 0.  0.
          5    1    3    3  502    0 -0.61900669573E+02 -0.87137417523E+02 -0.62630821525E+03  0.63537711268E+03  0.41800000000E+01 0.  1.
         -5    1    3    3    0  502 -0.10085855660E+02 -0.17132956673E+02 -0.10808742458E+04  0.10810651554E+04  0.41800000000E+01 0.  1.
        -11    1    1    2    0    0  0.64634798748E+02  0.12052885919E+03 -0.25758607145E+03  0.29164267060E+03  0.00000000000E+00 0.  1.
         11    1    1    2    0    0  0.73517264847E+01 -0.16258484991E+02 -0.51621222036E+02  0.54618099390E+02  0.00000000000E+00 0. -1.
</event>
<event>
 7    1  0.2979818E-009  0.1351241E+03  0.7561462E-02  0.1220045E+00
          2   -1    0    0  501    0  0.00000000000E+00  0.00000000000E+00  0.34905983481E+03  0.34905983481E+03  0.00000000000E+00 0. -1.
         -2   -1    0    0    0  501 -0.00000000000E+00 -0.00000000000E+00 -0.84461003105E+02  0.84461003105E+02  0.00000000000E+00 0.  1.
         25    2    1    2    0    0  0.55867756728E+02  0.87191785347E+02  0.35674888592E+02  0.16626425756E+03  0.12508993561E+03 0.  0.
          5    1    3    3  502    0  0.18597282369E+02 -0.24928554692E+02  0.36368338586E+02  0.48035613893E+02  0.41800000000E+01 0.  1.
         -5    1    3    3    0  502  0.37270474359E+02  0.11212034004E+03 -0.69344999375E+00  0.11822864366E+03  0.41800000000E+01 0.  1.
        -11    1    1    2    0    0 -0.28814388594E+02 -0.88979003937E+02  0.10593365770E+03  0.14131338211E+03  0.00000000000E+00 0.  1.
         11    1    1    2    0    0 -0.27053368133E+02  0.17872185899E+01  0.12299028542E+03  0.12594319825E+03  0.00000000000E+00 0. -1.
</event>
<event>
 7    1  0.2661133E-009  0.1018452E+03  0.7561462E-02  0.1276463E+00
         -2   -1    0    0    0  501 -0.00000000000E+00  0.00000000000E+00  0.47769138898E+02  0.47769138898E+02  0.00000000000E+00 0.  1.
          2   -1    0    0  501    0  0.00000000000E+00 -0.00000000000E+00 -0.26775393266E+03  0.26775393266E+03  0.00000000000E+00 0. -1.
         25    2    1    2    0    0 -0.15669397091E+02  0.27379092309E+02 -0.14130292884E+03  0.19134564313E+03  0.12510592609E+03 0.  0.
          5    1    3    3  502    0 -0.90485123546E+01  0.66849445662E+02 -0.13451088388E+03  0.15053695308E+03  0.41800000000E+01 0. -1.
         -5    1    3    3    0  502 -0.66208847368E+01 -0.39470353354E+02 -0.67920449657E+01  0.40808690047E+02  0.41800000000E+01 0. -1.
        -11    1    1    2    0    0 -0.25724777487E+02 -0.44232369355E+02 -0.46043517840E+02  0.68835108851E+02  0.00000000000E+00 0.  1.
         11    1    1    2    0    0  0.41394174579E+02  0.16853277046E+02 -0.32638347076E+02  0.55342319576E+02  0.00000000000E+00 0. -1.
</event>
<event>
 7    1  0.2661133E-009  0.9673821E+02  0.7561462E-02  0.1287308E+00
          2   -1    0    0  501    0  0.00000000000E+00  0.00000000000E+00  0.56786450410E+02  0.56786450410E+02  0.00000000000E+00 0. -1.
         -2   -1    0    0    0  501 -0.00000000000E+00 -0.00000000000E+00 -0.25897580484E+03  0.25897580484E+03  0.00000000000E+00 0.  1.
         25    2    1    2    0    0 -0.39638848438E+02  0.36420930060E+02 -0.10116162450E+03  0.16964435189E+03  0.12509120434E+03 0.  0.
          5    1    3    3  502    0 -0.78179884721E+02 -0.35668655779E+01 -0.73554388702E+02  0.10748273072E+03  0.41800000000E+01 0. -1.
         -5    1    3    3    0  502  0.38541036284E+02  0.39987795638E+02 -0.27607235801E+02  0.62161621169E+02  0.41800000000E+01 0. -1.
        -11    1    1    2    0    0 -0.21883767339E+00 -0.13357699736E+02  0.15712109363E+02  0.20623928161E+02  0.00000000000E+00 0. -1.
         11    1    1    2    0    0  0.39857686111E+02 -0.23063230324E+02 -0.11673983929E+03  0.12549397521E+03  0.00000000000E+00 0.  1.
</event>
<event>
 7    1  0.2661133E-009  0.9869483E+02  0.7561462E-02  0.1283065E+00
         -2   -1    0    0    0  501 -0.00000000000E+00  0.00000000000E+00  0.15510914578E+03  0.15510914578E+03  0.00000000000E+00 0.  1.
          2   -1    0    0  501    0  0.00000000000E+00 -0.00000000000E+00 -0.80043487902E+02  0.80043487902E+02  0.00000000000E+00 0. -1.
         25    2    1    2    0    0  0.17371541832E+01  0.62244007004E+01  0.22183408975E+02  0.12720682077E+03  0.12509081001E+03 0.  0.
          5    1    3    3  502    0 -0.40192094776E+02 -0.42624602644E+02 -0.75234076125E+00  0.58739251354E+02  0.41800000000E+01 0. -1.
         -5    1    3    3    0  502  0.41929248959E+02  0.48849003345E+02  0.22935749737E+02  0.68467569418E+02  0.41800000000E+01 0. -1.
        -11    1    1    2    0    0 -0.25408373655E+02 -0.30863073057E+02 -0.54475043987E+01  0.40345880019E+02  0.00000000000E+00 0. -1.
         11    1    1    2    0    0  0.23671219472E+02  0.24638672357E+02  0.58329753303E+02  0.67599932893E+02  0.00000000000E+00 0.  1.
</event>
<event>
 7    1  0.2661133E-009  0.1199034E+03  0.7561462E-02  0.1243257E+00
         -2   -1    0    0    0  501 -0.00000000000E+00  0.00000000000E+00  0.66828957871E+02  0.66828957871E+02  0.00000000000E+00 0.  1.
          2   -1    0    0  501    0  0.00000000000E+00 -0.00000000000E+00 -0.51161263063E+03  0.51161263063E+03  0.00000000000E+00 0. -1.
         25    2    1    2    0    0  0.52162783440E+02 -0.85169318345E+02 -0.40702914184E+03  0.43737281560E+03  0.12508992266E+03 0.  0.
          5    1    3    3  502    0 -0.40557332837E+01 -0.34049043353E+02 -0.14380190023E+02  0.37417223185E+02  0.41800000000E+01 0.  1.
         -5    1    3    3    0  502  0.56218516724E+02 -0.51120274992E+02 -0.39264895182E+03  0.39995559242E+03  0.41800000000E+01 0.  1.
        -11    1    1    2    0    0  0.17562533424E+02 -0.18446243110E+01 -0.22383365573E+02  0.28510704542E+02  0.00000000000E+00 0.  1.
         11    1    1    2    0    0 -0.69725316864E+02  0.87013942656E+02 -0.15371165340E+02  0.11255806836E+03  0.00000000000E+00 0. -1.
</event>
<event>
 7    1  0.2661133E-009  0.2018893E+03  0.7561462E-02  0.1148155E+00
         -1   -1    0    0    0  501 -0.00000000000E+00  0.00000000000E+00  0.27994704813E+03  0.27994704813E+03  0.00000000000E+00 0.  1.
          1   -1    0    0  501    0  0.00000000000E+00 -0.00000000000E+00 -0.16020217655E+03  0.16020217655E+03  0.00000000000E+00 0. -1.
         25    2    1    2    0    0 -0.16454014557E+02  0.18040807423E+03  0.73764548185E+02  0.23217826902E+03  0.12509089572E+03 0.  0.
          5    1    3    3  502    0  0.42046650309E+02  0.15516003983E+02  0.11968025022E+02  0.46576530622E+02  0.41800000000E+01 0.  1.
         -5    1    3    3    0  502 -0.58500664866E+02  0.16489207025E+03  0.61796523162E+02  0.18560173840E+03  0.41800000000E+01 0.  1.
        -11    1    1    2    0    0  0.18982365251E+02 -0.52592266270E+02  0.56762882238E+02  0.79676228964E+02  0.00000000000E+00 0.  1.
         11    1    1    2    0    0 -0.25283506940E+01 -0.12781580796E+03 -0.10782558849E+02  0.12829472669E+03  0.00000000000E+00 0. -1.
</event>
<event>
 7    1  0.2661133E-009  0.8666137E+02  0.7561462E-02  0.1311144E+00
          1   -1    0    0  501    0  0.00000000000E+00  0.00000000000E+00  0.81443565517E+02  0.81443565517E+02  0.00000000000E+00 0. -1.
         -1   -1    0    0    0  501 -0.00000000000E+00 -0.00000000000E+00 -0.15623048026E+03  0.15623048026E+03  0.00000000000E+00 0.  1.
         25    2    1    2    0    0  0.34423968229E+02 -0.12310972865E+02 -0.62061710150E+02  0.14435119793E+03  0.12509613437E+03 0.  0.
          5    1    3    3  502    0  0.42979870268E+02  0.39103883335E+02  0.59525850797E+01  0.58560128153E+02  0.41800000000E+01 0. -1.
         -5    1    3    3    0  502 -0.85559020389E+01 -0.51414856200E+02 -0.68014295230E+02  0.85791069776E+02  0.41800000000E+01 0. -1.
        -11    1    1    2    0    0 -0.55682826566E-01  0.25841017737E+02 -0.39851429571E+02  0.47496291826E+02  0.00000000000E+00 0.  1.
         11    1    1    2    0    0 -0.34368285403E+02 -0.13530044872E+02  0.27126224975E+02  0.45826556026E+02  0.00000000000E+00 0. -1.
</event>
<event>
 7    1  0.2661133E-009  0.9728383E+02  0.7561462E-02  0.1286114E+00
         -2   -1    0    0    0  501 -0.00000000000E+00  0.00000000000E+00  0.26503848380E+03  0.26503848380E+03  0.00000000000E+00 0.  1.
          2   -1    0    0  501    0  0.00000000000E+00 -0.00000000000E+00 -0.38763105140E+02  0.38763105140E+02  0.00000000000E+00 0. -1.
         25    2    1    2    0    0  0.16015695747E+01  0.36084288331E+02  0.14252047814E+03  0.19304555957E+03  0.12509940244E+03 0.  0.
          5    1    3    3  502    0  0.43438735174E+02  0.62683090534E+02  0.61910983447E+02  0.98318542625E+02  0.41800000000E+01 0.  1.
         -5    1    3    3    0  502 -0.41837165600E+02 -0.26598802203E+02  0.80609494694E+02  0.94727016943E+02  0.41800000000E+01 0.  1.
        -11    1    1    2    0    0  0.10645945272E+01 -0.52145478792E+02  0.77282792330E+02  0.93235799510E+02  0.00000000000E+00 0.  1.
         11    1    1    2    0    0 -0.26661641019E+01  0.16061190461E+02  0.64721081886E+01  0.17520229863E+02  0.00000000000E+00 0. -1.
</event>
<event>
 7    1  0.2661133E-009  0.9848998E+02  0.7561462E-02  0.1283504E+00
          3   -1    0    0  501    0  0.00000000000E+00  0.00000000000E+00  0.20902045977E+03  0.20902045977E+03  0.00000000000E+00 0. -1.
         -3   -1    0    0    0  501 -0.00000000000E+00 -0.00000000000E+00 -0.69874078260E+02  0.69874078260E+02  0.00000000000E+00 0.  1.
         25    2    1    2    0    0 -0.21684446735E+02 -0.33415691495E+02  0.32565628496E+02  0.13530413404E+03  0.12513938174E+03 0.  0.
          5    1    3    3  502    0  0.23627514080E+02 -0.58868578253E+02  0.49406753250E+02  0.80512536874E+02  0.41800000000E+01 0.  1.
         -5    1    3    3    0  502 -0.45311960816E+02  0.25452886758E+02 -0.16841124754E+02  0.54791597168E+02  0.41800000000E+01 0.  1.
        -11    1    1    2    0    0  0.34870587135E+02  0.49451113113E+02  0.36877915549E+02  0.70861492297E+02  0.00000000000E+00 0.  1.
         11    1    1    2    0    0 -0.13186140400E+02 -0.16035421618E+02  0.69702837461E+02  0.72728911687E+02  0.00000000000E+00 0. -1.
</event>
<event>
 7    1  0.2661133E-009  0.1259951E+03  0.7561462E-02  0.1233522E+00
         -2   -1    0    0    0  501 -0.00000000000E+00  0.00000000000E+00  0.98181230530E+03  0.98181230530E+03  0.00000000000E+00 0.  1.
          2   -1    0    0  501    0  0.00000000000E+00 -0.00000000000E+00 -0.20472449079E+02  0.20472449079E+02  0.00000000000E+00 0. -1.
         25    2    1    2    0    0 -0.58959288458E+02  0.66102604357E+02  0.43384218666E+03  0.46012259211E+03  0.12509198552E+03 0.  0.
          5    1    3    3  502    0 -0.77946269105E+02  0.25622638063E+02  0.13580916796E+03  0.15872536959E+03  0.41800000000E+01 0.  1.
         -5    1    3    3    0  502  0.18986980647E+02  0.40479966294E+02  0.29803301870E+03  0.30139722252E+03  0.41800000000E+01 0.  1.
        -11    1    1    2    0    0  0.13716484607E+02  0.21977860147E+02  0.94536029773E+02  0.98021575237E+02  0.00000000000E+00 0. -1.
         11    1    1    2    0    0  0.45242803851E+02 -0.88080464504E+02  0.43296163979E+03  0.44414058704E+03  0.00000000000E+00 0.  1.
</event>
<event>
 7    1  0.2661133E-009  0.2281331E+03  0.7561462E-02  0.1127961E+00
         -1   -1    0    0    0  501 -0.00000000000E+00  0.00000000000E+00  0.43759467478E+03  0.43759467478E+03  0.00000000000E+00 0.  1.
          1   -1    0    0  501    0  0.00000000000E+00 -0.00000000000E+00 -0.13466717533E+03  0.13466717533E+03  0.00000000000E+00 0. -1.
         25    2    1    2    0    0 -0.16430621589E+03 -0.12034188465E+03  0.24048484882E+03  0.33905231700E+03  0.12507921238E+03 0.  0.
          5    1    3    3  502    0 -0.16023471126E+03 -0.52711599507E+02  0.14879361305E+03  0.22496819131E+03  0.41800000000E+01 0.  1.
         -5    1    3    3    0  502 -0.40715046353E+01 -0.67630285145E+02  0.91691235762E+02  0.11408412569E+03  0.41800000000E+01 0.  1.
        -11    1    1    2    0    0  0.83963344618E+02  0.12071000789E+02  0.48381501713E+02  0.97654093654E+02  0.00000000000E+00 0.  1.
         11    1    1    2    0    0  0.80342871276E+02  0.10827088386E+03  0.14061148915E+02  0.13555543946E+03  0.00000000000E+00 0. -1.
</event>
<event>
 7    1  0.2661133E-009  0.9433573E+02  0.7561462E-02  0.1292679E+00
          2   -1    0    0  501    0  0.00000000000E+00  0.00000000000E+00  0.35582856801E+03  0.35582856801E+03  0.00000000000E+00 0. -1.
         -2   -1    0    0    0  501 -0.00000000000E+00 -0.00000000000E+00 -0.37072559979E+02  0.37072559979E+02  0.00000000000E+00 0.  1.
         25    2    1    2    0    0  0.17625196380E+02 -0.11439252412E+02  0.24208294424E+03  0.27330040331E+03  0.12508978582E+03 0.  0.
          5    1    3    3  502    0  0.71536176735E+02 -0.10069593484E+02  0.12782996117E+03  0.14689041040E+03  0.41800000000E+01 0.  1.
         -5    1    3    3    0  502 -0.53910980355E+02 -0.13696589278E+01  0.11425298306E+03  0.12640999291E+03  0.41800000000E+01 0.  1.
        -11    1    1    2    0    0 -0.17208238389E+02 -0.22472728425E+02  0.80632239525E+02  0.85455866049E+02  0.00000000000E+00 0. -1.
         11    1    1    2    0    0 -0.41695799169E+00  0.33911980837E+02 -0.39591757307E+01  0.34144858628E+02  0.00000000000E+00 0.  1.
</event>
<event>
 7    1  0.2661133E-009  0.1083675E+03  0.7561462E-02  0.1263623E+00
          1   -1    0    0  501    0  0.00000000000E+00  0.00000000000E+00  0.24552999486E+03  0.24552999486E+03  0.00000000000E+00 0. -1.
         -1   -1    0    0    0  501 -0.00000000000E+00 -0.00000000000E+00 -0.59251906858E+02  0.59251906858E+02  0.00000000000E+00 0.  1.
         25    2    1    2    0    0 -0.31264845983E+02 -0.40244862877E+02  0.85581264390E+02  0.15988802495E+03  0.12507153204E+03 0.  0.
          5    1    3    3  502    0 -0.72288365429E+02 -0.42877613079E+02  0.27347494762E+02  0.88484209605E+02  0.41800000000E+01 0.  1.
         -5    1    3    3    0  502  0.41023519446E+02  0.26327502021E+01  0.58233769628E+02  0.71403815349E+02  0.41800000000E+01 0.  1.
        -11    1    1    2    0    0 -0.22714679025E+02 -0.18793391525E+01  0.62418882851E+02  0.66450022538E+02  0.00000000000E+00 0. -1.
         11    1    1    2    0    0  0.53979525008E+02  0.42124202029E+02  0.38277940759E+02  0.78443854223E+02  0.00000000000E+00 0.  1.
</event>
<event>
 7    1  0.2661133E-009  0.1000363E+03  0.7561462E-02  0.1280220E+00
         -1   -1    0    0    0  501 -0.00000000000E+00  0.00000000000E+00  0.36548124967E+02  0.36548124967E+02  0.00000000000E+00 0.  1.
          1   -1    0    0  501    0  0.00000000000E+00 -0.00000000000E+00 -0.40392944987E+03  0.40392944987E+03  0.00000000000E+00 0. -1.
         25    2    1    2    0    0 -0.98345386371E+01 -0.39818740283E+02 -0.27810984333E+03  0.30769262342E+03  0.12508962917E+03 0.  0.
          5    1    3    3  502    0 -0.45360411706E+02  0.12128114928E+02 -0.20848439954E+03  0.21374722308E+03  0.41800000000E+01 0. -1.
         -5    1    3    3    0  502  0.35525873069E+02 -0.51946855210E+02 -0.69625443786E+02  0.93945400344E+02  0.41800000000E+01 0. -1.
        -11    1    1    2    0    0  0.11104789035E+02 -0.23782622361E+02 -0.42344839347E+01  0.26586844869E+02  0.00000000000E+00 0.  1.
         11    1    1    2    0    0 -0.12702503977E+01  0.63601362644E+02 -0.85036997645E+02  0.10619810655E+03  0.00000000000E+00 0. -1.
</event>
<event>
 7    1  0.2661133E-009  0.1995845E+03  0.7561462E-02  0.1150090E+00
          2   -1    0    0  501    0  0.00000000000E+00  0.00000000000E+00  0.40506207037E+03  0.40506207037E+03  0.00000000000E+00 0. -1.
         -2   -1    0    0    0  501 -0.00000000000E+00 -0.00000000000E+00 -0.10527259408E+03  0.10527259408E+03  0.00000000000E+00 0.  1.
         25    2    1    2    0    0 -0.17320614541E+03  0.15356995883E+02  0.17805224756E+03  0.27854330402E+03  0.12509022034E+03 0.  0.
          5    1    3    3  502    0 -0.16469695353E+03  0.50565844070E+02  0.16810889735E+03  0.24074896648E+03  0.41800000000E+01 0.  1.
         -5    1    3    3    0  502 -0.85091918714E+01 -0.35208848187E+02  0.99433502072E+01  0.37794337543E+02  0.41800000000E+01 0.  1.
        -11    1    1    2    0    0  0.66456695416E+02  0.31795508923E+02  0.77661899490E+02  0.10704586580E+03  0.00000000000E+00 0. -1.
         11    1    1    2    0    0  0.10674944999E+03 -0.47152504806E+02  0.44075329242E+02  0.12474549463E+03  0.00000000000E+00 0.  1.
</event>
<event>
 7    1  0.2661133E-009  0.6744838E+02  0.7561462E-02  0.1368991E+00
          2   -1    0    0  501    0  0.00000000000E+00  0.00000000000E+00  0.14432320364E+03  0.14432320364E+03  0.00000000000E+00 0. -1.
         -2   -1    0    0    0  501 -0.00000000000E+00 -0.00000000000E+00 -0.83378486549E+02  0.83378486549E+02  0.00000000000E+00 0.  1.
         25    2    1    2    0    0 -0.10742680952E+02  0.14918823073E+02  0.31052410319E+02  0.13018751516E+03  0.12508621204E+03 0.  0.
          5    1    3    3  502    0 -0.29903282078E+02 -0.29237809204E+02 -0.30504882800E+02  0.51933380794E+02  0.41800000000E+01 0.  1.
         -5    1    3    3    0  502  0.19160601127E+02  0.44156632277E+02  0.61557293118E+02  0.78254134368E+02  0.41800000000E+01 0.  1.
        -11    1    1    2    0    0  0.20327053472E+02  0.62892184682E+01 -0.27971933340E+02  0.35145019940E+02  0.00000000000E+00 0.  1.
         11    1    1    2    0    0 -0.95843725201E+01 -0.21208041542E+02  0.57864240114E+02  0.62369155090E+02  0.00000000000E+00 0. -1.
</event>
<event>
 7    1  0.2661133E-009  0.1516826E+03  0.7561462E-02  0.1198421E+00
          2   -1    0    0  501    0  0.00000000000E+00  0.00000000000E+00  0.28206442375E+03  0.28206442375E+03  0.00000000000E+00 0. -1.
         -2   -1    0    0    0  501 -0.00000000000E+00 -0.00000000000E+00 -0.27680384716E+03  0.27680384716E+03  0.00000000000E+00 0.  1.
         25    2    1    2    0    0 -0.11328076740E+02 -0.14003614642E+03  0.21800108918E+03  0.28794565953E+03  0.12509908207E+03 0.  0.
          5    1    3    3  502    0 -0.23244581065E+02 -0.11445437717E+03  0.67903569880E+02  0.13516094926E+03  0.41800000000E+01 0.  1.
         -5    1    3    3    0  502  0.11916504325E+02 -0.25581769245E+02  0.15009751930E+03  0.15278471027E+03  0.41800000000E+01 0.  1.
        -11    1    1    2    0    0 -0.30809340274E+02  0.54037079471E+02 -0.41671128789E+02  0.74871252030E+02  0.00000000000E+00 0. -1.
         11    1    1    2    0    0  0.42137417015E+02  0.85999066947E+02 -0.17106938380E+03  0.19605135934E+03  0.00000000000E+00 0.  1.
</event>
<event>
 7    1  0.2661133E-009  0.1100653E+03  0.7561462E-02  0.1260449E+00
          1   -1    0    0  501    0  0.00000000000E+00  0.00000000000E+00  0.47514268588E+02  0.47514268588E+02  0.00000000000E+00 0. -1.
         -1   -1    0    0    0  501 -0.00000000000E+00 -0.00000000000E+00 -0.38222902652E+03  0.38222902652E+03  0.00000000000E+00 0.  1.
         25    2    1    2    0    0 -0.37024891245E+02  0.48208659143E+02 -0.98244898215E+02  0.17028032671E+03  0.12509361395E+03 0.  0.
          5    1    3    3  502    0  0.18910617602E+02 -0.30040366818E+02 -0.47132367670E+01  0.36051658735E+02  0.41800000000E+01 0.  1.
         -5    1    3    3    0  502 -0.55935508847E+02  0.78249025962E+02 -0.93531661448E+02  0.13422866798E+03  0.41800000000E+01 0.  1.
        -11    1    1    2    0    0  0.22620297611E+02  0.12412962114E+02 -0.15375597434E+03  0.15590593041E+03  0.00000000000E+00 0.  1.
         11    1    1    2    0    0  0.14404593633E+02 -0.60621621257E+02 -0.82713885375E+02  0.10355703798E+03  0.00000000000E+00 0. -1.
</event>
<event>
 7    1  0.2661133E-009  0.1464965E+03  0.7561462E-02  0.1204845E+00
         -3   -1    0    0    0  501 -0.00000000000E+00  0.00000000000E+00  0.18247031420E+03  0.18247031420E+03  0.00000000000E+00 0.  1.
          3   -1    0    0  501    0  0.00000000000E+00 -0.00000000000E+00 -0.19780080732E+03  0.19780080732E+03  0.00000000000E+00 0. -1.
         25    2    1    2    0    0  0.10997023968E+03 -0.70314197938E+02  0.76737034686E+02  0.19640461659E+03  0.12509460771E+03 0.  0.
          5    1    3    3  502    0  0.31657020620E+02 -0.60132984816E+02 -0.20466102241E+02  0.71094841996E+02  0.41800000000E+01 0.  1.
         -5    1    3    3    0  502  0.78313219064E+02 -0.10181213122E+02  0.97203136927E+02  0.12530977460E+03  0.41800000000E+01 0.  1.
        -11    1    1    2    0    0 -0.78436913892E+02  0.80784355130E+02 -0.35144496951E+02  0.11795591194E+03  0.00000000000E+00 0. -1.
         11    1    1    2    0    0 -0.31533325792E+02 -0.10470157192E+02 -0.56923030852E+02  0.65910592992E+02  0.00000000000E+00 0.  1.
</event>
<event>
 7    1  0.2661133E-009  0.1113717E+03  0.7561462E-02  0.1258051E+00
         -1   -1    0    0    0  501 -0.00000000000E+00  0.00000000000E+00  0.70434642077E+02  0.70434642077E+02  0.00000000000E+00 0.  1.
          1   -1    0    0  501    0  0.00000000000E+00 -0.00000000000E+00 -0.53925683391E+03  0.53925683391E+03  0.00000000000E+00 0. -1.
         25    2    1    2    0    0 -0.23303222846E+02  0.60835191727E+02 -0.47185578425E+03  0.49248183524E+03  0.12508603503E+03 0.  0.
          5    1    3    3  502    0 -0.74913945398E+02  0.34858571947E+02 -0.25974764177E+03  0.27260507893E+03  0.41800000000E+01 0. -1.
         -5    1    3    3    0  502  0.51610722552E+02  0.25976619780E+02 -0.21210814248E+03  0.21987675631E+03  0.41800000000E+01 0. -1.
        -11    1    1    2    0    0 -0.12774221047E+02 -0.36217196042E+02  0.43248848855E+02  0.57838818624E+02  0.00000000000E+00 0.  1.
         11    1    1    2    0    0  0.36077443893E+02 -0.24617995685E+02 -0.40215256434E+02  0.59370822122E+02  0.00000000000E+00 0. -1.
</event>
<event>
 7    1  0.2661133E-009  0.1103860E+03  0.7561462E-02  0.1259857E+00
         -2   -1    0    0    0  501 -0.00000000000E+00  0.00000000000E+00  0.30327365354E+02  0.30327365354E+02  0.00000000000E+00 0.  1.
          2   -1    0    0  501    0  0.00000000000E+00 -0.00000000000E+00 -0.51897846654E+03  0.51897846654E+03  0.00000000000E+00 0. -1.
         25    2    1    2    0    0 -0.61357513677E+01  0.47653240043E+02 -0.27305960631E+03  0.30417659377E+03  0.12511344001E+03 0.  0.
          5    1    3    3  502    0  0.20006598268E+02 -0.22575480648E+02 -0.12321230596E+02  0.32851201259E+02  0.41800000000E+01 0.  1.
         -5    1    3    3    0  502 -0.26142349636E+02  0.70228720690E+02 -0.26073837571E+03  0.27132539252E+03  0.41800000000E+01 0.  1.
        -11    1    1    2    0    0  0.55223169940E+02 -0.31572706842E+02 -0.99946382406E+02  0.11847241735E+03  0.00000000000E+00 0.  1.
         11    1    1    2    0    0 -0.49087418572E+02 -0.16080533201E+02 -0.11564511247E+03  0.12665682077E+03  0.00000000000E+00 0. -1.
</event>
<event>
 7    1  0.2661133E-009  0.6635720E+02  0.7561462E-02  0.1372938E+00
          1   -1    0    0  501    0  0.00000000000E+00  0.00000000000E+00  0.25837643871E+03  0.25837643871E+03  0.00000000000E+00 0. -1.
         -1   -1    0    0    0  501 -0.00000000000E+00 -0.00000000000E+00 -0.58664466756E+02  0.58664466756E+02  0.00000000000E+00 0.  1.
         25    2    1    2    0    0 -0.78209945580E+01 -0.54667176402E+02  0.85108348943E+02  0.16106213437E+03  0.12509161417E+03 0.  0.
          5    1    3    3  502    0 -0.27468938557E+02 -0.12097231948E+02 -0.26295170677E+02  0.40122238312E+02  0.41800000000E+01 0. -1.
         -5    1    3    3    0  502  0.19647943999E+02 -0.42569944454E+02  0.11140351962E+03  0.12093989606E+03  0.41800000000E+01 0. -1.
        -11    1    1    2    0    0  0.70298788001E+01  0.37501856367E+02  0.12839557699E+03  0.13394488650E+03  0.00000000000E+00 0. -1.
         11    1    1    2    0    0  0.79111575783E+00  0.17165320035E+02 -0.13791953982E+02  0.22033884603E+02  0.00000000000E+00 0.  1.
</event>
<event>
 7    1  0.2661133E-009  0.1096123E+03  0.7561462E-02  0.1261290E+00
         -1   -1    0    0    0  501 -0.00000000000E+00  0.00000000000E+00  0.26312899951E+02  0.26312899951E+02  0.00000000000E+00 0.  1.
          1   -1    0    0  501    0  0.00000000000E+00 -0.00000000000E+00 -0.61594633886E+03  0.61594633886E+03  0.00000000000E+00 0. -1.
         25    2    1    2    0    0  0.30742068626E+02 -0.33566114915E+02 -0.20119972476E+03  0.24124798537E+03  0.12508997702E+03 0.  0.
          5    1    3    3  502    0 -0.35557228873E+02 -0.42564055777E+02 -0.45956987461E+02  0.72149376060E+02  0.41800000000E+01 0.  1.
         -5    1    3    3    0  502  0.66299297499E+02  0.89979408621E+01 -0.15524273729E+03  0.16909860931E+03  0.41800000000E+01 0.  1.
        -11    1    1    2    0    0  0.29726555464E+02  0.71098564475E+01 -0.81063277818E+02  0.86634133972E+02  0.00000000000E+00 0.  1.
         11    1    1    2    0    0 -0.60468624090E+02  0.26456258467E+02 -0.30737043633E+03  0.31437711946E+03  0.00000000000E+00 0. -1.
</event>
<event>
 7    1  0.2661133E-009  0.1930260E+03  0.7561462E-02  0.1155760E+00
         -1   -1    0    0    0  501 -0.00000000000E+00  0.00000000000E+00  0.17304462285E+03  0.17304462285E+03  0.00000000000E+00 0.  1.
          1   -1    0    0  501    0  0.00000000000E+00 -0.00000000000E+00 -0.27480477121E+03  0.27480477121E+03  0.00000000000E+00 0. -1.
         25    2    1    2    0    0  0.15469053142E+03  0.90468945733E+02 -0.11263575307E+03  0.24586130498E+03  0.12508867961E+03 0.  0.
          5    1    3    3  502    0  0.82199645063E+01  0.25851505898E+02 -0.77073760888E+02  0.81815067018E+02  0.41800000000E+01 0. -1.
         -5    1    3    3    0  502  0.14647056691E+03  0.64617439835E+02 -0.35561992178E+02  0.16404623796E+03  0.41800000000E+01 0. -1.
        -11    1    1    2    0    0  0.80575890610E+01 -0.19139797203E+02  0.12593331358E+02  0.24286798330E+02  0.00000000000E+00 0.  1.
         11    1    1    2    0    0 -0.16274812048E+03 -0.71329148530E+02 -0.17177266453E+01  0.17770129075E+03  0.00000000000E+00 0. -1.
</event>
<event>
 7    1  0.2661133E-009  0.1157366E+03  0.7561462E-02  0.1250301E+00
         -4   -1    0    0    0  501 -0.00000000000E+00  0.00000000000E+00  0.27256761258E+02  0.27256761258E+02  0.00000000000E+00 0.  1.
          4   -1    0    0  501    0  0.00000000000E+00 -0.00000000000E+00 -0.57361315311E+03  0.57361315311E+03  0.00000000000E+00 0. -1.
         25    2    1    2    0    0 -0.47375893090E+02 -0.30650847292E+02 -0.25204379350E+03  0.28698289464E+03  0.12509659584E+03 0.  0.
          5    1    3    3  502    0  0.36323553399E+02 -0.21703847341E+01 -0.28046422459E+02  0.46132258933E+02  0.41800000000E+01 0.  1.
         -5    1    3    3    0  502 -0.83699446490E+02 -0.28480462558E+02 -0.22399737104E+03  0.24085063571E+03  0.41800000000E+01 0.  1.
        -11    1    1    2    0    0  0.47769281107E+02  0.60162210936E+02 -0.24103438291E+03  0.25298017627E+03  0.00000000000E+00 0. -1.
         11    1    1    2    0    0 -0.39338801684E+00 -0.29511363644E+02 -0.53278215445E+02  0.60906843452E+02  0.00000000000E+00 0.  1.
</event>
<event>
 7    1  0.2661133E-009  0.1248121E+03  0.7561462E-02  0.1235363E+00
          2   -1    0    0  501    0  0.00000000000E+00  0.00000000000E+00  0.22251143645E+03  0.22251143645E+03  0.00000000000E+00 0.  1.
         -2   -1    0    0    0  501 -0.00000000000E+00 -0.00000000000E+00 -0.98669381266E+02  0.98669381266E+02  0.00000000000E+00 0. -1.
         25    2    1    2    0    0  0.95789889978E+02 -0.35368462023E+02  0.68460036480E+02  0.17538872116E+03  0.12509114992E+03 0.  0.
          5    1    3    3  502    0  0.29456649079E+01 -0.43701245160E+02  0.69283436205E+02  0.82074007473E+02  0.41800000000E+01 0.  1.
         -5    1    3    3    0  502  0.92844225070E+02  0.83327831374E+01 -0.82339972532E+00  0.93314713689E+02  0.41800000000E+01 0.  1.
        -11    1    1    2    0    0 -0.10315065815E+02  0.23953374367E+02  0.53522435027E+02  0.59538355516E+02  0.00000000000E+00 0.  1.
         11    1    1    2    0    0 -0.85474824163E+02  0.11415087655E+02  0.18595836792E+01  0.86253741040E+02  0.00000000000E+00 0. -1.
</event>
<event>
 7    1  0.2661133E-009  0.1314415E+03  0.7561462E-02  0.1225332E+00
         -1   -1    0    0    0  501 -0.00000000000E+00  0.00000000000E+00  0.62201867395E+02  0.62201867395E+02  0.00000000000E+00 0.  1.
          1   -1    0    0  501    0  0.00000000000E+00 -0.00000000000E+00 -0.42132255366E+03  0.42132255366E+03  0.00000000000E+00 0. -1.
         25    2    1    2    0    0  0.36816441714E+02  0.80507222027E+02 -0.31110337413E+03  0.34679620873E+03  0.12508172453E+03 0.  0.
          5    1    3    3  502    0 -0.41319127314E+02  0.34195207550E+01 -0.63880965058E+02  0.76270659502E+02  0.41800000000E+01 0.  1.
         -5    1    3    3    0  502  0.78135569028E+02  0.77087701272E+02 -0.24722240907E+03  0.27052554922E+03  0.41800000000E+01 0.  1.
        -11    1    1    2    0    0 -0.53455474063E+02 -0.37611996442E+02 -0.60491080299E+02  0.89057963032E+02  0.00000000000E+00 0. -1.
         11    1    1    2    0    0  0.16639032349E+02 -0.42895225585E+02  0.12473768169E+02  0.47670249294E+02  0.00000000000E+00 0.  1.
</event>
<event>
 7    1  0.2661133E-009  0.1270359E+03  0.7561462E-02  0.1231921E+00
         -2   -1    0    0    0  501 -0.00000000000E+00  0.00000000000E+00  0.20273634883E+02  0.20273634883E+02  0.00000000000E+00 0.  1.
          2   -1    0    0  501    0  0.00000000000E+00 -0.00000000000E+00 -0.10369529732E+04  0.10369529732E+04  0.00000000000E+00 0. -1.
         25    2    1    2    0    0 -0.45961385289E+02  0.73117509541E+02 -0.68140341429E+03  0.69815327357E+03  0.12509500891E+03 0.  0.
          5    1    3    3  502    0 -0.76458624470E+02  0.68143600627E+02 -0.33454552174E+03  0.34989662770E+03  0.41800000000E+01 0.  1.
         -5    1    3    3    0  502  0.30497239181E+02  0.49739089145E+01 -0.34685789255E+03  0.34825664587E+03  0.41800000000E+01 0.  1.
        -11    1    1    2    0    0 -0.17645664670E+02 -0.49475452047E+02 -0.21140467733E+03  0.21783279697E+03  0.00000000000E+00 0. -1.
         11    1    1    2    0    0  0.63607049959E+02 -0.23642057495E+02 -0.12387124669E+03  0.14124053753E+03  0.00000000000E+00 0.  1.
</event>
<event>
 7    1  0.2661133E-009  0.1334904E+03  0.7561462E-02  0.1222367E+00
          1   -1    0    0  501    0  0.00000000000E+00  0.00000000000E+00  0.28334123483E+03  0.28334123483E+03  0.00000000000E+00 0. -1.
         -1   -1    0    0    0  501 -0.00000000000E+00 -0.00000000000E+00 -0.99958377921E+02  0.99958377921E+02  0.00000000000E+00 0.  1.
         25    2    1    2    0    0  0.93616303709E+02 -0.58661691173E+02  0.16861886158E+03  0.23724386507E+03  0.12508846750E+03 0.  0.
          5    1    3    3  502    0  0.80033699091E+02 -0.88494959906E+02  0.16547496751E+03  0.20404947486E+03  0.41800000000E+01 0. -1.
         -5    1    3    3    0  502  0.13582604618E+02  0.29833268733E+02  0.31438940738E+01  0.33194390211E+02  0.41800000000E+01 0. -1.
        -11    1    1    2    0    0 -0.76900042310E+02  0.32472238877E+02 -0.32429622297E+02  0.89553018974E+02  0.00000000000E+00 0.  1.
         11    1    1    2    0    0 -0.16716261399E+02  0.26189452296E+02  0.47193617621E+02  0.56502728703E+02  0.00000000000E+00 0. -1.
</event>
<event>
 7    1  0.2661133E-009  0.1217481E+03  0.7561462E-02  0.1240241E+00
          1   -1    0    0  501    0  0.00000000000E+00  0.00000000000E+00  0.55345409520E+03  0.55345409520E+03  0.00000000000E+00 0. -1.
         -1   -1    0    0    0  501 -0.00000000000E+00 -0.00000000000E+00 -0.28007322536E+02  0.28007322536E+02  0.00000000000E+00 0.  1.
         25    2    1    2    0    0 -0.40428924623E+02 -0.43631808734E+02  0.32312436088E+03  0.35156142363E+03  0.12509136385E+03 0.  0.
          5    1    3    3  502    0 -0.62510057213E+02 -0.73903454481E+02  0.19106086018E+03  0.21422173683E+03  0.41800000000E+01 0.  1.
         -5    1    3    3    0  502  0.22081132590E+02  0.30271645748E+02  0.13206350070E+03  0.13733968680E+03  0.41800000000E+01 0.  1.
        -11    1    1    2    0    0  0.12195207859E+02  0.69533285359E+02  0.13868206022E+03  0.15561592044E+03  0.00000000000E+00 0. -1.
         11    1    1    2    0    0  0.28233716764E+02 -0.25901476625E+02  0.63640351567E+02  0.74284073672E+02  0.00000000000E+00 0.  1.
</event>
<event>
 7    1  0.2661133E-009  0.8125726E+02  0.7561462E-02  0.1325521E+00
          1   -1    0    0  501    0  0.00000000000E+00  0.00000000000E+00  0.14826796996E+03  0.14826796996E+03  0.00000000000E+00 0. -1.
         -1   -1    0    0    0  501 -0.00000000000E+00 -0.00000000000E+00 -0.10605729755E+03  0.10605729755E+03  0.00000000000E+00 0.  1.
         25    2    1    2    0    0  0.49672219062E+02  0.38984194344E+02  0.45094850399E+01  0.14019772654E+03  0.12509184752E+03 0.  0.
          5    1    3    3  502    0 -0.22723942809E+01  0.46287999060E+02 -0.47300000001E+02  0.66351375516E+02  0.41800000000E+01 0. -1.
         -5    1    3    3    0  502  0.51944613343E+02 -0.73038047164E+01  0.51809485041E+02  0.73846351020E+02  0.41800000000E+01 0. -1.
        -11    1    1    2    0    0 -0.80010857473E+01 -0.88815853141E+01 -0.28152291014E+02  0.30585150321E+02  0.00000000000E+00 0.  1.
         11    1    1    2    0    0 -0.41671133315E+02 -0.30102609030E+02  0.65853478381E+02  0.83542390659E+02  0.00000000000E+00 0. -1.
</event>
<event>
 7    1  0.2661133E-009  0.1487351E+03  0.7561462E-02  0.1202036E+00
          2   -1    0    0  501    0  0.00000000000E+00  0.00000000000E+00  0.17494221130E+04  0.17494221130E+04  0.00000000000E+00 0. -1.
         -2   -1    0    0    0  501 -0.00000000000E+00 -0.00000000000E+00 -0.19662708157E+02  0.19662708157E+02  0.00000000000E+00 0.  1.
         25    2    1    2    0    0  0.35179994278E+02  0.96541581492E+02  0.14390781543E+04  0.14481550357E+04  0.12509662071E+03 0.  0.
          5    1    3    3  502    0 -0.46012615877E+02  0.49807867558E+02  0.63793577894E+03  0.64154307333E+03  0.41800000000E+01 0.  1.
         -5    1    3    3    0  502  0.81192610154E+02  0.46733713934E+02  0.80114237532E+03  0.80661196241E+03  0.41800000000E+01 0.  1.
        -11    1    1    2    0    0 -0.34803356625E+02  0.41642331172E+01  0.66668801347E+02  0.75321600773E+02  0.00000000000E+00 0.  1.
         11    1    1    2    0    0 -0.37663765248E+00 -0.10070581461E+03  0.22401244923E+03  0.24560818464E+03  0.00000000000E+00 0. -1.
</event>
<event>
 7    1  0.2661133E-009  0.1426478E+03  0.7561462E-02  0.1209810E+00
         -2   -1    0    0    0  501 -0.00000000000E+00  0.00000000000E+00  0.14303355025E+03  0.14303355025E+03  0.00000000000E+00 0.  1.
          2   -1    0    0  501    0  0.00000000000E+00 -0.00000000000E+00 -0.19149064594E+03  0.19149064594E+03  0.00000000000E+00 0. -1.
         25    2    1    2    0    0 -0.56965131067E+02 -0.11342456578E+03 -0.60206207394E+02  0.18810457799E+03  0.12509351131E+03 0.  0.
          5    1    3    3  502    0 -0.63980895600E+02 -0.11642160700E+03 -0.58307416223E+01  0.13303764703E+03  0.41800000000E+01 0.  1.
         -5    1    3    3    0  502  0.70157645328E+01  0.29970412166E+01 -0.54375465772E+02  0.55066930965E+02  0.41800000000E+01 0.  1.
        -11    1    1    2    0    0  0.16244916134E+02 -0.61489900996E+01  0.10098339280E+02  0.20091884821E+02  0.00000000000E+00 0.  1.
         11    1    1    2    0    0  0.40720214934E+02  0.11957355588E+03  0.16507724233E+01  0.12632773338E+03  0.00000000000E+00 0. -1.
</event>
<event>
 7    1  0.2661133E-009  0.1226493E+03  0.7561462E-02  0.1238789E+00
          4   -1    0    0  501    0  0.00000000000E+00  0.00000000000E+00  0.15648556943E+03  0.15648556943E+03  0.00000000000E+00 0.  1.
         -4   -1    0    0    0  501 -0.00000000000E+00 -0.00000000000E+00 -0.13988042827E+03  0.13988042827E+03  0.00000000000E+00 0. -1.
         25    2    1    2    0    0  0.50108770304E+02  0.75627734229E+02  0.59017712471E+02  0.16541006414E+03  0.12508779272E+03 0.  0.
          5    1    3    3  502    0  0.87213789014E+02  0.23893791497E+02  0.30490929446E+02  0.95521345493E+02  0.41800000000E+01 0.  1.
         -5    1    3    3    0  502 -0.37105018711E+02  0.51733942732E+02  0.28526783025E+02  0.69888718645E+02  0.41800000000E+01 0.  1.
        -11    1    1    2    0    0 -0.30166712526E+02 -0.51340779997E+02 -0.68031511973E+02  0.90411242978E+02  0.00000000000E+00 0. -1.
         11    1    1    2    0    0 -0.19942057777E+02 -0.24286954232E+02  0.25618940659E+02  0.40544690586E+02  0.00000000000E+00 0.  1.
</event>
<event>
 7    1  0.2661133E-009  0.3844010E+03  0.7561462E-02  0.1049319E+00
          2   -1    0    0  501    0  0.00000000000E+00  0.00000000000E+00  0.15737721801E+04  0.15737721801E+04  0.00000000000E+00 0.  1.
         -2   -1    0    0    0  501 -0.00000000000E+00 -0.00000000000E+00 -0.97465383124E+02  0.97465383124E+02  0.00000000000E+00 0. -1.
         25    2    1    2    0    0 -0.27732122552E+03 -0.24493289119E+03  0.90428118246E+03  0.98502370959E+03  0.12509223877E+03 0.  0.
          5    1    3    3  502    0 -0.69383961439E+02 -0.14199205858E+03  0.34420050273E+03  0.37877082423E+03  0.41800000000E+01 0. -1.
         -5    1    3    3    0  502 -0.20793726408E+03 -0.10294083261E+03  0.56008067973E+03  0.60625288537E+03  0.41800000000E+01 0. -1.
        -11    1    1    2    0    0  0.17377529094E+03  0.20224716329E+03  0.38823201693E+03  0.47098393366E+03  0.00000000000E+00 0. -1.
         11    1    1    2    0    0  0.10354593458E+03  0.42685727893E+02  0.18379359755E+03  0.21522991993E+03  0.00000000000E+00 0.  1.
</event>
<event>
 7    1  0.2661133E-009  0.1008520E+03  0.7561462E-02  0.1278515E+00
          1   -1    0    0  501    0  0.00000000000E+00  0.00000000000E+00  0.32924532096E+02  0.32924532096E+02  0.00000000000E+00 0. -1.
         -1   -1    0    0    0  501 -0.00000000000E+00 -0.00000000000E+00 -0.37332520570E+03  0.37332520570E+03  0.00000000000E+00 0.  1.
         25    2    1    2    0    0  0.70809055559E+01  0.12982848329E+01 -0.24612673557E+03  0.27619358421E+03  0.12511075584E+03 0.  0.
          5    1    3    3  502    0 -0.27520546458E+02  0.47193026520E+02 -0.18156955570E+03  0.18965636869E+03  0.41800000000E+01 0. -1.
         -5    1    3    3    0  502  0.34601452014E+02 -0.45894741687E+02 -0.64557179874E+02  0.86537215516E+02  0.41800000000E+01 0. -1.
        -11    1    1    2    0    0  0.20781417365E+02 -0.37936421251E+02 -0.40287215579E+02  0.59110905120E+02  0.00000000000E+00 0. -1.
         11    1    1    2    0    0 -0.27862322920E+02  0.36638136418E+02 -0.53986722451E+02  0.70945248464E+02  0.00000000000E+00 0.  1.
</event>
<event>
 7    1  0.2661133E-009  0.1169395E+03  0.7561462E-02  0.1248233E+00
         -1   -1    0    0    0  501 -0.00000000000E+00  0.00000000000E+00  0.24814347100E+03  0.24814347100E+03  0.00000000000E+00 0.  1.
          1   -1    0    0  501    0  0.00000000000E+00 -0.00000000000E+00 -0.68855459269E+02  0.68855459269E+02  0.00000000000E+00 0. -1.
         25    2    1    2    0    0  0.47737013367E+02  0.53772067344E+02  0.10913509506E+03  0.18091008971E+03  0.12509090260E+03 0.  0.
          5    1    3    3  502    0 -0.41391872184E+02  0.13972695856E+02  0.50748943033E+02  0.67092853057E+02  0.41800000000E+01 0.  1.
         -5    1    3    3    0  502  0.89128885551E+02  0.39799371489E+02  0.58386152031E+02  0.11381723665E+03  0.41800000000E+01 0.  1.
        -11    1    1    2    0    0 -0.22941365723E+01 -0.46159069446E+02  0.76702037752E+02  0.89549569234E+02  0.00000000000E+00 0.  1.
         11    1    1    2    0    0 -0.45442876795E+02 -0.76129978985E+01 -0.65491210860E+01  0.46539271324E+02  0.00000000000E+00 0. -1.
</event>
<event>
 7    1  0.2661133E-009  0.1008126E+03  0.7561462E-02  0.1278596E+00
         -1   -1    0    0    0  501 -0.00000000000E+00  0.00000000000E+00  0.31033749845E+02  0.31033749845E+02  0.00000000000E+00 0.  1.
          1   -1    0    0  501    0  0.00000000000E+00 -0.00000000000E+00 -0.50100286135E+03  0.50100286135E+03  0.00000000000E+00 0. -1.
         25    2    1    2    0    0  0.57170903829E+02 -0.22222662571E+02 -0.23793203997E+03  0.27571609172E+03  0.12508136796E+03 0.  0.
          5    1    3    3  502    0  0.57696384420E+02  0.11767087473E+02 -0.32378857943E+02  0.67329042504E+02  0.41800000000E+01 0. -1.
         -5    1    3    3    0  502 -0.52548059098E+00 -0.33989750044E+02 -0.20555318203E+03  0.20838704922E+03  0.41800000000E+01 0. -1.
        -11    1    1    2    0    0 -0.99886122233E+01  0.51735354627E+02 -0.12580985133E+03  0.13639808644E+03  0.00000000000E+00 0.  1.
         11    1    1    2    0    0 -0.47182291606E+02 -0.29512692056E+02 -0.10622722020E+03  0.11992243303E+03  0.00000000000E+00 0. -1.
</event>
<event>
 7    1  0.2661133E-009  0.1180215E+03  0.7561462E-02  0.1246397E+00
         -3   -1    0    0    0  501 -0.00000000000E+00  0.00000000000E+00  0.64287516050E+03  0.64287516050E+03  0.00000000000E+00 0.  1.
          3   -1    0    0  501    0  0.00000000000E+00 -0.00000000000E+00 -0.30411871037E+02  0.30411871037E+02  0.00000000000E+00 0. -1.
         25    2    1    2    0    0 -0.64428325201E+01 -0.83222091487E+02  0.40191385747E+03  0.42912670497E+03  0.12509018143E+03 0.  0.
          5    1    3    3  502    0 -0.44817905329E+02 -0.98476177318E+02  0.30698387061E+03  0.32551923346E+03  0.41800000000E+01 0. -1.
         -5    1    3    3    0  502  0.38375072809E+02  0.15254085831E+02  0.94929986854E+02  0.10360747151E+03  0.41800000000E+01 0. -1.
        -11    1    1    2    0    0 -0.69736977419E+01  0.49143259456E+02  0.19997020228E+03  0.20603828336E+03  0.00000000000E+00 0.  1.
         11    1    1    2    0    0  0.13416530262E+02  0.34078832031E+02  0.10579229712E+02  0.38122043205E+02  0.00000000000E+00 0. -1.
</event>
<event>
 7    1  0.2661133E-009  0.1068786E+03  0.7561462E-02  0.1266462E+00
         -2   -1    0    0    0  501 -0.00000000000E+00  0.00000000000E+00  0.32087939993E+02  0.32087939993E+02  0.00000000000E+00 0.  1.
          2   -1    0    0  501    0  0.00000000000E+00 -0.00000000000E+00 -0.46020714294E+03  0.46020714294E+03  0.00000000000E+00 0. -1.
         25    2    1    2    0    0 -0.47183016909E+02 -0.26867802945E+01 -0.29995183618E+03  0.32841123805E+03  0.12509748749E+03 0.  0.
          5    1    3    3  502    0 -0.41085014438E+02  0.50218178478E+02 -0.23745472274E+03  0.24619516976E+03  0.41800000000E+01 0.  1.
         -5    1    3    3    0  502 -0.60980024714E+01 -0.52904958772E+02 -0.62497113439E+02  0.82216068290E+02  0.41800000000E+01 0.  1.
        -11    1    1    2    0    0 -0.16681413277E+02  0.22901760513E+02 -0.14211513910E+02  0.31697433826E+02  0.00000000000E+00 0. -1.
         11    1    1    2    0    0  0.63864430186E+02 -0.20214980218E+02 -0.11395585286E+03  0.13218641106E+03  0.00000000000E+00 0.  1.
</event>
<event>
 7    1  0.2661133E-009  0.1404347E+03  0.7561462E-02  0.1212745E+00
         -1   -1    0    0    0  501 -0.00000000000E+00  0.00000000000E+00  0.23496426316E+03  0.23496426316E+03  0.00000000000E+00 0.  1.
          1   -1    0    0  501    0  0.00000000000E+00 -0.00000000000E+00 -0.96607087924E+02  0.96607087924E+02  0.00000000000E+00 0. -1.
         25    2    1    2    0    0 -0.40025890925E+01  0.10346988493E+03  0.91810314815E+02  0.18654414482E+03  0.12509015251E+03 0.  0.
          5    1    3    3  502    0 -0.52395552306E+02  0.23810630927E+02  0.70019732193E+02  0.90732989276E+02  0.41800000000E+01 0. -1.
         -5    1    3    3    0  502  0.48392963214E+02  0.79659254000E+02  0.21790582622E+02  0.95811155548E+02  0.41800000000E+01 0. -1.
        -11    1    1    2    0    0  0.19153707679E+02 -0.11121306140E+03  0.21707908186E+02  0.11491928829E+03  0.00000000000E+00 0. -1.
         11    1    1    2    0    0 -0.15151118586E+02  0.77431764723E+01  0.24838952239E+02  0.30107917972E+02  0.00000000000E+00 0.  1.
</event>
<event>
 7    1  0.2661133E-009  0.2208828E+03  0.7561462E-02  0.1133227E+00
          1   -1    0    0  501    0  0.00000000000E+00  0.00000000000E+00  0.68579131585E+03  0.68579131585E+03  0.00000000000E+00 0. -1.
         -1   -1    0    0    0  501 -0.00000000000E+00 -0.00000000000E+00 -0.76888019921E+02  0.76888019921E+02  0.00000000000E+00 0.  1.
         25    2    1    2    0    0 -0.19803249432E+03 -0.36032227272E+02  0.28059448867E+03  0.36728140622E+03  0.12508866487E+03 0.  0.
          5    1    3    3  502    0 -0.21249626233E+03 -0.28326836917E+02  0.27647210401E+03  0.34987335979E+03  0.41800000000E+01 0. -1.
         -5    1    3    3    0  502  0.14463768007E+02 -0.77053903552E+01  0.41223846577E+01  0.17408046437E+02  0.41800000000E+01 0. -1.
        -11    1    1    2    0    0  0.14250774907E+03 -0.30424265893E+01  0.27242138347E+03  0.30745914375E+03  0.00000000000E+00 0. -1.
         11    1    1    2    0    0  0.55524745246E+02  0.39074653862E+02  0.55887423798E+02  0.87938785799E+02  0.00000000000E+00 0.  1.
</event>
<event>
 7    1  0.2661133E-009  0.8518025E+02  0.7561462E-02  0.1314962E+00
          1   -1    0    0  501    0  0.00000000000E+00  0.00000000000E+00  0.53362621119E+03  0.53362621119E+03  0.00000000000E+00 0. -1.
         -1   -1    0    0    0  501 -0.00000000000E+00 -0.00000000000E+00 -0.23878781476E+02  0.23878781476E+02  0.00000000000E+00 0.  1.
         25    2    1    2    0    0  0.19822599052E+02 -0.23744068199E+02  0.28377548882E+03  0.31166517349E+03  0.12509970463E+03 0.  0.
          5    1    3    3  502    0  0.28371895920E+02  0.19595273407E+02  0.25804618103E+03  0.26037327659E+03  0.41800000000E+01 0.  1.
         -5    1    3    3    0  502 -0.85492968682E+01 -0.43339341607E+02  0.25729307796E+02  0.51291896899E+02  0.41800000000E+01 0.  1.
        -11    1    1    2    0    0 -0.53949166122E+02  0.15817897453E+02  0.96214973911E+02  0.11143625806E+03  0.00000000000E+00 0.  1.
         11    1    1    2    0    0  0.34126567070E+02  0.79261707467E+01  0.12975696698E+03  0.13440356112E+03  0.00000000000E+00 0. -1.
</event>
<event>
 7    1  0.2661133E-009  0.3007888E+03  0.7561462E-02  0.1084847E+00
          3   -1    0    0  501    0  0.00000000000E+00  0.00000000000E+00  0.88576193135E+03  0.88576193135E+03  0.00000000000E+00 0. -1.
         -3   -1    0    0    0  501 -0.00000000000E+00 -0.00000000000E+00 -0.10878083721E+03  0.10878083721E+03  0.00000000000E+00 0.  1.
         25    2    1    2    0    0  0.15533080089E+03  0.24501546547E+03  0.40749539879E+03  0.51561671476E+03  0.12509140851E+03 0.  0.
          5    1    3    3  502    0  0.16735810369E+03  0.20226763051E+03  0.29677550479E+03  0.39625004968E+03  0.41800000000E+01 0.  1.
         -5    1    3    3    0  502 -0.12027302803E+02  0.42747834956E+02  0.11071989400E+03  0.11936666508E+03  0.41800000000E+01 0.  1.
        -11    1    1    2    0    0 -0.23033981753E+02 -0.78100982016E+02  0.51990162199E+02  0.96609029975E+02  0.00000000000E+00 0.  1.
         11    1    1    2    0    0 -0.13229681914E+03 -0.16691448345E+03  0.31749553315E+03  0.38231702383E+03  0.00000000000E+00 0. -1.
</event>
<event>
 7    1  0.2661133E-009  0.1086199E+03  0.7561462E-02  0.1263147E+00
          3   -1    0    0  501    0  0.00000000000E+00  0.00000000000E+00  0.10262076522E+03  0.10262076522E+03  0.00000000000E+00 0. -1.
         -3   -1    0    0    0  501 -0.00000000000E+00 -0.00000000000E+00 -0.19263601457E+03  0.19263601457E+03  0.00000000000E+00 0.  1.
         25    2    1    2    0    0 -0.79784269779E+02  0.38666458297E+02 -0.36722988878E+02  0.15764898878E+03  0.12507598111E+03 0.  0.
          5    1    3    3  502    0 -0.62817900859E+02 -0.14074668502E+02  0.29727879763E+02  0.71031008701E+02  0.41800000000E+01 0. -1.
         -5    1    3    3    0  502 -0.16966368920E+02  0.52741126798E+02 -0.66450868642E+02  0.86617980082E+02  0.41800000000E+01 0. -1.
        -11    1    1    2    0    0  0.10893519554E+02 -0.24532990677E+02 -0.61210735726E+02  0.66837792962E+02  0.00000000000E+00 0.  1.
         11    1    1    2    0    0  0.68890750225E+02 -0.14133467620E+02  0.79184752536E+01  0.70769998049E+02  0.00000000000E+00 0. -1.
</event>
<event>
 7    1  0.2661133E-009  0.2046216E+03  0.7561462E-02  0.1145897E+00
          2   -1    0    0  501    0  0.00000000000E+00  0.00000000000E+00  0.28610123641E+03  0.28610123641E+03  0.00000000000E+00 0. -1.
         -2   -1    0    0    0  501 -0.00000000000E+00 -0.00000000000E+00 -0.18670424968E+03  0.18670424968E+03  0.00000000000E+00 0.  1.
         25    2    1    2    0    0 -0.18745026597E+03  0.45453783477E+02 -0.15501367815E+02  0.23043980307E+03  0.12513417514E+03 0.  0.
          5    1    3    3  502    0 -0.12448017219E+03  0.55440380939E+02  0.43872835510E+02  0.14321748218E+03  0.41800000000E+01 0. -1.
         -5    1    3    3    0  502 -0.62970093780E+02 -0.99865974613E+01 -0.59374203325E+02  0.87222320882E+02  0.41800000000E+01 0. -1.
        -11    1    1    2    0    0  0.48795234886E+02  0.23504301401E+02  0.93557426999E+01  0.54963233651E+02  0.00000000000E+00 0.  1.
         11    1    1    2    0    0  0.13865503109E+03 -0.68958084879E+02  0.10554261185E+03  0.18740244938E+03  0.00000000000E+00 0. -1.
</event>
<event>
 7    1  0.2661133E-009  0.1433992E+03  0.7561462E-02  0.1208827E+00
         -1   -1    0    0    0  501 -0.00000000000E+00  0.00000000000E+00  0.17889771786E+02  0.17889771786E+02  0.00000000000E+00 0.  1.
          1   -1    0    0  501    0  0.00000000000E+00 -0.00000000000E+00 -0.15364107739E+04  0.15364107739E+04  0.00000000000E+00 0. -1.
         25    2    1    2    0    0  0.47801691652E+02  0.11092625719E+03 -0.96765836283E+03  0.98315947699E+03  0.12510081446E+03 0.  0.
          5    1    3    3  502    0 -0.21574206581E+02  0.18471862519E+02 -0.45662986606E+02  0.53937341798E+02  0.41800000000E+01 0. -1.
         -5    1    3    3    0  502  0.69375898233E+02  0.92454394671E+02 -0.92199537622E+03  0.92922213519E+03  0.41800000000E+01 0. -1.
        -11    1    1    2    0    0  0.89924786033E+01 -0.74308555263E+02 -0.38190467998E+03  0.38917067033E+03  0.00000000000E+00 0. -1.
         11    1    1    2    0    0 -0.56794170255E+02 -0.36617701927E+02 -0.16895795933E+03  0.18197039839E+03  0.00000000000E+00 0.  1.
</event>
<event>
 7    1  0.2661133E-009  0.1526736E+03  0.7561462E-02  0.1197226E+00
         -4   -1    0    0    0  501 -0.00000000000E+00  0.00000000000E+00  0.10035513526E+03  0.10035513526E+03  0.00000000000E+00 0.  1.
          4   -1    0    0  501    0  0.00000000000E+00 -0.00000000000E+00 -0.35551447910E+03  0.35551447910E+03  0.00000000000E+00 0. -1.
         25    2    1    2    0    0 -0.70446040065E+02 -0.10626709686E+03 -0.28697990542E+02  0.18090225520E+03  0.12508681320E+03 0.  0.
          5    1    3    3  502    0 -0.84726446495E+02 -0.12609806947E+03 -0.15362235886E+02  0.15275066138E+03  0.41800000000E+01 0.  1.
         -5    1    3    3    0  502  0.14280406430E+02  0.19830972607E+02 -0.13335754655E+02  0.28151593819E+02  0.41800000000E+01 0.  1.
        -11    1    1    2    0    0  0.18822958549E+02  0.42880921179E+02 -0.16498283144E+02  0.49651490576E+02  0.00000000000E+00 0.  1.
         11    1    1    2    0    0  0.51623081517E+02  0.63386175683E+02 -0.20996307015E+03  0.22531586859E+03  0.00000000000E+00 0. -1.
</event>
<event>
 7    1  0.2661133E-009  0.1604895E+03  0.7561462E-02  0.1188145E+00
         -1   -1    0    0    0  501 -0.00000000000E+00  0.00000000000E+00  0.29119495662E+02  0.29119495662E+02  0.00000000000E+00 0.  1.
          1   -1    0    0  501    0  0.00000000000E+00 -0.00000000000E+00 -0.12205853528E+04  0.12205853528E+04  0.00000000000E+00 0. -1.
         25    2    1    2    0    0  0.93833787341E+02  0.91698387604E+02 -0.89312923478E+03  0.91133982426E+03  0.12508825413E+03 0.  0.
          5    1    3    3  502    0  0.83531567196E+02  0.11947783276E+03 -0.63772854714E+03  0.65419236275E+03  0.41800000000E+01 0. -1.
         -5    1    3    3    0  502  0.10302220145E+02 -0.27779445160E+02 -0.25540068764E+03  0.25714746151E+03  0.41800000000E+01 0. -1.
        -11    1    1    2    0    0  0.93464679998E+01 -0.62143798236E+01  0.10489864098E+00  0.11224347838E+02  0.00000000000E+00 0.  1.
         11    1    1    2    0    0 -0.10318025534E+03 -0.85484007781E+02 -0.29844152101E+03  0.32714067638E+03  0.00000000000E+00 0. -1.
</event>
<event>
 7    1  0.2661133E-009  0.1239067E+03  0.7561462E-02  0.1236788E+00
          2   -1    0    0  501    0  0.00000000000E+00  0.00000000000E+00  0.23292920797E+03  0.23292920797E+03  0.00000000000E+00 0. -1.
         -2   -1    0    0    0  501 -0.00000000000E+00 -0.00000000000E+00 -0.11644857568E+03  0.11644857568E+03  0.00000000000E+00 0.  1.
         25    2    1    2    0    0 -0.78111396601E+01 -0.96845583307E+02 -0.18156129143E+02  0.15942625317E+03  0.12508798609E+03 0.  0.
          5    1    3    3  502    0 -0.33802659146E+02 -0.63563560998E+02  0.43768557558E+02  0.84357009684E+02  0.41800000000E+01 0. -1.
         -5    1    3    3    0  502  0.25991519486E+02 -0.33282022309E+02 -0.61924686702E+02  0.75069243484E+02  0.41800000000E+01 0. -1.
        -11    1    1    2    0    0  0.45173560032E+02  0.23429061958E+02  0.41962268228E+02  0.65957588078E+02  0.00000000000E+00 0. -1.
         11    1    1    2    0    0 -0.37362420372E+02  0.73416521349E+02  0.92674493198E+02  0.12399394240E+03  0.00000000000E+00 0.  1.
</event>
<event>
 7    1  0.2874755E-009  0.6628359E+02  0.7561462E-02  0.1373207E+00
         -2   -1    0    0    0  501 -0.00000000000E+00  0.00000000000E+00  0.13477917154E+03  0.13477917154E+03  0.00000000000E+00 0.  1.
          2   -1    0    0  501    0  0.00000000000E+00 -0.00000000000E+00 -0.10944823635E+03  0.10944823635E+03  0.00000000000E+00 0. -1.
         25    2    1    2    0    0 -0.18828971548E+02 -0.21262894549E+02  0.61442302736E+02  0.14222647164E+03  0.12508625750E+03 0.  0.
          5    1    3    3  502    0 -0.29936391726E+02  0.30182414833E+02  0.76243967868E+02  0.87394397710E+02  0.41800000000E+01 0.  1.
         -5    1    3    3    0  502  0.11107420178E+02 -0.51445309382E+02 -0.14801665133E+02  0.54832073927E+02  0.41800000000E+01 0.  1.
        -11    1    1    2    0    0 -0.17988052600E+01  0.15545838665E+02 -0.64542542050E+02  0.66412713651E+02  0.00000000000E+00 0. -1.
         11    1    1    2    0    0  0.20627776808E+02  0.57170558835E+01  0.28431174502E+02  0.35588222596E+02  0.00000000000E+00 0.  1.
</event>
<event>
 7    1  0.2661133E-009  0.9488955E+02  0.7561462E-02  0.1291425E+00
         -1   -1    0    0    0  501 -0.00000000000E+00  0.00000000000E+00  0.33300004103E+02  0.33300004103E+02  0.00000000000E+00 0.  1.
          1   -1    0    0  501    0  0.00000000000E+00 -0.00000000000E+00 -0.42477375700E+03  0.42477375700E+03  0.00000000000E+00 0. -1.
         25    2    1    2    0    0 -0.10736076829E+02 -0.26300082496E+01 -0.13682288874E+03  0.18571436757E+03  0.12508854125E+03 0.  0.
          5    1    3    3  502    0  0.48066863391E+02 -0.22823261631E+02 -0.99949716833E+02  0.11330817677E+03  0.41800000000E+01 0.  1.
         -5    1    3    3    0  502 -0.58802940221E+02  0.20193253381E+02 -0.36873171903E+02  0.72406190805E+02  0.41800000000E+01 0.  1.
        -11    1    1    2    0    0  0.18401677719E+02 -0.32925375285E+02 -0.41306861782E+02  0.55937097805E+02  0.00000000000E+00 0.  1.
         11    1    1    2    0    0 -0.76656008900E+01  0.35555383535E+02 -0.21334400238E+03  0.21642229572E+03  0.00000000000E+00 0. -1.
</event>
<event>
 7    1  0.2661133E-009  0.1116268E+03  0.7561462E-02  0.1257587E+00
         -1   -1    0    0    0  501 -0.00000000000E+00  0.00000000000E+00  0.24310174990E+02  0.24310174990E+02  0.00000000000E+00 0.  1.
          1   -1    0    0  501    0  0.00000000000E+00 -0.00000000000E+00 -0.71797437208E+03  0.71797437208E+03  0.00000000000E+00 0. -1.
         25    2    1    2    0    0 -0.50913780645E+02  0.28708044767E+02 -0.52591317126E+03  0.54373561026E+03  0.12508950902E+03 0.  0.
          5    1    3    3  502    0  0.23263756858E+02 -0.19221942849E+02 -0.42429316274E+02  0.52234133950E+02  0.41800000000E+01 0.  1.
         -5    1    3    3    0  502 -0.74177537503E+02  0.47929987616E+02 -0.48348385499E+03  0.49150147631E+03  0.41800000000E+01 0.  1.
        -11    1    1    2    0    0  0.53766407662E+02  0.18665717761E+02 -0.72889544029E+02  0.92477679692E+02  0.00000000000E+00 0.  1.
         11    1    1    2    0    0 -0.28526270167E+01 -0.47373762528E+02 -0.94861481795E+02  0.10607125711E+03  0.00000000000E+00 0. -1.
</event>
<event>
 7    1  0.2661133E-009  0.9908969E+02  0.7561462E-02  0.1282222E+00
          2   -1    0    0  501    0  0.00000000000E+00  0.00000000000E+00  0.39806554534E+03  0.39806554534E+03  0.00000000000E+00 0. -1.
         -2   -1    0    0    0  501 -0.00000000000E+00 -0.00000000000E+00 -0.33384773108E+02  0.33384773108E+02  0.00000000000E+00 0.  1.
         25    2    1    2    0    0 -0.36503768052E+02 -0.80860913923E+01  0.18854782599E+03  0.22933902471E+03  0.12509274804E+03 0.  0.
          5    1    3    3  502    0 -0.66643458236E+02 -0.46623911346E+02  0.11944424043E+03  0.14456672718E+03  0.41800000000E+01 0. -1.
         -5    1    3    3    0  502  0.30139690185E+02  0.38537819954E+02  0.69103585555E+02  0.84772297526E+02  0.41800000000E+01 0. -1.
        -11    1    1    2    0    0  0.26919832191E+02 -0.22812259925E+02  0.16000859737E+02  0.38744084456E+02  0.00000000000E+00 0.  1.
         11    1    1    2    0    0  0.95839358609E+01  0.30898351317E+02  0.16013208650E+03  0.16336720928E+03  0.00000000000E+00 0. -1.
</event>
<event>
 7    1  0.2661133E-009  0.9839988E+02  0.7561462E-02  0.1283697E+00
          2   -1    0    0  501    0  0.00000000000E+00  0.00000000000E+00  0.14556592597E+04  0.14556592597E+04  0.00000000000E+00 0. -1.
         -2   -1    0    0    0  501 -0.00000000000E+00 -0.00000000000E+00 -0.82617962891E+01  0.82617962891E+01  0.00000000000E+00 0.  1.
         25    2    1    2    0    0 -0.48260837834E+02  0.46389376621E+00  0.12026653461E+04  0.12101155486E+04  0.12508550100E+03 0.  0.
          5    1    3    3  502    0 -0.33378461787E+02  0.60640334467E+02  0.51471721236E+03  0.51936755095E+03  0.41800000000E+01 0.  1.
         -5    1    3    3    0  502 -0.14882376046E+02 -0.60176440701E+02  0.68794813371E+03  0.69074799761E+03  0.41800000000E+01 0.  1.
        -11    1    1    2    0    0  0.40267259577E+02 -0.19453593120E+02  0.13678782559E+03  0.14391248628E+03  0.00000000000E+00 0.  1.
         11    1    1    2    0    0  0.79935782565E+01  0.18989699354E+02  0.10794429181E+03  0.10989302120E+03  0.00000000000E+00 0. -1.
</event>
<event>
 7    1  0.2661133E-009  0.1061580E+03  0.7561462E-02  0.1267855E+00
          1   -1    0    0  501    0  0.00000000000E+00  0.00000000000E+00  0.84506973281E+02  0.84506973281E+02  0.00000000000E+00 0. -1.
         -1   -1    0    0    0  501 -0.00000000000E+00 -0.00000000000E+00 -0.15014299336E+03  0.15014299336E+03  0.00000000000E+00 0.  1.
         25    2    1    2    0    0 -0.51778278714E+02  0.37887314598E+01 -0.22233178892E+02  0.13724982675E+03  0.12509139085E+03 0.  0.
          5    1    3    3  502    0  0.38288983895E+02  0.12140601053E+02  0.91631605311E+01  0.41411066064E+02  0.41800000000E+01 0. -1.
         -5    1    3    3    0  502 -0.90067262610E+02 -0.83518695929E+01 -0.31396339423E+02  0.95838760681E+02  0.41800000000E+01 0. -1.
        -11    1    1    2    0    0 -0.13089354055E+02  0.81567056556E+01 -0.24211673035E+02  0.28706587186E+02  0.00000000000E+00 0.  1.
         11    1    1    2    0    0  0.64867632770E+02 -0.11945437115E+02 -0.19191168156E+02  0.68693552712E+02  0.00000000000E+00 0. -1.
</event>
<event>
 7    1  0.2661133E-009  0.1107210E+03  0.7561462E-02  0.1259240E+00
          1   -1    0    0  501    0  0.00000000000E+00  0.00000000000E+00  0.13083646306E+03  0.13083646306E+03  0.00000000000E+00 0. -1.
         -1   -1    0    0    0  501 -0.00000000000E+00 -0.00000000000E+00 -0.11195275787E+03  0.11195275787E+03  0.00000000000E+00 0.  1.
         25    2    1    2    0    0  0.34452339127E+02  0.31929215432E+02  0.24251502731E+02  0.13580246296E+03  0.12509090731E+03 0.  0.
          5    1    3    3  502    0  0.57623178594E+01  0.78455705271E+02  0.15479562103E+02  0.80284439586E+02  0.41800000000E+01 0.  1.
         -5    1    3    3    0  502  0.28690021268E+02 -0.46526489839E+02  0.87719406283E+01  0.55518023375E+02  0.41800000000E+01 0.  1.
        -11    1    1    2    0    0 -0.38048856393E+02  0.14910285765E+02  0.27848270176E+02  0.49452585840E+02  0.00000000000E+00 0. -1.
         11    1    1    2    0    0  0.35965172657E+01 -0.46839501197E+02 -0.33216067718E+02  0.57534172137E+02  0.00000000000E+00 0.  1.
</event>
<event>
 7    1  0.2661133E-009  0.1920363E+03  0.7561462E-02  0.1156637E+00
         -1   -1    0    0    0  501 -0.00000000000E+00  0.00000000000E+00  0.64605215414E+03  0.64605215414E+03  0.00000000000E+00 0.  1.
          1   -1    0    0  501    0  0.00000000000E+00 -0.00000000000E+00 -0.66649370512E+02  0.66649370512E+02  0.00000000000E+00 0. -1.
         25    2    1    2    0    0 -0.21553841977E+02 -0.17487096798E+03  0.31702433405E+03  0.38366392242E+03  0.12509657647E+03 0.  0.
          5    1    3    3  502    0  0.22872661020E+02  0.37900135855E+01  0.80674555246E+02  0.84043911673E+02  0.41800000000E+01 0.  1.
         -5    1    3    3    0  502 -0.44426502997E+02 -0.17866098156E+03  0.23634977881E+03  0.29962001075E+03  0.41800000000E+01 0.  1.
        -11    1    1    2    0    0  0.19830379012E+02  0.13417136338E+03  0.12049751815E+03  0.18142450376E+03  0.00000000000E+00 0. -1.
         11    1    1    2    0    0  0.17234629646E+01  0.40699604598E+02  0.14188093143E+03  0.14761309847E+03  0.00000000000E+00 0.  1.
</event>
<event>
 7    1  0.2661133E-009  0.1047050E+03  0.7561462E-02  0.1270702E+00
          2   -1    0    0  501    0  0.00000000000E+00  0.00000000000E+00  0.50479984545E+03  0.50479984545E+03  0.00000000000E+00 0. -1.
         -2   -1    0    0    0  501 -0.00000000000E+00 -0.00000000000E+00 -0.23065030025E+02  0.23065030025E+02  0.00000000000E+00 0.  1.
         25    2    1    2    0    0 -0.12034351310E+02  0.41831492070E+02  0.26288431263E+03  0.29436315697E+03  0.12508719763E+03 0.  0.
          5    1    3    3  502    0 -0.18606765388E+02  0.84022149863E+02  0.20450831415E+03  0.22191677797E+03  0.41800000000E+01 0.  1.
         -5    1    3    3    0  502  0.65724140779E+01 -0.42190657793E+02  0.58375998482E+02  0.72446379003E+02  0.41800000000E+01 0.  1.
        -11    1    1    2    0    0  0.34202520575E+02 -0.13929171395E+01  0.75059374189E+02  0.82496438017E+02  0.00000000000E+00 0.  1.
         11    1    1    2    0    0 -0.22168169265E+02 -0.40438574931E+02  0.14379112860E+03  0.15100528049E+03  0.00000000000E+00 0. -1.
</event>
<event>
 7    1  0.2661133E-009  0.1114412E+03  0.7561462E-02  0.1257924E+00
          2   -1    0    0  501    0  0.00000000000E+00  0.00000000000E+00  0.87830743831E+03  0.87830743831E+03  0.00000000000E+00 0. -1.
         -2   -1    0    0    0  501 -0.00000000000E+00 -0.00000000000E+00 -0.15701643352E+02  0.15701643352E+02  0.00000000000E+00 0.  1.
         25    2    1    2    0    0 -0.45307553991E+02  0.10228193242E+02  0.50626443823E+03  0.52355296800E+03  0.12508652404E+03 0.  0.
          5    1    3    3  502    0  0.38092234247E+02  0.14991090342E+02  0.26559991596E+03  0.26876856002E+03  0.41800000000E+01 0.  1.
         -5    1    3    3    0  502 -0.83399788238E+02 -0.47628971001E+01  0.24066452227E+03  0.25478440797E+03  0.41800000000E+01 0.  1.
        -11    1    1    2    0    0  0.32996688052E+02 -0.48066669211E+02  0.25506174736E+03  0.26164036592E+03  0.00000000000E+00 0.  1.
         11    1    1    2    0    0  0.12310865939E+02  0.37838475969E+02  0.10127960936E+03  0.10881574774E+03  0.00000000000E+00 0. -1.
</event>
<event>
 7    1  0.2661133E-009  0.9597561E+02  0.7561462E-02  0.1288994E+00
          2   -1    0    0  501    0  0.00000000000E+00  0.00000000000E+00  0.11572420586E+04  0.11572420586E+04  0.00000000000E+00 0. -1.
         -2   -1    0    0    0  501 -0.00000000000E+00 -0.00000000000E+00 -0.17480113214E+02  0.17480113214E+02  0.00000000000E+00 0.  1.
         25    2    1    2    0    0  0.86471973422E+02  0.81609824323E+01  0.75990541670E+03  0.77501564890E+03  0.12509600269E+03 0.  0.
          5    1    3    3  502    0  0.25221592036E+02 -0.15544321236E+02  0.30778871463E+02  0.42925120339E+02  0.41800000000E+01 0.  1.
         -5    1    3    3    0  502  0.61250381386E+02  0.23705303669E+02  0.72912654523E+03  0.73209052856E+03  0.41800000000E+01 0.  1.
        -11    1    1    2    0    0 -0.80541085540E+02 -0.19992698597E+02  0.37718315801E+03  0.38620423243E+03  0.00000000000E+00 0. -1.
         11    1    1    2    0    0 -0.59308878819E+01  0.11831716165E+02  0.26733707143E+01  0.13502290526E+02  0.00000000000E+00 0.  1.
</event>
<event>
 7    1  0.2661133E-009  0.1640801E+03  0.7561462E-02  0.1184166E+00
         -1   -1    0    0    0  501 -0.00000000000E+00  0.00000000000E+00  0.32944230540E+02  0.32944230540E+02  0.00000000000E+00 0.  1.
          1   -1    0    0  501    0  0.00000000000E+00 -0.00000000000E+00 -0.97493848135E+03  0.97493848135E+03  0.00000000000E+00 0. -1.
         25    2    1    2    0    0 -0.55262984828E+02  0.10132744510E+03 -0.64748722011E+03  0.66948491368E+03  0.12509636616E+03 0.  0.
          5    1    3    3  502    0 -0.69112775123E+02  0.12474520535E+03 -0.54030151745E+03  0.55882120943E+03  0.41800000000E+01 0.  1.
         -5    1    3    3    0  502  0.13849790295E+02 -0.23417760255E+02 -0.10718570265E+03  0.11066370426E+03  0.41800000000E+01 0.  1.
        -11    1    1    2    0    0  0.33935976709E+02  0.16840438190E+02 -0.12538473713E+03  0.13098314082E+03  0.00000000000E+00 0. -1.
         11    1    1    2    0    0  0.21327008119E+02 -0.11816788329E+03 -0.16912229357E+03  0.20741465738E+03  0.00000000000E+00 0.  1.
</event>
<event>
 7    1  0.2661133E-009  0.8269151E+02  0.7561462E-02  0.1321582E+00
          2   -1    0    0  501    0  0.00000000000E+00  0.00000000000E+00  0.88484741655E+02  0.88484741655E+02  0.00000000000E+00 0. -1.
         -2   -1    0    0    0  501 -0.00000000000E+00 -0.00000000000E+00 -0.15835753906E+03  0.15835753906E+03  0.00000000000E+00 0.  1.
         25    2    1    2    0    0  0.22842935990E+02  0.19449467359E+02 -0.75758804093E+02  0.14927956428E+03  0.12507961628E+03 0.  0.
          5    1    3    3  502    0  0.63775410632E+02  0.72493371358E+00 -0.34582009404E+01  0.64009843648E+02  0.41800000000E+01 0. -1.
         -5    1    3    3    0  502 -0.40932474642E+02  0.18724533645E+02 -0.72300603153E+02  0.85269720633E+02  0.41800000000E+01 0. -1.
        -11    1    1    2    0    0  0.17917082301E+01 -0.29573119830E+02 -0.36803043130E+02  0.47246625472E+02  0.00000000000E+00 0.  1.
         11    1    1    2    0    0 -0.24634644220E+02  0.10123652471E+02  0.42689049818E+02  0.50316090961E+02  0.00000000000E+00 0. -1.
</event>
<event>
 7    1  0.2661133E-009  0.9455228E+02  0.7561462E-02  0.1292188E+00
         -2   -1    0    0    0  501 -0.00000000000E+00  0.00000000000E+00  0.19638098388E+02  0.19638098388E+02  0.00000000000E+00 0.  1.
          2   -1    0    0  501    0  0.00000000000E+00 -0.00000000000E+00 -0.61527591712E+03  0.61527591712E+03  0.00000000000E+00 0. -1.
         25    2    1    2    0    0 -0.79020676778E+01 -0.32481980429E+02 -0.41312233387E+03  0.43293740130E+03  0.12508880435E+03 0.  0.
          5    1    3    3  502    0 -0.59571888445E+02 -0.27210745130E+02 -0.31577447243E+03  0.32252166498E+03  0.41800000000E+01 0. -1.
         -5    1    3    3    0  502  0.51669820767E+02 -0.52712352991E+01 -0.97347861442E+02  0.11041573632E+03  0.41800000000E+01 0. -1.
        -11    1    1    2    0    0 -0.85704316623E+01  0.47989953009E+02 -0.59606328265E+02  0.77002612021E+02  0.00000000000E+00 0.  1.
         11    1    1    2    0    0  0.16472499340E+02 -0.15507972581E+02 -0.12290915659E+03  0.12497400218E+03  0.00000000000E+00 0. -1.
</event>
<event>
 7    1  0.2661133E-009  0.9412573E+02  0.7561462E-02  0.1293157E+00
          3   -1    0    0  501    0  0.00000000000E+00  0.00000000000E+00  0.17483267989E+03  0.17483267989E+03  0.00000000000E+00 0. -1.
         -3   -1    0    0    0  501 -0.00000000000E+00 -0.00000000000E+00 -0.83855435718E+02  0.83855435718E+02  0.00000000000E+00 0.  1.
         25    2    1    2    0    0  0.85482538933E+00  0.45275692859E+02  0.85606484398E+02  0.15819716079E+03  0.12508897802E+03 0.  0.
          5    1    3    3  502    0  0.59148596532E+02  0.17099614895E+02  0.66138603376E+02  0.90458501855E+02  0.41800000000E+01 0.  1.
         -5    1    3    3    0  502 -0.58293771143E+02  0.28176077963E+02  0.19467881021E+02  0.67738658939E+02  0.41800000000E+01 0.  1.
        -11    1    1    2    0    0 -0.21184234503E+02 -0.19168099326E+02 -0.36990273818E+02  0.46738294582E+02  0.00000000000E+00 0.  1.
         11    1    1    2    0    0  0.20329409114E+02 -0.26107593533E+02  0.42361033594E+02  0.53752660233E+02  0.00000000000E+00 0. -1.
</event>
<event>
 7    1  0.2661133E-009  0.1067796E+03  0.7561462E-02  0.1266653E+00
         -1   -1    0    0    0  501 -0.00000000000E+00  0.00000000000E+00  0.94210242140E+01  0.94210242140E+01  0.00000000000E+00 0.  1.
          1   -1    0    0  501    0  0.00000000000E+00 -0.00000000000E+00 -0.30223783740E+04  0.30223783740E+04  0.00000000000E+00 0. -1.
         25    2    1    2    0    0  0.35624600670E+00 -0.93345171445E+01 -0.27637148975E+04  0.27665600334E+04  0.12508846428E+03 0.  0.
          5    1    3    3  502    0 -0.45143839797E+02  0.36968817320E+02 -0.10721083475E+04  0.10737031438E+04  0.41800000000E+01 0.  1.
         -5    1    3    3    0  502  0.45500085803E+02 -0.46303334465E+02 -0.16916065499E+04  0.16928568896E+04  0.41800000000E+01 0.  1.
        -11    1    1    2    0    0  0.39573396046E+01  0.49476902437E+02 -0.15373551193E+03  0.16154947242E+03  0.00000000000E+00 0. -1.
         11    1    1    2    0    0 -0.43135856113E+01 -0.40142385292E+02 -0.95506940356E+02  0.10368989234E+03  0.00000000000E+00 0.  1.
</event>
<event>
 7    1  0.2661133E-009  0.1874909E+03  0.7561462E-02  0.1160744E+00
          1   -1    0    0  501    0  0.00000000000E+00  0.00000000000E+00  0.12348691169E+03  0.12348691169E+03  0.00000000000E+00 0. -1.
         -1   -1    0    0    0  501 -0.00000000000E+00 -0.00000000000E+00 -0.42233413664E+03  0.42233413664E+03  0.00000000000E+00 0.  1.
         25    2    1    2    0    0 -0.10485129749E+03  0.14670754515E+03 -0.49628631508E+02  0.22500491675E+03  0.12508922059E+03 0.  0.
          5    1    3    3  502    0 -0.67516292826E+02  0.12361866875E+03 -0.88348528150E+02  0.16632185631E+03  0.41800000000E+01 0.  1.
         -5    1    3    3    0  502 -0.37335004660E+02  0.23088876402E+02  0.38719896642E+02  0.58683060439E+02  0.41800000000E+01 0.  1.
        -11    1    1    2    0    0  0.12920393754E+01 -0.44324703267E+02 -0.11308911364E+03  0.12147220386E+03  0.00000000000E+00 0.  1.
         11    1    1    2    0    0  0.10355925811E+03 -0.10238284188E+03 -0.13612947980E+03  0.19934392773E+03  0.00000000000E+00 0. -1.
</event>
<event>
 7    1  0.2661133E-009  0.9900561E+02  0.7561462E-02  0.1282401E+00
          1   -1    0    0  501    0  0.00000000000E+00  0.00000000000E+00  0.77207345971E+03  0.77207345971E+03  0.00000000000E+00 0. -1.
         -1   -1    0    0    0  501 -0.00000000000E+00 -0.00000000000E+00 -0.38481835180E+02  0.38481835180E+02  0.00000000000E+00 0.  1.
         25    2    1    2    0    0 -0.35671949586E+02 -0.56950797771E+02  0.66284491305E+03  0.67788346217E+03  0.12508688254E+03 0.  0.
          5    1    3    3  502    0  0.19331282372E+01 -0.82043075803E+02  0.55228719983E+03  0.55836674934E+03  0.41800000000E+01 0.  1.
         -5    1    3    3    0  502 -0.37605077823E+02  0.25092278032E+02  0.11055771321E+03  0.11951671283E+03  0.41800000000E+01 0.  1.
        -11    1    1    2    0    0  0.70208796102E+01  0.30988487902E+02  0.85558204237E+02  0.91267658266E+02  0.00000000000E+00 0. -1.
         11    1    1    2    0    0  0.28651069976E+02  0.25962309869E+02 -0.14811492753E+02  0.41404174452E+02  0.00000000000E+00 0.  1.
</event>
<event>
 7    1  0.2661133E-009  0.9835732E+02  0.7561462E-02  0.1283789E+00
         -2   -1    0    0    0  501 -0.00000000000E+00  0.00000000000E+00  0.21074018852E+03  0.21074018852E+03  0.00000000000E+00 0.  1.
          2   -1    0    0  501    0  0.00000000000E+00 -0.00000000000E+00 -0.75045651461E+02  0.75045651461E+02  0.00000000000E+00 0. -1.
         25    2    1    2    0    0  0.66262195497E+01 -0.34599583372E+02  0.14618097260E+03  0.19559201501E+03  0.12508525744E+03 0.  0.
          5    1    3    3  502    0  0.57580992256E+02  0.46476049290E+01  0.36761753287E+02  0.68600800327E+02  0.41800000000E+01 0. -1.
         -5    1    3    3    0  502 -0.50954772706E+02 -0.39247188301E+02  0.10941921931E+03  0.12699121468E+03  0.41800000000E+01 0. -1.
        -11    1    1    2    0    0  0.23814132140E+02 -0.50615129211E+01  0.20110766258E+02  0.31578073439E+02  0.00000000000E+00 0.  1.
         11    1    1    2    0    0 -0.30440351690E+02  0.39661096293E+02 -0.30597201797E+02  0.58615751535E+02  0.00000000000E+00 0. -1.
</event>
<event>
 7    1  0.2661133E-009  0.1222757E+03  0.7561462E-02  0.1239389E+00
         -2   -1    0    0    0  501 -0.00000000000E+00  0.00000000000E+00  0.71259938672E+02  0.71259938672E+02  0.00000000000E+00 0. -1.
          2   -1    0    0  501    0  0.00000000000E+00 -0.00000000000E+00 -0.37383142059E+03  0.37383142059E+03  0.00000000000E+00 0.  1.
         25    2    1    2    0    0  0.10860073995E+03  0.49866162441E+02 -0.20890067320E+03  0.27123387676E+03  0.12509024647E+03 0.  0.
          5    1    3    3  502    0  0.19238230038E+02 -0.40070327541E+01 -0.14999937706E+03  0.15133886258E+03  0.41800000000E+01 0.  1.
         -5    1    3    3    0  502  0.89362509913E+02  0.53873195195E+02 -0.58901296142E+02  0.11989501418E+03  0.41800000000E+01 0.  1.
        -11    1    1    2    0    0 -0.63196676242E+02 -0.22867486081E+02 -0.10304009639E+01  0.67214608039E+02  0.00000000000E+00 0. -1.
         11    1    1    2    0    0 -0.45404063709E+02 -0.26998676360E+02 -0.92640407752E+02  0.10664287447E+03  0.00000000000E+00 0.  1.
</event>
<event>
 7    1  0.2661133E-009  0.1120344E+03  0.7561462E-02  0.1256848E+00
         -2   -1    0    0    0  501 -0.00000000000E+00  0.00000000000E+00  0.98139541371E+02  0.98139541371E+02  0.00000000000E+00 0.  1.
          2   -1    0    0  501    0  0.00000000000E+00 -0.00000000000E+00 -0.19578133515E+03  0.19578133515E+03  0.00000000000E+00 0. -1.
         25    2    1    2    0    0  0.51878815699E+02 -0.54487436259E+02 -0.10489321810E+02  0.14633752144E+03  0.12507738437E+03 0.  0.
          5    1    3    3  502    0  0.91283808966E+02 -0.24537770387E+02 -0.17352259646E+02  0.96194642625E+02  0.41800000000E+01 0.  1.
         -5    1    3    3    0  502 -0.39404993267E+02 -0.29949665872E+02  0.68629378360E+01  0.50142878816E+02  0.41800000000E+01 0.  1.
        -11    1    1    2    0    0 -0.51340950837E+02  0.39483633077E+02 -0.10555009396E+03  0.12383728376E+03  0.00000000000E+00 0. -1.
         11    1    1    2    0    0 -0.53786486242E+00  0.15003803182E+02  0.18397621988E+02  0.23746071324E+02  0.00000000000E+00 0.  1.
</event>
<event>
 7    1  0.2661133E-009  0.7627278E+02  0.7561462E-02  0.1339974E+00
         -2   -1    0    0    0  501 -0.00000000000E+00  0.00000000000E+00  0.46850122543E+02  0.46850122543E+02  0.00000000000E+00 0.  1.
          2   -1    0    0  501    0  0.00000000000E+00 -0.00000000000E+00 -0.30185581484E+03  0.30185581484E+03  0.00000000000E+00 0. -1.
         25    2    1    2    0    0 -0.48747077168E+00  0.44321697880E+02 -0.11472705386E+03  0.17541605670E+03  0.12507535940E+03 0.  0.
          5    1    3    3  502    0 -0.11530942223E+02  0.16323362199E+02  0.25082649233E+02  0.32342332547E+02  0.41800000000E+01 0.  1.
         -5    1    3    3    0  502  0.11043471452E+02  0.27998335681E+02 -0.13980970309E+03  0.14307372415E+03  0.41800000000E+01 0.  1.
        -11    1    1    2    0    0  0.13662249117E+02  0.26441237607E+02 -0.41011810533E+02  0.50673116150E+02  0.00000000000E+00 0.  1.
         11    1    1    2    0    0 -0.13174778345E+02 -0.70762935488E+02 -0.99266827898E+02  0.12261676453E+03  0.00000000000E+00 0. -1.
</event>
<event>
 7    1  0.2661133E-009  0.1096208E+03  0.7561462E-02  0.1261274E+00
          2   -1    0    0  501    0  0.00000000000E+00  0.00000000000E+00  0.23151449589E+03  0.23151449589E+03  0.00000000000E+00 0. -1.
         -2   -1    0    0    0  501 -0.00000000000E+00 -0.00000000000E+00 -0.58723850421E+02  0.58723850421E+02  0.00000000000E+00 0.  1.
         25    2    1    2    0    0 -0.37056776134E+02 -0.29944621163E+02  0.13641946076E+03  0.19110515353E+03  0.12506408532E+03 0.  0.
          5    1    3    3  502    0 -0.80239474900E+02  0.13139514896E+01  0.81997218483E+02  0.11480904163E+03  0.41800000000E+01 0.  1.
         -5    1    3    3    0  502  0.43182698765E+02 -0.31258572652E+02  0.54422242279E+02  0.76296111904E+02  0.41800000000E+01 0.  1.
        -11    1    1    2    0    0  0.25360118554E+01 -0.22489692305E+02  0.27683141732E+02  0.35757152463E+02  0.00000000000E+00 0. -1.
         11    1    1    2    0    0  0.34520764279E+02  0.52434313468E+02  0.86880429733E+01  0.63376040314E+02  0.00000000000E+00 0.  1.
</event>
<event>
 7    1  0.2661133E-009  0.1203753E+03  0.7561462E-02  0.1242479E+00
          2   -1    0    0  501    0  0.00000000000E+00  0.00000000000E+00  0.13425407057E+03  0.13425407057E+03  0.00000000000E+00 0. -1.
         -2   -1    0    0    0  501 -0.00000000000E+00 -0.00000000000E+00 -0.19324668748E+03  0.19324668748E+03  0.00000000000E+00 0.  1.
         25    2    1    2    0    0  0.54131546585E+02 -0.10100163213E+03 -0.65242004080E+02  0.18175763653E+03  0.12509102810E+03 0.  0.
          5    1    3    3  502    0  0.12793903411E+02 -0.67479538972E+02  0.28021446467E+02  0.74295666135E+02  0.41800000000E+01 0. -1.
         -5    1    3    3    0  502  0.41337643174E+02 -0.33522093155E+02 -0.93263450547E+02  0.10746197039E+03  0.41800000000E+01 0. -1.
        -11    1    1    2    0    0  0.58117245199E+00  0.24480752408E+02  0.39072932311E+02  0.46112243920E+02  0.00000000000E+00 0. -1.
         11    1    1    2    0    0 -0.54712719037E+02  0.76520879719E+02 -0.32823545139E+02  0.99630877607E+02  0.00000000000E+00 0.  1.
</event>
<event>
 7    1  0.2661133E-009  0.9617121E+02  0.7561462E-02  0.1288560E+00
          1   -1    0    0  501    0  0.00000000000E+00  0.00000000000E+00  0.48680156936E+03  0.48680156936E+03  0.00000000000E+00 0. -1.
         -1   -1    0    0    0  501 -0.00000000000E+00 -0.00000000000E+00 -0.27031695191E+02  0.27031695191E+02  0.00000000000E+00 0.  1.
         25    2    1    2    0    0  0.97294520545E+01 -0.40229255982E+02  0.26503640288E+03  0.29598113238E+03  0.12508989009E+03 0.  0.
          5    1    3    3  502    0  0.29281194852E+01 -0.72111253230E+02  0.79083407997E+02  0.10714599641E+03  0.41800000000E+01 0.  1.
         -5    1    3    3    0  502  0.68013325693E+01  0.31881997248E+02  0.18595299488E+03  0.18883513597E+03  0.41800000000E+01 0.  1.
        -11    1    1    2    0    0  0.95648430119E-01  0.62678926055E+02  0.86155236388E+02  0.10654286310E+03  0.00000000000E+00 0.  1.
         11    1    1    2    0    0 -0.98251004846E+01 -0.22449670074E+02  0.10857823490E+03  0.11130926907E+03  0.00000000000E+00 0. -1.
</event>
<event>
 7    1  0.2661133E-009  0.1692096E+03  0.7561462E-02  0.1178675E+00
         -1   -1    0    0    0  501 -0.00000000000E+00  0.00000000000E+00  0.40967118475E+03  0.40967118475E+03  0.00000000000E+00 0.  1.
          1   -1    0    0  501    0  0.00000000000E+00 -0.00000000000E+00 -0.76928346220E+02  0.76928346220E+02  0.00000000000E+00 0. -1.
         25    2    1    2    0    0  0.12099595858E+03 -0.62213454310E+02  0.13253090862E+03  0.22742615883E+03  0.12509068746E+03 0.  0.
          5    1    3    3  502    0 -0.91625633317E+01  0.19514989680E+02  0.46067520250E+02  0.51034069121E+02  0.41800000000E+01 0.  1.
         -5    1    3    3    0  502  0.13015852191E+03 -0.81728443990E+02  0.86463388368E+02  0.17639208971E+03  0.41800000000E+01 0.  1.
        -11    1    1    2    0    0 -0.70584549023E+02 -0.13389023915E+02  0.69332699444E+02  0.99842214190E+02  0.00000000000E+00 0.  1.
         11    1    1    2    0    0 -0.50411409554E+02  0.75602478225E+02  0.13087923047E+03  0.15933115795E+03  0.00000000000E+00 0. -1.
</event>
<event>
 7    1  0.2661133E-009  0.1149380E+03  0.7561462E-02  0.1251689E+00
         -2   -1    0    0    0  501 -0.00000000000E+00  0.00000000000E+00  0.89674942723E+02  0.89674942723E+02  0.00000000000E+00 0.  1.
          2   -1    0    0  501    0  0.00000000000E+00 -0.00000000000E+00 -0.20633915392E+03  0.20633915392E+03  0.00000000000E+00 0. -1.
         25    2    1    2    0    0  0.75319526114E+02  0.30028228652E+01 -0.28221418705E+02  0.14874900891E+03  0.12509105172E+03 0.  0.
          5    1    3    3  502    0  0.10078674597E+03 -0.25665768593E+02 -0.60629542951E+01  0.10426376003E+03  0.41800000000E+01 0.  1.
         -5    1    3    3    0  502 -0.25467219855E+02  0.28668591458E+02 -0.22158464410E+02  0.44485248885E+02  0.41800000000E+01 0.  1.
        -11    1    1    2    0    0 -0.23068091884E+02  0.19613229844E+02  0.11379673695E+02  0.32346755966E+02  0.00000000000E+00 0.  1.
         11    1    1    2    0    0 -0.52251434231E+02 -0.22616052710E+02 -0.99822466189E+02  0.11491833176E+03  0.00000000000E+00 0. -1.
</event>
<event>
 7    1  0.2885275E-009  0.1323899E+03  0.7561462E-02  0.1223952E+00
         -1   -1    0    0    0  501 -0.00000000000E+00  0.00000000000E+00  0.13925959160E+03  0.13925959160E+03  0.00000000000E+00 0.  1.
          1   -1    0    0  501    0  0.00000000000E+00 -0.00000000000E+00 -0.23183125464E+03  0.23183125464E+03  0.00000000000E+00 0. -1.
         25    2    1    2    0    0  0.88870235938E+01  0.12208759928E+03 -0.12505321453E+03  0.21510548650E+03  0.12509077812E+03 0.  0.
          5    1    3    3  502    0 -0.45852478575E+01  0.11187759336E+03 -0.26652253606E+02  0.11517567198E+03  0.41800000000E+01 0. -1.
         -5    1    3    3    0  502  0.13472271451E+02  0.10210005925E+02 -0.98400960923E+02  0.99929814518E+02  0.41800000000E+01 0. -1.
        -11    1    1    2    0    0  0.19002043012E+02 -0.93376948936E+02  0.55035627360E+02  0.11004204883E+03  0.00000000000E+00 0.  1.
         11    1    1    2    0    0 -0.27889066606E+02 -0.28710650346E+02 -0.22554075880E+02  0.45943310919E+02  0.00000000000E+00 0. -1.
</event>
<event>
 7    1  0.2661133E-009  0.1128435E+03  0.7561462E-02  0.1255393E+00
         -1   -1    0    0    0  501 -0.00000000000E+00  0.00000000000E+00  0.11511469728E+02  0.11511469728E+02  0.00000000000E+00 0.  1.
          1   -1    0    0  501    0  0.00000000000E+00 -0.00000000000E+00 -0.11252489570E+04  0.11252489570E+04  0.00000000000E+00 0. -1.
         25    2    1    2    0    0  0.35700653940E+01  0.35932778980E+02 -0.61852561564E+03  0.63208038631E+03  0.12509103718E+03 0.  0.
          5    1    3    3  502    0  0.56921930382E+02 -0.11745927608E+02 -0.29709138783E+03  0.30275210667E+03  0.41800000000E+01 0. -1.
         -5    1    3    3    0  502 -0.53351864988E+02  0.47678706588E+02 -0.32143422781E+03  0.32932827964E+03  0.41800000000E+01 0. -1.
        -11    1    1    2    0    0 -0.12922228412E+02 -0.64448716199E+02 -0.37888204888E+03  0.38454158159E+03  0.00000000000E+00 0. -1.
         11    1    1    2    0    0  0.93521630178E+01  0.28515937219E+02 -0.11632982277E+03  0.12013845885E+03  0.00000000000E+00 0.  1.
</event>
<event>
 7    1  0.2661133E-009  0.9783819E+02  0.7561462E-02  0.1284909E+00
          2   -1    0    0  501    0  0.00000000000E+00  0.00000000000E+00  0.11332550170E+04  0.11332550170E+04  0.00000000000E+00 0.  1.
         -2   -1    0    0    0  501 -0.00000000000E+00 -0.00000000000E+00 -0.15681886895E+02  0.15681886895E+02  0.00000000000E+00 0. -1.
         25    2    1    2    0    0 -0.69098380347E+02 -0.33532778391E+02  0.57473195389E+03  0.59318011299E+03  0.12508714658E+03 0.  0.
          5    1    3    3  502    0 -0.20313736559E+02 -0.10853316548E+02  0.93131286919E+01  0.25192243630E+02  0.41800000000E+01 0. -1.
         -5    1    3    3    0  502 -0.48784643789E+02 -0.22679461843E+02  0.56541882520E+03  0.56798786936E+03  0.41800000000E+01 0. -1.
        -11    1    1    2    0    0 -0.95033220779E+01  0.38397327883E+02  0.21326315613E+03  0.21690053407E+03  0.00000000000E+00 0.  1.
         11    1    1    2    0    0  0.78601702425E+02 -0.48645494916E+01  0.32957802006E+03  0.33885625680E+03  0.00000000000E+00 0. -1.
</event>
<event>
 7    1  0.2661133E-009  0.1026952E+03  0.7561462E-02  0.1274728E+00
         -2   -1    0    0    0  501 -0.00000000000E+00  0.00000000000E+00  0.34860843513E+02  0.34860843513E+02  0.00000000000E+00 0.  1.
          2   -1    0    0  501    0  0.00000000000E+00 -0.00000000000E+00 -0.64404514737E+03  0.64404514737E+03  0.00000000000E+00 0. -1.
         25    2    1    2    0    0  0.15530429017E+02 -0.70993951032E+01 -0.56049259569E+03  0.57453755874E+03  0.12509940427E+03 0.  0.
          5    1    3    3  502    0  0.69094370206E+02 -0.72331056516E+00 -0.25193180759E+03  0.26126933086E+03  0.41800000000E+01 0.  1.
         -5    1    3    3    0  502 -0.53563941189E+02 -0.63760845380E+01 -0.30856078809E+03  0.31326822788E+03  0.41800000000E+01 0.  1.
        -11    1    1    2    0    0  0.27368194716E+02  0.23561677071E+02  0.17250030671E+01  0.36154478892E+02  0.00000000000E+00 0.  1.
         11    1    1    2    0    0 -0.42898623733E+02 -0.16462281968E+02 -0.50416711235E+02  0.68213953246E+02  0.00000000000E+00 0. -1.
</event>
<event>
 7    1  0.2661133E-009  0.1247276E+03  0.7561462E-02  0.1235496E+00
          1   -1    0    0  501    0  0.00000000000E+00  0.00000000000E+00  0.44713159291E+02  0.44713159291E+02  0.00000000000E+00 0. -1.
         -1   -1    0    0    0  501 -0.00000000000E+00 -0.00000000000E+00 -0.39010952093E+03  0.39010952093E+03  0.00000000000E+00 0.  1.
         25    2    1    2    0    0 -0.30898401837E+02 -0.63199877281E+02 -0.14584319264E+03  0.20461375203E+03  0.12509042712E+03 0.  0.
          5    1    3    3  502    0  0.26711677669E+02  0.23739277390E+02 -0.57693290980E+02  0.67993052873E+02  0.41800000000E+01 0. -1.
         -5    1    3    3    0  502 -0.57610079506E+02 -0.86939154671E+02 -0.88149901662E+02  0.13662069916E+03  0.41800000000E+01 0. -1.
        -11    1    1    2    0    0  0.58541668905E+02  0.54844825804E+02 -0.11020169876E+03  0.13630662612E+03  0.00000000000E+00 0. -1.
         11    1    1    2    0    0 -0.27643267068E+02  0.83550514769E+01 -0.89351470233E+02  0.93902302060E+02  0.00000000000E+00 0.  1.
</event>
<event>
 7    1  0.2661133E-009  0.7534882E+02  0.7561462E-02  0.1342794E+00
          1   -1    0    0  501    0  0.00000000000E+00  0.00000000000E+00  0.20661978354E+03  0.20661978354E+03  0.00000000000E+00 0.  1.
         -1   -1    0    0    0  501 -0.00000000000E+00 -0.00000000000E+00 -0.53712171457E+02  0.53712171457E+02  0.00000000000E+00 0. -1.
         25    2    1    2    0    0  0.25819935628E+02 -0.73493351877E+01  0.87434688728E+02  0.15496440799E+03  0.12509380939E+03 0.  0.
          5    1    3    3  502    0 -0.14236631371E+02 -0.34997818151E+02  0.97885805736E+02  0.10500777263E+03  0.41800000000E+01 0.  1.
         -5    1    3    3    0  502  0.40056566999E+02  0.27648482964E+02 -0.10451117008E+02  0.49956635361E+02  0.41800000000E+01 0.  1.
        -11    1    1    2    0    0 -0.25456112490E+02 -0.22504363951E+02  0.67368197608E+02  0.75451534835E+02  0.00000000000E+00 0.  1.
         11    1    1    2    0    0 -0.36382313774E+00  0.29853699139E+02 -0.18952742566E+01  0.29916012168E+02  0.00000000000E+00 0. -1.
</event>
<event>
 7    1  0.2661133E-009  0.1031515E+03  0.7561462E-02  0.1273805E+00
          2   -1    0    0  501    0  0.00000000000E+00  0.00000000000E+00  0.61259725653E+02  0.61259725653E+02  0.00000000000E+00 0. -1.
         -2   -1    0    0    0  501 -0.00000000000E+00 -0.00000000000E+00 -0.22008751288E+03  0.22008751288E+03  0.00000000000E+00 0.  1.
         25    2    1    2    0    0  0.67584445100E+01  0.34134121004E+02 -0.63536973275E+02  0.14458403313E+03  0.12512705892E+03 0.  0.
          5    1    3    3  502    0 -0.14971957873E-01  0.74961562283E+02 -0.84435643787E+01  0.75551321785E+02  0.41800000000E+01 0.  1.
         -5    1    3    3    0  502  0.67734164679E+01 -0.40827441279E+02 -0.55093408896E+02  0.69032711346E+02  0.41800000000E+01 0.  1.
        -11    1    1    2    0    0  0.17921240580E+02  0.21960724096E+02 -0.68442382136E+01  0.29159695874E+02  0.00000000000E+00 0. -1.
         11    1    1    2    0    0 -0.24679685090E+02 -0.56094845100E+02 -0.88446575741E+02  0.10760350953E+03  0.00000000000E+00 0.  1.
</event>
<event>
 7    1  0.2661133E-009  0.1302422E+03  0.7561462E-02  0.1227097E+00
         -2   -1    0    0    0  501 -0.00000000000E+00  0.00000000000E+00  0.57901541299E+02  0.57901541299E+02  0.00000000000E+00 0.  1.
          2   -1    0    0  501    0  0.00000000000E+00 -0.00000000000E+00 -0.33782369034E+03  0.33782369034E+03  0.00000000000E+00 0. -1.
         25    2    1    2    0    0 -0.43006861450E+01 -0.88503278661E+02 -0.14939174931E+03  0.21404821686E+03  0.12508964043E+03 0.  0.
          5    1    3    3  502    0 -0.87322594151E+01  0.26535223370E+02 -0.39663289563E+01  0.28523229115E+02  0.41800000000E+01 0. -1.
         -5    1    3    3    0  502  0.44315732701E+01 -0.11503850203E+03 -0.14542542036E+03  0.18552498774E+03  0.41800000000E+01 0. -1.
        -11    1    1    2    0    0  0.31983521831E+02  0.82816325076E+02 -0.12428220118E+03  0.15273360762E+03  0.00000000000E+00 0. -1.
         11    1    1    2    0    0 -0.27682835686E+02  0.56869535850E+01 -0.62481985485E+01  0.28943407156E+02  0.00000000000E+00 0.  1.
</event>
<event>
 7    1  0.2661133E-009  0.1094635E+03  0.7561462E-02  0.1261567E+00
         -1   -1    0    0    0  501 -0.00000000000E+00  0.00000000000E+00  0.71759811573E+02  0.71759811573E+02  0.00000000000E+00 0.  1.
          1   -1    0    0  501    0  0.00000000000E+00 -0.00000000000E+00 -0.24666297033E+03  0.24666297033E+03  0.00000000000E+00 0. -1.
         25    2    1    2    0    0  0.36686328468E+02  0.53015226464E+02 -0.46990442016E+02  0.14837972687E+03  0.12510771667E+03 0.  0.
          5    1    3    3  502    0  0.74689029543E+02  0.20995494212E+02  0.30186109792E+01  0.77755040502E+02  0.41800000000E+01 0.  1.
         -5    1    3    3    0  502 -0.38002701075E+02  0.32019732252E+02 -0.50009052995E+02  0.70624686364E+02  0.41800000000E+01 0.  1.
        -11    1    1    2    0    0 -0.55508456652E+02 -0.41354470605E+02 -0.41211117169E+02  0.80558905016E+02  0.00000000000E+00 0. -1.
         11    1    1    2    0    0  0.18822128185E+02 -0.11660755859E+02 -0.86701599573E+02  0.89484150022E+02  0.00000000000E+00 0.  1.
</event>
<event>
 7    1  0.2661133E-009  0.1719376E+03  0.7561462E-02  0.1175842E+00
         -2   -1    0    0    0  501 -0.00000000000E+00  0.00000000000E+00  0.54578091151E+02  0.54578091151E+02  0.00000000000E+00 0.  1.
          2   -1    0    0  501    0  0.00000000000E+00 -0.00000000000E+00 -0.13799132959E+04  0.13799132959E+04  0.00000000000E+00 0. -1.
         25    2    1    2    0    0 -0.37252994254E+02 -0.14508008470E+03 -0.12154040034E+04  0.12309715469E+04  0.12509213129E+03 0.  0.
          5    1    3    3  502    0  0.27878390101E+02 -0.31951156847E+02 -0.11142983438E+03  0.11929862300E+03  0.41800000000E+01 0. -1.
         -5    1    3    3    0  502 -0.65131384356E+02 -0.11312892786E+03 -0.11039741690E+04  0.11116729239E+04  0.41800000000E+01 0. -1.
        -11    1    1    2    0    0  0.63560259250E+02  0.10330507675E+03 -0.85785756146E+02  0.14856325722E+03  0.00000000000E+00 0. -1.
         11    1    1    2    0    0 -0.26307264996E+02  0.41775007953E+02 -0.24145445219E+02  0.54956582917E+02  0.00000000000E+00 0.  1.
</event>
<event>
 7    1  0.2661133E-009  0.6784644E+02  0.7561462E-02  0.1367573E+00
         -2   -1    0    0    0  501 -0.00000000000E+00  0.00000000000E+00  0.64535889757E+02  0.64535889757E+02  0.00000000000E+00 0.  1.
          2   -1    0    0  501    0  0.00000000000E+00 -0.00000000000E+00 -0.23097984004E+03  0.23097984004E+03  0.00000000000E+00 0. -1.
         25    2    1    2    0    0 -0.56648427215E+01  0.19036414966E+02 -0.15724790604E+03  0.20191443907E+03  0.12509221084E+03 0.  0.
          5    1    3    3  502    0  0.24104688161E+02  0.35428258551E+02 -0.16174776762E+03  0.16737983817E+03  0.41800000000E+01 0.  1.
         -5    1    3    3    0  502 -0.29769530883E+02 -0.16391843585E+02  0.44998615787E+01  0.34534600900E+02  0.41800000000E+01 0.  1.
        -11    1    1    2    0    0  0.28897074523E+02 -0.20005036524E+02 -0.41128546001E+02  0.54099904791E+02  0.00000000000E+00 0. -1.
         11    1    1    2    0    0 -0.23232231801E+02  0.96862155798E+00  0.31932501761E+02  0.39501385936E+02  0.00000000000E+00 0.  1.
</event>
<event>
 7    1  0.2661133E-009  0.9836984E+02  0.7561462E-02  0.1283762E+00
          2   -1    0    0  501    0  0.00000000000E+00  0.00000000000E+00  0.20282749108E+03  0.20282749108E+03  0.00000000000E+00 0. -1.
         -2   -1    0    0    0  501 -0.00000000000E+00 -0.00000000000E+00 -0.98732856412E+02  0.98732856412E+02  0.00000000000E+00 0.  1.
         25    2    1    2    0    0  0.58229259384E+02  0.50215865162E+02  0.10961866871E+03  0.18323325618E+03  0.12508354759E+03 0.  0.
          5    1    3    3  502    0  0.79249056569E+02  0.30199614911E+02  0.17681595670E+02  0.86732582882E+02  0.41800000000E+01 0. -1.
         -5    1    3    3    0  502 -0.21019797185E+02  0.20016250252E+02  0.91937073040E+02  0.96500673298E+02  0.41800000000E+01 0. -1.
        -11    1    1    2    0    0 -0.11294883829E+02  0.28610726768E+01  0.34872860278E+02  0.36767873498E+02  0.00000000000E+00 0. -1.
         11    1    1    2    0    0 -0.46934375556E+02 -0.53076937839E+02 -0.40396894323E+02  0.81559217812E+02  0.00000000000E+00 0.  1.
</event>
<event>
 7    1  0.2661133E-009  0.9082440E+02  0.7561462E-02  0.1300867E+00
          2   -1    0    0  501    0  0.00000000000E+00  0.00000000000E+00  0.15544349600E+03  0.15544349600E+03  0.00000000000E+00 0. -1.
         -2   -1    0    0    0  501 -0.00000000000E+00 -0.00000000000E+00 -0.13443094084E+03  0.13443094084E+03  0.00000000000E+00 0.  1.
         25    2    1    2    0    0  0.24481956192E+02 -0.38777527881E+02 -0.72105258805E+02  0.15149011116E+03  0.12508805932E+03 0.  0.
          5    1    3    3  502    0  0.16145705513E+02  0.36612781116E+02 -0.63317826168E+02  0.75018658067E+02  0.41800000000E+01 0. -1.
         -5    1    3    3    0  502  0.83362506791E+01 -0.75390308997E+02 -0.87874326370E+01  0.76471453094E+02  0.41800000000E+01 0. -1.
        -11    1    1    2    0    0 -0.34351699001E+02  0.11153277691E+02  0.10161606092E+03  0.10784367698E+03  0.00000000000E+00 0. -1.
         11    1    1    2    0    0  0.98697428095E+01  0.27624250190E+02 -0.84982469550E+01  0.30540648700E+02  0.00000000000E+00 0.  1.
</event>
<event>
 7    1  0.2661133E-009  0.1048405E+03  0.7561462E-02  0.1270434E+00
         -2   -1    0    0    0  501 -0.00000000000E+00  0.00000000000E+00  0.28285519006E+03  0.28285519006E+03  0.00000000000E+00 0.  1.
          2   -1    0    0  501    0  0.00000000000E+00 -0.00000000000E+00 -0.41199936589E+02  0.41199936589E+02  0.00000000000E+00 0. -1.
         25    2    1    2    0    0 -0.49570079794E+02  0.45248884839E+01  0.13429696322E+03  0.19016479850E+03  0.12509719754E+03 0.  0.
          5    1    3    3  502    0 -0.54135457397E+02  0.55955112080E+02  0.54877616886E+02  0.95344887386E+02  0.41800000000E+01 0. -1.
         -5    1    3    3    0  502  0.45653776024E+01 -0.51430223596E+02  0.79419346336E+02  0.94819911117E+02  0.41800000000E+01 0. -1.
        -11    1    1    2    0    0  0.23834623226E+02  0.29069792141E+02  0.47270596583E+02  0.60395789429E+02  0.00000000000E+00 0.  1.
         11    1    1    2    0    0  0.25735456568E+02 -0.33594680625E+02  0.60087693661E+02  0.73494538712E+02  0.00000000000E+00 0. -1.
</event>
<event>
 7    1  0.2661133E-009  0.1018682E+03  0.7561462E-02  0.1276416E+00
         -2   -1    0    0    0  501 -0.00000000000E+00  0.00000000000E+00  0.13875631961E+03  0.13875631961E+03  0.00000000000E+00 0.  1.
          2   -1    0    0  501    0  0.00000000000E+00 -0.00000000000E+00 -0.11718069672E+03  0.11718069672E+03  0.00000000000E+00 0. -1.
         25    2    1    2    0    0  0.29537463194E+02 -0.59758282403E+02 -0.65768963391E+01  0.14189720415E+03  0.12509215376E+03 0.  0.
          5    1    3    3  502    0  0.76000298421E+02 -0.30828108281E+02  0.13939055061E+02  0.83295781864E+02  0.41800000000E+01 0.  1.
         -5    1    3    3    0  502 -0.46462835228E+02 -0.28930174123E+02 -0.20515951400E+02  0.58601422287E+02  0.41800000000E+01 0.  1.
        -11    1    1    2    0    0 -0.19934983281E+02  0.43280640526E+02 -0.27633548245E+02  0.55083848734E+02  0.00000000000E+00 0. -1.
         11    1    1    2    0    0 -0.96024799127E+01  0.16477641877E+02  0.55786067467E+02  0.58955963445E+02  0.00000000000E+00 0.  1.
</event>
<event>
 7    1  0.2661133E-009  0.1233618E+03  0.7561462E-02  0.1237652E+00
         -2   -1    0    0    0  501 -0.00000000000E+00  0.00000000000E+00  0.33498716231E+02  0.33498716231E+02  0.00000000000E+00 0. -1.
          2   -1    0    0  501    0  0.00000000000E+00 -0.00000000000E+00 -0.55507290787E+03  0.55507290787E+03  0.00000000000E+00 0.  1.
         25    2    1    2    0    0 -0.58353089181E+01 -0.63945658278E+01 -0.17956308659E+03  0.21900708344E+03  0.12508500802E+03 0.  0.
          5    1    3    3  502    0  0.11354299935E+02 -0.63329961051E+02 -0.10886820575E+03  0.12652811038E+03  0.41800000000E+01 0. -1.
         -5    1    3    3    0  502 -0.17189608853E+02  0.56935395223E+02 -0.70694880838E+02  0.92478973061E+02  0.41800000000E+01 0. -1.
        -11    1    1    2    0    0  0.87229862554E+01 -0.57756655396E+02 -0.25391991832E+03  0.26055181184E+03  0.00000000000E+00 0.  1.
         11    1    1    2    0    0 -0.28876773373E+01  0.64151221224E+02 -0.88091186722E+02  0.10901272881E+03  0.00000000000E+00 0. -1.
</event>
<event>
 6    1  0.2661133E-009  0.1372818E+03  0.7561462E-02  0.1217034E+00
          3   -1    0    0  501    0  0.00000000000E+00  0.00000000000E+00  0.37521904492E+03  0.37521904492E+03  0.00000000000E+00 0. -1.
         -3   -1    0    0    0  501 -0.00000000000E+00 -0.00000000000E+00 -0.53371290931E+02  0.53371290931E+02  0.00000000000E+00 0.  1.
          5    1    1    2  502    0 -0.22879482661E+02  0.90130982566E+02  0.11698214180E+03  0.14949701885E+03  0.41800000000E+01 0. -1.
         -5    1    1    2    0  502 -0.45293737102E+02 -0.36096043118E+02  0.10181323870E+03  0.11720859578E+03  0.41800000000E+01 0. -1.
        -11    1    1    2    0    0  0.82499098802E+02 -0.17730165243E+02  0.81432111460E+02  0.11726742446E+03  0.00000000000E+00 0.  1.
         11    1    1    2    0    0 -0.14325879039E+02 -0.36304774205E+02  0.21620262030E+02  0.44617296764E+02  0.00000000000E+00 0. -1.
</event>
<event>
 7    1  0.2661133E-009  0.1603990E+03  0.7561462E-02  0.1188247E+00
         -1   -1    0    0    0  501 -0.00000000000E+00  0.00000000000E+00  0.20372992488E+03  0.20372992488E+03  0.00000000000E+00 0.  1.
          1   -1    0    0  501    0  0.00000000000E+00 -0.00000000000E+00 -0.14340563207E+03  0.14340563207E+03  0.00000000000E+00 0. -1.
         25    2    1    2    0    0 -0.86999862569E+02  0.97981892960E+02  0.49238632377E+02  0.18772529253E+03  0.12508762969E+03 0.  0.
          5    1    3    3  502    0 -0.10028706351E+03  0.44803468667E+02 -0.56197269670E+01  0.11006316206E+03  0.41800000000E+01 0.  1.
         -5    1    3    3    0  502  0.13287200940E+02  0.53178424294E+02  0.54858359344E+02  0.77662130470E+02  0.41800000000E+01 0.  1.
        -11    1    1    2    0    0  0.67019977478E+02 -0.12570319528E+02 -0.10712597939E+02  0.69024995971E+02  0.00000000000E+00 0.  1.
         11    1    1    2    0    0  0.19979885091E+02 -0.85411573432E+02  0.21798258368E+02  0.90385268447E+02  0.00000000000E+00 0. -1.
</event>
<event>
 7    1  0.2661133E-009  0.9565733E+02  0.7561462E-02  0.1289702E+00
          1   -1    0    0  501    0  0.00000000000E+00  0.00000000000E+00  0.11905627149E+03  0.11905627149E+03  0.00000000000E+00 0. -1.
         -1   -1    0    0    0  501 -0.00000000000E+00 -0.00000000000E+00 -0.10312418370E+03  0.10312418370E+03  0.00000000000E+00 0.  1.
         25    2    1    2    0    0  0.60989635076E+01  0.14907528640E+02  0.30094000732E+02  0.12966247937E+03  0.12508907990E+03 0.  0.
          5    1    3    3  502    0  0.31664586733E+02 -0.47597652068E+02  0.22494088633E+02  0.61576285685E+02  0.41800000000E+01 0.  1.
         -5    1    3    3    0  502 -0.25565623226E+02  0.62505180708E+02  0.75999120998E+01  0.68086193682E+02  0.41800000000E+01 0.  1.
        -11    1    1    2    0    0  0.22239141428E+02 -0.27463043246E+02 -0.39124166771E+02  0.52720950118E+02  0.00000000000E+00 0.  1.
         11    1    1    2    0    0 -0.28338104936E+02  0.12555514606E+02  0.24962253836E+02  0.39797025704E+02  0.00000000000E+00 0. -1.
</event>
<event>
 7    1  0.2661133E-009  0.1082807E+03  0.7561462E-02  0.1263787E+00
          1   -1    0    0  501    0  0.00000000000E+00  0.00000000000E+00  0.69325498816E+03  0.69325498816E+03  0.00000000000E+00 0. -1.
         -1   -1    0    0    0  501 -0.00000000000E+00 -0.00000000000E+00 -0.24237306970E+02  0.24237306970E+02  0.00000000000E+00 0.  1.
         25    2    1    2    0    0 -0.60574649446E+02 -0.15893525015E+02  0.46033407793E+03  0.48112110116E+03  0.12509259923E+03 0.  0.
          5    1    3    3  502    0  0.21119221418E+02 -0.19594085339E+02  0.25672008091E+02  0.38813323653E+02  0.41800000000E+01 0. -1.
         -5    1    3    3    0  502 -0.81693870864E+02  0.37005603241E+01  0.43466206984E+03  0.44230777751E+03  0.41800000000E+01 0. -1.
        -11    1    1    2    0    0  0.49845389525E+02 -0.30173345730E+02  0.77778482596E+02  0.97182745405E+02  0.00000000000E+00 0.  1.
         11    1    1    2    0    0  0.10729259921E+02  0.46066870745E+02  0.13090512066E+03  0.13918844856E+03  0.00000000000E+00 0. -1.
</event>
<event>
 7    1  0.2661133E-009  0.1219924E+03  0.7561462E-02  0.1239846E+00
          1   -1    0    0  501    0  0.00000000000E+00  0.00000000000E+00  0.72944732379E+03  0.72944732379E+03  0.00000000000E+00 0. -1.
         -1   -1    0    0    0  501 -0.00000000000E+00 -0.00000000000E+00 -0.27904789643E+02  0.27904789643E+02  0.00000000000E+00 0.  1.
         25    2    1    2    0    0  0.11073867023E+02 -0.77234600761E+02  0.25799717989E+03  0.29714977591E+03  0.12509048888E+03 0.  0.
          5    1    3    3  502    0 -0.27275424469E+02  0.20422380708E+02  0.27934208047E+02  0.44258499669E+02  0.41800000000E+01 0.  1.
         -5    1    3    3    0  502  0.38349291491E+02 -0.97656981469E+02  0.23006297184E+03  0.25289127624E+03  0.41800000000E+01 0.  1.
        -11    1    1    2    0    0 -0.22067517474E+02  0.87119729895E+02  0.43252347622E+03  0.44176167799E+03  0.00000000000E+00 0. -1.
         11    1    1    2    0    0  0.10993650451E+02 -0.98851291345E+01  0.11021878040E+02  0.18440659527E+02  0.00000000000E+00 0.  1.
</event>
<event>
 7    1  0.2661133E-009  0.1256751E+03  0.7561462E-02  0.1234018E+00
         -1   -1    0    0    0  501 -0.00000000000E+00  0.00000000000E+00  0.43144930880E+02  0.43144930880E+02  0.00000000000E+00 0.  1.
          1   -1    0    0  501    0  0.00000000000E+00 -0.00000000000E+00 -0.10312072419E+04  0.10312072419E+04  0.00000000000E+00 0. -1.
         25    2    1    2    0    0 -0.91668836740E+02 -0.11339087362E+02 -0.91208442028E+03  0.92524425653E+03  0.12508874448E+03 0.  0.
          5    1    3    3  502    0 -0.10507567638E+03 -0.25918270671E+02 -0.88408186977E+03  0.89069123683E+03  0.41800000000E+01 0.  1.
         -5    1    3    3    0  502  0.13406839639E+02  0.14579183309E+02 -0.28002550514E+02  0.34553019700E+02  0.41800000000E+01 0.  1.
        -11    1    1    2    0    0 -0.13270980076E+02 -0.88315241232E+01  0.30108906904E+01  0.16222829386E+02  0.00000000000E+00 0.  1.
         11    1    1    2    0    0  0.10493981682E+03  0.20170611485E+02 -0.78988781453E+02  0.13288508689E+03  0.00000000000E+00 0. -1.
</event>
<event>
 7    1  0.2661133E-009  0.7494575E+02  0.7561462E-02  0.1344039E+00
         -2   -1    0    0    0  501 -0.00000000000E+00  0.00000000000E+00  0.49318216769E+02  0.49318216769E+02  0.00000000000E+00 0.  1.
          2   -1    0    0  501    0  0.00000000000E+00 -0.00000000000E+00 -0.29898224352E+03  0.29898224352E+03  0.00000000000E+00 0. -1.
         25    2    1    2    0    0 -0.40015944787E+02 -0.30103744866E+02 -0.10377759091E+03  0.17007029442E+03  0.12508639166E+03 0.  0.
          5    1    3    3  502    0 -0.23539748885E+02  0.49672267205E+00  0.26193764835E+02  0.35467622238E+02  0.41800000000E+01 0.  1.
         -5    1    3    3    0  502 -0.16476195901E+02 -0.30600467538E+02 -0.12997135575E+03  0.13460267218E+03  0.41800000000E+01 0.  1.
        -11    1    1    2    0    0  0.58487649581E+02  0.35082522278E+01 -0.50009802592E+02  0.77033066553E+02  0.00000000000E+00 0.  1.
         11    1    1    2    0    0 -0.18471704795E+02  0.26595492638E+02 -0.95876633253E+02  0.10119709932E+03  0.00000000000E+00 0. -1.
</event>
<event>
 7    1  0.2661133E-009  0.1014131E+03  0.7561462E-02  0.1277352E+00
          2   -1    0    0  501    0  0.00000000000E+00  0.00000000000E+00  0.95310984622E+02  0.95310984622E+02  0.00000000000E+00 0. -1.
         -2   -1    0    0    0  501 -0.00000000000E+00 -0.00000000000E+00 -0.18335636028E+03  0.18335636028E+03  0.00000000000E+00 0.  1.
         25    2    1    2    0    0 -0.68415157216E+02 -0.12661304947E+02 -0.25335096738E+02  0.14536304156E+03  0.12509038470E+03 0.  0.
          5    1    3    3  502    0  0.31262983732E+02 -0.10784788384E+02 -0.30861459323E+02  0.45426730940E+02  0.41800000000E+01 0. -1.
         -5    1    3    3    0  502 -0.99678140948E+02 -0.18765165627E+01  0.55263625853E+01  0.99936310621E+02  0.41800000000E+01 0. -1.
        -11    1    1    2    0    0  0.30241204493E+02  0.77638933555E+01 -0.83793381476E+02  0.89421134350E+02  0.00000000000E+00 0.  1.
         11    1    1    2    0    0  0.38173952723E+02  0.48974115912E+01  0.21083102560E+02  0.43883168987E+02  0.00000000000E+00 0. -1.
</event>
<event>
 7    1  0.2820686E-009  0.9992476E+02  0.7561462E-02  0.1280454E+00
         -2   -1    0    0    0  501 -0.00000000000E+00  0.00000000000E+00  0.12073637647E+03  0.12073637647E+03  0.00000000000E+00 0.  1.
          2   -1    0    0  501    0  0.00000000000E+00 -0.00000000000E+00 -0.14942284598E+03  0.14942284598E+03  0.00000000000E+00 0. -1.
         25    2    1    2    0    0 -0.23685062748E+02  0.91969281699E+00 -0.92096616362E+02  0.15713482126E+03  0.12509091604E+03 0.  0.
          5    1    3    3  502    0 -0.62752934681E+02  0.28783054982E+02 -0.83127587774E+02  0.10813909244E+03  0.41800000000E+01 0. -1.
         -5    1    3    3    0  502  0.39067871934E+02 -0.27863362165E+02 -0.89690285884E+01  0.48995728818E+02  0.41800000000E+01 0. -1.
        -11    1    1    2    0    0  0.53079208158E+02 -0.17868215263E+01  0.64556570125E+02  0.83595130338E+02  0.00000000000E+00 0.  1.
         11    1    1    2    0    0 -0.29394145411E+02  0.86712870933E+00 -0.11464232677E+01  0.29429270853E+02  0.00000000000E+00 0. -1.
</event>
<event>
 7    1  0.2661133E-009  0.1367294E+03  0.7561462E-02  0.1217799E+00
         -4   -1    0    0    0  501 -0.00000000000E+00  0.00000000000E+00  0.58385830709E+03  0.58385830709E+03  0.00000000000E+00 0.  1.
          4   -1    0    0  501    0  0.00000000000E+00 -0.00000000000E+00 -0.35725690541E+02  0.35725690541E+02  0.00000000000E+00 0. -1.
         25    2    1    2    0    0  0.29453862730E+02 -0.17587249855E+02  0.30299171926E+03  0.32958877734E+03  0.12509172163E+03 0.  0.
          5    1    3    3  502    0  0.88447717427E+01 -0.66089432735E+02  0.22971478818E+03  0.23923293965E+03  0.41800000000E+01 0.  1.
         -5    1    3    3    0  502  0.20609090988E+02  0.48502182880E+02  0.73276931081E+02  0.90355837687E+02  0.41800000000E+01 0.  1.
        -11    1    1    2    0    0 -0.79246894155E+02  0.50616824811E+02  0.16665002584E+03  0.19134880271E+03  0.00000000000E+00 0.  1.
         11    1    1    2    0    0  0.49793031425E+02 -0.33029574956E+02  0.78490871446E+02  0.98646417576E+02  0.00000000000E+00 0. -1.
</event>
<event>
 7    1  0.2661133E-009  0.6795445E+02  0.7561462E-02  0.1367190E+00
          1   -1    0    0  501    0  0.00000000000E+00  0.00000000000E+00  0.16750884696E+03  0.16750884696E+03  0.00000000000E+00 0. -1.
         -1   -1    0    0    0  501 -0.00000000000E+00 -0.00000000000E+00 -0.88063498213E+02  0.88063498213E+02  0.00000000000E+00 0.  1.
         25    2    1    2    0    0 -0.32566207709E+02  0.16409529570E+02  0.57980883311E+00  0.13029602340E+03  0.12508751732E+03 0.  0.
          5    1    3    3  502    0  0.10338595313E+01  0.22670536046E+02  0.58515018107E+02  0.62900729839E+02  0.41800000000E+01 0. -1.
         -5    1    3    3    0  502 -0.33600067240E+02 -0.62610064758E+01 -0.57935209274E+02  0.67395293562E+02  0.41800000000E+01 0. -1.
        -11    1    1    2    0    0  0.45924215991E+02  0.11601414479E+02  0.81659283331E+01  0.48065671928E+02  0.00000000000E+00 0.  1.
         11    1    1    2    0    0 -0.13358008282E+02 -0.28010944049E+02  0.70699611585E+02  0.77210649849E+02  0.00000000000E+00 0. -1.
</event>
<event>
 7    1  0.2661133E-009  0.1120121E+03  0.7561462E-02  0.1256888E+00
         -1   -1    0    0    0  501 -0.00000000000E+00  0.00000000000E+00  0.29475363907E+02  0.29475363907E+02  0.00000000000E+00 0.  1.
          1   -1    0    0  501    0  0.00000000000E+00 -0.00000000000E+00 -0.60677930545E+03  0.60677930545E+03  0.00000000000E+00 0. -1.
         25    2    1    2    0    0  0.76581071570E+02 -0.10780913190E+02 -0.33693638480E+03  0.36762968621E+03  0.12507825619E+03 0.  0.
          5    1    3    3  502    0  0.10197255497E+03  0.10405489289E+02 -0.30369837548E+03  0.32055709607E+03  0.41800000000E+01 0. -1.
         -5    1    3    3    0  502 -0.25391483395E+02 -0.21186402479E+02 -0.33238009317E+02  0.47072590139E+02  0.41800000000E+01 0. -1.
        -11    1    1    2    0    0 -0.26628413953E+02 -0.16362047577E+02 -0.12313781657E+02  0.33591937266E+02  0.00000000000E+00 0.  1.
         11    1    1    2    0    0 -0.49952657617E+02  0.27142960768E+02 -0.22805377509E+03  0.23503304588E+03  0.00000000000E+00 0. -1.
</event>
<event>
 7    1  0.2661133E-009  0.1007428E+03  0.7561462E-02  0.1278742E+00
          2   -1    0    0  501    0  0.00000000000E+00  0.00000000000E+00  0.29470710234E+03  0.29470710234E+03  0.00000000000E+00 0.  1.
         -2   -1    0    0    0  501 -0.00000000000E+00 -0.00000000000E+00 -0.71288052124E+02  0.71288052124E+02  0.00000000000E+00 0. -1.
         25    2    1    2    0    0 -0.86476819606E-02 -0.87513328650E+02  0.16884366125E+03  0.22762543284E+03  0.12508626209E+03 0.  0.
          5    1    3    3  502    0  0.28199393818E+01 -0.51212578127E+02 -0.33553015598E+01  0.51569474159E+02  0.41800000000E+01 0. -1.
         -5    1    3    3    0  502 -0.28285870638E+01 -0.36300750523E+02  0.17219896281E+03  0.17605595868E+03  0.41800000000E+01 0. -1.
        -11    1    1    2    0    0 -0.33254465596E+02  0.21916843511E+02  0.51035220220E+02  0.64736397911E+02  0.00000000000E+00 0. -1.
         11    1    1    2    0    0  0.33263113278E+02  0.65596485138E+02  0.35401687513E+01  0.73633323721E+02  0.00000000000E+00 0.  1.
</event>
<event>
 7    1  0.2661133E-009  0.9016277E+02  0.7561462E-02  0.1302458E+00
          1   -1    0    0  501    0  0.00000000000E+00  0.00000000000E+00  0.89747195935E+02  0.89747195935E+02  0.00000000000E+00 0. -1.
         -1   -1    0    0    0  501 -0.00000000000E+00 -0.00000000000E+00 -0.17476090281E+03  0.17476090281E+03  0.00000000000E+00 0.  1.
         25    2    1    2    0    0 -0.43215720404E+02  0.22498464691E+02 -0.13384262187E+01  0.13424890346E+03  0.12508875766E+03 0.  0.
          5    1    3    3  502    0  0.14648023680E+01 -0.42625456218E+02  0.26520712817E+02  0.50397378623E+02  0.41800000000E+01 0.  1.
         -5    1    3    3    0  502 -0.44680522772E+02  0.65123920909E+02 -0.27859139036E+02  0.83851524837E+02  0.41800000000E+01 0.  1.
        -11    1    1    2    0    0  0.32592367317E+01 -0.17862991267E+02  0.15094580709E+02  0.23612612051E+02  0.00000000000E+00 0. -1.
         11    1    1    2    0    0  0.39956483672E+02 -0.46354734244E+01 -0.98769861362E+02  0.10664658323E+03  0.00000000000E+00 0.  1.
</event>
<event>
 7    1  0.2661133E-009  0.1362382E+03  0.7561462E-02  0.1218482E+00
          1   -1    0    0  501    0  0.00000000000E+00  0.00000000000E+00  0.68235595229E+03  0.68235595229E+03  0.00000000000E+00 0. -1.
         -1   -1    0    0    0  501 -0.00000000000E+00 -0.00000000000E+00 -0.41864001988E+02  0.41864001988E+02  0.00000000000E+00 0.  1.
         25    2    1    2    0    0 -0.40216429855E+02 -0.12111344013E+03  0.29350410831E+03  0.34362495201E+03  0.12509044504E+03 0.  0.
          5    1    3    3  502    0  0.16383056580E+02 -0.11274031909E+02 -0.46553673202E+01  0.20848337662E+02  0.41800000000E+01 0.  1.
         -5    1    3    3    0  502 -0.56599486435E+02 -0.10983940822E+03  0.29815947563E+03  0.32277661435E+03  0.41800000000E+01 0.  1.
        -11    1    1    2    0    0  0.32221206120E+02  0.73688524887E+02  0.30903715692E+03  0.31933081464E+03  0.00000000000E+00 0. -1.
         11    1    1    2    0    0  0.79952237356E+01  0.47424915238E+02  0.37950685072E+02  0.61264187625E+02  0.00000000000E+00 0.  1.
</event>
<event>
 7    1  0.2661133E-009  0.1431646E+03  0.7561462E-02  0.1209133E+00
         -2   -1    0    0    0  501 -0.00000000000E+00  0.00000000000E+00  0.30413593608E+02  0.30413593608E+02  0.00000000000E+00 0.  1.
          2   -1    0    0  501    0  0.00000000000E+00 -0.00000000000E+00 -0.76280413567E+03  0.76280413567E+03  0.00000000000E+00 0. -1.
         25    2    1    2    0    0 -0.91599321972E+02 -0.62536641041E+02 -0.37927213864E+03  0.41448284927E+03  0.12508960761E+03 0.  0.
          5    1    3    3  502    0 -0.61051210135E+02  0.25769232173E+02 -0.10063760440E+03  0.12056825206E+03  0.41800000000E+01 0.  1.
         -5    1    3    3    0  502 -0.30548111836E+02 -0.88305873214E+02 -0.27863453424E+03  0.29391459721E+03  0.41800000000E+01 0.  1.
        -11    1    1    2    0    0  0.18318665869E+02  0.48419001033E+02 -0.22113442430E+03  0.22711320259E+03  0.00000000000E+00 0. -1.
         11    1    1    2    0    0  0.73280656103E+02  0.14117640008E+02 -0.13198397912E+03  0.15162167742E+03  0.00000000000E+00 0.  1.
</event>
<event>
 7    1  0.2661133E-009  0.1297578E+03  0.7561462E-02  0.1227816E+00
         -1   -1    0    0    0  501 -0.00000000000E+00  0.00000000000E+00  0.31504931514E+02  0.31504931514E+02  0.00000000000E+00 0.  1.
          1   -1    0    0  501    0  0.00000000000E+00 -0.00000000000E+00 -0.67542754808E+03  0.67542754808E+03  0.00000000000E+00 0. -1.
         25    2    1    2    0    0  0.45878585005E+02 -0.54203018820E+02 -0.19084948986E+03  0.23899865018E+03  0.12511600695E+03 0.  0.
          5    1    3    3  502    0  0.74888117086E+02  0.73846138262E+01 -0.92583583516E+02  0.11938155192E+03  0.41800000000E+01 0. -1.
         -5    1    3    3    0  502 -0.29009532080E+02 -0.61587632646E+02 -0.98265906346E+02  0.11961709826E+03  0.41800000000E+01 0. -1.
        -11    1    1    2    0    0 -0.65476060603E+02  0.66081239561E+02 -0.33605966644E+03  0.34869749661E+03  0.00000000000E+00 0. -1.
         11    1    1    2    0    0  0.19597475597E+02 -0.11878220741E+02 -0.11701346025E+03  0.11923633280E+03  0.00000000000E+00 0.  1.
</event>
<event>
 7    1  0.2661133E-009  0.2134902E+03  0.7561462E-02  0.1138832E+00
         -2   -1    0    0    0  501 -0.00000000000E+00  0.00000000000E+00  0.94684512885E+02  0.94684512885E+02  0.00000000000E+00 0.  1.
          2   -1    0    0  501    0  0.00000000000E+00 -0.00000000000E+00 -0.58863616304E+03  0.58863616304E+03  0.00000000000E+00 0. -1.
         25    2    1    2    0    0  0.82514657469E+02  0.18825876768E+03 -0.31309573301E+03  0.39487550108E+03  0.12509073115E+03 0.  0.
          5    1    3    3  502    0  0.72631557168E+01  0.10989063780E+03 -0.23932907557E+03  0.26348545409E+03  0.41800000000E+01 0.  1.
         -5    1    3    3    0  502  0.75251501753E+02  0.78368129873E+02 -0.73766657440E+02  0.13139004698E+03  0.41800000000E+01 0.  1.
        -11    1    1    2    0    0 -0.31035877552E+02 -0.37163676504E+02 -0.16362792358E+01  0.48446279078E+02  0.00000000000E+00 0.  1.
         11    1    1    2    0    0 -0.51478779917E+02 -0.15109509117E+03 -0.17921963791E+03  0.23999889577E+03  0.00000000000E+00 0. -1.
</event>
<event>
 7    1  0.2661133E-009  0.4076322E+02  0.7561462E-02  0.1502669E+00
         -2   -1    0    0    0  501 -0.00000000000E+00  0.00000000000E+00  0.66830245373E+02  0.66830245373E+02  0.00000000000E+00 0.  1.
          2   -1    0    0  501    0  0.00000000000E+00 -0.00000000000E+00 -0.17745881050E+03  0.17745881050E+03  0.00000000000E+00 0. -1.
         25    2    1    2    0    0 -0.67263807569E+01  0.10120887149E+02 -0.55251312891E+02  0.13729268427E+03  0.12509555158E+03 0.  0.
          5    1    3    3  502    0 -0.17057884512E+02  0.12910018594E+02  0.37746470267E+02  0.43587938948E+02  0.41800000000E+01 0.  1.
         -5    1    3    3    0  502  0.10331503755E+02 -0.27891314453E+01 -0.92997783159E+02  0.93704745325E+02  0.41800000000E+01 0.  1.
        -11    1    1    2    0    0  0.26336405732E+02 -0.11159372769E+02 -0.74367558633E+02  0.79678551973E+02  0.00000000000E+00 0. -1.
         11    1    1    2    0    0 -0.19610024976E+02  0.10384856198E+01  0.18990306398E+02  0.27317819624E+02  0.00000000000E+00 0.  1.
</event>
<event>
 7    1  0.2661133E-009  0.1037183E+03  0.7561462E-02  0.1272666E+00
          2   -1    0    0  501    0  0.00000000000E+00  0.00000000000E+00  0.78014181104E+03  0.78014181104E+03  0.00000000000E+00 0. -1.
         -2   -1    0    0    0  501 -0.00000000000E+00 -0.00000000000E+00 -0.15174919452E+02  0.15174919452E+02  0.00000000000E+00 0.  1.
         25    2    1    2    0    0 -0.55728725732E+01  0.90036613804E+01  0.44613635163E+03  0.46346401178E+03  0.12509645532E+03 0.  0.
          5    1    3    3  502    0 -0.24350667225E+02 -0.49435422508E+02  0.12781243337E+03  0.13924908085E+03  0.41800000000E+01 0.  1.
         -5    1    3    3    0  502  0.18777794651E+02  0.58439083889E+02  0.31832391826E+03  0.32421493093E+03  0.41800000000E+01 0.  1.
        -11    1    1    2    0    0  0.60816707094E+01 -0.49638126412E+02  0.20411370373E+03  0.21015074200E+03  0.00000000000E+00 0.  1.
         11    1    1    2    0    0 -0.50879813623E+00  0.40634465031E+02  0.11471683623E+03  0.12170197672E+03  0.00000000000E+00 0. -1.
</event>
<event>
 7    1  0.2661133E-009  0.8629702E+02  0.7561462E-02  0.1312075E+00
          1   -1    0    0  501    0  0.00000000000E+00  0.00000000000E+00  0.22894545266E+03  0.22894545266E+03  0.00000000000E+00 0. -1.
         -1   -1    0    0    0  501 -0.00000000000E+00 -0.00000000000E+00 -0.54464686006E+02  0.54464686006E+02  0.00000000000E+00 0.  1.
         25    2    1    2    0    0 -0.15123578417E+02  0.12635504026E+01  0.13617320560E+03  0.18552677909E+03  0.12508686843E+03 0.  0.
          5    1    3    3  502    0 -0.29519664856E+02  0.58544662497E+02  0.83748736131E+02  0.10644346539E+03  0.41800000000E+01 0. -1.
         -5    1    3    3    0  502  0.14396086438E+02 -0.57281112094E+02  0.52424469467E+02  0.79083313704E+02  0.41800000000E+01 0. -1.
        -11    1    1    2    0    0  0.26909926728E+02 -0.13998099106E+02  0.61702850535E+02  0.68755601221E+02  0.00000000000E+00 0. -1.
         11    1    1    2    0    0 -0.11786348311E+02  0.12734548704E+02 -0.23395289477E+02  0.29127758357E+02  0.00000000000E+00 0.  1.
</event>
<event>
 7    1  0.2661133E-009  0.1053239E+03  0.7561462E-02  0.1269483E+00
         -2   -1    0    0    0  501 -0.00000000000E+00  0.00000000000E+00  0.37511073738E+02  0.37511073738E+02  0.00000000000E+00 0.  1.
          2   -1    0    0  501    0  0.00000000000E+00 -0.00000000000E+00 -0.37817291673E+03  0.37817291673E+03  0.00000000000E+00 0. -1.
         25    2    1    2    0    0  0.39599489987E+02 -0.30673363794E+02 -0.18773003394E+03  0.23108237888E+03  0.12509006888E+03 0.  0.
          5    1    3    3  502    0  0.84015348427E+02 -0.90935970676E+01 -0.12851211497E+03  0.15386392811E+03  0.41800000000E+01 0.  1.
         -5    1    3    3    0  502 -0.44415858440E+02 -0.21579766726E+02 -0.59217918975E+02  0.77218450779E+02  0.41800000000E+01 0.  1.
        -11    1    1    2    0    0 -0.98303581681E+01  0.43111520736E+02 -0.21313485413E+02  0.49086697000E+02  0.00000000000E+00 0.  1.
         11    1    1    2    0    0 -0.29769131819E+02 -0.12438156942E+02 -0.13161832363E+03  0.13551491458E+03  0.00000000000E+00 0. -1.
</event>
<event>
 7    1  0.2661133E-009  0.9912504E+02  0.7561462E-02  0.1282147E+00
         -1   -1    0    0    0  501 -0.00000000000E+00  0.00000000000E+00  0.30976646406E+03  0.30976646406E+03  0.00000000000E+00 0.  1.
          1   -1    0    0  501    0  0.00000000000E+00 -0.00000000000E+00 -0.51193855504E+02  0.51193855504E+02  0.00000000000E+00 0. -1.
         25    2    1    2    0    0  0.23884293669E+02 -0.52165097105E+02  0.18953662684E+03  0.23422902766E+03  0.12508975836E+03 0.  0.
          5    1    3    3  502    0  0.75931264910E+01  0.26955268013E+02  0.17550011783E+00  0.28315106283E+02  0.41800000000E+01 0. -1.
         -5    1    3    3    0  502  0.16291167178E+02 -0.79120365117E+02  0.18936112672E+03  0.20591392138E+03  0.41800000000E+01 0. -1.
        -11    1    1    2    0    0 -0.47867690442E+02  0.38609873142E+02  0.10980333431E+02  0.62470839714E+02  0.00000000000E+00 0. -1.
         11    1    1    2    0    0  0.23983396773E+02  0.13555223962E+02  0.58055648285E+02  0.64260452186E+02  0.00000000000E+00 0.  1.
</event>
<event>
 7    1  0.2661133E-009  0.1686281E+03  0.7561462E-02  0.1179286E+00
         -1   -1    0    0    0  501 -0.00000000000E+00  0.00000000000E+00  0.16900756301E+02  0.16900756301E+02  0.00000000000E+00 0.  1.
          1   -1    0    0  501    0  0.00000000000E+00 -0.00000000000E+00 -0.17025545370E+04  0.17025545370E+04  0.00000000000E+00 0. -1.
         25    2    1    2    0    0 -0.55354836126E+02  0.11644209342E+03 -0.81216025432E+03  0.83178929339E+03  0.12508489480E+03 0.  0.
          5    1    3    3  502    0 -0.82091489568E+02  0.27601715087E+02 -0.40265007606E+03  0.41188035093E+03  0.41800000000E+01 0.  1.
         -5    1    3    3    0  502  0.26736653443E+02  0.88840378332E+02 -0.40951017826E+03  0.41990894246E+03  0.41800000000E+01 0.  1.
        -11    1    1    2    0    0  0.54599734169E+02 -0.15534035626E+02 -0.34163062362E+03  0.34631477045E+03  0.00000000000E+00 0. -1.
         11    1    1    2    0    0  0.75510195659E+00 -0.10090805779E+03 -0.53186290276E+03  0.54135122946E+03  0.00000000000E+00 0.  1.
</event>
<event>
 7    1  0.2661133E-009  0.2015327E+03  0.7561462E-02  0.1148452E+00
         -1   -1    0    0    0  501 -0.00000000000E+00  0.00000000000E+00  0.67119436101E+02  0.67119436101E+02  0.00000000000E+00 0.  1.
          1   -1    0    0  501    0  0.00000000000E+00 -0.00000000000E+00 -0.77395013966E+03  0.77395013966E+03  0.00000000000E+00 0. -1.
         25    2    1    2    0    0 -0.11195734884E+03  0.14338274671E+03 -0.21122488338E+03  0.30553682311E+03  0.12507493314E+03 0.  0.
          5    1    3    3  502    0 -0.10580323418E+03  0.16498852803E+03 -0.17546088232E+03  0.26309605160E+03  0.41800000000E+01 0. -1.
         -5    1    3    3    0  502 -0.61541146648E+01 -0.21605781320E+02 -0.35764001063E+02  0.42440771504E+02  0.41800000000E+01 0. -1.
        -11    1    1    2    0    0  0.88650894246E+02 -0.92060465476E+02 -0.43217335619E+03  0.45067496065E+03  0.00000000000E+00 0. -1.
         11    1    1    2    0    0  0.23306454598E+02 -0.51322281235E+02 -0.63432463988E+02  0.84857792010E+02  0.00000000000E+00 0.  1.
</event>
<event>
 7    1  0.2661133E-009  0.7775089E+02  0.7561462E-02  0.1335558E+00
         -2   -1    0    0    0  501 -0.00000000000E+00  0.00000000000E+00  0.64783786681E+02  0.64783786681E+02  0.00000000000E+00 0.  1.
          2   -1    0    0  501    0  0.00000000000E+00 -0.00000000000E+00 -0.28073265970E+03  0.28073265970E+03  0.00000000000E+00 0. -1.
         25    2    1    2    0    0 -0.11101510164E+02 -0.27480648188E+02 -0.21332079778E+03  0.24906308165E+03  0.12509287079E+03 0.  0.
          5    1    3    3  502    0 -0.28753690144E+02  0.83337847593E+01  0.17493138130E+01  0.30278031048E+02  0.41800000000E+01 0.  1.
         -5    1    3    3    0  502  0.17652179980E+02 -0.35814432947E+02 -0.21507011159E+03  0.21878505060E+03  0.41800000000E+01 0.  1.
        -11    1    1    2    0    0  0.44764010773E+02  0.25243193684E+02 -0.23788326088E+02  0.56629673722E+02  0.00000000000E+00 0. -1.
         11    1    1    2    0    0 -0.33662500608E+02  0.22374545041E+01  0.21160250848E+02  0.39823691012E+02  0.00000000000E+00 0.  1.
</event>
<event>
 7    1  0.2661133E-009  0.1956070E+03  0.7561462E-02  0.1153499E+00
          2   -1    0    0  501    0  0.00000000000E+00  0.00000000000E+00  0.95750824849E+03  0.95750824849E+03  0.00000000000E+00 0.  1.
         -2   -1    0    0    0  501 -0.00000000000E+00 -0.00000000000E+00 -0.55451101892E+02  0.55451101892E+02  0.00000000000E+00 0. -1.
         25    2    1    2    0    0 -0.14372010041E+03  0.13105812574E+03  0.59442246486E+03  0.63782118220E+03  0.12508434813E+03 0.  0.
          5    1    3    3  502    0 -0.10905431604E+03  0.84148712814E+02  0.54213419179E+03  0.55937536952E+03  0.41800000000E+01 0.  1.
         -5    1    3    3    0  502 -0.34665784364E+02  0.46909412923E+02  0.52288273069E+02  0.78445812679E+02  0.41800000000E+01 0.  1.
        -11    1    1    2    0    0  0.11550036610E+03 -0.11191482208E+03  0.17281412008E+03  0.23607198493E+03  0.00000000000E+00 0.  1.
         11    1    1    2    0    0  0.28219734309E+02 -0.19143303662E+02  0.13482056165E+03  0.13906618325E+03  0.00000000000E+00 0. -1.
</event>
<event>
 7    1  0.2939429E-009  0.7759594E+02  0.7561462E-02  0.1336016E+00
         -2   -1    0    0    0  501 -0.00000000000E+00  0.00000000000E+00  0.11525668822E+03  0.11525668822E+03  0.00000000000E+00 0.  1.
          2   -1    0    0  501    0  0.00000000000E+00 -0.00000000000E+00 -0.10885644866E+03  0.10885644866E+03  0.00000000000E+00 0. -1.
         25    2    1    2    0    0 -0.20748815279E+02 -0.11014232757E+01  0.23149303303E+02  0.12889920883E+03  0.12508952524E+03 0.  0.
          5    1    3    3  502    0 -0.54731165331E+02 -0.15781006642E+02 -0.29594588507E+02  0.64326143193E+02  0.41800000000E+01 0.  1.
         -5    1    3    3    0  502  0.33982350052E+02  0.14679583367E+02  0.52743891810E+02  0.64573065640E+02  0.41800000000E+01 0.  1.
        -11    1    1    2    0    0 -0.71529395810E+01  0.23803145141E+02  0.28235396682E+02  0.37616377936E+02  0.00000000000E+00 0.  1.
         11    1    1    2    0    0  0.27901754861E+02 -0.22701721865E+02 -0.44984460422E+02  0.57597550116E+02  0.00000000000E+00 0. -1.
</event>
<event>
 7    1  0.2661133E-009  0.2489912E+03  0.7561462E-02  0.1113944E+00
          1   -1    0    0  501    0  0.00000000000E+00  0.00000000000E+00  0.29461842319E+03  0.29461842319E+03  0.00000000000E+00 0. -1.
         -1   -1    0    0    0  501 -0.00000000000E+00 -0.00000000000E+00 -0.35377728927E+03  0.35377728927E+03  0.00000000000E+00 0.  1.
         25    2    1    2    0    0  0.19357987560E+03  0.13193097057E+03 -0.22462015187E+03  0.34782063370E+03  0.12508409717E+03 0.  0.
          5    1    3    3  502    0  0.17873220570E+03  0.15421157982E+03 -0.21419928655E+03  0.31878710680E+03  0.41800000000E+01 0. -1.
         -5    1    3    3    0  502  0.14847669901E+02 -0.22280609249E+02 -0.10420865321E+02  0.29033526896E+02  0.41800000000E+01 0. -1.
        -11    1    1    2    0    0 -0.11108936158E+03 -0.84979835921E+02  0.44406067582E+02  0.14674575840E+03  0.00000000000E+00 0.  1.
         11    1    1    2    0    0 -0.82490514013E+02 -0.46951134648E+02  0.12105521822E+03  0.15382932037E+03  0.00000000000E+00 0. -1.
</event>
<event>
 7    1  0.2661133E-009  0.1943562E+03  0.7561462E-02  0.1154590E+00
         -1   -1    0    0    0  501 -0.00000000000E+00  0.00000000000E+00  0.35411228875E+03  0.35411228875E+03  0.00000000000E+00 0.  1.
          1   -1    0    0  501    0  0.00000000000E+00 -0.00000000000E+00 -0.14426601603E+03  0.14426601603E+03  0.00000000000E+00 0. -1.
         25    2    1    2    0    0 -0.14029271674E+03  0.79435104047E+02  0.23375963955E+03  0.31029388624E+03  0.12508694827E+03 0.  0.
          5    1    3    3  502    0 -0.14872146035E+03  0.27768626902E+02  0.17929618367E+03  0.23463538371E+03  0.41800000000E+01 0.  1.
         -5    1    3    3    0  502  0.84287436034E+01  0.51666477145E+02  0.54463455883E+02  0.75658502536E+02  0.41800000000E+01 0.  1.
        -11    1    1    2    0    0  0.28552618697E+02  0.20329860605E+02 -0.14689762837E+02  0.38004531294E+02  0.00000000000E+00 0. -1.
         11    1    1    2    0    0  0.11174009805E+03 -0.99764964652E+02 -0.92236039940E+01  0.15007988724E+03  0.00000000000E+00 0.  1.
</event>
<event>
 7    1  0.2661133E-009  0.1073405E+03  0.7561462E-02  0.1265576E+00
         -2   -1    0    0    0  501 -0.00000000000E+00  0.00000000000E+00  0.22638082302E+02  0.22638082302E+02  0.00000000000E+00 0.  1.
          2   -1    0    0  501    0  0.00000000000E+00 -0.00000000000E+00 -0.69026856532E+03  0.69026856532E+03  0.00000000000E+00 0. -1.
         25    2    1    2    0    0  0.28743396882E+02 -0.36121134906E+02 -0.25376228228E+03  0.28665935088E+03  0.12508944116E+03 0.  0.
          5    1    3    3  502    0 -0.27159920253E+02 -0.50799352547E+02 -0.55492167236E+02  0.80094247683E+02  0.41800000000E+01 0.  1.
         -5    1    3    3    0  502  0.55903317135E+02  0.14678217641E+02 -0.19827011504E+03  0.20656510320E+03  0.41800000000E+01 0.  1.
        -11    1    1    2    0    0  0.31652997806E+02  0.14626339492E+02 -0.19853933362E+03  0.20157804710E+03  0.00000000000E+00 0. -1.
         11    1    1    2    0    0 -0.60396394688E+02  0.21494795413E+02 -0.21532886712E+03  0.22466924964E+03  0.00000000000E+00 0.  1.
</event>
<event>
 7    1  0.2661133E-009  0.8340409E+02  0.7561462E-02  0.1319660E+00
         -2   -1    0    0    0  501 -0.00000000000E+00  0.00000000000E+00  0.26215745054E+03  0.26215745054E+03  0.00000000000E+00 0.  1.
          2   -1    0    0  501    0  0.00000000000E+00 -0.00000000000E+00 -0.64220680964E+02  0.64220680964E+02  0.00000000000E+00 0. -1.
         25    2    1    2    0    0  0.23087603294E+02 -0.49763513233E+02  0.53229146185E+02  0.14659845240E+03  0.12509324349E+03 0.  0.
          5    1    3    3  502    0  0.48679341221E+02 -0.39570980127E+02  0.84106219095E+02  0.10500890067E+03  0.41800000000E+01 0. -1.
         -5    1    3    3    0  502 -0.25591737927E+02 -0.10192533106E+02 -0.30877072910E+02  0.41589551725E+02  0.41800000000E+01 0. -1.
        -11    1    1    2    0    0  0.15547068503E+02  0.27206711362E+02  0.33529668054E+01  0.31514423183E+02  0.00000000000E+00 0. -1.
         11    1    1    2    0    0 -0.38634671797E+02  0.22556801871E+02  0.14135465658E+03  0.14826525592E+03  0.00000000000E+00 0.  1.
</event>
<event>
 7    1  0.2661133E-009  0.9374810E+02  0.7561462E-02  0.1294021E+00
          4   -1    0    0  501    0  0.00000000000E+00  0.00000000000E+00  0.12473708516E+03  0.12473708516E+03  0.00000000000E+00 0. -1.
         -4   -1    0    0    0  501 -0.00000000000E+00 -0.00000000000E+00 -0.14887530097E+03  0.14887530097E+03  0.00000000000E+00 0.  1.
         25    2    1    2    0    0  0.65006447538E+02  0.44652745449E+02  0.24546578179E+01  0.14786381585E+03  0.12505189641E+03 0.  0.
          5    1    3    3  502    0  0.74426638744E+02  0.50162063799E+02  0.47286825122E+02  0.10153360739E+03  0.41800000000E+01 0.  1.
         -5    1    3    3    0  502 -0.94201912052E+01 -0.55093183499E+01 -0.44832167304E+02  0.46330208463E+02  0.41800000000E+01 0.  1.
        -11    1    1    2    0    0 -0.49918537505E+02 -0.14078816718E+02 -0.59106716939E+02  0.78636362163E+02  0.00000000000E+00 0.  1.
         11    1    1    2    0    0 -0.15087910033E+02 -0.30573928731E+02  0.32513843305E+02  0.47112208117E+02  0.00000000000E+00 0. -1.
</event>
<event>
 7    1  0.2661133E-009  0.1022134E+03  0.7561462E-02  0.1275709E+00
          1   -1    0    0  501    0  0.00000000000E+00  0.00000000000E+00  0.74361507436E+02  0.74361507436E+02  0.00000000000E+00 0.  1.
         -1   -1    0    0    0  501 -0.00000000000E+00 -0.00000000000E+00 -0.24902880160E+03  0.24902880160E+03  0.00000000000E+00 0. -1.
         25    2    1    2    0    0  0.65901558443E+00  0.68804261654E+02 -0.14894437647E+03  0.20631260328E+03  0.12508398086E+03 0.  0.
          5    1    3    3  502    0 -0.34018936579E+01  0.80888920811E+02 -0.29733249740E+02  0.86348879150E+02  0.41800000000E+01 0. -1.
         -5    1    3    3    0  502  0.40609092423E+01 -0.12084659157E+02 -0.11921112673E+03  0.11996372413E+03  0.41800000000E+01 0. -1.
        -11    1    1    2    0    0 -0.11539402286E+02  0.18586076385E+02 -0.18617460132E+02  0.28726466234E+02  0.00000000000E+00 0. -1.
         11    1    1    2    0    0  0.10880386702E+02 -0.87390338038E+02 -0.71054575570E+01  0.88351239518E+02  0.00000000000E+00 0.  1.
</event>
<event>
 7    1  0.2661133E-009  0.1028737E+03  0.7561462E-02  0.1274366E+00
         -2   -1    0    0    0  501 -0.00000000000E+00  0.00000000000E+00  0.67863405064E+02  0.67863405064E+02  0.00000000000E+00 0.  1.
          2   -1    0    0  501    0  0.00000000000E+00 -0.00000000000E+00 -0.22249674205E+03  0.22249674205E+03  0.00000000000E+00 0. -1.
         25    2    1    2    0    0  0.15480190412E+02  0.15179295480E+02 -0.26012653504E+02  0.12958998177E+03  0.12508740115E+03 0.  0.
          5    1    3    3  502    0 -0.44680054543E+02 -0.96178378804E+01  0.19714643351E+02  0.49949470887E+02  0.41800000000E+01 0.  1.
         -5    1    3    3    0  502  0.60160244955E+02  0.24797133361E+02 -0.45727296855E+02  0.79640510882E+02  0.41800000000E+01 0.  1.
        -11    1    1    2    0    0  0.38843106671E+02 -0.28749975356E+01 -0.68604726010E+02  0.78890183024E+02  0.00000000000E+00 0.  1.
         11    1    1    2    0    0 -0.54323297083E+02 -0.12304297945E+02 -0.60015957474E+02  0.81879982324E+02  0.00000000000E+00 0. -1.
</event>
<event>
 7    1  0.2661133E-009  0.1641343E+03  0.7561462E-02  0.1184107E+00
         -1   -1    0    0    0  501 -0.00000000000E+00  0.00000000000E+00  0.33406917487E+02  0.33406917487E+02  0.00000000000E+00 0.  1.
          1   -1    0    0  501    0  0.00000000000E+00 -0.00000000000E+00 -0.94290841280E+03  0.94290841280E+03  0.00000000000E+00 0. -1.
         25    2    1    2    0    0 -0.12995346802E+02 -0.13972660618E+03 -0.50156434561E+03  0.53563722001E+03  0.12509210668E+03 0.  0.
          5    1    3    3  502    0  0.42933824076E+02 -0.11226532300E+03 -0.38569903798E+03  0.40401489613E+03  0.41800000000E+01 0. -1.
         -5    1    3    3    0  502 -0.55929170879E+02 -0.27461283189E+02 -0.11586530763E+03  0.13162232387E+03  0.41800000000E+01 0. -1.
        -11    1    1    2    0    0 -0.22431731882E+01  0.12263457353E+03 -0.39658643887E+03  0.41512055351E+03  0.00000000000E+00 0. -1.
         11    1    1    2    0    0  0.15238519991E+02  0.17092032654E+02 -0.11350710832E+02  0.25557556772E+02  0.00000000000E+00 0.  1.
</event>
<event>
 7    1  0.2661133E-009  0.2106343E+03  0.7561462E-02  0.1141065E+00
          2   -1    0    0  501    0  0.00000000000E+00  0.00000000000E+00  0.12818592429E+04  0.12818592429E+04  0.00000000000E+00 0. -1.
         -2   -1    0    0    0  501 -0.00000000000E+00 -0.00000000000E+00 -0.52457983770E+02  0.52457983770E+02  0.00000000000E+00 0.  1.
         25    2    1    2    0    0  0.62206220429E+02  0.18516472849E+03  0.29572942804E+03  0.37584710712E+03  0.12509821254E+03 0.  0.
          5    1    3    3  502    0 -0.12616522280E+02  0.11996864782E+03  0.22001879688E+03  0.25095297662E+03  0.41800000000E+01 0.  1.
         -5    1    3    3    0  502  0.74822742709E+02  0.65196080670E+02  0.75710631163E+02  0.12489413050E+03  0.41800000000E+01 0.  1.
        -11    1    1    2    0    0 -0.66145674438E+02 -0.12934007066E+03  0.80721937736E+03  0.82018731233E+03  0.00000000000E+00 0. -1.
         11    1    1    2    0    0  0.39394540082E+01 -0.55824657832E+02  0.12645245373E+03  0.13828280723E+03  0.00000000000E+00 0.  1.
</event>
<event>
 7    1  0.2661133E-009  0.1425359E+03  0.7561462E-02  0.1209957E+00
         -2   -1    0    0    0  501 -0.00000000000E+00  0.00000000000E+00  0.40644873384E+02  0.40644873384E+02  0.00000000000E+00 0.  1.
          2   -1    0    0  501    0  0.00000000000E+00 -0.00000000000E+00 -0.75115457015E+03  0.75115457015E+03  0.00000000000E+00 0. -1.
         25    2    1    2    0    0  0.93991810756E+01 -0.13382613666E+03 -0.43966771968E+03  0.47639593837E+03  0.12509039494E+03 0.  0.
          5    1    3    3  502    0  0.39366790880E+01 -0.15025270376E+02 -0.26238463400E+03  0.26287720471E+03  0.41800000000E+01 0. -1.
         -5    1    3    3    0  502  0.54625019876E+01 -0.11880086629E+03 -0.17728308567E+03  0.21351873366E+03  0.41800000000E+01 0. -1.
        -11    1    1    2    0    0 -0.32637415919E+02  0.32607739908E+02 -0.14544025664E+03  0.15258222004E+03  0.00000000000E+00 0. -1.
         11    1    1    2    0    0  0.23238234843E+02  0.10121839676E+03 -0.12540172045E+03  0.16282128513E+03  0.00000000000E+00 0.  1.
</event>
<event>
 7    1  0.2661133E-009  0.1138510E+03  0.7561462E-02  0.1253600E+00
          2   -1    0    0  501    0  0.00000000000E+00  0.00000000000E+00  0.36584552211E+02  0.36584552211E+02  0.00000000000E+00 0.  1.
         -2   -1    0    0    0  501 -0.00000000000E+00 -0.00000000000E+00 -0.39656448283E+03  0.39656448283E+03  0.00000000000E+00 0. -1.
         25    2    1    2    0    0  0.33933584367E+02  0.39869134227E+02 -0.19799610672E+03  0.23997815529E+03  0.12508405464E+03 0.  0.
          5    1    3    3  502    0  0.75814406518E+02 -0.10557423907E+01 -0.97377482834E+02  0.12348597245E+03  0.41800000000E+01 0.  1.
         -5    1    3    3    0  502 -0.41880822151E+02  0.40924876617E+02 -0.10061862389E+03  0.11649218284E+03  0.41800000000E+01 0.  1.
        -11    1    1    2    0    0  0.81354446066E+01  0.19020396281E+02 -0.65258177369E+01  0.21692100653E+02  0.00000000000E+00 0.  1.
         11    1    1    2    0    0 -0.42069028974E+02 -0.58889530507E+02 -0.15545800616E+03  0.17147877910E+03  0.00000000000E+00 0. -1.
</event>
<event>
 7    1  0.2661133E-009  0.4599429E+02  0.7561462E-02  0.1468228E+00
          1   -1    0    0  501    0  0.00000000000E+00  0.00000000000E+00  0.32985841097E+03  0.32985841097E+03  0.00000000000E+00 0. -1.
         -1   -1    0    0    0  501 -0.00000000000E+00 -0.00000000000E+00 -0.40736936500E+02  0.40736936500E+02  0.00000000000E+00 0.  1.
         25    2    1    2    0    0 -0.32652144534E+02  0.58281556577E+01  0.22008182669E+03  0.25530961933E+03  0.12508741479E+03 0.  0.
          5    1    3    3  502    0 -0.42160776733E+01  0.19892048870E+00 -0.16181769541E+02  0.17237660682E+02  0.41800000000E+01 0.  1.
         -5    1    3    3    0  502 -0.28436066861E+02  0.56292351690E+01  0.23626359624E+03  0.23807195865E+03  0.41800000000E+01 0.  1.
        -11    1    1    2    0    0  0.28533321132E+02  0.17233588832E+02  0.81997606782E+02  0.88514148682E+02  0.00000000000E+00 0. -1.
         11    1    1    2    0    0  0.41188234024E+01 -0.23061744490E+02 -0.12957959007E+02  0.26771579460E+02  0.00000000000E+00 0.  1.
</event>
<event>
 7    1  0.2661133E-009  0.1065475E+03  0.7561462E-02  0.1267100E+00
         -2   -1    0    0    0  501 -0.00000000000E+00  0.00000000000E+00  0.55162642561E+03  0.55162642561E+03  0.00000000000E+00 0.  1.
          2   -1    0    0  501    0  0.00000000000E+00 -0.00000000000E+00 -0.41088263189E+02  0.41088263189E+02  0.00000000000E+00 0. -1.
         25    2    1    2    0    0  0.38441797831E+02  0.48837904233E+02  0.44057521727E+03  0.46218714165E+03  0.12509004405E+03 0.  0.
          5    1    3    3  502    0 -0.21203506789E+02 -0.25464156849E+02  0.49946723230E+02  0.60084603232E+02  0.41800000000E+01 0. -1.
         -5    1    3    3    0  502  0.59645304620E+02  0.74302061082E+02  0.39062849405E+03  0.40210253842E+03  0.41800000000E+01 0. -1.
        -11    1    1    2    0    0 -0.53299964912E+02 -0.33413782619E+02  0.83982325436E+02  0.10493044417E+03  0.00000000000E+00 0.  1.
         11    1    1    2    0    0  0.14858167081E+02 -0.15424121614E+02 -0.14019380295E+02  0.25597102969E+02  0.00000000000E+00 0. -1.
</event>
<event>
 7    1  0.2661133E-009  0.1525718E+03  0.7561462E-02  0.1197348E+00
         -1   -1    0    0    0  501 -0.00000000000E+00  0.00000000000E+00  0.10857514589E+04  0.10857514589E+04  0.00000000000E+00 0.  1.
          1   -1    0    0  501    0  0.00000000000E+00 -0.00000000000E+00 -0.31793307328E+02  0.31793307328E+02  0.00000000000E+00 0. -1.
         25    2    1    2    0    0 -0.71435238033E+02 -0.12889587220E+03  0.45565966238E+03  0.49497312819E+03  0.12512206284E+03 0.  0.
          5    1    3    3  502    0 -0.13999552794E+02  0.62954324485E+00 -0.29829878098E+01  0.14924959611E+02  0.41800000000E+01 0.  1.
         -5    1    3    3    0  502 -0.57435685239E+02 -0.12952541545E+03  0.45864265019E+03  0.48004816858E+03  0.41800000000E+01 0.  1.
        -11    1    1    2    0    0  0.35344629970E+02  0.84227850236E+02  0.50363659802E+03  0.51185290513E+03  0.00000000000E+00 0.  1.
         11    1    1    2    0    0  0.36090608063E+02  0.44668021964E+02  0.94661891185E+02  0.11071873292E+03  0.00000000000E+00 0. -1.
</event>
<event>
 7    1  0.2661133E-009  0.6286418E+02  0.7561462E-02  0.1386191E+00
          1   -1    0    0  501    0  0.00000000000E+00  0.00000000000E+00  0.22995814758E+03  0.22995814758E+03  0.00000000000E+00 0. -1.
         -1   -1    0    0    0  501 -0.00000000000E+00 -0.00000000000E+00 -0.55161721296E+02  0.55161721296E+02  0.00000000000E+00 0.  1.
         25    2    1    2    0    0  0.28235153755E+02 -0.90478821628E+01  0.83816927199E+02  0.15346138439E+03  0.12508409626E+03 0.  0.
          5    1    3    3  502    0  0.48967471404E+02  0.11171326577E+02 -0.13224016772E+02  0.52105266651E+02  0.41800000000E+01 0. -1.
         -5    1    3    3    0  502 -0.20732317649E+02 -0.20219208740E+02  0.97040943972E+02  0.10135611774E+03  0.41800000000E+01 0. -1.
        -11    1    1    2    0    0 -0.25556193176E+02 -0.95481556464E+01  0.10482690413E+03  0.10831881700E+03  0.00000000000E+00 0. -1.
         11    1    1    2    0    0 -0.26789605788E+01  0.18596037809E+02 -0.13847405043E+02  0.23339667487E+02  0.00000000000E+00 0.  1.
</event>
<event>
 7    1  0.2661133E-009  0.1131564E+03  0.7561462E-02  0.1254834E+00
          2   -1    0    0  501    0  0.00000000000E+00  0.00000000000E+00  0.70321903430E+03  0.70321903430E+03  0.00000000000E+00 0. -1.
         -2   -1    0    0    0  501 -0.00000000000E+00 -0.00000000000E+00 -0.21081274526E+02  0.21081274526E+02  0.00000000000E+00 0.  1.
         25    2    1    2    0    0 -0.50901938991E+02  0.18487921543E+01  0.47038446133E+03  0.48939091976E+03  0.12508998947E+03 0.  0.
          5    1    3    3  502    0  0.35340180501E+01 -0.49420404347E+02  0.10204632261E+03  0.11351559368E+03  0.41800000000E+01 0. -1.
         -5    1    3    3    0  502 -0.54435957041E+02  0.51269196502E+02  0.36833813871E+03  0.37587532609E+03  0.41800000000E+01 0. -1.
        -11    1    1    2    0    0 -0.24121087081E+02  0.92928060637E+01  0.54872539101E+02  0.60656233265E+02  0.00000000000E+00 0.  1.
         11    1    1    2    0    0  0.75023026072E+02 -0.11141598218E+02  0.15688075934E+03  0.17425315579E+03  0.00000000000E+00 0. -1.
</event>
<event>
 7    1  0.2661133E-009  0.1172999E+03  0.7561462E-02  0.1247619E+00
          1   -1    0    0  501    0  0.00000000000E+00  0.00000000000E+00  0.21926687690E+04  0.21926687690E+04  0.00000000000E+00 0. -1.
         -1   -1    0    0    0  501 -0.00000000000E+00 -0.00000000000E+00 -0.11045555055E+02  0.11045555055E+02  0.00000000000E+00 0.  1.
         25    2    1    2    0    0  0.88204242978E+02  0.24005883420E+02  0.16331777139E+04  0.16405098077E+04  0.12508682172E+03 0.  0.
          5    1    3    3  502    0  0.25003344810E+02 -0.20041437711E+02  0.93997801840E+02  0.99397613795E+02  0.41800000000E+01 0. -1.
         -5    1    3    3    0  502  0.63200898167E+02  0.44047321131E+02  0.15391799121E+04  0.15411121939E+04  0.41800000000E+01 0. -1.
        -11    1    1    2    0    0 -0.41851260729E+02 -0.55193590400E+02  0.36204724095E+03  0.36861370719E+03  0.00000000000E+00 0.  1.
         11    1    1    2    0    0 -0.46352982249E+02  0.31187706980E+02  0.18639825907E+03  0.19459080917E+03  0.00000000000E+00 0. -1.
</event>
<event>
 7    1  0.2661133E-009  0.1006248E+03  0.7561462E-02  0.1278988E+00
          3   -1    0    0  501    0  0.00000000000E+00  0.00000000000E+00  0.15683336473E+03  0.15683336473E+03  0.00000000000E+00 0.  1.
         -3   -1    0    0    0  501 -0.00000000000E+00 -0.00000000000E+00 -0.94054940703E+02  0.94054940703E+02  0.00000000000E+00 0. -1.
         25    2    1    2    0    0 -0.11212690723E+02  0.23554789321E+02  0.63371980977E+02  0.14263230627E+03  0.12508962502E+03 0.  0.
          5    1    3    3  502    0  0.24508526438E+02  0.62780777388E+02  0.11842770014E+02  0.68555214822E+02  0.41800000000E+01 0.  1.
         -5    1    3    3    0  502 -0.35721217161E+02 -0.39225988068E+02  0.51529210963E+02  0.74077091451E+02  0.41800000000E+01 0.  1.
        -11    1    1    2    0    0 -0.16306251346E+02 -0.43542244437E+02 -0.36267096775E+02  0.58967136543E+02  0.00000000000E+00 0. -1.
         11    1    1    2    0    0  0.27518942069E+02  0.19987455116E+02  0.35673539826E+02  0.49288862620E+02  0.00000000000E+00 0.  1.
</event>
<event>
 7    1  0.2661133E-009  0.1289580E+03  0.7561462E-02  0.1229010E+00
          1   -1    0    0  501    0  0.00000000000E+00  0.00000000000E+00  0.14504417317E+03  0.14504417317E+03  0.00000000000E+00 0. -1.
         -1   -1    0    0    0  501 -0.00000000000E+00 -0.00000000000E+00 -0.18699130216E+03  0.18699130216E+03  0.00000000000E+00 0.  1.
         25    2    1    2    0    0 -0.75606638937E+02  0.81125684947E+02 -0.75991480500E+02  0.18363121827E+03  0.12509188066E+03 0.  0.
          5    1    3    3  502    0 -0.31541609187E+02  0.95085304133E+02 -0.90432566730E+02  0.13502447814E+03  0.41800000000E+01 0. -1.
         -5    1    3    3    0  502 -0.44065029750E+02 -0.13959619186E+02  0.14441086230E+02  0.48606740131E+02  0.41800000000E+01 0. -1.
        -11    1    1    2    0    0  0.19028986029E+02 -0.26218099460E+02 -0.32015287862E+02  0.45546346785E+02  0.00000000000E+00 0.  1.
         11    1    1    2    0    0  0.56577652908E+02 -0.54907585487E+02  0.66059639368E+02  0.10285791027E+03  0.00000000000E+00 0. -1.
</event>
<event>
 7    1  0.2661133E-009  0.1101638E+03  0.7561462E-02  0.1260267E+00
          1   -1    0    0  501    0  0.00000000000E+00  0.00000000000E+00  0.18595318213E+03  0.18595318213E+03  0.00000000000E+00 0. -1.
         -1   -1    0    0    0  501 -0.00000000000E+00 -0.00000000000E+00 -0.77475383746E+02  0.77475383746E+02  0.00000000000E+00 0.  1.
         25    2    1    2    0    0  0.50275273525E+01  0.32770353572E+02  0.10159777705E+03  0.16452574534E+03  0.12508972969E+03 0.  0.
          5    1    3    3  502    0  0.32869805407E+02  0.68594814720E+02  0.89206590702E+02  0.11730712228E+03  0.41800000000E+01 0. -1.
         -5    1    3    3    0  502 -0.27842278055E+02 -0.35824461148E+02  0.12391186345E+02  0.47218623051E+02  0.41800000000E+01 0. -1.
        -11    1    1    2    0    0 -0.28544786221E+02 -0.57662445292E+02  0.26178991681E+01  0.64394221895E+02  0.00000000000E+00 0.  1.
         11    1    1    2    0    0  0.23517258868E+02  0.24892091719E+02  0.42621221640E+01  0.34508598641E+02  0.00000000000E+00 0. -1.
</event>
<event>
 7    1  0.2661133E-009  0.1221161E+03  0.7561462E-02  0.1239646E+00
         -4   -1    0    0    0  501 -0.00000000000E+00  0.00000000000E+00  0.48056692807E+03  0.48056692807E+03  0.00000000000E+00 0.  1.
          4   -1    0    0  501    0  0.00000000000E+00 -0.00000000000E+00 -0.49522505385E+02  0.49522505385E+02  0.00000000000E+00 0. -1.
         25    2    1    2    0    0 -0.61161446138E+02 -0.45791849351E+02  0.36984873986E+03  0.39783811611E+03  0.12509780291E+03 0.  0.
          5    1    3    3  502    0 -0.63043096650E+01 -0.67928392694E+02  0.97264064976E+02  0.11887717018E+03  0.41800000000E+01 0.  1.
         -5    1    3    3    0  502 -0.54857136473E+02  0.22136543342E+02  0.27258467488E+03  0.27896094593E+03  0.41800000000E+01 0.  1.
        -11    1    1    2    0    0 -0.25385960400E+01  0.52470749233E+02  0.20637100008E+02  0.56440356941E+02  0.00000000000E+00 0. -1.
         11    1    1    2    0    0  0.63700042178E+02 -0.66788998818E+01  0.40558582820E+02  0.75810960405E+02  0.00000000000E+00 0.  1.
</event>
<event>
 7    1  0.2661133E-009  0.1470097E+03  0.7561462E-02  0.1204196E+00
          1   -1    0    0  501    0  0.00000000000E+00  0.00000000000E+00  0.51043739967E+03  0.51043739967E+03  0.00000000000E+00 0. -1.
         -1   -1    0    0    0  501 -0.00000000000E+00 -0.00000000000E+00 -0.97823315588E+02  0.97823315588E+02  0.00000000000E+00 0.  1.
         25    2    1    2    0    0 -0.10424378935E+03  0.70266423901E+02  0.41609858597E+03  0.45231581393E+03  0.12508966519E+03 0.  0.
          5    1    3    3  502    0 -0.67222751046E+02  0.84438343646E+02  0.38997793883E+03  0.40465911248E+03  0.41800000000E+01 0. -1.
         -5    1    3    3    0  502 -0.37021038302E+02 -0.14171919745E+02  0.26120647137E+02  0.47656701450E+02  0.41800000000E+01 0. -1.
        -11    1    1    2    0    0  0.74465096204E+02 -0.52654516020E+01 -0.28920892411E+02  0.80057439074E+02  0.00000000000E+00 0.  1.
         11    1    1    2    0    0  0.29778693143E+02 -0.65000972299E+02  0.25436390526E+02  0.75887462259E+02  0.00000000000E+00 0. -1.
</event>
<event>
 7    1  0.2661133E-009  0.1588789E+03  0.7561462E-02  0.1189968E+00
          2   -1    0    0  501    0  0.00000000000E+00  0.00000000000E+00  0.59490698677E+03  0.59490698677E+03  0.00000000000E+00 0.  1.
         -2   -1    0    0    0  501 -0.00000000000E+00 -0.00000000000E+00 -0.58745426930E+02  0.58745426930E+02  0.00000000000E+00 0. -1.
         25    2    1    2    0    0 -0.26643796721E+02 -0.14648984103E+03  0.23198953152E+03  0.30271755082E+03  0.12509839092E+03 0.  0.
          5    1    3    3  502    0  0.23665392691E+02 -0.81603509397E+02  0.40277902472E+02  0.94122077031E+02  0.41800000000E+01 0.  1.
         -5    1    3    3    0  502 -0.50309189412E+02 -0.64886331634E+02  0.19171162905E+03  0.20859547379E+03  0.41800000000E+01 0.  1.
        -11    1    1    2    0    0  0.62196590658E+01  0.93211652891E+02  0.26691126490E+03  0.28278741083E+03  0.00000000000E+00 0.  1.
         11    1    1    2    0    0  0.20424137655E+02  0.53278188140E+02  0.37260763417E+02  0.68147452050E+02  0.00000000000E+00 0. -1.
</event>
<event>
 7    1  0.2661133E-009  0.7965657E+02  0.7561462E-02  0.1330029E+00
         -1   -1    0    0    0  501 -0.00000000000E+00  0.00000000000E+00  0.16310864127E+03  0.16310864127E+03  0.00000000000E+00 0.  1.
          1   -1    0    0  501    0  0.00000000000E+00 -0.00000000000E+00 -0.87062762013E+02  0.87062762013E+02  0.00000000000E+00 0. -1.
         25    2    1    2    0    0  0.27583873340E+01 -0.39961301877E+02  0.73160957756E+02  0.15034461533E+03  0.12508582362E+03 0.  0.
          5    1    3    3  502    0 -0.10697841480E+02  0.37239974985E+02  0.58834912275E+02  0.70571090764E+02  0.41800000000E+01 0.  1.
         -5    1    3    3    0  502  0.13456228814E+02 -0.77201276862E+02  0.14326045481E+02  0.79773524569E+02  0.41800000000E+01 0.  1.
        -11    1    1    2    0    0 -0.69912755826E+01  0.15016403306E+02 -0.43744324155E+02  0.46775380258E+02  0.00000000000E+00 0. -1.
         11    1    1    2    0    0  0.42328882486E+01  0.24944898570E+02  0.46629245657E+02  0.53051407693E+02  0.00000000000E+00 0.  1.
</event>
<event>
 7    1  0.2661133E-009  0.9580131E+02  0.7561462E-02  0.1289381E+00
         -1   -1    0    0    0  501 -0.00000000000E+00  0.00000000000E+00  0.45957225558E+02  0.45957225558E+02  0.00000000000E+00 0.  1.
          1   -1    0    0  501    0  0.00000000000E+00 -0.00000000000E+00 -0.34918118675E+03  0.34918118675E+03  0.00000000000E+00 0. -1.
         25    2    1    2    0    0 -0.59315753209E+01 -0.85974772775E+01 -0.26866991701E+03  0.29654591184E+03  0.12508738275E+03 0.  0.
          5    1    3    3  502    0  0.11574424154E+01 -0.64768470297E+02 -0.17909389953E+03  0.19049512242E+03  0.41800000000E+01 0.  1.
         -5    1    3    3    0  502 -0.70890177362E+01  0.56170993020E+02 -0.89576017480E+02  0.10605078942E+03  0.41800000000E+01 0.  1.
        -11    1    1    2    0    0  0.30129887767E+02  0.26253808057E+02  0.13315266919E+02  0.42123258510E+02  0.00000000000E+00 0.  1.
         11    1    1    2    0    0 -0.24198312446E+02 -0.17656330780E+02 -0.47869311108E+02  0.56469241962E+02  0.00000000000E+00 0. -1.
</event>
<event>
 7    1  0.2661133E-009  0.6154973E+02  0.7561462E-02  0.1391441E+00
          1   -1    0    0  501    0  0.00000000000E+00  0.00000000000E+00  0.70812564016E+02  0.70812564016E+02  0.00000000000E+00 0. -1.
         -1   -1    0    0    0  501 -0.00000000000E+00 -0.00000000000E+00 -0.18292663677E+03  0.18292663677E+03  0.00000000000E+00 0.  1.
         25    2    1    2    0    0  0.31990074169E+02  0.16329922086E+02 -0.61539422796E+02  0.14395856670E+03  0.12508771789E+03 0.  0.
          5    1    3    3  502    0  0.23511213329E+02  0.99800819551E+00  0.36856433437E+02  0.43927693523E+02  0.41800000000E+01 0.  1.
         -5    1    3    3    0  502  0.84788608401E+01  0.15331913890E+02 -0.98395856234E+02  0.10003087318E+03  0.41800000000E+01 0.  1.
        -11    1    1    2    0    0 -0.16042653342E+02  0.28995487455E+02 -0.52056333149E+02  0.61708725801E+02  0.00000000000E+00 0.  1.
         11    1    1    2    0    0 -0.15947420827E+02 -0.45325409541E+02  0.14816831908E+01  0.48071908285E+02  0.00000000000E+00 0. -1.
</event>
<event>
 7    1  0.2661133E-009  0.1144666E+03  0.7561462E-02  0.1252515E+00
          4   -1    0    0  501    0  0.00000000000E+00  0.00000000000E+00  0.73954617514E+02  0.73954617514E+02  0.00000000000E+00 0. -1.
         -4   -1    0    0    0  501 -0.00000000000E+00 -0.00000000000E+00 -0.26681185120E+03  0.26681185120E+03  0.00000000000E+00 0.  1.
         25    2    1    2    0    0  0.74356457485E+02  0.30707641659E+02 -0.56495877107E+02  0.15909258160E+03  0.12508726300E+03 0.  0.
          5    1    3    3  502    0  0.76878746877E+02  0.72064923099E+02 -0.50819102507E+02  0.11706301056E+03  0.41800000000E+01 0.  1.
         -5    1    3    3    0  502 -0.25222893921E+01 -0.41357281440E+02 -0.56767746004E+01  0.42029571039E+02  0.41800000000E+01 0.  1.
        -11    1    1    2    0    0 -0.33410939653E+02 -0.21902804290E+02 -0.13388598435E+03  0.13971929190E+03  0.00000000000E+00 0.  1.
         11    1    1    2    0    0 -0.40945517832E+02 -0.88048373689E+01 -0.24753722298E+01  0.41954595211E+02  0.00000000000E+00 0. -1.
</event>
<event>
 7    1  0.2661133E-009  0.1038277E+03  0.7561462E-02  0.1272447E+00
          1   -1    0    0  501    0  0.00000000000E+00  0.00000000000E+00  0.16730912389E+03  0.16730912389E+03  0.00000000000E+00 0. -1.
         -1   -1    0    0    0  501 -0.00000000000E+00 -0.00000000000E+00 -0.84676886351E+02  0.84676886351E+02  0.00000000000E+00 0.  1.
         25    2    1    2    0    0  0.42952833013E+02 -0.81127093881E+01  0.21217105165E+02  0.13419862584E+03  0.12509333998E+03 0.  0.
          5    1    3    3  502    0 -0.35687151514E+02 -0.33303047826E+02  0.64251199216E+00  0.48995418146E+02  0.41800000000E+01 0. -1.
         -5    1    3    3    0  502  0.78639984527E+02  0.25190338438E+02  0.20574593173E+02  0.85203207694E+02  0.41800000000E+01 0. -1.
        -11    1    1    2    0    0 -0.10310717959E+02  0.33231518195E+02  0.67704430946E+02  0.76121840993E+02  0.00000000000E+00 0. -1.
         11    1    1    2    0    0 -0.32642115054E+02 -0.25118808807E+02 -0.62892985706E+01  0.41665543409E+02  0.00000000000E+00 0.  1.
</event>
<event>
 7    1  0.2661133E-009  0.1195707E+03  0.7561462E-02  0.1243807E+00
         -1   -1    0    0    0  501 -0.00000000000E+00  0.00000000000E+00  0.17718459351E+03  0.17718459351E+03  0.00000000000E+00 0.  1.
          1   -1    0    0  501    0  0.00000000000E+00 -0.00000000000E+00 -0.12304350749E+03  0.12304350749E+03  0.00000000000E+00 0. -1.
         25    2    1    2    0    0 -0.85733189838E+02 -0.74010993699E+01 -0.38160136909E+02  0.15655267339E+03  0.12509031692E+03 0.  0.
          5    1    3    3  502    0  0.10276687752E+02  0.28442408267E+02 -0.44300499457E+02  0.53801371277E+02  0.41800000000E+01 0. -1.
         -5    1    3    3    0  502 -0.96009877590E+02 -0.35843507637E+02  0.61403625474E+01  0.10275130212E+03  0.41800000000E+01 0. -1.
        -11    1    1    2    0    0  0.71270450391E+02  0.31513652829E+02  0.83497182300E+02  0.11421193837E+03  0.00000000000E+00 0.  1.
         11    1    1    2    0    0  0.14462739447E+02 -0.24112553460E+02  0.88040406272E+01  0.29463489237E+02  0.00000000000E+00 0. -1.
</event>
<event>
 7    1  0.2661133E-009  0.8662798E+02  0.7561462E-02  0.1311229E+00
          4   -1    0    0  501    0  0.00000000000E+00  0.00000000000E+00  0.10614803848E+03  0.10614803848E+03  0.00000000000E+00 0. -1.
         -4   -1    0    0    0  501 -0.00000000000E+00 -0.00000000000E+00 -0.14681949192E+03  0.14681949192E+03  0.00000000000E+00 0.  1.
         25    2    1    2    0    0  0.47958521310E+02 -0.18242665678E+02 -0.10028717681E+01  0.13520122747E+03  0.12508217915E+03 0.  0.
          5    1    3    3  502    0 -0.44530638927E+01  0.10778193353E+02 -0.53818124543E+02  0.55225557121E+02  0.41800000000E+01 0. -1.
         -5    1    3    3    0  502  0.52411585203E+02 -0.29020859032E+02  0.52815252775E+02  0.79975670351E+02  0.41800000000E+01 0. -1.
        -11    1    1    2    0    0  0.24515846503E+02 -0.43482646819E+01 -0.33309534734E+02  0.41586767603E+02  0.00000000000E+00 0.  1.
         11    1    1    2    0    0 -0.72474367813E+02  0.22590930360E+02 -0.63590469377E+01  0.76179535326E+02  0.00000000000E+00 0. -1.
</event>
<event>
 7    1  0.3711185E-009  0.1271096E+03  0.7561462E-02  0.1231809E+00
          3   -1    0    0  501    0  0.00000000000E+00  0.00000000000E+00  0.72392389689E+03  0.72392389689E+03  0.00000000000E+00 0. -1.
         -3   -1    0    0    0  501 -0.00000000000E+00 -0.00000000000E+00 -0.31250360081E+02  0.31250360081E+02  0.00000000000E+00 0.  1.
         25    2    1    2    0    0 -0.87617684056E+02 -0.38206273980E+02  0.27267003842E+03  0.31485427785E+03  0.12509072107E+03 0.  0.
          5    1    3    3  502    0 -0.11652436484E+03 -0.46399450220E+02  0.23575509803E+03  0.26707447506E+03  0.41800000000E+01 0. -1.
         -5    1    3    3    0  502  0.28906680781E+02  0.81931762393E+01  0.36914940389E+02  0.47779802789E+02  0.41800000000E+01 0. -1.
        -11    1    1    2    0    0  0.22773026310E+02  0.21752378072E+02  0.26466039446E+02  0.41136698009E+02  0.00000000000E+00 0.  1.
         11    1    1    2    0    0  0.64844657746E+02  0.16453895909E+02  0.39353745894E+03  0.39918328111E+03  0.00000000000E+00 0. -1.
</event>
<event>
 7    1  0.2661133E-009  0.1701001E+03  0.7561462E-02  0.1177744E+00
         -2   -1    0    0    0  501 -0.00000000000E+00  0.00000000000E+00  0.61143121320E+02  0.61143121320E+02  0.00000000000E+00 0.  1.
          2   -1    0    0  501    0  0.00000000000E+00 -0.00000000000E+00 -0.62669312542E+03  0.62669312542E+03  0.00000000000E+00 0. -1.
         25    2    1    2    0    0  0.12327220287E+03  0.10544114119E+03 -0.27035984365E+03  0.33919462067E+03  0.12507867676E+03 0.  0.
          5    1    3    3  502    0  0.48037192994E+02  0.12393894133E+02 -0.18646347262E+03  0.19299554281E+03  0.41800000000E+01 0.  1.
         -5    1    3    3    0  502  0.75235009879E+02  0.93047247057E+02 -0.83896371028E+02  0.14619907786E+03  0.41800000000E+01 0.  1.
        -11    1    1    2    0    0 -0.20030768112E+02  0.37858331262E+01 -0.10124292777E+03  0.10327484993E+03  0.00000000000E+00 0. -1.
         11    1    1    2    0    0 -0.10324143476E+03 -0.10922697432E+03 -0.19394723268E+03  0.24536677614E+03  0.00000000000E+00 0.  1.
</event>
<event>
 7    1  0.2661133E-009  0.9467020E+02  0.7561462E-02  0.1291921E+00
          1   -1    0    0  501    0  0.00000000000E+00  0.00000000000E+00  0.51396891474E+03  0.51396891474E+03  0.00000000000E+00 0. -1.
         -1   -1    0    0    0  501 -0.00000000000E+00 -0.00000000000E+00 -0.24456805663E+02  0.24456805663E+02  0.00000000000E+00 0.  1.
         25    2    1    2    0    0  0.75245821891E+01  0.25839871028E+02  0.29065906072E+03  0.31757750603E+03  0.12509382273E+03 0.  0.
          5    1    3    3  502    0  0.52557512475E+02  0.52677705359E+02  0.18794186048E+03  0.20218023662E+03  0.41800000000E+01 0. -1.
         -5    1    3    3    0  502 -0.45032930286E+02 -0.26837834331E+02  0.10271720024E+03  0.11539726941E+03  0.41800000000E+01 0. -1.
        -11    1    1    2    0    0 -0.31734952363E+02 -0.19297978451E+02  0.19098678676E+03  0.19456482696E+03  0.00000000000E+00 0. -1.
         11    1    1    2    0    0  0.24210370174E+02 -0.65418925764E+01  0.78662615980E+01  0.26283387414E+02  0.00000000000E+00 0.  1.
</event>
<event>
 7    1  0.2661133E-009  0.1184148E+03  0.7561462E-02  0.1245735E+00
          2   -1    0    0  501    0  0.00000000000E+00  0.00000000000E+00  0.47997786717E+03  0.47997786717E+03  0.00000000000E+00 0. -1.
         -2   -1    0    0    0  501 -0.00000000000E+00 -0.00000000000E+00 -0.35389597020E+02  0.35389597020E+02  0.00000000000E+00 0.  1.
         25    2    1    2    0    0  0.18226156264E+02  0.65194994917E+02  0.25878578860E+03  0.29529667172E+03  0.12508980701E+03 0.  0.
          5    1    3    3  502    0  0.28094591483E+02 -0.30997315668E+02  0.51155322241E+02  0.66215398835E+02  0.41800000000E+01 0. -1.
         -5    1    3    3    0  502 -0.98684352191E+01  0.96192310585E+02  0.20763046636E+03  0.22908127289E+03  0.41800000000E+01 0. -1.
        -11    1    1    2    0    0 -0.42651905093E+02 -0.21087857914E+02  0.29844815059E+02  0.56165788033E+02  0.00000000000E+00 0.  1.
         11    1    1    2    0    0  0.24425748829E+02 -0.44107137002E+02  0.15595766650E+03  0.16390500444E+03  0.00000000000E+00 0. -1.
</event>
<event>
 7    1  0.2661133E-009  0.1130443E+03  0.7561462E-02  0.1255034E+00
         -3   -1    0    0    0  501 -0.00000000000E+00  0.00000000000E+00  0.84358011181E+02  0.84358011181E+02  0.00000000000E+00 0.  1.
          3   -1    0    0  501    0  0.00000000000E+00 -0.00000000000E+00 -0.19760014213E+03  0.19760014213E+03  0.00000000000E+00 0. -1.
         25    2    1    2    0    0  0.50373588168E+02 -0.42178870964E+02 -0.89914333527E+02  0.16747628664E+03  0.12508862328E+03 0.  0.
          5    1    3    3  502    0  0.24258811297E+02  0.29486526067E+02 -0.82158126440E+02  0.90693854726E+02  0.41800000000E+01 0. -1.
         -5    1    3    3    0  502  0.26114776871E+02 -0.71665397031E+02 -0.77562070877E+01  0.76782431916E+02  0.41800000000E+01 0. -1.
        -11    1    1    2    0    0  0.20936660282E+02 -0.97281749424E+01 -0.10464690595E+02  0.25347403826E+02  0.00000000000E+00 0.  1.
         11    1    1    2    0    0 -0.71310248450E+02  0.51907045906E+02 -0.12863106824E+02  0.89134462841E+02  0.00000000000E+00 0. -1.
</event>
<event>
 7    1  0.2661133E-009  0.1006622E+03  0.7561462E-02  0.1278910E+00
          3   -1    0    0  501    0  0.00000000000E+00  0.00000000000E+00  0.40894467721E+02  0.40894467721E+02  0.00000000000E+00 0. -1.
         -3   -1    0    0    0  501 -0.00000000000E+00 -0.00000000000E+00 -0.32125739585E+03  0.32125739585E+03  0.00000000000E+00 0.  1.
         25    2    1    2    0    0  0.14599214417E+02  0.14298154988E+02 -0.21220359424E+03  0.24716866770E+03  0.12507761824E+03 0.  0.
          5    1    3    3  502    0  0.61427057326E+02  0.32895447074E+02 -0.15964793728E+03  0.17424215932E+03  0.41800000000E+01 0. -1.
         -5    1    3    3    0  502 -0.46827842909E+02 -0.18597292086E+02 -0.52555656968E+02  0.72926508375E+02  0.41800000000E+01 0. -1.
        -11    1    1    2    0    0 -0.45686073991E+02  0.22528376557E+01 -0.65194210279E+02  0.79640301908E+02  0.00000000000E+00 0.  1.
         11    1    1    2    0    0  0.31086859574E+02 -0.16550992644E+02 -0.29651236060E+01  0.35342893963E+02  0.00000000000E+00 0. -1.
</event>
<event>
 7    1  0.2661133E-009  0.1010876E+03  0.7561462E-02  0.1278025E+00
          2   -1    0    0  501    0  0.00000000000E+00  0.00000000000E+00  0.27300143529E+03  0.27300143529E+03  0.00000000000E+00 0. -1.
         -2   -1    0    0    0  501 -0.00000000000E+00 -0.00000000000E+00 -0.53826169187E+02  0.53826169187E+02  0.00000000000E+00 0.  1.
         25    2    1    2    0    0 -0.22900954705E+02 -0.31985472894E+02  0.84546914621E+02  0.15602403235E+03  0.12509114156E+03 0.  0.
          5    1    3    3  502    0 -0.54131491757E+02  0.23884054333E+02  0.67087323860E+02  0.89548019933E+02  0.41800000000E+01 0. -1.
         -5    1    3    3    0  502  0.31230537052E+02 -0.55869527227E+02  0.17459590761E+02  0.66476012416E+02  0.41800000000E+01 0. -1.
        -11    1    1    2    0    0  0.46641594541E+02  0.13281712115E+02  0.13181101737E+03  0.14044923111E+03  0.00000000000E+00 0. -1.
         11    1    1    2    0    0 -0.23740639836E+02  0.18703760779E+02  0.28173341068E+01  0.30354341017E+02  0.00000000000E+00 0.  1.
</event>
<event>
 7    1  0.2661133E-009  0.1417686E+03  0.7561462E-02  0.1210969E+00
         -1   -1    0    0    0  501 -0.00000000000E+00  0.00000000000E+00  0.64865539017E+02  0.64865539017E+02  0.00000000000E+00 0.  1.
          1   -1    0    0  501    0  0.00000000000E+00 -0.00000000000E+00 -0.47407146750E+03  0.47407146750E+03  0.00000000000E+00 0. -1.
         25    2    1    2    0    0 -0.50091272977E+02 -0.12772601264E+03 -0.19837634982E+03  0.27169872699E+03  0.12507578560E+03 0.  0.
          5    1    3    3  502    0 -0.44674956138E+02 -0.77956754991E+02 -0.20221232791E+03  0.22131517190E+03  0.41800000000E+01 0.  1.
         -5    1    3    3    0  502 -0.54163168387E+01 -0.49769257652E+02  0.38359780893E+01  0.50383555087E+02  0.41800000000E+01 0.  1.
        -11    1    1    2    0    0 -0.19268938550E+01  0.48727332313E+02 -0.17145027556E+02  0.51691564148E+02  0.00000000000E+00 0.  1.
         11    1    1    2    0    0  0.52018166832E+02  0.78998680330E+02 -0.19368455111E+03  0.21554671539E+03  0.00000000000E+00 0. -1.
</event>
<event>
 7    1  0.2661133E-009  0.1330521E+03  0.7561462E-02  0.1222996E+00
          1   -1    0    0  501    0  0.00000000000E+00  0.00000000000E+00  0.71856235709E+03  0.71856235709E+03  0.00000000000E+00 0. -1.
         -1   -1    0    0    0  501 -0.00000000000E+00 -0.00000000000E+00 -0.37250192806E+02  0.37250192806E+02  0.00000000000E+00 0.  1.
         25    2    1    2    0    0  0.98244452423E+02  0.52531758063E+02  0.48135970927E+03  0.50967374885E+03  0.12509437447E+03 0.  0.
          5    1    3    3  502    0  0.11712182968E+03  0.49375200049E+02  0.47027033822E+03  0.48716228997E+03  0.41800000000E+01 0.  1.
         -5    1    3    3    0  502 -0.18877377254E+02  0.31565580142E+01  0.11089371055E+02  0.22511458879E+02  0.41800000000E+01 0.  1.
        -11    1    1    2    0    0 -0.90229937843E+02 -0.29461170733E+02  0.81231707719E+02  0.12493195189E+03  0.00000000000E+00 0.  1.
         11    1    1    2    0    0 -0.80145145793E+01 -0.23070587330E+02  0.11872074729E+03  0.12120684915E+03  0.00000000000E+00 0. -1.
</event>
<event>
 7    1  0.2661133E-009  0.1182015E+03  0.7561462E-02  0.1246094E+00
         -1   -1    0    0    0  501 -0.00000000000E+00  0.00000000000E+00  0.18824424168E+04  0.18824424168E+04  0.00000000000E+00 0.  1.
          1   -1    0    0  501    0  0.00000000000E+00 -0.00000000000E+00 -0.14399772440E+02  0.14399772440E+02  0.00000000000E+00 0. -1.
         25    2    1    2    0    0 -0.90722453695E+02 -0.23000855588E+02  0.14543658439E+04  0.14627327360E+04  0.12508975155E+03 0.  0.
          5    1    3    3  502    0 -0.42265257112E+02 -0.34673658196E+02  0.20026045388E+03  0.20763028758E+03  0.41800000000E+01 0. -1.
         -5    1    3    3    0  502 -0.48457196583E+02  0.11672802608E+02  0.12541053901E+04  0.12551024484E+04  0.41800000000E+01 0. -1.
        -11    1    1    2    0    0 -0.19402880942E+02  0.31568238188E+01  0.57342249785E+02  0.60618239300E+02  0.00000000000E+00 0. -1.
         11    1    1    2    0    0  0.11012533464E+03  0.19844031769E+02  0.35633455068E+03  0.37349121400E+03  0.00000000000E+00 0.  1.
</event>
<event>
 7    1  0.2661133E-009  0.1375499E+03  0.7561462E-02  0.1216664E+00
         -1   -1    0    0    0  501 -0.00000000000E+00  0.00000000000E+00  0.43239631293E+02  0.43239631293E+02  0.00000000000E+00 0.  1.
          1   -1    0    0  501    0  0.00000000000E+00 -0.00000000000E+00 -0.51361988650E+03  0.51361988650E+03  0.00000000000E+00 0. -1.
         25    2    1    2    0    0 -0.45027570842E+02  0.84592463501E+02 -0.29880801986E+03  0.33781382752E+03  0.12509429368E+03 0.  0.
          5    1    3    3  502    0 -0.79400737767E+02  0.51072132000E+02 -0.12065737938E+03  0.15325963404E+03  0.41800000000E+01 0.  1.
         -5    1    3    3    0  502  0.34373166925E+02  0.33520331501E+02 -0.17815064048E+03  0.18455419348E+03  0.41800000000E+01 0.  1.
        -11    1    1    2    0    0  0.26201217113E+02  0.15577587456E+02 -0.20238114075E+02  0.36588881787E+02  0.00000000000E+00 0. -1.
         11    1    1    2    0    0  0.18826353729E+02 -0.10017005096E+03 -0.15133412127E+03  0.18245680849E+03  0.00000000000E+00 0.  1.
</event>
<event>
 7    1  0.2661133E-009  0.9321745E+02  0.7561462E-02  0.1295242E+00
          3   -1    0    0  501    0  0.00000000000E+00  0.00000000000E+00  0.82368917715E+02  0.82368917715E+02  0.00000000000E+00 0.  1.
         -3   -1    0    0    0  501 -0.00000000000E+00 -0.00000000000E+00 -0.19188289788E+03  0.19188289788E+03  0.00000000000E+00 0. -1.
         25    2    1    2    0    0 -0.57996660167E+02  0.76647650701E+01 -0.79766913802E+02  0.15947224358E+03  0.12508506994E+03 0.  0.
          5    1    3    3  502    0 -0.15612757858E+02 -0.19301136386E+02  0.29713506916E+02  0.38944280286E+02  0.41800000000E+01 0.  1.
         -5    1    3    3    0  502 -0.42383902309E+02  0.26965901456E+02 -0.10948042072E+03  0.12052796330E+03  0.41800000000E+01 0.  1.
        -11    1    1    2    0    0  0.83283499051E+01 -0.46851505264E+02 -0.12167697086E+02  0.49116980872E+02  0.00000000000E+00 0.  1.
         11    1    1    2    0    0  0.49668310262E+02  0.39186740194E+02 -0.17579369279E+02  0.65662591142E+02  0.00000000000E+00 0. -1.
</event>
<event>
 7    1  0.2661133E-009  0.1041429E+03  0.7561462E-02  0.1271818E+00
         -4   -1    0    0    0  501 -0.00000000000E+00  0.00000000000E+00  0.13539046721E+03  0.13539046721E+03  0.00000000000E+00 0.  1.
          4   -1    0    0  501    0  0.00000000000E+00 -0.00000000000E+00 -0.11731574485E+03  0.11731574485E+03  0.00000000000E+00 0. -1.
         25    2    1    2    0    0 -0.56315566002E+02  0.14251477718E+02  0.35227082699E+02  0.14235111344E+03  0.12509334335E+03 0.  0.
          5    1    3    3  502    0  0.24344791929E+02 -0.44018083705E+01  0.52036407837E+02  0.57769411903E+02  0.41800000000E+01 0.  1.
         -5    1    3    3    0  502 -0.80660357930E+02  0.18653286088E+02 -0.16809325138E+02  0.84581701537E+02  0.41800000000E+01 0.  1.
        -11    1    1    2    0    0  0.74478310431E+02  0.39560381606E+01 -0.31435405076E+02  0.80937344007E+02  0.00000000000E+00 0.  1.
         11    1    1    2    0    0 -0.18162744429E+02 -0.18207515878E+02  0.14283044738E+02  0.29417754616E+02  0.00000000000E+00 0. -1.
</event>
<event>
 7    1  0.3418937E-009  0.9983985E+02  0.7561462E-02  0.1280633E+00
         -2   -1    0    0    0  501 -0.00000000000E+00  0.00000000000E+00  0.92458012537E+02  0.92458012537E+02  0.00000000000E+00 0.  1.
          2   -1    0    0  501    0  0.00000000000E+00 -0.00000000000E+00 -0.19459816630E+03  0.19459816630E+03  0.00000000000E+00 0. -1.
         25    2    1    2    0    0  0.52981359374E+02 -0.57176366133E+02 -0.69659512156E+02  0.16302197239E+03  0.12509018572E+03 0.  0.
          5    1    3    3  502    0 -0.25662666967E+02 -0.30902391994E+01 -0.61850484193E+02  0.67164550539E+02  0.41800000000E+01 0. -1.
         -5    1    3    3    0  502  0.78644026341E+02 -0.54086126934E+02 -0.78090279627E+01  0.95857421849E+02  0.41800000000E+01 0. -1.
        -11    1    1    2    0    0 -0.40211245222E+02  0.42718110768E+02 -0.64163382604E+02  0.86940904625E+02  0.00000000000E+00 0. -1.
         11    1    1    2    0    0 -0.12770114152E+02  0.14458255365E+02  0.31682740993E+02  0.37093301828E+02  0.00000000000E+00 0.  1.
</event>
<event>
 7    1  0.2661133E-009  0.9646606E+02  0.7561462E-02  0.1287908E+00
         -3   -1    0    0    0  501 -0.00000000000E+00  0.00000000000E+00  0.21848743033E+02  0.21848743033E+02  0.00000000000E+00 0.  1.
          3   -1    0    0  501    0  0.00000000000E+00 -0.00000000000E+00 -0.74933457280E+03  0.74933457280E+03  0.00000000000E+00 0. -1.
         25    2    1    2    0    0  0.35184774685E+02 -0.74507499762E+02 -0.40375760906E+03  0.43064739842E+03  0.12509052324E+03 0.  0.
          5    1    3    3  502    0 -0.17922455263E+02 -0.35112130310E+02 -0.32638180943E+03  0.32878052561E+03  0.41800000000E+01 0. -1.
         -5    1    3    3    0  502  0.53107229948E+02 -0.39395369452E+02 -0.77375799629E+02  0.10186687281E+03  0.41800000000E+01 0. -1.
        -11    1    1    2    0    0  0.96987206488E+00  0.28515439553E+02 -0.31463939615E+02  0.42474114950E+02  0.00000000000E+00 0.  1.
         11    1    1    2    0    0 -0.36154646750E+02  0.45992060209E+02 -0.29226428110E+03  0.29806180247E+03  0.00000000000E+00 0. -1.
</event>
<event>
 7    1  0.2661133E-009  0.1647249E+03  0.7561462E-02  0.1183463E+00
          2   -1    0    0  501    0  0.00000000000E+00  0.00000000000E+00  0.12492149958E+04  0.12492149958E+04  0.00000000000E+00 0. -1.
         -2   -1    0    0    0  501 -0.00000000000E+00 -0.00000000000E+00 -0.76511680075E+02  0.76511680075E+02  0.00000000000E+00 0.  1.
         25    2    1    2    0    0  0.16450994293E+03 -0.27639908905E+01  0.11098577544E+04  0.11289387707E+04  0.12508937549E+03 0.  0.
          5    1    3    3  502    0  0.13325011954E+03 -0.35453542281E+01  0.10691596759E+04  0.10774451489E+04  0.41800000000E+01 0. -1.
         -5    1    3    3    0  502  0.31259823391E+02  0.78136333756E+00  0.40698078537E+02  0.51493621777E+02  0.41800000000E+01 0. -1.
        -11    1    1    2    0    0 -0.14477374682E+03  0.28967043813E+01  0.15667503927E+02  0.14564786076E+03  0.00000000000E+00 0.  1.
         11    1    1    2    0    0 -0.19736196116E+02 -0.13271349074E+00  0.47178057322E+02  0.51140044414E+02  0.00000000000E+00 0. -1.
</event>
<event>
 7    1  0.2661133E-009  0.1210653E+03  0.7561462E-02  0.1241350E+00
          2   -1    0    0  501    0  0.00000000000E+00  0.00000000000E+00  0.19194750602E+03  0.19194750602E+03  0.00000000000E+00 0. -1.
         -2   -1    0    0    0  501 -0.00000000000E+00 -0.00000000000E+00 -0.83486231685E+02  0.83486231685E+02  0.00000000000E+00 0.  1.
         25    2    1    2    0    0  0.99786013621E+01 -0.64493820165E+02  0.73803076712E+02  0.15923312636E+03  0.12509703863E+03 0.  0.
          5    1    3    3  502    0  0.24499551332E+02  0.33082670914E+02  0.30557234882E+02  0.51438391634E+02  0.41800000000E+01 0. -1.
         -5    1    3    3    0  502 -0.14520949970E+02 -0.97576491079E+02  0.43245841830E+02  0.10779473473E+03  0.41800000000E+01 0. -1.
        -11    1    1    2    0    0 -0.20549993943E+02  0.80360718869E+02  0.78685483682E+01  0.83319034089E+02  0.00000000000E+00 0.  1.
         11    1    1    2    0    0  0.10571392581E+02 -0.15866898704E+02  0.26789649260E+02  0.32881577259E+02  0.00000000000E+00 0. -1.
</event>
<event>
 7    1  0.2661133E-009  0.1547619E+03  0.7561462E-02  0.1194741E+00
          1   -1    0    0  501    0  0.00000000000E+00  0.00000000000E+00  0.55669952390E+02  0.55669952390E+02  0.00000000000E+00 0. -1.
         -1   -1    0    0    0  501 -0.00000000000E+00 -0.00000000000E+00 -0.45848556980E+03  0.45848556980E+03  0.00000000000E+00 0.  1.
         25    2    1    2    0    0 -0.10606202659E+03 -0.43164710752E+02 -0.17930057293E+03  0.24679610559E+03  0.12508907444E+03 0.  0.
          5    1    3    3  502    0 -0.73132260243E+02 -0.83745105562E+02 -0.89412964793E+02  0.14273654356E+03  0.41800000000E+01 0. -1.
         -5    1    3    3    0  502 -0.32929766345E+02  0.40580394810E+02 -0.89887608136E+02  0.10405956203E+03  0.41800000000E+01 0. -1.
        -11    1    1    2    0    0  0.11979284788E+03  0.23860502195E+02 -0.17554805809E+03  0.21386156893E+03  0.00000000000E+00 0.  1.
         11    1    1    2    0    0 -0.13730821290E+02  0.19304208557E+02 -0.47966986397E+02  0.53497847670E+02  0.00000000000E+00 0. -1.
</event>
<event>
 7    1  0.2661133E-009  0.1364126E+03  0.7561462E-02  0.1218239E+00
          1   -1    0    0  501    0  0.00000000000E+00  0.00000000000E+00  0.50226399607E+03  0.50226399607E+03  0.00000000000E+00 0. -1.
         -1   -1    0    0    0  501 -0.00000000000E+00 -0.00000000000E+00 -0.59143695361E+02  0.59143695361E+02  0.00000000000E+00 0.  1.
         25    2    1    2    0    0 -0.57690361317E+02 -0.10682274150E+03  0.32274206294E+03  0.36680851751E+03  0.12508706342E+03 0.  0.
          5    1    3    3  502    0  0.23424434130E+01 -0.85225382071E+01 -0.10410560987E+02  0.14281907390E+02  0.41800000000E+01 0. -1.
         -5    1    3    3    0  502 -0.60032804730E+02 -0.98300203292E+02  0.33315262393E+03  0.35252661012E+03  0.41800000000E+01 0. -1.
        -11    1    1    2    0    0  0.17658111879E+02  0.10629788793E+03  0.63595852042E+02  0.12512186975E+03  0.00000000000E+00 0.  1.
         11    1    1    2    0    0  0.40032249438E+02  0.52485356979E+00  0.56782385730E+02  0.69477304176E+02  0.00000000000E+00 0. -1.
</event>
<event>
 7    1  0.2661133E-009  0.9520336E+02  0.7561462E-02  0.1290719E+00
          1   -1    0    0  501    0  0.00000000000E+00  0.00000000000E+00  0.85049899886E+03  0.85049899886E+03  0.00000000000E+00 0. -1.
         -1   -1    0    0    0  501 -0.00000000000E+00 -0.00000000000E+00 -0.18364554644E+02  0.18364554644E+02  0.00000000000E+00 0.  1.
         25    2    1    2    0    0  0.51261293599E+01  0.45879364678E+02  0.59969131551E+03  0.61433571989E+03  0.12509000573E+03 0.  0.
          5    1    3    3  502    0 -0.73470734764E+01 -0.29818454624E+02  0.46805327899E+02  0.56136715655E+02  0.41800000000E+01 0. -1.
         -5    1    3    3    0  502  0.12473202836E+02  0.75697819302E+02  0.55288598761E+03  0.55819900423E+03  0.41800000000E+01 0. -1.
        -11    1    1    2    0    0  0.31443934261E+02 -0.15592738940E+02  0.18159800703E+03  0.18495861880E+03  0.00000000000E+00 0. -1.
         11    1    1    2    0    0 -0.36570063620E+02 -0.30286625739E+02  0.50845121682E+02  0.69569214820E+02  0.00000000000E+00 0.  1.
</event>
<event>
 7    1  0.2661133E-009  0.1474365E+03  0.7561462E-02  0.1203659E+00
          1   -1    0    0  501    0  0.00000000000E+00  0.00000000000E+00  0.52442036677E+03  0.52442036677E+03  0.00000000000E+00 0. -1.
         -1   -1    0    0    0  501 -0.00000000000E+00 -0.00000000000E+00 -0.46853836471E+02  0.46853836471E+02  0.00000000000E+00 0.  1.
         25    2    1    2    0    0  0.83435883545E+02 -0.66843609175E+02  0.19175718703E+03  0.25267672970E+03  0.12508035898E+03 0.  0.
          5    1    3    3  502    0 -0.28969987980E+02 -0.21562594344E+02  0.17407926134E+02  0.40307740828E+02  0.41800000000E+01 0. -1.
         -5    1    3    3    0  502  0.11240587152E+03 -0.45281014831E+02  0.17434926090E+03  0.21236898887E+03  0.41800000000E+01 0. -1.
        -11    1    1    2    0    0 -0.76481297605E+02  0.67619102879E+01  0.19415649303E+03  0.20878662816E+03  0.00000000000E+00 0. -1.
         11    1    1    2    0    0 -0.69545859402E+01  0.60081698887E+02  0.91652850241E+02  0.10981084538E+03  0.00000000000E+00 0.  1.
</event>
<event>
 7    1  0.2661133E-009  0.1058483E+03  0.7561462E-02  0.1268457E+00
         -4   -1    0    0    0  501 -0.00000000000E+00  0.00000000000E+00  0.67607033371E+02  0.67607033371E+02  0.00000000000E+00 0.  1.
          4   -1    0    0  501    0  0.00000000000E+00 -0.00000000000E+00 -0.21100858090E+03  0.21100858090E+03  0.00000000000E+00 0. -1.
         25    2    1    2    0    0  0.26740791221E+02 -0.40901383298E+02 -0.98072517477E+02  0.16629162422E+03  0.12508674002E+03 0.  0.
          5    1    3    3  502    0 -0.50412725865E+02 -0.17432484075E+02 -0.40970233080E+02  0.67389664110E+02  0.41800000000E+01 0. -1.
         -5    1    3    3    0  502  0.77153517086E+02 -0.23468899223E+02 -0.57102284397E+02  0.98901960106E+02  0.41800000000E+01 0. -1.
        -11    1    1    2    0    0  0.50281785242E+01 -0.13519370370E+02  0.17945371604E+02  0.23023733765E+02  0.00000000000E+00 0.  1.
         11    1    1    2    0    0 -0.31768969745E+02  0.54420753669E+02 -0.63274401655E+02  0.89300256289E+02  0.00000000000E+00 0. -1.
</event>
<event>
 7    1  0.2661133E-009  0.2559767E+03  0.7561462E-02  0.1109585E+00
          2   -1    0    0  501    0  0.00000000000E+00  0.00000000000E+00  0.11652431017E+04  0.11652431017E+04  0.00000000000E+00 0. -1.
         -2   -1    0    0    0  501 -0.00000000000E+00 -0.00000000000E+00 -0.64769712639E+02  0.64769712639E+02  0.00000000000E+00 0.  1.
         25    2    1    2    0    0 -0.24625553582E+03  0.38561764133E+02  0.45061841504E+03  0.52993638986E+03  0.12508726054E+03 0.  0.
          5    1    3    3  502    0 -0.10549626993E+03  0.44935104449E+02  0.31116661253E+03  0.33164854851E+03  0.41800000000E+01 0. -1.
         -5    1    3    3    0  502 -0.14075926589E+03 -0.63733403162E+01  0.13945180251E+03  0.19828784134E+03  0.41800000000E+01 0. -1.
        -11    1    1    2    0    0  0.12761129469E+03 -0.49984499297E+02  0.28489759610E+03  0.31614827687E+03  0.00000000000E+00 0.  1.
         11    1    1    2    0    0  0.11864424112E+03  0.11422735164E+02  0.36495737789E+03  0.38392814759E+03  0.00000000000E+00 0. -1.
</event>
<event>
 7    1  0.2661133E-009  0.9458322E+02  0.7561462E-02  0.1292118E+00
         -1   -1    0    0    0  501 -0.00000000000E+00  0.00000000000E+00  0.69365511061E+02  0.69365511061E+02  0.00000000000E+00 0.  1.
          1   -1    0    0  501    0  0.00000000000E+00 -0.00000000000E+00 -0.22218138394E+03  0.22218138394E+03  0.00000000000E+00 0. -1.
         25    2    1    2    0    0  0.15501276406E+02  0.32147548743E+02 -0.14603088733E+03  0.19556427635E+03  0.12508641680E+03 0.  0.
          5    1    3    3  502    0  0.62160948979E+02 -0.77083196637E+01 -0.10255595595E+03  0.12024391157E+03  0.41800000000E+01 0. -1.
         -5    1    3    3    0  502 -0.46659672573E+02  0.39855868407E+02 -0.43474931384E+02  0.75320364775E+02  0.41800000000E+01 0. -1.
        -11    1    1    2    0    0  0.80895374136E+01  0.12207661968E+02 -0.35298909350E+02  0.38216235131E+02  0.00000000000E+00 0. -1.
         11    1    1    2    0    0 -0.23590813820E+02 -0.44355210711E+02  0.28513923806E+02  0.57766383518E+02  0.00000000000E+00 0.  1.
</event>
<event>
 7    1  0.2661133E-009  0.1023321E+03  0.7561462E-02  0.1275467E+00
          1   -1    0    0  501    0  0.00000000000E+00  0.00000000000E+00  0.45921860327E+02  0.45921860327E+02  0.00000000000E+00 0. -1.
         -1   -1    0    0    0  501 -0.00000000000E+00 -0.00000000000E+00 -0.28074427672E+03  0.28074427672E+03  0.00000000000E+00 0.  1.
         25    2    1    2    0    0  0.18266020273E+02 -0.83687102978E+01 -0.17038716522E+03  0.21232812802E+03  0.12509102713E+03 0.  0.
          5    1    3    3  502    0  0.36649883494E+02  0.49003060557E+02 -0.11524459362E+03  0.13055000062E+03  0.41800000000E+01 0.  1.
         -5    1    3    3    0  502 -0.18383863220E+02 -0.57371770855E+02 -0.55142571601E+02  0.81778127398E+02  0.41800000000E+01 0.  1.
        -11    1    1    2    0    0 -0.50177743988E+02  0.92115444283E+01 -0.11147527110E+02  0.52219976093E+02  0.00000000000E+00 0. -1.
         11    1    1    2    0    0  0.31911723714E+02 -0.84283413047E+00 -0.53287724061E+02  0.62118032932E+02  0.00000000000E+00 0.  1.
</event>
<event>
 7    1  0.2661133E-009  0.1414707E+03  0.7561462E-02  0.1211364E+00
          1   -1    0    0  501    0  0.00000000000E+00  0.00000000000E+00  0.91923333016E+03  0.91923333016E+03  0.00000000000E+00 0. -1.
         -1   -1    0    0    0  501 -0.00000000000E+00 -0.00000000000E+00 -0.27758523169E+02  0.27758523169E+02  0.00000000000E+00 0.  1.
         25    2    1    2    0    0 -0.41532804537E+02 -0.10692675137E+03  0.54835725150E+03  0.57402223133E+03  0.12509013862E+03 0.  0.
          5    1    3    3  502    0 -0.74118271953E+02 -0.30713272930E+02  0.19203972304E+03  0.20816712275E+03  0.41800000000E+01 0.  1.
         -5    1    3    3    0  502  0.32585467417E+02 -0.76213478438E+02  0.35631752846E+03  0.36585510858E+03  0.41800000000E+01 0.  1.
        -11    1    1    2    0    0  0.37780078103E+02  0.50547723481E+02  0.28503462764E+03  0.29193688634E+03  0.00000000000E+00 0. -1.
         11    1    1    2    0    0  0.37527264336E+01  0.56379027887E+02  0.58082927857E+02  0.81032735667E+02  0.00000000000E+00 0.  1.
</event>
<event>
 7    1  0.2661133E-009  0.1182744E+03  0.7561462E-02  0.1245971E+00
          2   -1    0    0  501    0  0.00000000000E+00  0.00000000000E+00  0.44585963164E+03  0.44585963164E+03  0.00000000000E+00 0. -1.
         -2   -1    0    0    0  501 -0.00000000000E+00 -0.00000000000E+00 -0.32964932158E+02  0.32964932158E+02  0.00000000000E+00 0.  1.
         25    2    1    2    0    0  0.53986824055E+02 -0.88751848718E+01  0.26480804545E+03  0.29795366420E+03  0.12513887884E+03 0.  0.
          5    1    3    3  502    0  0.93637245075E+02  0.59666612795E+01  0.18778581146E+03  0.20996313509E+03  0.41800000000E+01 0. -1.
         -5    1    3    3    0  502 -0.39650421020E+02 -0.14841846151E+02  0.77022233984E+02  0.87990529104E+02  0.41800000000E+01 0. -1.
        -11    1    1    2    0    0 -0.14191309512E+02  0.44478898833E+02  0.93507783431E+02  0.10451541164E+03  0.00000000000E+00 0. -1.
         11    1    1    2    0    0 -0.39795514543E+02 -0.35603713962E+02  0.54578870602E+02  0.76355487962E+02  0.00000000000E+00 0.  1.
</event>
<event>
 7    1  0.2661133E-009  0.1085299E+03  0.7561462E-02  0.1263317E+00
         -2   -1    0    0    0  501 -0.00000000000E+00  0.00000000000E+00  0.54771767376E+02  0.54771767376E+02  0.00000000000E+00 0.  1.
          2   -1    0    0  501    0  0.00000000000E+00 -0.00000000000E+00 -0.22696850009E+03  0.22696850009E+03  0.00000000000E+00 0. -1.
         25    2    1    2    0    0  0.27276159822E+02 -0.57961582656E+01 -0.94765527415E+02  0.15939439421E+03  0.12509389823E+03 0.  0.
          5    1    3    3  502    0 -0.34728629018E+02 -0.38930585727E+02 -0.18314674369E+02  0.55448786062E+02  0.41800000000E+01 0.  1.
         -5    1    3    3    0  502  0.62004788840E+02  0.33134427461E+02 -0.76450853047E+02  0.10394560815E+03  0.41800000000E+01 0.  1.
        -11    1    1    2    0    0 -0.25734986205E+02 -0.40494239703E+02 -0.45210656783E+02  0.65924778731E+02  0.00000000000E+00 0.  1.
         11    1    1    2    0    0 -0.15411736172E+01  0.46290397968E+02 -0.32220548512E+02  0.56421094518E+02  0.00000000000E+00 0. -1.
</event>
<event>
 7    1  0.2661133E-009  0.9194006E+02  0.7561462E-02  0.1298220E+00
          1   -1    0    0  501    0  0.00000000000E+00  0.00000000000E+00  0.29942680176E+03  0.29942680176E+03  0.00000000000E+00 0. -1.
         -1   -1    0    0    0  501 -0.00000000000E+00 -0.00000000000E+00 -0.46512689334E+02  0.46512689334E+02  0.00000000000E+00 0.  1.
         25    2    1    2    0    0  0.21245801892E+02 -0.40433674118E+02  0.16302541455E+03  0.21050088437E+03  0.12508825057E+03 0.  0.
          5    1    3    3  502    0  0.48435163917E+02 -0.74488276359E+02  0.10102755528E+03  0.13460500639E+03  0.41800000000E+01 0.  1.
         -5    1    3    3    0  502 -0.27189362025E+02  0.34054602240E+02  0.61997859275E+02  0.75895877989E+02  0.41800000000E+01 0.  1.
        -11    1    1    2    0    0  0.42508117434E+00  0.23880015031E+02 -0.14234308949E+02  0.27803801235E+02  0.00000000000E+00 0.  1.
         11    1    1    2    0    0 -0.21670883066E+02  0.16553659087E+02  0.10412300682E+03  0.10763480548E+03  0.00000000000E+00 0. -1.
</event>
<event>
 7    1  0.2661133E-009  0.1189021E+03  0.7561462E-02  0.1244919E+00
         -1   -1    0    0    0  501 -0.00000000000E+00  0.00000000000E+00  0.24626067282E+02  0.24626067282E+02  0.00000000000E+00 0.  1.
          1   -1    0    0  501    0  0.00000000000E+00 -0.00000000000E+00 -0.70082221870E+03  0.70082221870E+03  0.00000000000E+00 0. -1.
         25    2    1    2    0    0 -0.53699826488E+02 -0.32341618772E+01 -0.23850762921E+03  0.27463940876E+03  0.12508710759E+03 0.  0.
          5    1    3    3  502    0 -0.90167655978E+02  0.10356181725E+02 -0.12469904402E+03  0.15428797965E+03  0.41800000000E+01 0. -1.
         -5    1    3    3    0  502  0.36467829490E+02 -0.13590343602E+02 -0.11380858519E+03  0.12035142911E+03  0.41800000000E+01 0. -1.
        -11    1    1    2    0    0  0.80728473153E+02  0.24958641817E+01 -0.33834290224E+03  0.34784944331E+03  0.00000000000E+00 0. -1.
         11    1    1    2    0    0 -0.27028646665E+02  0.73829769556E+00 -0.99345619963E+02  0.10295943390E+03  0.00000000000E+00 0.  1.
</event>
<event>
 7    1  0.2661133E-009  0.9754466E+02  0.7561462E-02  0.1285546E+00
          2   -1    0    0  501    0  0.00000000000E+00  0.00000000000E+00  0.12581406395E+03  0.12581406395E+03  0.00000000000E+00 0. -1.
         -2   -1    0    0    0  501 -0.00000000000E+00 -0.00000000000E+00 -0.98576607992E+02  0.98576607992E+02  0.00000000000E+00 0.  1.
         25    2    1    2    0    0 -0.21864035579E+02  0.14397502130E+02  0.14808473122E+02  0.12864537502E+03  0.12508004445E+03 0.  0.
          5    1    3    3  502    0  0.32362305251E+02 -0.17636624376E+02 -0.32854869763E+02  0.49550824289E+02  0.41800000000E+01 0.  1.
         -5    1    3    3    0  502 -0.54226340830E+02  0.32034126507E+02  0.47663342885E+02  0.79094550734E+02  0.41800000000E+01 0.  1.
        -11    1    1    2    0    0 -0.11723555059E+01 -0.51332959561E+02  0.83978068044E+01  0.52028552871E+02  0.00000000000E+00 0.  1.
         11    1    1    2    0    0  0.23036391085E+02  0.36935457430E+02  0.40311760300E+01  0.43716744046E+02  0.00000000000E+00 0. -1.
</event>
<event>
 7    1  0.2661133E-009  0.1187979E+03  0.7561462E-02  0.1245093E+00
          1   -1    0    0  501    0  0.00000000000E+00  0.00000000000E+00  0.11212647276E+04  0.11212647276E+04  0.00000000000E+00 0. -1.
         -1   -1    0    0    0  501 -0.00000000000E+00 -0.00000000000E+00 -0.13762628476E+02  0.13762628476E+02  0.00000000000E+00 0.  1.
         25    2    1    2    0    0 -0.50951460862E+02 -0.19506832395E+02  0.76401495247E+03  0.77610737825E+03  0.12508895673E+03 0.  0.
          5    1    3    3  502    0 -0.37516374278E+02 -0.71443730156E+02  0.39400641089E+03  0.40220667466E+03  0.41800000000E+01 0. -1.
         -5    1    3    3    0  502 -0.13435086584E+02  0.51936897761E+02  0.37000854158E+03  0.37390070359E+03  0.41800000000E+01 0. -1.
        -11    1    1    2    0    0  0.67274119383E+02 -0.11207562621E+02  0.20127044561E+03  0.21251166762E+03  0.00000000000E+00 0. -1.
         11    1    1    2    0    0 -0.16322658521E+02  0.30714395017E+02  0.14221670101E+03  0.14640831017E+03  0.00000000000E+00 0.  1.
</event>
<event>
 7    1  0.2661133E-009  0.1006256E+03  0.7561462E-02  0.1278986E+00
         -3   -1    0    0    0  501 -0.00000000000E+00  0.00000000000E+00  0.22039146767E+03  0.22039146767E+03  0.00000000000E+00 0.  1.
          3   -1    0    0  501    0  0.00000000000E+00 -0.00000000000E+00 -0.12720165515E+03  0.12720165515E+03  0.00000000000E+00 0. -1.
         25    2    1    2    0    0 -0.17046448757E+02 -0.93992466960E+02 -0.35164708744E+02  0.16127114838E+03  0.12508661519E+03 0.  0.
          5    1    3    3  502    0 -0.27266152345E+01 -0.45727226676E+02 -0.80940890802E+02  0.93098409728E+02  0.41800000000E+01 0.  1.
         -5    1    3    3    0  502 -0.14319833523E+02 -0.48265240284E+02  0.45776182058E+02  0.68172738654E+02  0.41800000000E+01 0.  1.
        -11    1    1    2    0    0 -0.12225672587E+02  0.52822918993E+02  0.12434032285E+03  0.13564749806E+03  0.00000000000E+00 0.  1.
         11    1    1    2    0    0  0.29272121344E+02  0.41169547966E+02  0.40141984051E+01  0.50674476382E+02  0.00000000000E+00 0. -1.
</event>
<event>
 7    1  0.2661133E-009  0.1889707E+03  0.7561462E-02  0.1159393E+00
         -1   -1    0    0    0  501 -0.00000000000E+00  0.00000000000E+00  0.69595594903E+02  0.69595594903E+02  0.00000000000E+00 0. -1.
          1   -1    0    0  501    0  0.00000000000E+00 -0.00000000000E+00 -0.60902549687E+03  0.60902549687E+03  0.00000000000E+00 0.  1.
         25    2    1    2    0    0 -0.15464732231E+03  0.36999209249E+02 -0.16126394675E+03  0.25870927160E+03  0.12505874981E+03 0.  0.
          5    1    3    3  502    0 -0.99177579926E+02 -0.35108901389E+02 -0.11716045201E+03  0.15752101838E+03  0.41800000000E+01 0.  1.
         -5    1    3    3    0  502 -0.55469742389E+02  0.72108110638E+02 -0.44103494746E+02  0.10118825322E+03  0.41800000000E+01 0.  1.
        -11    1    1    2    0    0  0.10236516756E+03  0.19927374051E+02 -0.19575344258E+03  0.22179977017E+03  0.00000000000E+00 0. -1.
         11    1    1    2    0    0  0.52282154759E+02 -0.56926583300E+02 -0.18241251264E+03  0.19811205001E+03  0.00000000000E+00 0.  1.
</event>
<event>
 7    1  0.2661133E-009  0.1943598E+03  0.7561462E-02  0.1154587E+00
         -2   -1    0    0    0  501 -0.00000000000E+00  0.00000000000E+00  0.19274331694E+03  0.19274331694E+03  0.00000000000E+00 0.  1.
          2   -1    0    0  501    0  0.00000000000E+00 -0.00000000000E+00 -0.23446397329E+03  0.23446397329E+03  0.00000000000E+00 0. -1.
         25    2    1    2    0    0 -0.17063994463E+03 -0.58001443362E+02  0.60584759739E+01  0.21947008045E+03  0.12509297721E+03 0.  0.
          5    1    3    3  502    0 -0.10147160069E+03 -0.71544105272E+02 -0.45226791402E+02  0.13220431084E+03  0.41800000000E+01 0. -1.
         -5    1    3    3    0  502 -0.69168343945E+02  0.13542661910E+02  0.51285267376E+02  0.87265769610E+02  0.41800000000E+01 0. -1.
        -11    1    1    2    0    0  0.12287545132E+03  0.56294709230E+01 -0.13668259372E+01  0.12301193313E+03  0.00000000000E+00 0.  1.
         11    1    1    2    0    0  0.47764493318E+02  0.52371972439E+02 -0.46412306382E+02  0.84725276646E+02  0.00000000000E+00 0. -1.
</event>
<event>
 7    1  0.2661133E-009  0.2470767E+03  0.7561462E-02  0.1115166E+00
          2   -1    0    0  501    0  0.00000000000E+00  0.00000000000E+00  0.13423598140E+04  0.13423598140E+04  0.00000000000E+00 0. -1.
         -2   -1    0    0    0  501 -0.00000000000E+00 -0.00000000000E+00 -0.48131077659E+02  0.48131077659E+02  0.00000000000E+00 0.  1.
         25    2    1    2    0    0  0.13638636804E+03  0.18251423193E+03  0.59226661173E+03  0.64679211914E+03  0.12509044630E+03 0.  0.
          5    1    3    3  502    0  0.14976990041E+03  0.11285446227E+03  0.45700288583E+03  0.49400026598E+03  0.41800000000E+01 0. -1.
         -5    1    3    3    0  502 -0.13383532371E+02  0.69659769659E+02  0.13526372590E+03  0.15279185316E+03  0.41800000000E+01 0. -1.
        -11    1    1    2    0    0 -0.13650074781E+03 -0.14925304203E+03  0.65915477353E+03  0.68948817261E+03  0.00000000000E+00 0. -1.
         11    1    1    2    0    0  0.11437976790E+00 -0.33261189903E+02  0.42807351083E+02  0.54210599916E+02  0.00000000000E+00 0.  1.
</event>
<event>
 7    1  0.2712965E-009  0.1424805E+03  0.7561462E-02  0.1210030E+00
         -2   -1    0    0    0  501 -0.00000000000E+00  0.00000000000E+00  0.56305921994E+02  0.56305921994E+02  0.00000000000E+00 0. -1.
          2   -1    0    0  501    0  0.00000000000E+00 -0.00000000000E+00 -0.62282307541E+03  0.62282307541E+03  0.00000000000E+00 0.  1.
         25    2    1    2    0    0 -0.96515496285E+02  0.92337477256E+02 -0.43017345874E+03  0.46748088933E+03  0.12509087319E+03 0.  0.
          5    1    3    3  502    0 -0.18684209638E+02  0.60458119579E+02 -0.58137284475E+02  0.86033134076E+02  0.41800000000E+01 0.  1.
         -5    1    3    3    0  502 -0.77831286647E+02  0.31879357676E+02 -0.37203617426E+03  0.38144775525E+03  0.41800000000E+01 0.  1.
        -11    1    1    2    0    0  0.20008701233E+02 -0.38829480658E+01 -0.78636252764E+02  0.81234756475E+02  0.00000000000E+00 0.  1.
         11    1    1    2    0    0  0.76506795052E+02 -0.88454529190E+02 -0.57707441912E+02  0.13041335160E+03  0.00000000000E+00 0. -1.
</event>
<event>
 7    1  0.2661133E-009  0.1636765E+03  0.7561462E-02  0.1184607E+00
          2   -1    0    0  501    0  0.00000000000E+00  0.00000000000E+00  0.36532197655E+03  0.36532197655E+03  0.00000000000E+00 0. -1.
         -2   -1    0    0    0  501 -0.00000000000E+00 -0.00000000000E+00 -0.21132032898E+03  0.21132032898E+03  0.00000000000E+00 0.  1.
         25    2    1    2    0    0 -0.13041114659E+03 -0.93057359450E+02  0.28514832377E+03  0.35017688316E+03  0.12509014208E+03 0.  0.
          5    1    3    3  502    0 -0.12811348552E+03 -0.75741112347E+02  0.29444884777E+03  0.32995056845E+03  0.41800000000E+01 0.  1.
         -5    1    3    3    0  502 -0.22976610749E+01 -0.17316247103E+02 -0.93005239922E+01  0.20226314708E+02  0.41800000000E+01 0.  1.
        -11    1    1    2    0    0  0.88297839299E+02  0.57314072475E+02 -0.13488698868E+03  0.17110204862E+03  0.00000000000E+00 0.  1.
         11    1    1    2    0    0  0.42113307295E+02  0.35743286974E+02  0.37403124692E+01  0.55363373745E+02  0.00000000000E+00 0. -1.
</event>
<event>
 7    1  0.2661133E-009  0.1088295E+03  0.7561462E-02  0.1262753E+00
          2   -1    0    0  501    0  0.00000000000E+00  0.00000000000E+00  0.31532617190E+02  0.31532617190E+02  0.00000000000E+00 0.  1.
         -2   -1    0    0    0  501 -0.00000000000E+00 -0.00000000000E+00 -0.40672581338E+03  0.40672581338E+03  0.00000000000E+00 0. -1.
         25    2    1    2    0    0  0.12089219101E+02 -0.13801825795E+02 -0.16290518157E+03  0.20621364149E+03  0.12509727471E+03 0.  0.
          5    1    3    3  502    0 -0.53019909556E+02 -0.24005454317E+02 -0.95031918278E+02  0.11151641376E+03  0.41800000000E+01 0.  1.
         -5    1    3    3    0  502  0.65109128657E+02  0.10203628521E+02 -0.67873263295E+02  0.94697227730E+02  0.41800000000E+01 0.  1.
        -11    1    1    2    0    0  0.12107058898E+02 -0.35957706151E+02 -0.97344834748E+02  0.10447753040E+03  0.00000000000E+00 0.  1.
         11    1    1    2    0    0 -0.24196277999E+02  0.49759531946E+02 -0.11494317987E+03  0.12756725868E+03  0.00000000000E+00 0. -1.
</event>
<event>
 7    1  0.2661133E-009  0.1114513E+03  0.7561462E-02  0.1257906E+00
          1   -1    0    0  501    0  0.00000000000E+00  0.00000000000E+00  0.16088235354E+03  0.16088235354E+03  0.00000000000E+00 0. -1.
         -1   -1    0    0    0  501 -0.00000000000E+00 -0.00000000000E+00 -0.10038005777E+03  0.10038005777E+03  0.00000000000E+00 0.  1.
         25    2    1    2    0    0 -0.59499443575E+02 -0.27531075780E+02  0.12717964860E+02  0.14180167971E+03  0.12509126996E+03 0.  0.
          5    1    3    3  502    0 -0.10969238301E+01  0.46510382906E+02  0.14153160828E+01  0.46732156804E+02  0.41800000000E+01 0. -1.
         -5    1    3    3    0  502 -0.58402519745E+02 -0.74041458686E+02  0.11302648777E+02  0.95069522910E+02  0.41800000000E+01 0. -1.
        -11    1    1    2    0    0  0.28516881470E+02  0.39383940701E+02  0.65718279224E+02  0.81750838150E+02  0.00000000000E+00 0. -1.
         11    1    1    2    0    0  0.30982562105E+02 -0.11852864921E+02 -0.17933948320E+02  0.37709893447E+02  0.00000000000E+00 0.  1.
</event>
<event>
 6    1  0.2661133E-009  0.5511207E+02  0.7561462E-02  0.1419570E+00
          3   -1    0    0  501    0  0.00000000000E+00  0.00000000000E+00  0.16048339865E+02  0.16048339865E+02  0.00000000000E+00 0. -1.
         -3   -1    0    0    0  501 -0.00000000000E+00 -0.00000000000E+00 -0.10920150391E+04  0.10920150391E+04  0.00000000000E+00 0.  1.
          5    1    1    2  502    0 -0.16768594184E+02 -0.31041279249E+02 -0.87382012419E+03  0.87454206794E+03  0.41800000000E+01 0.  1.
         -5    1    1    2    0  502 -0.41605346684E+01 -0.16057539903E+01  0.24855355038E+01  0.65983923303E+01  0.41800000000E+01 0.  1.
        -11    1    1    2    0    0  0.25140774228E+01  0.45853878325E+02 -0.19807961000E+03  0.20333329939E+03  0.00000000000E+00 0.  1.
         11    1    1    2    0    0  0.18415051430E+02 -0.13206845085E+02 -0.65525005777E+01  0.23589619329E+02  0.00000000000E+00 0. -1.
</event>
<event>
 7    1  0.2661133E-009  0.6790928E+02  0.7561462E-02  0.1367350E+00
          1   -1    0    0  501    0  0.00000000000E+00  0.00000000000E+00  0.20263565601E+03  0.20263565601E+03  0.00000000000E+00 0. -1.
         -1   -1    0    0    0  501 -0.00000000000E+00 -0.00000000000E+00 -0.59940075793E+02  0.59940075793E+02  0.00000000000E+00 0.  1.
         25    2    1    2    0    0 -0.19282225861E+02  0.16307765507E+02  0.60190072567E+02  0.14109592989E+03  0.12508984429E+03 0.  0.
          5    1    3    3  502    0 -0.15777939088E+02 -0.23652465924E+02  0.87691936628E+02  0.92280716597E+02  0.41800000000E+01 0. -1.
         -5    1    3    3    0  502 -0.35042867733E+01  0.39960231431E+02 -0.27501864061E+02  0.48815213291E+02  0.41800000000E+01 0. -1.
        -11    1    1    2    0    0  0.38657353340E+02  0.37791743049E+01  0.50731623735E+01  0.39171547100E+02  0.00000000000E+00 0.  1.
         11    1    1    2    0    0 -0.19375127479E+02 -0.20086939812E+02  0.77432345278E+02  0.82308254817E+02  0.00000000000E+00 0. -1.
</event>
<event>
 7    1  0.2661133E-009  0.1679828E+03  0.7561462E-02  0.1179968E+00
          1   -1    0    0  501    0  0.00000000000E+00  0.00000000000E+00  0.65890045670E+03  0.65890045670E+03  0.00000000000E+00 0. -1.
         -1   -1    0    0    0  501 -0.00000000000E+00 -0.00000000000E+00 -0.98224422243E+02  0.98224422243E+02  0.00000000000E+00 0.  1.
         25    2    1    2    0    0 -0.11575291440E+03  0.89481920584E+02  0.55206059903E+03  0.58465724332E+03  0.12508971125E+03 0.  0.
          5    1    3    3  502    0 -0.11777471921E+03  0.99822198189E+02  0.35340490310E+03  0.38567843299E+03  0.41800000000E+01 0.  1.
         -5    1    3    3    0  502  0.20218048139E+01 -0.10340277605E+02  0.19865569593E+03  0.19897881033E+03  0.41800000000E+01 0.  1.
        -11    1    1    2    0    0 -0.13915687282E+02 -0.27472283185E+01  0.83601724420E+01  0.16464692503E+02  0.00000000000E+00 0. -1.
         11    1    1    2    0    0  0.12966860168E+03 -0.86734692265E+02  0.25526298522E+00  0.15600294312E+03  0.00000000000E+00 0.  1.
</event>
<event>
 7    1  0.2661133E-009  0.3311935E+03  0.7561462E-02  0.1070610E+00
          1   -1    0    0  501    0  0.00000000000E+00  0.00000000000E+00  0.60025067027E+03  0.60025067027E+03  0.00000000000E+00 0. -1.
         -1   -1    0    0    0  501 -0.00000000000E+00 -0.00000000000E+00 -0.21246535690E+03  0.21246535690E+03  0.00000000000E+00 0.  1.
         25    2    1    2    0    0 -0.13449457849E+03 -0.30193476034E+03  0.25186813828E+03  0.43397963046E+03  0.12508944570E+03 0.  0.
          5    1    3    3  502    0 -0.35874371798E+02 -0.86430311863E+02  0.14807377953E+03  0.17521554139E+03  0.41800000000E+01 0.  1.
         -5    1    3    3    0  502 -0.98620206691E+02 -0.21550444848E+03  0.10379435875E+03  0.25876408907E+03  0.41800000000E+01 0.  1.
        -11    1    1    2    0    0  0.54953432935E+02  0.15718862102E+03  0.26906240914E+01  0.16653943025E+03  0.00000000000E+00 0.  1.
         11    1    1    2    0    0  0.79541145553E+02  0.14474613932E+03  0.13322655100E+03  0.21219696646E+03  0.00000000000E+00 0. -1.
</event>
<event>
 7    1  0.2661133E-009  0.1407142E+03  0.7561462E-02  0.1212371E+00
          2   -1    0    0  501    0  0.00000000000E+00  0.00000000000E+00  0.75270865450E+02  0.75270865450E+02  0.00000000000E+00 0. -1.
         -2   -1    0    0    0  501 -0.00000000000E+00 -0.00000000000E+00 -0.34832570171E+03  0.34832570171E+03  0.00000000000E+00 0.  1.
         25    2    1    2    0    0  0.69506946310E+02  0.83030236203E+02 -0.21479580052E+03  0.27112645293E+03  0.12508829620E+03 0.  0.
          5    1    3    3  502    0 -0.35058003382E+02  0.27095395931E+02 -0.79981292428E+02  0.91529796352E+02  0.41800000000E+01 0. -1.
         -5    1    3    3    0  502  0.10456494969E+03  0.55934840272E+02 -0.13481450810E+03  0.17959665658E+03  0.41800000000E+01 0. -1.
        -11    1    1    2    0    0 -0.56172299896E+02 -0.30197887583E+02  0.10610608776E+02  0.64651563853E+02  0.00000000000E+00 0. -1.
         11    1    1    2    0    0 -0.13334646414E+02 -0.52832348620E+02 -0.68869644514E+02  0.87818550382E+02  0.00000000000E+00 0.  1.
</event>
<event>
 7    1  0.2661133E-009  0.1370294E+03  0.7561462E-02  0.1217383E+00
         -3   -1    0    0    0  501 -0.00000000000E+00  0.00000000000E+00  0.37987846017E+02  0.37987846017E+02  0.00000000000E+00 0.  1.
          3   -1    0    0  501    0  0.00000000000E+00 -0.00000000000E+00 -0.64473534583E+03  0.64473534583E+03  0.00000000000E+00 0. -1.
         25    2    1    2    0    0 -0.10780272163E+03  0.18532554556E+02 -0.39022040175E+03  0.42412781873E+03  0.12509021669E+03 0.  0.
          5    1    3    3  502    0 -0.27042727724E+02  0.50061580818E+02 -0.60430327011E+02  0.83106966130E+02  0.41800000000E+01 0.  1.
         -5    1    3    3    0  502 -0.80759993909E+02 -0.31529026262E+02 -0.32979007474E+03  0.34102085260E+03  0.41800000000E+01 0.  1.
        -11    1    1    2    0    0  0.21526663995E+02 -0.36224810859E+02 -0.12350233869E+03  0.13049314866E+03  0.00000000000E+00 0. -1.
         11    1    1    2    0    0  0.86276057638E+02  0.17692256303E+02 -0.93024759378E+02  0.12810222446E+03  0.00000000000E+00 0.  1.
</event>
<event>
 7    1  0.2661133E-009  0.8169575E+02  0.7561462E-02  0.1324307E+00
         -2   -1    0    0    0  501 -0.00000000000E+00  0.00000000000E+00  0.37048261706E+02  0.37048261706E+02  0.00000000000E+00 0. -1.
          2   -1    0    0  501    0  0.00000000000E+00 -0.00000000000E+00 -0.41989019782E+03  0.41989019782E+03  0.00000000000E+00 0.  1.
         25    2    1    2    0    0  0.16186395185E+01  0.11062073501E+02 -0.32041564026E+03  0.34414859667E+03  0.12508830724E+03 0.  0.
          5    1    3    3  502    0 -0.46343834576E+02  0.10847833406E+02 -0.27091564178E+03  0.27509668092E+03  0.41800000000E+01 0. -1.
         -5    1    3    3    0  502  0.47962474095E+02  0.21424009543E+00 -0.49499998481E+02  0.69051915757E+02  0.41800000000E+01 0. -1.
        -11    1    1    2    0    0  0.30642511130E+00  0.28178065501E+02 -0.67528727410E+02  0.73172578863E+02  0.00000000000E+00 0.  1.
         11    1    1    2    0    0 -0.19250646298E+01 -0.39240139003E+02  0.51024315550E+01  0.39617283988E+02  0.00000000000E+00 0. -1.
</event>
<event>
 7    1  0.2661133E-009  0.9722400E+02  0.7561462E-02  0.1286244E+00
          2   -1    0    0  501    0  0.00000000000E+00  0.00000000000E+00  0.40429171389E+03  0.40429171389E+03  0.00000000000E+00 0. -1.
         -2   -1    0    0    0  501 -0.00000000000E+00 -0.00000000000E+00 -0.34297824131E+02  0.34297824131E+02  0.00000000000E+00 0.  1.
         25    2    1    2    0    0  0.43602956346E+02 -0.12418655409E+02  0.21525001819E+03  0.25303415929E+03  0.12505308724E+03 0.  0.
          5    1    3    3  502    0  0.11893118714E+02 -0.46156600774E+02  0.19759504450E+03  0.20330556333E+03  0.41800000000E+01 0.  1.
         -5    1    3    3    0  502  0.31709837633E+02  0.33737945365E+02  0.17654973692E+02  0.49728595960E+02  0.41800000000E+01 0.  1.
        -11    1    1    2    0    0 -0.28488627774E+02  0.51142981394E+02  0.10913215641E+03  0.12384277945E+03  0.00000000000E+00 0. -1.
         11    1    1    2    0    0 -0.15114328573E+02 -0.38724325985E+02  0.45611715150E+02  0.61712599282E+02  0.00000000000E+00 0.  1.
</event>
<event>
 7    1  0.2661133E-009  0.1421931E+03  0.7561462E-02  0.1210408E+00
          1   -1    0    0  501    0  0.00000000000E+00  0.00000000000E+00  0.13637987926E+03  0.13637987926E+03  0.00000000000E+00 0. -1.
         -1   -1    0    0    0  501 -0.00000000000E+00 -0.00000000000E+00 -0.28378826664E+03  0.28378826664E+03  0.00000000000E+00 0.  1.
         25    2    1    2    0    0 -0.10514665130E+03  0.64102240343E+02  0.38436288462E+02  0.17969643698E+03  0.12509414734E+03 0.  0.
          5    1    3    3  502    0 -0.12220940460E+03  0.47161735672E+02  0.62696601197E+02  0.14528490660E+03  0.41800000000E+01 0.  1.
         -5    1    3    3    0  502  0.17062753309E+02  0.16940504671E+02 -0.24260312735E+02  0.34411530378E+02  0.41800000000E+01 0.  1.
        -11    1    1    2    0    0  0.59425940791E+02 -0.13920969672E+02 -0.25126621626E+02  0.66004416139E+02  0.00000000000E+00 0. -1.
         11    1    1    2    0    0  0.45720710505E+02 -0.50181270671E+02 -0.16071805422E+03  0.17446729277E+03  0.00000000000E+00 0.  1.
</event>
<event>
 7    1  0.2661133E-009  0.1379678E+03  0.7561462E-02  0.1216090E+00
          4   -1    0    0  501    0  0.00000000000E+00  0.00000000000E+00  0.66547079643E+02  0.66547079643E+02  0.00000000000E+00 0. -1.
         -4   -1    0    0    0  501 -0.00000000000E+00 -0.00000000000E+00 -0.48290512180E+03  0.48290512180E+03  0.00000000000E+00 0.  1.
         25    2    1    2    0    0  0.12452514876E+03  0.39656977797E+02 -0.13300021063E+03  0.22453439936E+03  0.12508977539E+03 0.  0.
          5    1    3    3  502    0  0.71614657885E+02  0.33953655099E+02  0.19709092256E+01  0.79390596431E+02  0.41800000000E+01 0.  1.
         -5    1    3    3    0  502  0.52910490874E+02  0.57033226977E+01 -0.13497111985E+03  0.14514380293E+03  0.41800000000E+01 0.  1.
        -11    1    1    2    0    0 -0.10857649626E+03 -0.54424240203E+02 -0.16669580105E+03  0.20624825708E+03  0.00000000000E+00 0. -1.
         11    1    1    2    0    0 -0.15948652503E+02  0.14767262406E+02 -0.11666203048E+03  0.11866954500E+03  0.00000000000E+00 0.  1.
</event>
<event>
 7    1  0.2661133E-009  0.1671643E+03  0.7561462E-02  0.1180838E+00
         -1   -1    0    0    0  501 -0.00000000000E+00  0.00000000000E+00  0.16297241620E+03  0.16297241620E+03  0.00000000000E+00 0.  1.
          1   -1    0    0  501    0  0.00000000000E+00 -0.00000000000E+00 -0.21262086775E+03  0.21262086775E+03  0.00000000000E+00 0. -1.
         25    2    1    2    0    0  0.68490950894E+02 -0.12902653733E+03  0.12553846876E+02  0.19272709864E+03  0.12508907941E+03 0.  0.
          5    1    3    3  502    0  0.83257941200E+02 -0.10859331005E+03  0.51397363812E+02  0.14623116346E+03  0.41800000000E+01 0. -1.
         -5    1    3    3    0  502 -0.14766990306E+02 -0.20433227281E+02 -0.38843516936E+02  0.46495935174E+02  0.41800000000E+01 0. -1.
        -11    1    1    2    0    0 -0.85293992081E+02  0.69512097292E+02 -0.42638268820E+02  0.11800431654E+03  0.00000000000E+00 0. -1.
         11    1    1    2    0    0  0.16803041187E+02  0.59514440041E+02 -0.19564029602E+02  0.64861868774E+02  0.00000000000E+00 0.  1.
</event>
<event>
 7    1  0.2661133E-009  0.9948688E+02  0.7561462E-02  0.1281379E+00
          2   -1    0    0  501    0  0.00000000000E+00  0.00000000000E+00  0.13701209346E+03  0.13701209346E+03  0.00000000000E+00 0. -1.
         -2   -1    0    0    0  501 -0.00000000000E+00 -0.00000000000E+00 -0.10180089230E+03  0.10180089230E+03  0.00000000000E+00 0.  1.
         25    2    1    2    0    0  0.41398321330E+02 -0.16645589679E+02  0.27457314917E+02  0.13561913524E+03  0.12509096305E+03 0.  0.
          5    1    3    3  502    0 -0.26252336017E+02  0.22763003426E+02  0.43254859285E+02  0.55639866311E+02  0.41800000000E+01 0.  1.
         -5    1    3    3    0  502  0.67650657348E+02 -0.39408593106E+02 -0.15797544369E+02  0.79979268928E+02  0.41800000000E+01 0.  1.
        -11    1    1    2    0    0  0.19733975061E+02  0.14345739924E+02 -0.24038609092E+02  0.34250324856E+02  0.00000000000E+00 0.  1.
         11    1    1    2    0    0 -0.61132296391E+02  0.22998497550E+01  0.31792495337E+02  0.68943525662E+02  0.00000000000E+00 0. -1.
</event>
<event>
 7    1  0.2661133E-009  0.2071893E+03  0.7561462E-02  0.1143811E+00
          3   -1    0    0  501    0  0.00000000000E+00  0.00000000000E+00  0.49388000290E+03  0.49388000290E+03  0.00000000000E+00 0. -1.
         -3   -1    0    0    0  501 -0.00000000000E+00 -0.00000000000E+00 -0.87559185080E+02  0.87559185080E+02  0.00000000000E+00 0.  1.
         25    2    1    2    0    0  0.16415960693E+03 -0.67414805604E+02  0.21212168011E+03  0.30353734070E+03  0.12508468119E+03 0.  0.
          5    1    3    3  502    0  0.83201513200E+02  0.30905886458E+02  0.74238598858E+02  0.11578647407E+03  0.41800000000E+01 0. -1.
         -5    1    3    3    0  502  0.80958093727E+02 -0.98320692063E+02  0.13788308125E+03  0.18775086664E+03  0.41800000000E+01 0. -1.
        -11    1    1    2    0    0 -0.10950840127E+03  0.87184655301E+02  0.12637642239E+03  0.18858487268E+03  0.00000000000E+00 0.  1.
         11    1    1    2    0    0 -0.54651205653E+02 -0.19769849696E+02  0.67822715325E+02  0.89316974593E+02  0.00000000000E+00 0. -1.
</event>
<event>
 7    1  0.2661133E-009  0.1089163E+03  0.7561462E-02  0.1262590E+00
         -2   -1    0    0    0  501 -0.00000000000E+00  0.00000000000E+00  0.31047119923E+02  0.31047119923E+02  0.00000000000E+00 0. -1.
          2   -1    0    0  501    0  0.00000000000E+00 -0.00000000000E+00 -0.38933869375E+03  0.38933869375E+03  0.00000000000E+00 0.  1.
         25    2    1    2    0    0 -0.19148754869E+02  0.79886413355E+01 -0.19401203185E+03  0.23176833465E+03  0.12508157034E+03 0.  0.
          5    1    3    3  502    0  0.47396396666E+02  0.29089610074E+02 -0.71213008104E+02  0.90451029593E+02  0.41800000000E+01 0. -1.
         -5    1    3    3    0  502 -0.66545151535E+02 -0.21100968738E+02 -0.12279902375E+03  0.14131730505E+03  0.41800000000E+01 0. -1.
        -11    1    1    2    0    0  0.17671115378E+02 -0.48485291335E+02 -0.81746003674E+02  0.96672130996E+02  0.00000000000E+00 0. -1.
         11    1    1    2    0    0  0.14776394906E+01  0.40496649999E+02 -0.82533538297E+02  0.91945348025E+02  0.00000000000E+00 0.  1.
</event>
<event>
 7    1  0.2661133E-009  0.1146208E+03  0.7561462E-02  0.1252244E+00
          2   -1    0    0  501    0  0.00000000000E+00  0.00000000000E+00  0.14177567402E+04  0.14177567402E+04  0.00000000000E+00 0.  1.
         -2   -1    0    0    0  501 -0.00000000000E+00 -0.00000000000E+00 -0.11226638973E+02  0.11226638973E+02  0.00000000000E+00 0. -1.
         25    2    1    2    0    0 -0.30511944978E+02 -0.35787685351E+02  0.10357804949E+04  0.10443663096E+04  0.12509203700E+03 0.  0.
          5    1    3    3  502    0  0.29429772799E+02  0.26889619289E+02  0.19257637011E+03  0.19670356854E+03  0.41800000000E+01 0.  1.
         -5    1    3    3    0  502 -0.59941717777E+02 -0.62677304640E+02  0.84320412482E+03  0.84766274105E+03  0.41800000000E+01 0.  1.
        -11    1    1    2    0    0  0.57130198765E+02  0.46476867857E+02  0.26982631685E+03  0.27969662157E+03  0.00000000000E+00 0.  1.
         11    1    1    2    0    0 -0.26618253786E+02 -0.10689182506E+02  0.10092328948E+03  0.10492044804E+03  0.00000000000E+00 0. -1.
</event>
<event>
 7    1  0.2661133E-009  0.9793612E+02  0.7561462E-02  0.1284697E+00
          1   -1    0    0  501    0  0.00000000000E+00  0.00000000000E+00  0.25910071577E+03  0.25910071577E+03  0.00000000000E+00 0. -1.
         -1   -1    0    0    0  501 -0.00000000000E+00 -0.00000000000E+00 -0.61038969747E+02  0.61038969747E+02  0.00000000000E+00 0.  1.
         25    2    1    2    0    0  0.17598599408E+02 -0.22498131526E+02  0.35360941775E+02  0.13308853614E+03  0.12508511352E+03 0.  0.
          5    1    3    3  502    0 -0.32000820169E+02 -0.48172826694E+02  0.48462657563E+02  0.75569671835E+02  0.41800000000E+01 0.  1.
         -5    1    3    3    0  502  0.49599419577E+02  0.25674695168E+02 -0.13101715789E+02  0.57518864305E+02  0.41800000000E+01 0.  1.
        -11    1    1    2    0    0 -0.52591291373E+01 -0.28720136108E+02  0.21261760320E+02  0.36118791636E+02  0.00000000000E+00 0.  1.
         11    1    1    2    0    0 -0.12339470271E+02  0.51218267634E+02  0.14143904393E+03  0.15093235774E+03  0.00000000000E+00 0. -1.
</event>
<event>
 7    1  0.2661133E-009  0.1082102E+03  0.7561462E-02  0.1263921E+00
          2   -1    0    0  501    0  0.00000000000E+00  0.00000000000E+00  0.95764755681E+02  0.95764755681E+02  0.00000000000E+00 0.  1.
         -2   -1    0    0    0  501 -0.00000000000E+00 -0.00000000000E+00 -0.19616136067E+03  0.19616136067E+03  0.00000000000E+00 0. -1.
         25    2    1    2    0    0 -0.64091438692E+02 -0.23811500340E+02 -0.10538471804E+03  0.17727636312E+03  0.12508505132E+03 0.  0.
          5    1    3    3  502    0 -0.23400303865E+02  0.28759844945E+02  0.14579962631E+02  0.40059338643E+02  0.41800000000E+01 0. -1.
         -5    1    3    3    0  502 -0.40691134827E+02 -0.52571345284E+02 -0.11996468067E+03  0.13721702448E+03  0.41800000000E+01 0. -1.
        -11    1    1    2    0    0  0.86986789481E+02  0.17247923847E+02 -0.50034060263E+01  0.88821317785E+02  0.00000000000E+00 0.  1.
         11    1    1    2    0    0 -0.22895350789E+02  0.65635764926E+01  0.99915190752E+01  0.25828435445E+02  0.00000000000E+00 0. -1.
</event>
<event>
 7    1  0.2661133E-009  0.1275163E+03  0.7561462E-02  0.1231188E+00
         -1   -1    0    0    0  501 -0.00000000000E+00  0.00000000000E+00  0.13950104888E+02  0.13950104888E+02  0.00000000000E+00 0.  1.
          1   -1    0    0  501    0  0.00000000000E+00 -0.00000000000E+00 -0.12927594769E+04  0.12927594769E+04  0.00000000000E+00 0. -1.
         25    2    1    2    0    0  0.43194184997E+02  0.53461203190E+02 -0.85987340629E+03  0.87163839729E+03  0.12508949965E+03 0.  0.
          5    1    3    3  502    0  0.58355929024E+02 -0.24311618300E+02 -0.37366776584E+03  0.37900071354E+03  0.41800000000E+01 0. -1.
         -5    1    3    3    0  502 -0.15161744027E+02  0.77772821490E+02 -0.48620564046E+03  0.49263768375E+03  0.41800000000E+01 0. -1.
        -11    1    1    2    0    0 -0.63560525444E+02 -0.10011967369E+02 -0.17485813943E+03  0.18632109062E+03  0.00000000000E+00 0.  1.
         11    1    1    2    0    0  0.20366340447E+02 -0.43449235821E+02 -0.24407782629E+03  0.24875009387E+03  0.00000000000E+00 0. -1.
</event>
<event>
 7    1  0.2661133E-009  0.1239498E+03  0.7561462E-02  0.1236720E+00
          2   -1    0    0  501    0  0.00000000000E+00  0.00000000000E+00  0.84697556892E+03  0.84697556892E+03  0.00000000000E+00 0.  1.
         -2   -1    0    0    0  501 -0.00000000000E+00 -0.00000000000E+00 -0.20338726015E+02  0.20338726015E+02  0.00000000000E+00 0. -1.
         25    2    1    2    0    0 -0.62534985959E+01  0.68188936264E+02  0.35883729819E+03  0.38613601613E+03  0.12509188264E+03 0.  0.
          5    1    3    3  502    0 -0.38067865300E+02  0.89065654949E+02  0.19355383980E+03  0.21647728417E+03  0.41800000000E+01 0.  1.
         -5    1    3    3    0  502  0.31814366704E+02 -0.20876718685E+02  0.16528345839E+03  0.16965873195E+03  0.41800000000E+01 0.  1.
        -11    1    1    2    0    0  0.14536480355E+02 -0.89046988619E+02  0.37700734487E+03  0.38765347094E+03  0.00000000000E+00 0.  1.
         11    1    1    2    0    0 -0.82829817595E+01  0.20858052355E+02  0.90792199839E+02  0.93524807867E+02  0.00000000000E+00 0. -1.
</event>
<event>
 7    1  0.2661133E-009  0.1167705E+03  0.7561462E-02  0.1248522E+00
         -2   -1    0    0    0  501 -0.00000000000E+00  0.00000000000E+00  0.19091396922E+02  0.19091396922E+02  0.00000000000E+00 0.  1.
          2   -1    0    0  501    0  0.00000000000E+00 -0.00000000000E+00 -0.85521571997E+03  0.85521571997E+03  0.00000000000E+00 0. -1.
         25    2    1    2    0    0 -0.25365825067E+02 -0.85780777036E+01 -0.42664813867E+03  0.44541315032E+03  0.12508889540E+03 0.  0.
          5    1    3    3  502    0  0.14814047475E+02  0.39996539513E+02 -0.62231494204E+02  0.75560640855E+02  0.41800000000E+01 0.  1.
         -5    1    3    3    0  502 -0.40179872542E+02 -0.48574617217E+02 -0.36441664447E+03  0.36985250947E+03  0.41800000000E+01 0.  1.
        -11    1    1    2    0    0 -0.31026492347E+02 -0.41686364895E+02 -0.15933465719E+03  0.16759453818E+03  0.00000000000E+00 0. -1.
         11    1    1    2    0    0  0.56392317415E+02  0.50264442599E+02 -0.25014152719E+03  0.26129942839E+03  0.00000000000E+00 0.  1.
</event>
<event>
 7    1  0.2661133E-009  0.8014407E+02  0.7561462E-02  0.1328643E+00
         -1   -1    0    0    0  501 -0.00000000000E+00  0.00000000000E+00  0.57774716867E+02  0.57774716867E+02  0.00000000000E+00 0.  1.
          1   -1    0    0  501    0  0.00000000000E+00 -0.00000000000E+00 -0.38690382955E+03  0.38690382955E+03  0.00000000000E+00 0. -1.
         25    2    1    2    0    0  0.63580267426E+02  0.46597620182E+02 -0.10881405861E+03  0.18358099888E+03  0.12509074780E+03 0.  0.
          5    1    3    3  502    0  0.47192263923E+02  0.38501610017E+02 -0.13685182030E+03  0.14985118240E+03  0.41800000000E+01 0.  1.
         -5    1    3    3    0  502  0.16388003503E+02  0.80960101646E+01  0.28037761686E+02  0.33729816480E+02  0.41800000000E+01 0.  1.
        -11    1    1    2    0    0 -0.80567599893E+01 -0.13862537543E+02  0.11987087900E+02  0.20019280831E+02  0.00000000000E+00 0.  1.
         11    1    1    2    0    0 -0.55523507437E+02 -0.32735082639E+02 -0.23230214197E+03  0.24107826671E+03  0.00000000000E+00 0. -1.
</event>
<event>
 7    1  0.2911396E-009  0.1524050E+03  0.7561462E-02  0.1197549E+00
          2   -1    0    0  501    0  0.00000000000E+00  0.00000000000E+00  0.74269913087E+03  0.74269913087E+03  0.00000000000E+00 0. -1.
         -2   -1    0    0    0  501 -0.00000000000E+00 -0.00000000000E+00 -0.42403335780E+02  0.42403335780E+02  0.00000000000E+00 0.  1.
         25    2    1    2    0    0  0.10747827521E+03  0.80940220232E+02  0.28456951669E+03  0.33872002037E+03  0.12509413845E+03 0.  0.
          5    1    3    3  502    0  0.64567960431E+02  0.75421376663E+02  0.74492035567E+02  0.12419316139E+03  0.41800000000E+01 0. -1.
         -5    1    3    3    0  502  0.42910314783E+02  0.55188435694E+01  0.21007748113E+03  0.21452685898E+03  0.41800000000E+01 0. -1.
        -11    1    1    2    0    0 -0.99371591341E+02 -0.21102011340E+02  0.27884592812E+03  0.29677442557E+03  0.00000000000E+00 0.  1.
         11    1    1    2    0    0 -0.81066838732E+01 -0.59838208892E+02  0.13688035028E+03  0.14960802070E+03  0.00000000000E+00 0. -1.
</event>
<event>
 7    1  0.2661133E-009  0.9673363E+02  0.7561462E-02  0.1287319E+00
          1   -1    0    0  501    0  0.00000000000E+00  0.00000000000E+00  0.20636236308E+03  0.20636236308E+03  0.00000000000E+00 0. -1.
         -1   -1    0    0    0  501 -0.00000000000E+00 -0.00000000000E+00 -0.12855277961E+03  0.12855277961E+03  0.00000000000E+00 0.  1.
         25    2    1    2    0    0  0.29980731092E+02  0.12459864914E+02  0.16105344712E+03  0.20649144650E+03  0.12508561938E+03 0.  0.
          5    1    3    3  502    0 -0.41117565973E+02 -0.25418484401E+02  0.63074941890E+02  0.79578101731E+02  0.41800000000E+01 0. -1.
         -5    1    3    3    0  502  0.71098297065E+02  0.37878349315E+02  0.97978505229E+02  0.12691334476E+03  0.41800000000E+01 0. -1.
        -11    1    1    2    0    0 -0.18810861583E+02  0.21477981343E+02 -0.87874315527E+02  0.92396144538E+02  0.00000000000E+00 0.  1.
         11    1    1    2    0    0 -0.11169869509E+02 -0.33937846258E+02  0.46304518795E+01  0.36027551653E+02  0.00000000000E+00 0. -1.
</event>
<event>
 7    1  0.2661133E-009  0.1195543E+03  0.7561462E-02  0.1243834E+00
          4   -1    0    0  501    0  0.00000000000E+00  0.00000000000E+00  0.61126314052E+03  0.61126314052E+03  0.00000000000E+00 0. -1.
         -4   -1    0    0    0  501 -0.00000000000E+00 -0.00000000000E+00 -0.34582038974E+02  0.34582038974E+02  0.00000000000E+00 0.  1.
         25    2    1    2    0    0 -0.89708687721E+02  0.12488236832E+02  0.38636494464E+03  0.41608810387E+03  0.12509130675E+03 0.  0.
          5    1    3    3  502    0  0.18856638090E+01  0.18167864997E+02 -0.21895631895E+00  0.18738927088E+02  0.41800000000E+01 0.  1.
         -5    1    3    3    0  502 -0.91594351530E+02 -0.56796281651E+01  0.38658390096E+03  0.39734917678E+03  0.41800000000E+01 0.  1.
        -11    1    1    2    0    0  0.12647965592E+02  0.35526121106E+02  0.49979855682E+02  0.62610400801E+02  0.00000000000E+00 0.  1.
         11    1    1    2    0    0  0.77060722129E+02 -0.48014357937E+02  0.14033630123E+03  0.16714667483E+03  0.00000000000E+00 0. -1.
</event>
<event>
 7    1  0.2661133E-009  0.8186135E+02  0.7561462E-02  0.1323851E+00
         -1   -1    0    0    0  501 -0.00000000000E+00  0.00000000000E+00  0.45619534203E+02  0.45619534203E+02  0.00000000000E+00 0.  1.
          1   -1    0    0  501    0  0.00000000000E+00 -0.00000000000E+00 -0.49643317545E+03  0.49643317545E+03  0.00000000000E+00 0. -1.
         25    2    1    2    0    0  0.58626143260E+02  0.23352126407E+02 -0.39636409692E+03  0.42039681667E+03  0.12508652867E+03 0.  0.
          5    1    3    3  502    0  0.47832350772E+02  0.93108607513E+01 -0.39902052806E+03  0.40200681602E+03  0.41800000000E+01 0. -1.
         -5    1    3    3    0  502  0.10793792488E+02  0.14041265655E+02  0.26564311428E+01  0.18390000650E+02  0.41800000000E+01 0. -1.
        -11    1    1    2    0    0  0.24361759829E+01  0.21003584676E+02  0.90734856848E+01  0.23008990963E+02  0.00000000000E+00 0.  1.
         11    1    1    2    0    0 -0.61062319243E+02 -0.44355711082E+02 -0.63523030013E+02  0.98646902024E+02  0.00000000000E+00 0. -1.
</event>
<event>
 7    1  0.3625806E-009  0.1559579E+03  0.7561462E-02  0.1193337E+00
          1   -1    0    0  501    0  0.00000000000E+00  0.00000000000E+00  0.47241739214E+03  0.47241739214E+03  0.00000000000E+00 0. -1.
         -1   -1    0    0    0  501 -0.00000000000E+00 -0.00000000000E+00 -0.60826891623E+02  0.60826891623E+02  0.00000000000E+00 0.  1.
         25    2    1    2    0    0 -0.21971612401E+02 -0.12404992392E+03  0.16913185206E+03  0.24520266180E+03  0.12509047364E+03 0.  0.
          5    1    3    3  502    0 -0.74199730145E+02 -0.68781091543E+02  0.92117793013E+02  0.13689265392E+03  0.41800000000E+01 0.  1.
         -5    1    3    3    0  502  0.52228117744E+02 -0.55268832381E+02  0.77014059044E+02  0.10831000788E+03  0.41800000000E+01 0.  1.
        -11    1    1    2    0    0 -0.12816301696E+02  0.13551427697E+02 -0.73436509170E+00  0.18666496026E+02  0.00000000000E+00 0.  1.
         11    1    1    2    0    0  0.34787914098E+02  0.11049849623E+03  0.24319301355E+03  0.26937512594E+03  0.00000000000E+00 0. -1.
</event>
<event>
 7    1  0.2661133E-009  0.9354066E+02  0.7561462E-02  0.1294497E+00
         -2   -1    0    0    0  501 -0.00000000000E+00  0.00000000000E+00  0.13543223083E+03  0.13543223083E+03  0.00000000000E+00 0.  1.
          2   -1    0    0  501    0  0.00000000000E+00 -0.00000000000E+00 -0.12409382097E+03  0.12409382097E+03  0.00000000000E+00 0. -1.
         25    2    1    2    0    0 -0.20605904824E+02  0.37446933884E+02  0.59757529624E+02  0.14508064001E+03  0.12510217260E+03 0.  0.
          5    1    3    3  502    0  0.16735965640E+02  0.44286534752E+02  0.86333800728E+02  0.98551444710E+02  0.41800000000E+01 0.  1.
         -5    1    3    3    0  502 -0.37341870464E+02 -0.68396008679E+01 -0.26576271104E+02  0.46529195303E+02  0.41800000000E+01 0.  1.
        -11    1    1    2    0    0 -0.28257169317E+02 -0.43761818814E+02 -0.12778157619E+02  0.53636235102E+02  0.00000000000E+00 0.  1.
         11    1    1    2    0    0  0.48863074141E+02  0.63148849301E+01 -0.35640962145E+02  0.60809176682E+02  0.00000000000E+00 0. -1.
</event>
<event>
 7    1  0.2661133E-009  0.1354557E+03  0.7561462E-02  0.1219578E+00
          3   -1    0    0  501    0  0.00000000000E+00  0.00000000000E+00  0.54353116150E+02  0.54353116150E+02  0.00000000000E+00 0. -1.
         -3   -1    0    0    0  501 -0.00000000000E+00 -0.00000000000E+00 -0.47077216655E+03  0.47077216655E+03  0.00000000000E+00 0.  1.
         25    2    1    2    0    0 -0.67120223251E+02  0.75369999298E+02 -0.12482280550E+03  0.20350489821E+03  0.12509096554E+03 0.  0.
          5    1    3    3  502    0 -0.64099818158E+02 -0.16156357246E+01 -0.97990922012E+01  0.64999165953E+02  0.41800000000E+01 0. -1.
         -5    1    3    3    0  502 -0.30204050928E+01  0.76985635022E+02 -0.11502371329E+03  0.13850573225E+03  0.41800000000E+01 0. -1.
        -11    1    1    2    0    0  0.65736079412E+02 -0.12873070645E+02 -0.10238892673E+03  0.12235375107E+03  0.00000000000E+00 0. -1.
         11    1    1    2    0    0  0.13841438384E+01 -0.62496928652E+02 -0.18920731817E+03  0.19926663342E+03  0.00000000000E+00 0.  1.
</event>
<event>
 7    1  0.2661133E-009  0.1025176E+03  0.7561462E-02  0.1275089E+00
          4   -1    0    0  501    0  0.00000000000E+00  0.00000000000E+00  0.20259512819E+03  0.20259512819E+03  0.00000000000E+00 0. -1.
         -4   -1    0    0    0  501 -0.00000000000E+00 -0.00000000000E+00 -0.11050496190E+03  0.11050496190E+03  0.00000000000E+00 0.  1.
         25    2    1    2    0    0  0.25838521038E+02  0.82304699316E+01 -0.54552186004E+02  0.13914002596E+03  0.12509450835E+03 0.  0.
          5    1    3    3  502    0 -0.49274879472E+02  0.41005753626E+01 -0.71709855415E+01  0.50137051159E+02  0.41800000000E+01 0. -1.
         -5    1    3    3    0  502  0.75113400510E+02  0.41298945690E+01 -0.47381200462E+02  0.89002974796E+02  0.41800000000E+01 0. -1.
        -11    1    1    2    0    0 -0.34923994584E+02 -0.36416559226E+02  0.43398251031E+02  0.66552681209E+02  0.00000000000E+00 0.  1.
         11    1    1    2    0    0  0.90854735457E+01  0.28186089295E+02  0.10324410127E+03  0.10740738292E+03  0.00000000000E+00 0. -1.
</event>
<event>
 7    1  0.2661133E-009  0.1443892E+03  0.7561462E-02  0.1207542E+00
         -1   -1    0    0    0  501 -0.00000000000E+00  0.00000000000E+00  0.37339696073E+02  0.37339696073E+02  0.00000000000E+00 0.  1.
          1   -1    0    0  501    0  0.00000000000E+00 -0.00000000000E+00 -0.65333029020E+03  0.65333029020E+03  0.00000000000E+00 0. -1.
         25    2    1    2    0    0 -0.77134987218E+02 -0.80283280152E+02 -0.35234967210E+03  0.39011612283E+03  0.12508032035E+03 0.  0.
          5    1    3    3  502    0  0.21307476220E+02 -0.55387571109E+02 -0.82094013788E+02  0.10138387976E+03  0.41800000000E+01 0. -1.
         -5    1    3    3    0  502 -0.98442463438E+02 -0.24895709042E+02 -0.27025565831E+03  0.28873224306E+03  0.41800000000E+01 0. -1.
        -11    1    1    2    0    0  0.41246371364E+02  0.17148133029E+01 -0.28810541861E+02  0.50341345410E+02  0.00000000000E+00 0.  1.
         11    1    1    2    0    0  0.35888615854E+02  0.78568466849E+02 -0.23483038017E+03  0.25021251804E+03  0.00000000000E+00 0. -1.
</event>
<event>
 7    1  0.2661133E-009  0.1318018E+03  0.7561462E-02  0.1224806E+00
         -1   -1    0    0    0  501 -0.00000000000E+00  0.00000000000E+00  0.37807166941E+02  0.37807166941E+02  0.00000000000E+00 0.  1.
          1   -1    0    0  501    0  0.00000000000E+00 -0.00000000000E+00 -0.48757473086E+03  0.48757473086E+03  0.00000000000E+00 0. -1.
         25    2    1    2    0    0  0.52005587396E+02 -0.61205959296E+02 -0.22655817847E+03  0.27097471829E+03  0.12509172293E+03 0.  0.
          5    1    3    3  502    0  0.22403291113E+02  0.37527139864E+02 -0.86740177085E+02  0.97218950827E+02  0.41800000000E+01 0.  1.
         -5    1    3    3    0  502  0.29602296282E+02 -0.98733099160E+02 -0.13981800139E+03  0.17375576746E+03  0.41800000000E+01 0.  1.
        -11    1    1    2    0    0  0.21423448201E+02  0.29736614974E+02 -0.10926079353E+03  0.11524387795E+03  0.00000000000E+00 0. -1.
         11    1    1    2    0    0 -0.73429035596E+02  0.31469344322E+02 -0.11394859192E+03  0.13916330156E+03  0.00000000000E+00 0.  1.
</event>
<event>
 7    1  0.2661133E-009  0.8013465E+02  0.7561462E-02  0.1328670E+00
          1   -1    0    0  501    0  0.00000000000E+00  0.00000000000E+00  0.54724746586E+03  0.54724746586E+03  0.00000000000E+00 0. -1.
         -1   -1    0    0    0  501 -0.00000000000E+00 -0.00000000000E+00 -0.28645259624E+02  0.28645259624E+02  0.00000000000E+00 0.  1.
         25    2    1    2    0    0  0.34596347055E+02 -0.64605461251E+00  0.40592812009E+03  0.42617238023E+03  0.12509170386E+03 0.  0.
          5    1    3    3  502    0 -0.16518111877E+02  0.21733860695E+02  0.15329205336E+02  0.31585845832E+02  0.41800000000E+01 0.  1.
         -5    1    3    3    0  502  0.51114458932E+02 -0.22379915307E+02  0.39059891475E+03  0.39458653440E+03  0.41800000000E+01 0.  1.
        -11    1    1    2    0    0  0.15572704731E+02 -0.17427772886E+02  0.87839411900E+02  0.90895537203E+02  0.00000000000E+00 0. -1.
         11    1    1    2    0    0 -0.50169051786E+02  0.18073827499E+02  0.24834674247E+02  0.58824808053E+02  0.00000000000E+00 0.  1.
</event>
<event>
 7    1  0.2661133E-009  0.1230519E+03  0.7561462E-02  0.1238146E+00
         -2   -1    0    0    0  501 -0.00000000000E+00  0.00000000000E+00  0.14877417557E+02  0.14877417557E+02  0.00000000000E+00 0.  1.
          2   -1    0    0  501    0  0.00000000000E+00 -0.00000000000E+00 -0.14041299225E+04  0.14041299225E+04  0.00000000000E+00 0. -1.
         25    2    1    2    0    0 -0.96629453712E+02  0.73949930748E+01 -0.71238820560E+03  0.72975016411E+03  0.12508560783E+03 0.  0.
          5    1    3    3  502    0 -0.54566273362E+02 -0.27477446010E+02 -0.61469326833E+03  0.61773600733E+03  0.41800000000E+01 0.  1.
         -5    1    3    3    0  502 -0.42063180350E+02  0.34872439085E+02 -0.97694937280E+02  0.11201415678E+03  0.41800000000E+01 0.  1.
        -11    1    1    2    0    0  0.86490122739E+02  0.29828091207E+02 -0.48451408501E+03  0.49307621615E+03  0.00000000000E+00 0.  1.
         11    1    1    2    0    0  0.10139330974E+02 -0.37223084281E+02 -0.19235021432E+03  0.19618095980E+03  0.00000000000E+00 0. -1.
</event>
<event>
 7    1  0.2661133E-009  0.9342780E+02  0.7561462E-02  0.1294757E+00
         -3   -1    0    0    0  501 -0.00000000000E+00  0.00000000000E+00  0.37488956158E+02  0.37488956158E+02  0.00000000000E+00 0.  1.
          3   -1    0    0  501    0  0.00000000000E+00 -0.00000000000E+00 -0.43417212469E+03  0.43417212469E+03  0.00000000000E+00 0. -1.
         25    2    1    2    0    0  0.19381902034E+02 -0.37737705370E+02 -0.31812224649E+03  0.34445349389E+03  0.12508658286E+03 0.  0.
          5    1    3    3  502    0  0.51559166441E+02  0.23993232795E+02 -0.19254307956E+03  0.20080919488E+03  0.41800000000E+01 0. -1.
         -5    1    3    3    0  502 -0.32177264407E+02 -0.61730938165E+02 -0.12557916693E+03  0.14364429901E+03  0.41800000000E+01 0. -1.
        -11    1    1    2    0    0 -0.94785591505E+01 -0.85464874817E+01  0.16591888020E+02  0.20932660603E+02  0.00000000000E+00 0.  1.
         11    1    1    2    0    0 -0.99033428837E+01  0.46284192851E+02 -0.95152810070E+02  0.10627492636E+03  0.00000000000E+00 0. -1.
</event>
<event>
 7    1  0.2661133E-009  0.1500344E+03  0.7561462E-02  0.1200431E+00
          1   -1    0    0  501    0  0.00000000000E+00  0.00000000000E+00  0.41286563993E+02  0.41286563993E+02  0.00000000000E+00 0. -1.
         -1   -1    0    0    0  501 -0.00000000000E+00 -0.00000000000E+00 -0.74693473898E+03  0.74693473898E+03  0.00000000000E+00 0.  1.
         25    2    1    2    0    0 -0.13534558904E+03 -0.10427538081E+02 -0.42118742305E+03  0.45986271719E+03  0.12509081226E+03 0.  0.
          5    1    3    3  502    0 -0.88558418021E+02 -0.82498896143E+01 -0.94620428286E+02  0.12992748720E+03  0.41800000000E+01 0.  1.
         -5    1    3    3    0  502 -0.46787171015E+02 -0.21776484668E+01 -0.32656699476E+03  0.32993522999E+03  0.41800000000E+01 0.  1.
        -11    1    1    2    0    0 -0.13234874927E+02 -0.59763124582E+01 -0.24089784683E+02  0.28128205613E+02  0.00000000000E+00 0.  1.
         11    1    1    2    0    0  0.14858046396E+03  0.16403850539E+02 -0.26037096726E+03  0.30023038017E+03  0.00000000000E+00 0. -1.
</event>
<event>
 7    1  0.2661133E-009  0.1281634E+03  0.7561462E-02  0.1230207E+00
         -1   -1    0    0    0  501 -0.00000000000E+00  0.00000000000E+00  0.11148240809E+03  0.11148240809E+03  0.00000000000E+00 0.  1.
          1   -1    0    0  501    0  0.00000000000E+00 -0.00000000000E+00 -0.26703920629E+03  0.26703920629E+03  0.00000000000E+00 0. -1.
         25    2    1    2    0    0  0.49437229023E+02  0.99221407280E+02 -0.15913953910E+03  0.23078389047E+03  0.12508750504E+03 0.  0.
          5    1    3    3  502    0  0.76422756952E+02  0.58521222270E+02 -0.44540308611E+02  0.10614368906E+03  0.41800000000E+01 0. -1.
         -5    1    3    3    0  502 -0.26985527929E+02  0.40700185010E+02 -0.11459923049E+03  0.12464020141E+03  0.41800000000E+01 0. -1.
        -11    1    1    2    0    0 -0.34834571163E+02 -0.64607223994E+02  0.49408994895E+02  0.88480447087E+02  0.00000000000E+00 0.  1.
         11    1    1    2    0    0 -0.14602657860E+02 -0.34614183286E+02 -0.45826253994E+02  0.59257276822E+02  0.00000000000E+00 0. -1.
</event>
<event>
 7    1  0.2661133E-009  0.1026694E+03  0.7561462E-02  0.1274781E+00
         -1   -1    0    0    0  501 -0.00000000000E+00  0.00000000000E+00  0.11203997869E+03  0.11203997869E+03  0.00000000000E+00 0.  1.
          1   -1    0    0  501    0  0.00000000000E+00 -0.00000000000E+00 -0.11833539959E+03  0.11833539959E+03  0.00000000000E+00 0. -1.
         25    2    1    2    0    0 -0.29938821460E+00 -0.43240730105E+02  0.41784804903E+01  0.13241848997E+03  0.12508935372E+03 0.  0.
          5    1    3    3  502    0  0.56605670380E+00  0.32616195526E+02 -0.34072894975E+02  0.47355793761E+02  0.41800000000E+01 0. -1.
         -5    1    3    3    0  502 -0.86544491841E+00 -0.75856925631E+02  0.38251375465E+02  0.85062696207E+02  0.41800000000E+01 0. -1.
        -11    1    1    2    0    0  0.43269928975E+02  0.21553523453E+02  0.14726701043E+01  0.48363311342E+02  0.00000000000E+00 0. -1.
         11    1    1    2    0    0 -0.42970540761E+02  0.21687206651E+02 -0.11946571495E+02  0.49593576964E+02  0.00000000000E+00 0.  1.
</event>
<event>
 7    1  0.2661133E-009  0.1204046E+03  0.7561462E-02  0.1242431E+00
          1   -1    0    0  501    0  0.00000000000E+00  0.00000000000E+00  0.14406649767E+04  0.14406649767E+04  0.00000000000E+00 0. -1.
         -1   -1    0    0    0  501 -0.00000000000E+00 -0.00000000000E+00 -0.12042919260E+02  0.12042919260E+02  0.00000000000E+00 0.  1.
         25    2    1    2    0    0 -0.72125079685E+02 -0.20192796553E+02  0.88887629410E+03  0.90075411151E+03  0.12508847678E+03 0.  0.
          5    1    3    3  502    0 -0.97713156595E+02 -0.19815790783E+02  0.44193659615E+03  0.45306285872E+03  0.41800000000E+01 0.  1.
         -5    1    3    3    0  502  0.25588076910E+02 -0.37700576940E+00  0.44693969795E+03  0.44769125279E+03  0.41800000000E+01 0.  1.
        -11    1    1    2    0    0  0.65557918077E+02 -0.24448009819E+02  0.34890665035E+03  0.35585305460E+03  0.00000000000E+00 0.  1.
         11    1    1    2    0    0  0.65671616080E+01  0.44640806372E+02  0.19083911300E+03  0.19610072987E+03  0.00000000000E+00 0. -1.
</event>
<event>
 7    1  0.2661133E-009  0.6884794E+02  0.7561462E-02  0.1364055E+00
          1   -1    0    0  501    0  0.00000000000E+00  0.00000000000E+00  0.22367042499E+03  0.22367042499E+03  0.00000000000E+00 0.  1.
         -1   -1    0    0    0  501 -0.00000000000E+00 -0.00000000000E+00 -0.52870218800E+02  0.52870218800E+02  0.00000000000E+00 0. -1.
         25    2    1    2    0    0  0.32476378840E+00 -0.63854496816E+01  0.90030216934E+02  0.15426462199E+03  0.12510497271E+03 0.  0.
          5    1    3    3  502    0 -0.26986253241E+02  0.26910947336E+02  0.10233579085E+03  0.10928194471E+03  0.41800000000E+01 0.  1.
         -5    1    3    3    0  502  0.27311017029E+02 -0.33296397017E+02 -0.12305573919E+02  0.44982677277E+02  0.41800000000E+01 0.  1.
        -11    1    1    2    0    0 -0.28020592323E+02  0.36974773245E+01  0.88901617111E+02  0.93286239380E+02  0.00000000000E+00 0.  1.
         11    1    1    2    0    0  0.27695828534E+02  0.26879723571E+01 -0.81316278499E+01  0.28989782426E+02  0.00000000000E+00 0. -1.
</event>
<event>
 7    1  0.2661133E-009  0.1128363E+03  0.7561462E-02  0.1255406E+00
         -1   -1    0    0    0  501 -0.00000000000E+00  0.00000000000E+00  0.61553968287E+03  0.61553968287E+03  0.00000000000E+00 0.  1.
          1   -1    0    0  501    0  0.00000000000E+00 -0.00000000000E+00 -0.22013636098E+02  0.22013636098E+02  0.00000000000E+00 0. -1.
         25    2    1    2    0    0 -0.11823536493E+02  0.33096214350E+02  0.27783633507E+03  0.30671714063E+03  0.12508884783E+03 0.  0.
          5    1    3    3  502    0  0.54229395309E+02 -0.17847887572E+01  0.10154580612E+03  0.11520866255E+03  0.41800000000E+01 0. -1.
         -5    1    3    3    0  502 -0.66052931802E+02  0.34881003107E+02  0.17629052895E+03  0.19150847807E+03  0.41800000000E+01 0. -1.
        -11    1    1    2    0    0 -0.35212807806E+02 -0.34615811742E+02  0.12437503679E+03  0.13381833220E+03  0.00000000000E+00 0.  1.
         11    1    1    2    0    0  0.47036344299E+02  0.15195973919E+01  0.19131467491E+03  0.19701784614E+03  0.00000000000E+00 0. -1.
</event>
<event>
 7    1  0.2661133E-009  0.1876745E+03  0.7561462E-02  0.1160576E+00
         -2   -1    0    0    0  501 -0.00000000000E+00  0.00000000000E+00  0.21139285824E+02  0.21139285824E+02  0.00000000000E+00 0.  1.
          2   -1    0    0  501    0  0.00000000000E+00 -0.00000000000E+00 -0.17634561760E+04  0.17634561760E+04  0.00000000000E+00 0. -1.
         25    2    1    2    0    0  0.11909755092E+03 -0.10370664979E+03 -0.98152465138E+03  0.10019866734E+04  0.12508939455E+03 0.  0.
          5    1    3    3  502    0  0.15078084033E+02  0.27558191143E+02 -0.21848293251E+03  0.22076926126E+03  0.41800000000E+01 0. -1.
         -5    1    3    3    0  502  0.10401946689E+03 -0.13126484093E+03 -0.76304171887E+03  0.78121741218E+03  0.41800000000E+01 0. -1.
        -11    1    1    2    0    0 -0.98772615369E+02  0.35508772479E+02 -0.33970547704E+03  0.35555128125E+03  0.00000000000E+00 0.  1.
         11    1    1    2    0    0 -0.20324935551E+02  0.68197877312E+02 -0.42108676172E+03  0.42705750710E+03  0.00000000000E+00 0. -1.
</event>
<event>
 7    1  0.2661133E-009  0.9820333E+02  0.7561462E-02  0.1284120E+00
          2   -1    0    0  501    0  0.00000000000E+00  0.00000000000E+00  0.54988266907E+03  0.54988266907E+03  0.00000000000E+00 0. -1.
         -2   -1    0    0    0  501 -0.00000000000E+00 -0.00000000000E+00 -0.28779954270E+02  0.28779954270E+02  0.00000000000E+00 0.  1.
         25    2    1    2    0    0  0.87874739316E+01  0.45008499043E+02  0.38532566751E+03  0.40770884180E+03  0.12509054702E+03 0.  0.
          5    1    3    3  502    0 -0.53828588425E+02 -0.19892223752E+01  0.13567940173E+03  0.14604056420E+03  0.41800000000E+01 0.  1.
         -5    1    3    3    0  502  0.62616062356E+02  0.46997721418E+02  0.24964626578E+03  0.26166827760E+03  0.41800000000E+01 0.  1.
        -11    1    1    2    0    0  0.15395451281E+02 -0.34165186470E+02  0.53409235688E+01  0.37852415395E+02  0.00000000000E+00 0.  1.
         11    1    1    2    0    0 -0.24182925213E+02 -0.10843312573E+02  0.13043612372E+03  0.13310136615E+03  0.00000000000E+00 0. -1.
</event>
<event>
 7    1  0.2661133E-009  0.1371572E+03  0.7561462E-02  0.1217206E+00
          2   -1    0    0  501    0  0.00000000000E+00  0.00000000000E+00  0.78951714643E+02  0.78951714643E+02  0.00000000000E+00 0. -1.
         -2   -1    0    0    0  501 -0.00000000000E+00 -0.00000000000E+00 -0.26473308259E+03  0.26473308259E+03  0.00000000000E+00 0.  1.
         25    2    1    2    0    0 -0.16979542843E+02  0.89356196732E+02 -0.66617083611E+02  0.16840035485E+03  0.12509200180E+03 0.  0.
          5    1    3    3  502    0 -0.19454361606E+02  0.11750270132E+03 -0.72139491604E+02  0.13930877809E+03  0.41800000000E+01 0.  1.
         -5    1    3    3    0  502  0.24748187630E+01 -0.28146504589E+02  0.55224079932E+01  0.29091576763E+02  0.41800000000E+01 0.  1.
        -11    1    1    2    0    0 -0.28968017972E+02 -0.34743965335E+01 -0.15485318395E+02  0.33030479595E+02  0.00000000000E+00 0.  1.
         11    1    1    2    0    0  0.45947560815E+02 -0.85881800199E+02 -0.10367896594E+03  0.14225396279E+03  0.00000000000E+00 0. -1.
</event>
<event>
 7    1  0.2661133E-009  0.3154273E+03  0.7561462E-02  0.1077773E+00
         -3   -1    0    0    0  501 -0.00000000000E+00  0.00000000000E+00  0.12097373637E+03  0.12097373637E+03  0.00000000000E+00 0.  1.
          3   -1    0    0  501    0  0.00000000000E+00 -0.00000000000E+00 -0.90831387570E+03  0.90831387570E+03  0.00000000000E+00 0. -1.
         25    2    1    2    0    0  0.23827115710E+03 -0.18484882671E+03 -0.53217460713E+03  0.62433884805E+03  0.12508777583E+03 0.  0.
          5    1    3    3  502    0  0.48013853781E+01 -0.60336456120E+02 -0.12115305580E+03  0.13549566993E+03  0.41800000000E+01 0. -1.
         -5    1    3    3    0  502  0.23346977172E+03 -0.12451237059E+03 -0.41102155133E+03  0.48884317812E+03  0.41800000000E+01 0. -1.
        -11    1    1    2    0    0 -0.17709358795E+02 -0.10126099667E+00 -0.45542750284E+02  0.48864851848E+02  0.00000000000E+00 0. -1.
         11    1    1    2    0    0 -0.22056179830E+03  0.18495008771E+03 -0.20962278191E+03  0.35608391218E+03  0.00000000000E+00 0.  1.
</event>
<event>
 7    1  0.2661133E-009  0.1226353E+03  0.7561462E-02  0.1238812E+00
         -2   -1    0    0    0  501 -0.00000000000E+00  0.00000000000E+00  0.27792994384E+03  0.27792994384E+03  0.00000000000E+00 0.  1.
          2   -1    0    0  501    0  0.00000000000E+00 -0.00000000000E+00 -0.73734318103E+02  0.73734318103E+02  0.00000000000E+00 0. -1.
         25    2    1    2    0    0  0.81288098751E+02 -0.57635351787E+01  0.16596697919E+03  0.22323236482E+03  0.12508667869E+03 0.  0.
          5    1    3    3  502    0 -0.68246232127E+01 -0.32268848458E+02 -0.19730525100E+00  0.33247035840E+02  0.41800000000E+01 0. -1.
         -5    1    3    3    0  502  0.88112721963E+02  0.26505313279E+02  0.16616428444E+03  0.18998532898E+03  0.41800000000E+01 0. -1.
        -11    1    1    2    0    0 -0.81630473106E+02 -0.27888176484E+02  0.15043036456E+02  0.87564704493E+02  0.00000000000E+00 0.  1.
         11    1    1    2    0    0  0.34237435561E+00  0.33651711663E+02  0.23185610089E+02  0.40867192628E+02  0.00000000000E+00 0. -1.
</event>
<event>
 7    1  0.2661133E-009  0.1132180E+03  0.7561462E-02  0.1254724E+00
         -1   -1    0    0    0  501 -0.00000000000E+00  0.00000000000E+00  0.60607131388E+02  0.60607131388E+02  0.00000000000E+00 0.  1.
          1   -1    0    0  501    0  0.00000000000E+00 -0.00000000000E+00 -0.26782476293E+03  0.26782476293E+03  0.00000000000E+00 0. -1.
         25    2    1    2    0    0 -0.28818702116E+02 -0.49663334114E+02 -0.15319506338E+03  0.20594439234E+03  0.12508957169E+03 0.  0.
          5    1    3    3  502    0  0.41934384438E+02 -0.38374516254E+02 -0.32743434864E+02  0.65732039544E+02  0.41800000000E+01 0.  1.
         -5    1    3    3    0  502 -0.70753086554E+02 -0.11288817860E+02 -0.12045162851E+03  0.14021235280E+03  0.41800000000E+01 0.  1.
        -11    1    1    2    0    0 -0.16150014377E+02  0.50162725405E+02 -0.66054712384E+00  0.52702545545E+02  0.00000000000E+00 0.  1.
         11    1    1    2    0    0  0.44968716493E+02 -0.49939129039E+00 -0.53362021042E+02  0.69784956433E+02  0.00000000000E+00 0. -1.
</event>
<event>
 7    1  0.2661133E-009  0.1120730E+03  0.7561462E-02  0.1256778E+00
         -2   -1    0    0    0  501 -0.00000000000E+00  0.00000000000E+00  0.38896574531E+02  0.38896574531E+02  0.00000000000E+00 0.  1.
          2   -1    0    0  501    0  0.00000000000E+00 -0.00000000000E+00 -0.33386222146E+03  0.33386222146E+03  0.00000000000E+00 0. -1.
         25    2    1    2    0    0  0.19607968680E+02  0.12019010541E+02 -0.16573964831E+03  0.20891474836E+03  0.12508721762E+03 0.  0.
          5    1    3    3  502    0 -0.49159350153E+02  0.26294209420E+02 -0.61061054483E+02  0.82788597832E+02  0.41800000000E+01 0. -1.
         -5    1    3    3    0  502  0.68767318833E+02 -0.14275198879E+02 -0.10467859382E+03  0.12612615053E+03  0.41800000000E+01 0. -1.
        -11    1    1    2    0    0 -0.24069966108E+02 -0.52185273632E+02 -0.56198473023E+02  0.80379937936E+02  0.00000000000E+00 0.  1.
         11    1    1    2    0    0  0.44619974272E+01  0.40166263091E+02 -0.73027525601E+02  0.83464109695E+02  0.00000000000E+00 0. -1.
</event>
<event>
 7    1  0.2661133E-009  0.1219021E+03  0.7561462E-02  0.1239992E+00
         -1   -1    0    0    0  501 -0.00000000000E+00  0.00000000000E+00  0.84333056941E+02  0.84333056941E+02  0.00000000000E+00 0.  1.
          1   -1    0    0  501    0  0.00000000000E+00 -0.00000000000E+00 -0.30192316067E+03  0.30192316067E+03  0.00000000000E+00 0. -1.
         25    2    1    2    0    0 -0.67745357907E+02 -0.58687828948E+02 -0.21089640193E+03  0.26107412870E+03  0.12509481823E+03 0.  0.
          5    1    3    3  502    0 -0.18393111815E+02 -0.90579704015E+02 -0.10542892514E+03  0.14027016788E+03  0.41800000000E+01 0. -1.
         -5    1    3    3    0  502 -0.49352246092E+02  0.31891875068E+02 -0.10546747679E+03  0.12080396082E+03  0.41800000000E+01 0. -1.
        -11    1    1    2    0    0  0.41113153732E+02  0.20838094362E+02 -0.45513380038E+02  0.64776425873E+02  0.00000000000E+00 0. -1.
         11    1    1    2    0    0  0.26632204175E+02  0.37849734586E+02  0.38819678242E+02  0.60405663031E+02  0.00000000000E+00 0.  1.
</event>
<event>
 7    1  0.2661133E-009  0.1580876E+03  0.7561462E-02  0.1190873E+00
          1   -1    0    0  501    0  0.00000000000E+00  0.00000000000E+00  0.14548209223E+03  0.14548209223E+03  0.00000000000E+00 0. -1.
         -1   -1    0    0    0  501 -0.00000000000E+00 -0.00000000000E+00 -0.20756070144E+03  0.20756070144E+03  0.00000000000E+00 0.  1.
         25    2    1    2    0    0  0.61054655868E+02 -0.11171310549E+03 -0.77484514710E+02  0.19457376744E+03  0.12509041535E+03 0.  0.
          5    1    3    3  502    0 -0.27560776312E+02 -0.28515513416E+02 -0.59502456358E+02  0.71629223149E+02  0.41800000000E+01 0.  1.
         -5    1    3    3    0  502  0.88615432181E+02 -0.83197592078E+02 -0.17982058352E+02  0.12294454429E+03  0.41800000000E+01 0.  1.
        -11    1    1    2    0    0 -0.14792566715E+02 -0.14216825630E+02  0.13000421493E+02  0.24288868232E+02  0.00000000000E+00 0. -1.
         11    1    1    2    0    0 -0.46262089153E+02  0.12592993112E+03  0.24054840106E+01  0.13418015799E+03  0.00000000000E+00 0.  1.
</event>
<event>
 7    1  0.2661133E-009  0.9805665E+02  0.7561462E-02  0.1284436E+00
          3   -1    0    0  501    0  0.00000000000E+00  0.00000000000E+00  0.84220318126E+02  0.84220318126E+02  0.00000000000E+00 0. -1.
         -3   -1    0    0    0  501 -0.00000000000E+00 -0.00000000000E+00 -0.15981141894E+03  0.15981141894E+03  0.00000000000E+00 0.  1.
         25    2    1    2    0    0  0.18605442054E+02 -0.26921518283E+02 -0.64430186897E+02  0.14445528328E+03  0.12508057109E+03 0.  0.
          5    1    3    3  502    0 -0.30592584762E+02  0.32844918306E+02 -0.46743702261E+02  0.64939518030E+02  0.41800000000E+01 0.  1.
         -5    1    3    3    0  502  0.49198026816E+02 -0.59766436588E+02 -0.17686484637E+02  0.79515765253E+02  0.41800000000E+01 0.  1.
        -11    1    1    2    0    0 -0.36040951529E+02 -0.57311414834E+01  0.27768935909E+02  0.45857496348E+02  0.00000000000E+00 0. -1.
         11    1    1    2    0    0  0.17435509475E+02  0.32652659766E+02 -0.38929849825E+02  0.53718957435E+02  0.00000000000E+00 0.  1.
</event>
<event>
 7    1  0.2661133E-009  0.9475027E+02  0.7561462E-02  0.1291740E+00
         -2   -1    0    0    0  501 -0.00000000000E+00  0.00000000000E+00  0.17473411733E+03  0.17473411733E+03  0.00000000000E+00 0.  1.
          2   -1    0    0  501    0  0.00000000000E+00 -0.00000000000E+00 -0.15744168902E+03  0.15744168902E+03  0.00000000000E+00 0. -1.
         25    2    1    2    0    0  0.37792296482E+02  0.48089946496E+02  0.11926921563E+03  0.18334424490E+03  0.12509622582E+03 0.  0.
          5    1    3    3  502    0  0.47360984028E+02  0.71477223415E+02  0.12982588005E+03  0.15564153625E+03  0.41800000000E+01 0.  1.
         -5    1    3    3    0  502 -0.95686875459E+01 -0.23387276919E+02 -0.10556664420E+02  0.27702708653E+02  0.41800000000E+01 0.  1.
        -11    1    1    2    0    0 -0.16342139197E+02  0.78506607320E+01  0.10818267041E+02  0.21112396578E+02  0.00000000000E+00 0.  1.
         11    1    1    2    0    0 -0.21450157285E+02 -0.55940607228E+02 -0.11279505437E+03  0.12771916487E+03  0.00000000000E+00 0. -1.
</event>
<event>
 7    1  0.2661133E-009  0.1795607E+03  0.7561462E-02  0.1168229E+00
          2   -1    0    0  501    0  0.00000000000E+00  0.00000000000E+00  0.78442609785E+03  0.78442609785E+03  0.00000000000E+00 0.  1.
         -2   -1    0    0    0  501 -0.00000000000E+00 -0.00000000000E+00 -0.48487627467E+02  0.48487627467E+02  0.00000000000E+00 0. -1.
         25    2    1    2    0    0  0.15668313966E+03 -0.35837919602E+02  0.39111212072E+03  0.44096998043E+03  0.12510743357E+03 0.  0.
          5    1    3    3  502    0  0.56979544965E+02  0.38236360723E+02  0.21273934008E+03  0.22357143611E+03  0.41800000000E+01 0.  1.
         -5    1    3    3    0  502  0.99703594697E+02 -0.74074280325E+02  0.17837278063E+03  0.21739854432E+03  0.41800000000E+01 0.  1.
        -11    1    1    2    0    0 -0.65622811846E+02  0.36381961700E+02  0.24765725559E+03  0.25877425842E+03  0.00000000000E+00 0.  1.
         11    1    1    2    0    0 -0.91060327815E+02 -0.54404209752E+00  0.97169094075E+02  0.13316948647E+03  0.00000000000E+00 0. -1.
</event>
<event>
 7    1  0.2661133E-009  0.1121638E+03  0.7561462E-02  0.1256614E+00
          1   -1    0    0  501    0  0.00000000000E+00  0.00000000000E+00  0.13879814711E+03  0.13879814711E+03  0.00000000000E+00 0. -1.
         -1   -1    0    0    0  501 -0.00000000000E+00 -0.00000000000E+00 -0.11667643006E+03  0.11667643006E+03  0.00000000000E+00 0.  1.
         25    2    1    2    0    0 -0.60808298904E+02  0.82114708160E+01  0.40775235924E+02  0.14517715524E+03  0.12509480033E+03 0.  0.
          5    1    3    3  502    0 -0.48134535042E+02  0.61419009581E+02  0.44970713059E+02  0.90161331149E+02  0.41800000000E+01 0.  1.
         -5    1    3    3    0  502 -0.12673763862E+02 -0.53207538765E+02 -0.41954771348E+01  0.55015824089E+02  0.41800000000E+01 0.  1.
        -11    1    1    2    0    0  0.52985174568E+02  0.24008349841E+02  0.17981481119E+02  0.60886478379E+02  0.00000000000E+00 0. -1.
         11    1    1    2    0    0  0.78231243356E+01 -0.32219820657E+02 -0.36634999999E+02  0.49410943550E+02  0.00000000000E+00 0.  1.
</event>
<event>
 6    1  0.2661133E-009  0.1050992E+03  0.7561462E-02  0.1269924E+00
         -3   -1    0    0    0  501 -0.00000000000E+00  0.00000000000E+00  0.36425984330E+02  0.36425984330E+02  0.00000000000E+00 0.  1.
          3   -1    0    0  501    0  0.00000000000E+00 -0.00000000000E+00 -0.42413048858E+03  0.42413048858E+03  0.00000000000E+00 0. -1.
          5    1    1    2  502    0  0.43455427640E+02 -0.36954423361E+02 -0.27282505570E+02  0.63370427705E+02  0.41800000000E+01 0. -1.
         -5    1    1    2    0  502  0.56620763844E+01  0.55026506952E+02 -0.14968989193E+03  0.15963869118E+03  0.41800000000E+01 0. -1.
        -11    1    1    2    0    0 -0.58285911218E+02  0.17448889982E+02 -0.73084219951E+02  0.95094765439E+02  0.00000000000E+00 0.  1.
         11    1    1    2    0    0  0.91684071938E+01 -0.35520973573E+02 -0.13764788680E+03  0.14245258859E+03  0.00000000000E+00 0. -1.
</event>
<event>
 7    1  0.2661133E-009  0.1107522E+03  0.7561462E-02  0.1259183E+00
         -2   -1    0    0    0  501 -0.00000000000E+00  0.00000000000E+00  0.23570301332E+02  0.23570301332E+02  0.00000000000E+00 0.  1.
          2   -1    0    0  501    0  0.00000000000E+00 -0.00000000000E+00 -0.61643213600E+03  0.61643213600E+03  0.00000000000E+00 0. -1.
         25    2    1    2    0    0 -0.11854775774E+02 -0.29027301099E+02 -0.44765122731E+03  0.46585460067E+03  0.12508304335E+03 0.  0.
          5    1    3    3  502    0  0.25995708731E+02  0.40212014737E+02 -0.20921802235E+03  0.21466820043E+03  0.41800000000E+01 0. -1.
         -5    1    3    3    0  502 -0.37850484505E+02 -0.69239315836E+02 -0.23843320497E+03  0.25118640024E+03  0.41800000000E+01 0. -1.
        -11    1    1    2    0    0 -0.20020646686E+02 -0.24793268823E+02 -0.34335133471E+02  0.46844784802E+02  0.00000000000E+00 0.  1.
         11    1    1    2    0    0  0.31875422460E+02  0.53820569922E+02 -0.11087547388E+03  0.12730305186E+03  0.00000000000E+00 0. -1.
</event>
<event>
 7    1  0.2661133E-009  0.9284521E+02  0.7561462E-02  0.1296104E+00
         -2   -1    0    0    0  501 -0.00000000000E+00  0.00000000000E+00  0.25392659358E+02  0.25392659358E+02  0.00000000000E+00 0. -1.
          2   -1    0    0  501    0  0.00000000000E+00 -0.00000000000E+00 -0.68678030028E+03  0.68678030028E+03  0.00000000000E+00 0.  1.
         25    2    1    2    0    0  0.16493590605E+02  0.31839386320E+02 -0.53899782438E+03  0.55448231562E+03  0.12508476566E+03 0.  0.
          5    1    3    3  502    0 -0.17596391208E+02  0.53353308645E+02 -0.47762527307E+03  0.48093615211E+03  0.41800000000E+01 0. -1.
         -5    1    3    3    0  502  0.34089981813E+02 -0.21513922325E+02 -0.61372551310E+02  0.73546163518E+02  0.41800000000E+01 0. -1.
        -11    1    1    2    0    0 -0.48574856207E+02 -0.88862042362E+01 -0.31401767631E+02  0.58519674398E+02  0.00000000000E+00 0. -1.
         11    1    1    2    0    0  0.32081265602E+02 -0.22953182084E+02 -0.90988048909E+02  0.99170969617E+02  0.00000000000E+00 0.  1.
</event>
<event>
 7    1  0.2661133E-009  0.1085246E+03  0.7561462E-02  0.1263327E+00
          1   -1    0    0  501    0  0.00000000000E+00  0.00000000000E+00  0.69078527649E+03  0.69078527649E+03  0.00000000000E+00 0. -1.
         -1   -1    0    0    0  501 -0.00000000000E+00 -0.00000000000E+00 -0.24859304702E+02  0.24859304702E+02  0.00000000000E+00 0.  1.
         25    2    1    2    0    0  0.11365901529E+02 -0.72088027375E+02  0.35708405765E+03  0.38533470640E+03  0.12509174362E+03 0.  0.
          5    1    3    3  502    0  0.22453056315E+02  0.31678937958E+02  0.75436069251E+02  0.84945675535E+02  0.41800000000E+01 0. -1.
         -5    1    3    3    0  502 -0.11087154786E+02 -0.10376696533E+03  0.28164798840E+03  0.30038903087E+03  0.41800000000E+01 0. -1.
        -11    1    1    2    0    0 -0.50855293578E+01  0.56795101824E+02  0.30855017520E+03  0.31377500986E+03  0.00000000000E+00 0. -1.
         11    1    1    2    0    0 -0.62803721716E+01  0.15292925550E+02  0.29173893822E+00  0.16534864926E+02  0.00000000000E+00 0.  1.
</event>
<event>
 6    1  0.3337513E-009  0.1515377E+03  0.7561462E-02  0.1198596E+00
         -2   -1    0    0    0  501 -0.00000000000E+00  0.00000000000E+00  0.24966417115E+02  0.24966417115E+02  0.00000000000E+00 0.  1.
          2   -1    0    0  501    0  0.00000000000E+00 -0.00000000000E+00 -0.11928855900E+04  0.11928855900E+04  0.00000000000E+00 0. -1.
          5    1    1    2  502    0  0.14818704408E+03  0.11207404492E+02 -0.56114250058E+03  0.58050269965E+03  0.41800000000E+01 0.  1.
         -5    1    1    2    0  502 -0.20354512404E+02 -0.13555529527E+02 -0.19579357234E+03  0.19735920026E+03  0.41800000000E+01 0.  1.
        -11    1    1    2    0    0 -0.23338574046E+02 -0.78081863888E+01 -0.11914123347E+02  0.27342332532E+02  0.00000000000E+00 0.  1.
         11    1    1    2    0    0 -0.10449395763E+03  0.10156311423E+02 -0.39906897661E+03  0.41264777466E+03  0.00000000000E+00 0. -1.
</event>
<event>
 7    1  0.2661133E-009  0.3056148E+03  0.7561462E-02  0.1082467E+00
          1   -1    0    0  501    0  0.00000000000E+00  0.00000000000E+00  0.69227451751E+03  0.69227451751E+03  0.00000000000E+00 0. -1.
         -1   -1    0    0    0  501 -0.00000000000E+00 -0.00000000000E+00 -0.15131335990E+03  0.15131335990E+03  0.00000000000E+00 0.  1.
         25    2    1    2    0    0  0.29271008216E+03 -0.67866290819E+01  0.38590450027E+03  0.50029524284E+03  0.12509115138E+03 0.  0.
          5    1    3    3  502    0  0.11471250668E+03  0.41130685636E+02  0.89633729869E+02  0.15133529139E+03  0.41800000000E+01 0. -1.
         -5    1    3    3    0  502  0.17799757547E+03 -0.47917314718E+02  0.29627077040E+03  0.34895995145E+03  0.41800000000E+01 0. -1.
        -11    1    1    2    0    0 -0.14921625068E+03 -0.39111576663E+02  0.62237192071E+02  0.16633903022E+03  0.00000000000E+00 0. -1.
         11    1    1    2    0    0 -0.14349383147E+03  0.45898205745E+02  0.92819465270E+02  0.17695360436E+03  0.00000000000E+00 0.  1.
</event>
<event>
 7    1  0.2661133E-009  0.1721997E+03  0.7561462E-02  0.1175573E+00
          2   -1    0    0  501    0  0.00000000000E+00  0.00000000000E+00  0.20176571603E+03  0.20176571603E+03  0.00000000000E+00 0. -1.
         -2   -1    0    0    0  501 -0.00000000000E+00 -0.00000000000E+00 -0.27810127932E+03  0.27810127932E+03  0.00000000000E+00 0.  1.
         25    2    1    2    0    0 -0.12667917628E+03 -0.66422006894E+02 -0.19532705592E+03  0.27251097686E+03  0.12510026790E+03 0.  0.
          5    1    3    3  502    0  0.19588529068E+02 -0.33585981336E+01  0.16386993403E+00  0.20309847509E+02  0.41800000000E+01 0.  1.
         -5    1    3    3    0  502 -0.14626770535E+03 -0.63063408761E+02 -0.19549092586E+03  0.25220112935E+03  0.41800000000E+01 0.  1.
        -11    1    1    2    0    0  0.89227661651E+02  0.84745306211E+02  0.10921051255E+03  0.16453047918E+03  0.00000000000E+00 0.  1.
         11    1    1    2    0    0  0.37451514628E+02 -0.18323299317E+02  0.97809800941E+01  0.42825539312E+02  0.00000000000E+00 0. -1.
</event>
<event>
 7    1  0.2661133E-009  0.1228276E+03  0.7561462E-02  0.1238504E+00
          1   -1    0    0  501    0  0.00000000000E+00  0.00000000000E+00  0.18277193194E+03  0.18277193194E+03  0.00000000000E+00 0. -1.
         -1   -1    0    0    0  501 -0.00000000000E+00 -0.00000000000E+00 -0.12718497668E+03  0.12718497668E+03  0.00000000000E+00 0.  1.
         25    2    1    2    0    0  0.74279943255E+02  0.37975357985E+02 -0.38499191828E+02  0.15521069238E+03  0.12509409847E+03 0.  0.
          5    1    3    3  502    0  0.39414468992E+02  0.69222888915E+02 -0.63513212404E+02  0.10196425484E+03  0.41800000000E+01 0. -1.
         -5    1    3    3    0  502  0.34865474263E+02 -0.31247530930E+02  0.25014020575E+02  0.53246437535E+02  0.41800000000E+01 0. -1.
        -11    1    1    2    0    0 -0.37105286840E+02 -0.63669735565E+02  0.38613355951E+02  0.83196326819E+02  0.00000000000E+00 0. -1.
         11    1    1    2    0    0 -0.37174656415E+02  0.25694377580E+02  0.55472791144E+02  0.71549889420E+02  0.00000000000E+00 0.  1.
</event>
<event>
 7    1  0.3620478E-009  0.1733014E+03  0.7561462E-02  0.1174448E+00
         -2   -1    0    0    0  501 -0.00000000000E+00  0.00000000000E+00  0.41257570552E+02  0.41257570552E+02  0.00000000000E+00 0.  1.
          2   -1    0    0  501    0  0.00000000000E+00 -0.00000000000E+00 -0.84330771212E+03  0.84330771212E+03  0.00000000000E+00 0. -1.
         25    2    1    2    0    0  0.14128429624E+03  0.52121988652E+02 -0.38827170767E+03  0.43483352845E+03  0.12508926580E+03 0.  0.
          5    1    3    3  502    0  0.83705201342E+02  0.88064894887E+02 -0.29775462925E+03  0.32161666326E+03  0.41800000000E+01 0.  1.
         -5    1    3    3    0  502  0.57579094902E+02 -0.35942906235E+02 -0.90517078416E+02  0.11321686519E+03  0.41800000000E+01 0.  1.
        -11    1    1    2    0    0 -0.75646241511E+02 -0.42119169654E+01 -0.99177817810E+02  0.12480518276E+03  0.00000000000E+00 0.  1.
         11    1    1    2    0    0 -0.65638054733E+02 -0.47910071686E+02 -0.31460061609E+03  0.32492657146E+03  0.00000000000E+00 0. -1.
</event>
<event>
 7    1  0.2661133E-009  0.1579950E+03  0.7561462E-02  0.1190979E+00
         -2   -1    0    0    0  501 -0.00000000000E+00  0.00000000000E+00  0.71856075037E+02  0.71856075037E+02  0.00000000000E+00 0. -1.
          2   -1    0    0  501    0  0.00000000000E+00 -0.00000000000E+00 -0.47186722005E+03  0.47186722005E+03  0.00000000000E+00 0.  1.
         25    2    1    2    0    0 -0.13025464478E+03 -0.55483795952E+02 -0.14517117081E+03  0.23825660394E+03  0.12508723510E+03 0.  0.
          5    1    3    3  502    0 -0.10807787534E+03 -0.25263530497E+02 -0.16243372959E+03  0.19677718877E+03  0.41800000000E+01 0. -1.
         -5    1    3    3    0  502 -0.22176769437E+02 -0.30220265454E+02  0.17262558783E+02  0.41479415166E+02  0.41800000000E+01 0. -1.
        -11    1    1    2    0    0  0.11194606972E+03  0.34026954507E+01 -0.18735204754E+03  0.21827572146E+03  0.00000000000E+00 0. -1.
         11    1    1    2    0    0  0.18308575056E+02  0.52081100501E+02 -0.67487926665E+02  0.87190969690E+02  0.00000000000E+00 0.  1.
</event>
<event>
 7    1  0.2661133E-009  0.8303654E+02  0.7561462E-02  0.1320649E+00
         -1   -1    0    0    0  501 -0.00000000000E+00  0.00000000000E+00  0.59436391494E+02  0.59436391494E+02  0.00000000000E+00 0.  1.
          1   -1    0    0  501    0  0.00000000000E+00 -0.00000000000E+00 -0.20779849866E+03  0.20779849866E+03  0.00000000000E+00 0. -1.
         25    2    1    2    0    0  0.11908946215E+02 -0.16585980925E+02 -0.95417947185E+02  0.15865027184E+03  0.12509359035E+03 0.  0.
          5    1    3    3  502    0 -0.28442519546E+02 -0.68254018893E+01 -0.11042404282E+03  0.11430881270E+03  0.41800000000E+01 0. -1.
         -5    1    3    3    0  502  0.40351465761E+02 -0.97605790356E+01  0.15006095632E+02  0.44341459136E+02  0.41800000000E+01 0. -1.
        -11    1    1    2    0    0  0.10790282487E+02  0.51796064441E+02 -0.29217805777E+02  0.60439578606E+02  0.00000000000E+00 0. -1.
         11    1    1    2    0    0 -0.22699228703E+02 -0.35210083516E+02 -0.23726354204E+02  0.48145039710E+02  0.00000000000E+00 0.  1.
</event>
<event>
 7    1  0.2661133E-009  0.1233514E+03  0.7561462E-02  0.1237668E+00
         -1   -1    0    0    0  501 -0.00000000000E+00  0.00000000000E+00  0.33067877436E+03  0.33067877436E+03  0.00000000000E+00 0.  1.
          1   -1    0    0  501    0  0.00000000000E+00 -0.00000000000E+00 -0.63561542638E+02  0.63561542638E+02  0.00000000000E+00 0. -1.
         25    2    1    2    0    0 -0.90876477843E+02  0.18415961371E+02  0.16195597394E+03  0.22466623385E+03  0.12508995675E+03 0.  0.
          5    1    3    3  502    0 -0.45489843538E+02  0.66127251750E+02  0.12619469623E+03  0.14961521663E+03  0.41800000000E+01 0.  1.
         -5    1    3    3    0  502 -0.45386634305E+02 -0.47711290379E+02  0.35761277702E+02  0.75051017222E+02  0.41800000000E+01 0.  1.
        -11    1    1    2    0    0  0.33630817574E+02 -0.26124626815E+02 -0.72427630043E+01  0.43197055836E+02  0.00000000000E+00 0. -1.
         11    1    1    2    0    0  0.57245660268E+02  0.77086654443E+01  0.11240402079E+03  0.12637702731E+03  0.00000000000E+00 0.  1.
</event>
<event>
 7    1  0.2661133E-009  0.7390067E+02  0.7561462E-02  0.1347309E+00
          1   -1    0    0  501    0  0.00000000000E+00  0.00000000000E+00  0.43094888460E+02  0.43094888460E+02  0.00000000000E+00 0. -1.
         -1   -1    0    0    0  501 -0.00000000000E+00 -0.00000000000E+00 -0.31157733784E+03  0.31157733784E+03  0.00000000000E+00 0.  1.
         25    2    1    2    0    0  0.28165548864E+02  0.22602322086E+02 -0.18516204596E+03  0.22635767617E+03  0.12509456899E+03 0.  0.
          5    1    3    3  502    0  0.52419601206E+02  0.51066331644E+01 -0.16992713609E+02  0.55498801867E+02  0.41800000000E+01 0. -1.
         -5    1    3    3    0  502 -0.24254052342E+02  0.17495688921E+02 -0.16816933235E+03  0.17085887431E+03  0.41800000000E+01 0. -1.
        -11    1    1    2    0    0  0.14799279998E+02  0.25030209239E+01 -0.76652062903E+02  0.78107762415E+02  0.00000000000E+00 0.  1.
         11    1    1    2    0    0 -0.42964828862E+02 -0.25105343009E+02 -0.66683405134E+01  0.50206787708E+02  0.00000000000E+00 0. -1.
</event>
<event>
 7    1  0.2661133E-009  0.1025839E+03  0.7561462E-02  0.1274954E+00
          3   -1    0    0  501    0  0.00000000000E+00  0.00000000000E+00  0.74467790498E+03  0.74467790498E+03  0.00000000000E+00 0. -1.
         -3   -1    0    0    0  501 -0.00000000000E+00 -0.00000000000E+00 -0.38562005064E+02  0.38562005064E+02  0.00000000000E+00 0.  1.
         25    2    1    2    0    0  0.26433270934E+01 -0.78056827047E+02  0.61368469131E+03  0.63115194569E+03  0.12507606798E+03 0.  0.
          5    1    3    3  502    0 -0.16458785745E+02 -0.38524467759E+02  0.56041386763E+03  0.56199306195E+03  0.41800000000E+01 0.  1.
         -5    1    3    3    0  502  0.19102112838E+02 -0.39532359288E+02  0.53270823678E+02  0.69158883747E+02  0.41800000000E+01 0.  1.
        -11    1    1    2    0    0  0.31556062173E+02 -0.22911675378E+01  0.36882353590E+02  0.48593646857E+02  0.00000000000E+00 0.  1.
         11    1    1    2    0    0 -0.34199389266E+02  0.80347994584E+02  0.55548855021E+02  0.10349431750E+03  0.00000000000E+00 0. -1.
</event>
<event>
 7    1  0.2661133E-009  0.1025667E+03  0.7561462E-02  0.1274989E+00
          1   -1    0    0  501    0  0.00000000000E+00  0.00000000000E+00  0.16484780595E+03  0.16484780595E+03  0.00000000000E+00 0. -1.
         -1   -1    0    0    0  501 -0.00000000000E+00 -0.00000000000E+00 -0.73739972625E+02  0.73739972625E+02  0.00000000000E+00 0.  1.
         25    2    1    2    0    0  0.94427179863E+01 -0.34396883351E+01  0.66487023912E+02  0.14201940979E+03  0.12509193431E+03 0.  0.
          5    1    3    3  502    0 -0.96933340453E+01  0.54070013540E+02  0.45793975225E+01  0.55280831857E+02  0.41800000000E+01 0.  1.
         -5    1    3    3    0  502  0.19136052032E+02 -0.57509701875E+02  0.61907626390E+02  0.86738577936E+02  0.41800000000E+01 0.  1.
        -11    1    1    2    0    0 -0.13444489454E+01 -0.42560181329E+02 -0.23266823584E+01  0.42644929693E+02  0.00000000000E+00 0.  1.
         11    1    1    2    0    0 -0.80982690409E+01  0.45999869664E+02  0.26947491773E+02  0.53923439091E+02  0.00000000000E+00 0. -1.
</event>
<event>
 7    1  0.2661133E-009  0.1040892E+03  0.7561462E-02  0.1271925E+00
         -1   -1    0    0    0  501 -0.00000000000E+00  0.00000000000E+00  0.28575636918E+03  0.28575636918E+03  0.00000000000E+00 0.  1.
          1   -1    0    0  501    0  0.00000000000E+00 -0.00000000000E+00 -0.64949743692E+02  0.64949743692E+02  0.00000000000E+00 0. -1.
         25    2    1    2    0    0 -0.22544366121E+01  0.12262654558E+02  0.16137225917E+02  0.12674333010E+03  0.12509199208E+03 0.  0.
          5    1    3    3  502    0  0.25743951897E+02 -0.50504476668E+02  0.63238083567E+01  0.57191924035E+02  0.41800000000E+01 0. -1.
         -5    1    3    3    0  502 -0.27998388509E+02  0.62767131226E+02  0.98134175605E+01  0.69551406065E+02  0.41800000000E+01 0. -1.
        -11    1    1    2    0    0  0.40391549617E+02  0.48488352735E+01  0.14834676290E+03  0.15382376457E+03  0.00000000000E+00 0. -1.
         11    1    1    2    0    0 -0.38137113005E+02 -0.17111489831E+02  0.56322636673E+02  0.70139018203E+02  0.00000000000E+00 0.  1.
</event>
<event>
 7    1  0.2661133E-009  0.8210162E+02  0.7561462E-02  0.1323191E+00
         -2   -1    0    0    0  501 -0.00000000000E+00  0.00000000000E+00  0.80659953779E+02  0.80659953779E+02  0.00000000000E+00 0.  1.
          2   -1    0    0  501    0  0.00000000000E+00 -0.00000000000E+00 -0.15003613660E+03  0.15003613660E+03  0.00000000000E+00 0. -1.
         25    2    1    2    0    0 -0.10081458142E+02 -0.20901809006E+02 -0.28059600975E+02  0.13028624088E+03  0.12509453201E+03 0.  0.
          5    1    3    3  502    0 -0.48477651234E+02 -0.16269760971E+02 -0.60720204300E+02  0.79493417346E+02  0.41800000000E+01 0.  1.
         -5    1    3    3    0  502  0.38396193092E+02 -0.46320480351E+01  0.32660603325E+02  0.50792823534E+02  0.41800000000E+01 0.  1.
        -11    1    1    2    0    0  0.32948071736E+02 -0.11010174807E+02  0.96703092762E+01  0.36059870519E+02  0.00000000000E+00 0.  1.
         11    1    1    2    0    0 -0.22866613594E+02  0.31911983813E+02 -0.50986891118E+02  0.64349978975E+02  0.00000000000E+00 0. -1.
</event>
<event>
 7    1  0.2661133E-009  0.9545214E+02  0.7561462E-02  0.1290161E+00
         -2   -1    0    0    0  501 -0.00000000000E+00  0.00000000000E+00  0.43181208026E+02  0.43181208026E+02  0.00000000000E+00 0.  1.
          2   -1    0    0  501    0  0.00000000000E+00 -0.00000000000E+00 -0.28769908934E+03  0.28769908934E+03  0.00000000000E+00 0. -1.
         25    2    1    2    0    0  0.26822722299E+02  0.36477341435E+01 -0.13354337955E+03  0.18497372035E+03  0.12509467856E+03 0.  0.
          5    1    3    3  502    0 -0.16597012060E+02 -0.44579254868E+02 -0.10215967096E+03  0.11276897421E+03  0.41800000000E+01 0. -1.
         -5    1    3    3    0  502  0.43419734359E+02  0.48226989012E+02 -0.31383708591E+02  0.72204746145E+02  0.41800000000E+01 0. -1.
        -11    1    1    2    0    0 -0.49326586763E+02  0.11938121122E+02 -0.26798883010E+02  0.57391733099E+02  0.00000000000E+00 0.  1.
         11    1    1    2    0    0  0.22503864463E+02 -0.15585855265E+02 -0.84175618757E+02  0.88514843914E+02  0.00000000000E+00 0. -1.
</event>
<event>
 7    1  0.2661133E-009  0.2592986E+03  0.7561462E-02  0.1107565E+00
         -4   -1    0    0    0  501 -0.00000000000E+00  0.00000000000E+00  0.45160208312E+03  0.45160208312E+03  0.00000000000E+00 0.  1.
          4   -1    0    0  501    0  0.00000000000E+00 -0.00000000000E+00 -0.16716860841E+03  0.16716860841E+03  0.00000000000E+00 0. -1.
         25    2    1    2    0    0 -0.24282267110E+03  0.62942399840E+02  0.11834692553E+03  0.30426642964E+03  0.12508984822E+03 0.  0.
          5    1    3    3  502    0 -0.22368535221E+03  0.48630121816E+02  0.53621903062E+02  0.23514422474E+03  0.41800000000E+01 0. -1.
         -5    1    3    3    0  502 -0.19137318881E+02  0.14312278024E+02  0.64725022466E+02  0.69122204894E+02  0.41800000000E+01 0. -1.
        -11    1    1    2    0    0  0.89144381783E+02 -0.67224239876E+02  0.87455355543E+02  0.14182474553E+03  0.00000000000E+00 0.  1.
         11    1    1    2    0    0  0.15367828931E+03  0.42818400360E+01  0.78631193642E+02  0.17267951637E+03  0.00000000000E+00 0. -1.
</event>
<event>
 7    1  0.2661133E-009  0.9993350E+02  0.7561462E-02  0.1280436E+00
          1   -1    0    0  501    0  0.00000000000E+00  0.00000000000E+00  0.43098618765E+03  0.43098618765E+03  0.00000000000E+00 0. -1.
         -1   -1    0    0    0  501 -0.00000000000E+00 -0.00000000000E+00 -0.39891029924E+02  0.39891029924E+02  0.00000000000E+00 0.  1.
         25    2    1    2    0    0  0.68509735377E+02 -0.15738593971E+02  0.17675150143E+03  0.22766155340E+03  0.12508957772E+03 0.  0.
          5    1    3    3  502    0  0.44954698589E+02 -0.35484419899E+02  0.10295400135E+02  0.58339837545E+02  0.41800000000E+01 0.  1.
         -5    1    3    3    0  502  0.23555036788E+02  0.19745825928E+02  0.16645610130E+03  0.16932171585E+03  0.41800000000E+01 0.  1.
        -11    1    1    2    0    0  0.87635699926E+01  0.31381788966E+02  0.92675851750E+02  0.98236603846E+02  0.00000000000E+00 0.  1.
         11    1    1    2    0    0 -0.77273305370E+02 -0.15643194994E+02  0.12166780454E+03  0.14497906033E+03  0.00000000000E+00 0. -1.
</event>
<event>
 7    1  0.2661133E-009  0.1131339E+03  0.7561462E-02  0.1254874E+00
         -1   -1    0    0    0  501 -0.00000000000E+00  0.00000000000E+00  0.62928808633E+03  0.62928808633E+03  0.00000000000E+00 0.  1.
          1   -1    0    0  501    0  0.00000000000E+00 -0.00000000000E+00 -0.29644669947E+02  0.29644669947E+02  0.00000000000E+00 0. -1.
         25    2    1    2    0    0  0.60510060536E+02 -0.56038874879E+02  0.35349574059E+03  0.38393963615E+03  0.12509429511E+03 0.  0.
          5    1    3    3  502    0  0.54038651924E+02  0.20374794067E+02  0.24010054411E+03  0.24698391003E+03  0.41800000000E+01 0. -1.
         -5    1    3    3    0  502  0.64714086113E+01 -0.76413668945E+02  0.11339519648E+03  0.13695572612E+03  0.41800000000E+01 0. -1.
        -11    1    1    2    0    0 -0.55113618645E+02  0.25811705220E+02  0.23431099429E+03  0.24208551615E+03  0.00000000000E+00 0.  1.
         11    1    1    2    0    0 -0.53964418906E+01  0.30227169659E+02  0.11836681515E+02  0.32907603984E+02  0.00000000000E+00 0. -1.
</event>
<event>
 7    1  0.2661133E-009  0.1356330E+03  0.7561462E-02  0.1219329E+00
         -2   -1    0    0    0  501 -0.00000000000E+00  0.00000000000E+00  0.16890413136E+03  0.16890413136E+03  0.00000000000E+00 0. -1.
          2   -1    0    0  501    0  0.00000000000E+00 -0.00000000000E+00 -0.13673586163E+03  0.13673586163E+03  0.00000000000E+00 0.  1.
         25    2    1    2    0    0  0.14587561865E+02 -0.10357413195E+03  0.26248172268E+02  0.16515747327E+03  0.12509047389E+03 0.  0.
          5    1    3    3  502    0  0.32435026862E+02  0.13334448460E+02  0.30615645236E+02  0.46740010874E+02  0.41800000000E+01 0. -1.
         -5    1    3    3    0  502 -0.17847464997E+02 -0.11690858041E+03 -0.43674729682E+01  0.11841746239E+03  0.41800000000E+01 0. -1.
        -11    1    1    2    0    0  0.17191404480E+02  0.66951876126E+02 -0.34593358998E+02  0.77296821355E+02  0.00000000000E+00 0.  1.
         11    1    1    2    0    0 -0.31778966345E+02  0.36622255823E+02  0.40513456460E+02  0.63185698365E+02  0.00000000000E+00 0. -1.
</event>
<event>
 7    1  0.2661133E-009  0.1363113E+03  0.7561462E-02  0.1218380E+00
          2   -1    0    0  501    0  0.00000000000E+00  0.00000000000E+00  0.99028436975E+02  0.99028436975E+02  0.00000000000E+00 0. -1.
         -2   -1    0    0    0  501 -0.00000000000E+00 -0.00000000000E+00 -0.20441783408E+03  0.20441783408E+03  0.00000000000E+00 0.  1.
         25    2    1    2    0    0 -0.55947103752E+02  0.63502485643E+02 -0.25124598530E+02  0.15310603870E+03  0.12509024556E+03 0.  0.
          5    1    3    3  502    0 -0.39308228209E+02 -0.33922027724E+02 -0.75585380063E+01  0.52635013694E+02  0.41800000000E+01 0. -1.
         -5    1    3    3    0  502 -0.16638875543E+02  0.97424513367E+02 -0.17566060524E+02  0.10047102501E+03  0.41800000000E+01 0. -1.
        -11    1    1    2    0    0  0.13800211370E+02 -0.76319357235E+02 -0.29131488102E+02  0.82847653688E+02  0.00000000000E+00 0. -1.
         11    1    1    2    0    0  0.42146892382E+02  0.12816871592E+02 -0.51133310477E+02  0.67492578668E+02  0.00000000000E+00 0.  1.
</event>
<event>
 7    1  0.2661133E-009  0.1493015E+03  0.7561462E-02  0.1201334E+00
         -2   -1    0    0    0  501 -0.00000000000E+00  0.00000000000E+00  0.20559879465E+03  0.20559879465E+03  0.00000000000E+00 0.  1.
          2   -1    0    0  501    0  0.00000000000E+00 -0.00000000000E+00 -0.14995659992E+03  0.14995659992E+03  0.00000000000E+00 0. -1.
         25    2    1    2    0    0 -0.13180923286E+03 -0.46206544455E+02  0.58304844854E+02  0.19635460416E+03  0.12508779725E+03 0.  0.
          5    1    3    3  502    0 -0.95484183384E+02 -0.30597208428E+02  0.97933152872E+02  0.14022051659E+03  0.41800000000E+01 0. -1.
         -5    1    3    3    0  502 -0.36325049478E+02 -0.15609336028E+02 -0.39628308019E+02  0.56134087569E+02  0.41800000000E+01 0. -1.
        -11    1    1    2    0    0  0.52770480037E+02  0.58185068749E+02  0.60645160837E+01  0.78784542545E+02  0.00000000000E+00 0. -1.
         11    1    1    2    0    0  0.79038752825E+02 -0.11978524294E+02 -0.87271662083E+01  0.80416247876E+02  0.00000000000E+00 0.  1.
</event>
<event>
 7    1  0.2661133E-009  0.1131471E+03  0.7561462E-02  0.1254850E+00
         -2   -1    0    0    0  501 -0.00000000000E+00  0.00000000000E+00  0.45099355617E+03  0.45099355617E+03  0.00000000000E+00 0.  1.
          2   -1    0    0  501    0  0.00000000000E+00 -0.00000000000E+00 -0.42496162538E+02  0.42496162538E+02  0.00000000000E+00 0. -1.
         25    2    1    2    0    0 -0.67007163376E+02  0.45684971555E+02  0.18147231045E+03  0.23485413090E+03  0.12508871561E+03 0.  0.
          5    1    3    3  502    0 -0.46467202658E+02 -0.35981816376E+02  0.43799897590E+02  0.73415226359E+02  0.41800000000E+01 0.  1.
         -5    1    3    3    0  502 -0.20539960718E+02  0.81666787930E+02  0.13767241286E+03  0.16143890454E+03  0.41800000000E+01 0.  1.
        -11    1    1    2    0    0  0.50602642231E+02 -0.43070219152E+02  0.23197279263E+03  0.24130281328E+03  0.00000000000E+00 0.  1.
         11    1    1    2    0    0  0.16404521146E+02 -0.26147524028E+01 -0.49477094410E+01  0.17332774529E+02  0.00000000000E+00 0. -1.
</event>
<event>
 7    1  0.2661133E-009  0.8366031E+02  0.7561462E-02  0.1318974E+00
          2   -1    0    0  501    0  0.00000000000E+00  0.00000000000E+00  0.32548652904E+03  0.32548652904E+03  0.00000000000E+00 0. -1.
         -2   -1    0    0    0  501 -0.00000000000E+00 -0.00000000000E+00 -0.39719236427E+02  0.39719236427E+02  0.00000000000E+00 0.  1.
         25    2    1    2    0    0 -0.21888550290E+02 -0.25732160140E+02  0.15960702311E+03  0.20557828260E+03  0.12508707268E+03 0.  0.
          5    1    3    3  502    0 -0.37450648824E+01 -0.57977072697E+02  0.15790426987E+03  0.16830507215E+03  0.41800000000E+01 0.  1.
         -5    1    3    3    0  502 -0.18143485408E+02  0.32244912557E+02  0.17027532382E+01  0.37273210448E+02  0.41800000000E+01 0.  1.
        -11    1    1    2    0    0 -0.21790505254E+02  0.16143794277E+02  0.14680873775E+01  0.27158856630E+02  0.00000000000E+00 0.  1.
         11    1    1    2    0    0  0.43679055544E+02  0.95883658631E+01  0.12469218213E+03  0.13246862624E+03  0.00000000000E+00 0. -1.
</event>
<event>
 7    1  0.2661133E-009  0.1712992E+03  0.7561462E-02  0.1176500E+00
         -2   -1    0    0    0  501 -0.00000000000E+00  0.00000000000E+00  0.22507692235E+03  0.22507692235E+03  0.00000000000E+00 0. -1.
          2   -1    0    0  501    0  0.00000000000E+00 -0.00000000000E+00 -0.17331090946E+03  0.17331090946E+03  0.00000000000E+00 0.  1.
         25    2    1    2    0    0  0.44139910828E+02  0.15875734242E+03  0.38088913453E+02  0.21035728087E+03  0.12508874764E+03 0.  0.
          5    1    3    3  502    0  0.14388797287E+02  0.60186136865E+02  0.78171685008E+02  0.99788242269E+02  0.41800000000E+01 0.  1.
         -5    1    3    3    0  502  0.29751113541E+02  0.98571205556E+02 -0.40082771555E+02  0.11056903860E+03  0.41800000000E+01 0.  1.
        -11    1    1    2    0    0 -0.46262727394E+02 -0.47699521543E+02 -0.24129860217E+02  0.70694656484E+02  0.00000000000E+00 0.  1.
         11    1    1    2    0    0  0.21228165660E+01 -0.11105782088E+03  0.37806959661E+02  0.11733589445E+03  0.00000000000E+00 0. -1.
</event>
<event>
 7    1  0.2661133E-009  0.1427689E+03  0.7561462E-02  0.1209651E+00
          2   -1    0    0  501    0  0.00000000000E+00  0.00000000000E+00  0.17450534254E+04  0.17450534254E+04  0.00000000000E+00 0. -1.
         -2   -1    0    0    0  501 -0.00000000000E+00 -0.00000000000E+00 -0.17920669412E+02  0.17920669412E+02  0.00000000000E+00 0.  1.
         25    2    1    2    0    0  0.71517104774E+02  0.70326955604E+02  0.13973598817E+04  0.14065280936E+04  0.12508422085E+03 0.  0.
          5    1    3    3  502    0  0.22138219364E+02 -0.35023551282E+02  0.27321689133E+03  0.27637237925E+03  0.41800000000E+01 0.  1.
         -5    1    3    3    0  502  0.49378885410E+02  0.10535050689E+03  0.11241429903E+04  0.11301557144E+04  0.41800000000E+01 0.  1.
        -11    1    1    2    0    0  0.27164949648E+01 -0.50582715152E+02  0.76257812251E+02  0.91549136240E+02  0.00000000000E+00 0.  1.
         11    1    1    2    0    0 -0.74233599738E+02 -0.19744240452E+02  0.25351506202E+03  0.26489686490E+03  0.00000000000E+00 0. -1.
</event>
<event>
 7    1  0.2661133E-009  0.2140220E+03  0.7561462E-02  0.1138420E+00
         -1   -1    0    0    0  501 -0.00000000000E+00  0.00000000000E+00  0.16723127815E+03  0.16723127815E+03  0.00000000000E+00 0.  1.
          1   -1    0    0  501    0  0.00000000000E+00 -0.00000000000E+00 -0.49199354142E+03  0.49199354142E+03  0.00000000000E+00 0. -1.
         25    2    1    2    0    0 -0.19206740430E+03 -0.11952880772E+02 -0.37547866235E+03  0.44007397378E+03  0.12509243530E+03 0.  0.
          5    1    3    3  502    0 -0.27993390911E+02  0.36839892210E+02 -0.32398017876E+02  0.56638428253E+02  0.41800000000E+01 0.  1.
         -5    1    3    3    0  502 -0.16407401339E+03 -0.48792772982E+02 -0.34308064447E+03  0.38343554553E+03  0.41800000000E+01 0.  1.
        -11    1    1    2    0    0  0.39640815140E+02  0.38935235406E+02 -0.20679917315E+01  0.55602368393E+02  0.00000000000E+00 0.  1.
         11    1    1    2    0    0  0.15242658916E+03 -0.26982354633E+02  0.52784390814E+02  0.16354847739E+03  0.00000000000E+00 0. -1.
</event>
<event>
 7    1  0.2661133E-009  0.1030904E+03  0.7561462E-02  0.1273928E+00
          2   -1    0    0  501    0  0.00000000000E+00  0.00000000000E+00  0.44324098628E+02  0.44324098628E+02  0.00000000000E+00 0. -1.
         -2   -1    0    0    0  501 -0.00000000000E+00 -0.00000000000E+00 -0.32109100078E+03  0.32109100078E+03  0.00000000000E+00 0.  1.
         25    2    1    2    0    0  0.34481451015E+02 -0.22930485629E+01 -0.10361777440E+03  0.16606453215E+03  0.12508619880E+03 0.  0.
          5    1    3    3  502    0  0.84713738383E+01 -0.51248263651E+02 -0.96956607069E+02  0.11007363334E+03  0.41800000000E+01 0. -1.
         -5    1    3    3    0  502  0.26010077177E+02  0.48955215088E+02 -0.66611673287E+01  0.55990898807E+02  0.41800000000E+01 0. -1.
        -11    1    1    2    0    0 -0.65905614977E+02 -0.53917946586E+01 -0.12357411782E+03  0.14015414418E+03  0.00000000000E+00 0.  1.
         11    1    1    2    0    0  0.31424163962E+02  0.76848432214E+01 -0.49575009933E+02  0.59196423084E+02  0.00000000000E+00 0. -1.
</event>
<event>
 7    1  0.3018336E-009  0.1209852E+03  0.7561462E-02  0.1241481E+00
          2   -1    0    0  501    0  0.00000000000E+00  0.00000000000E+00  0.97042412998E+03  0.97042412998E+03  0.00000000000E+00 0. -1.
         -2   -1    0    0    0  501 -0.00000000000E+00 -0.00000000000E+00 -0.19841963179E+02  0.19841963179E+02  0.00000000000E+00 0.  1.
         25    2    1    2    0    0 -0.59235644995E+02  0.62424665892E+02  0.51299206180E+03  0.53498828756E+03  0.12508361928E+03 0.  0.
          5    1    3    3  502    0 -0.97815322234E+01  0.72123730639E+02  0.13321476836E+03  0.15185900632E+03  0.41800000000E+01 0.  1.
         -5    1    3    3    0  502 -0.49454112772E+02 -0.96990647468E+01  0.37977729344E+03  0.38312928124E+03  0.41800000000E+01 0.  1.
        -11    1    1    2    0    0  0.53196780642E+02  0.25352020863E+01  0.27458088505E+03  0.27969802852E+03  0.00000000000E+00 0. -1.
         11    1    1    2    0    0  0.60388643530E+01 -0.64959867978E+02  0.16300921995E+03  0.17557977708E+03  0.00000000000E+00 0.  1.
</event>
<event>
 7    1  0.2661133E-009  0.7063760E+02  0.7561462E-02  0.1357938E+00
          1   -1    0    0  501    0  0.00000000000E+00  0.00000000000E+00  0.31244292445E+03  0.31244292445E+03  0.00000000000E+00 0. -1.
         -1   -1    0    0    0  501 -0.00000000000E+00 -0.00000000000E+00 -0.38385900231E+02  0.38385900231E+02  0.00000000000E+00 0.  1.
         25    2    1    2    0    0  0.13096236826E+02  0.45483981534E+01  0.15251857577E+03  0.19775177068E+03  0.12510654462E+03 0.  0.
          5    1    3    3  502    0  0.15579139622E+01  0.37892293056E+02 -0.29566285044E+01  0.38268355349E+02  0.41800000000E+01 0.  1.
         -5    1    3    3    0  502  0.11538322864E+02 -0.33343894903E+02  0.15547520427E+03  0.15948341533E+03  0.41800000000E+01 0.  1.
        -11    1    1    2    0    0  0.20564984187E+02  0.17789729201E+02  0.24256520414E+01  0.27299758744E+02  0.00000000000E+00 0.  1.
         11    1    1    2    0    0 -0.33661221014E+02 -0.22338127354E+02  0.11911279641E+03  0.12577729525E+03  0.00000000000E+00 0. -1.
</event>
<event>
 7    1  0.2661133E-009  0.1672584E+03  0.7561462E-02  0.1180737E+00
         -2   -1    0    0    0  501 -0.00000000000E+00  0.00000000000E+00  0.22866375069E+03  0.22866375069E+03  0.00000000000E+00 0.  1.
          2   -1    0    0  501    0  0.00000000000E+00 -0.00000000000E+00 -0.16120230584E+03  0.16120230584E+03  0.00000000000E+00 0. -1.
         25    2    1    2    0    0  0.12833082896E+03  0.64731176413E+02 -0.30214658599E+02  0.19292337769E+03  0.12509027621E+03 0.  0.
          5    1    3    3  502    0  0.70490767101E+02  0.99654675246E+02 -0.11431291196E+02  0.12267089860E+03  0.41800000000E+01 0. -1.
         -5    1    3    3    0  502  0.57840061860E+02 -0.34923498834E+02 -0.18783367402E+02  0.70252479086E+02  0.41800000000E+01 0. -1.
        -11    1    1    2    0    0 -0.49068290115E+02 -0.33886510779E+02 -0.92175654249E+01  0.60340336591E+02  0.00000000000E+00 0. -1.
         11    1    1    2    0    0 -0.79262538846E+02 -0.30844665634E+02  0.10689366888E+03  0.13660234225E+03  0.00000000000E+00 0.  1.
</event>
<event>
 7    1  0.2661133E-009  0.1131775E+03  0.7561462E-02  0.1254796E+00
          1   -1    0    0  501    0  0.00000000000E+00  0.00000000000E+00  0.54304500337E+02  0.54304500337E+02  0.00000000000E+00 0. -1.
         -1   -1    0    0    0  501 -0.00000000000E+00 -0.00000000000E+00 -0.32839576812E+03  0.32839576812E+03  0.00000000000E+00 0.  1.
         25    2    1    2    0    0 -0.60095231838E+02  0.36862523349E+02 -0.17995857114E+03  0.23022034674E+03  0.12508412454E+03 0.  0.
          5    1    3    3  502    0 -0.42931422570E+02  0.83292986472E+02 -0.11337899848E+03  0.14714991789E+03  0.41800000000E+01 0.  1.
         -5    1    3    3    0  502 -0.17163809269E+02 -0.46430463123E+02 -0.66579572658E+02  0.83070428853E+02  0.41800000000E+01 0.  1.
        -11    1    1    2    0    0  0.25079786750E+02  0.76716300777E+01 -0.92133115699E+02  0.95793322418E+02  0.00000000000E+00 0.  1.
         11    1    1    2    0    0  0.35015445088E+02 -0.44534153427E+02 -0.19995809509E+01  0.56686599299E+02  0.00000000000E+00 0. -1.
</event>
<event>
 7    1  0.2661133E-009  0.1286241E+03  0.7561462E-02  0.1229512E+00
         -1   -1    0    0    0  501 -0.00000000000E+00  0.00000000000E+00  0.67788992740E+02  0.67788992740E+02  0.00000000000E+00 0.  1.
          1   -1    0    0  501    0  0.00000000000E+00 -0.00000000000E+00 -0.40432421230E+03  0.40432421230E+03  0.00000000000E+00 0. -1.
         25    2    1    2    0    0 -0.11599605760E+03  0.10247181761E+02 -0.22674347973E+03  0.28393663621E+03  0.12508923882E+03 0.  0.
          5    1    3    3  502    0 -0.63405813392E+02 -0.65765000591E+01 -0.15747009629E+02  0.65795047209E+02  0.41800000000E+01 0.  1.
         -5    1    3    3    0  502 -0.52590244212E+02  0.16823681820E+02 -0.21099647011E+03  0.21814158900E+03  0.41800000000E+01 0.  1.
        -11    1    1    2    0    0  0.11997673125E+03 -0.25134620467E+02 -0.11848418432E+03  0.17048362714E+03  0.00000000000E+00 0. -1.
         11    1    1    2    0    0 -0.39806736474E+01  0.14887438706E+02  0.86924445029E+01  0.17692941682E+02  0.00000000000E+00 0.  1.
</event>
<event>
 7    1  0.2661133E-009  0.1193293E+03  0.7561462E-02  0.1244208E+00
         -1   -1    0    0    0  501 -0.00000000000E+00  0.00000000000E+00  0.18066323767E+03  0.18066323767E+03  0.00000000000E+00 0.  1.
          1   -1    0    0  501    0  0.00000000000E+00 -0.00000000000E+00 -0.11847135044E+03  0.11847135044E+03  0.00000000000E+00 0. -1.
         25    2    1    2    0    0 -0.71172849687E+02 -0.28445345011E+02 -0.30515920332E+02  0.14984216804E+03  0.12508693675E+03 0.  0.
          5    1    3    3  502    0 -0.49853256710E+02 -0.72610973030E+02 -0.44368049924E+02  0.98710165956E+02  0.41800000000E+01 0. -1.
         -5    1    3    3    0  502 -0.21319592977E+02  0.44165628019E+02  0.13852129592E+02  0.51132002086E+02  0.41800000000E+01 0. -1.
        -11    1    1    2    0    0  0.24297688695E+02 -0.21729893227E+02  0.69580475608E+02  0.76837546300E+02  0.00000000000E+00 0.  1.
         11    1    1    2    0    0  0.46875160992E+02  0.50175238238E+02  0.23127331948E+02  0.72454873771E+02  0.00000000000E+00 0. -1.
</event>
<event>
 7    1  0.2661133E-009  0.1052224E+03  0.7561462E-02  0.1269682E+00
         -1   -1    0    0    0  501 -0.00000000000E+00  0.00000000000E+00  0.38158672952E+02  0.38158672952E+02  0.00000000000E+00 0.  1.
          1   -1    0    0  501    0  0.00000000000E+00 -0.00000000000E+00 -0.35991678926E+03  0.35991678926E+03  0.00000000000E+00 0. -1.
         25    2    1    2    0    0  0.18337281154E+02 -0.36671994977E+02 -0.14674484245E+03  0.19713542949E+03  0.12508891909E+03 0.  0.
          5    1    3    3  502    0  0.28344163885E+02 -0.70719315606E+02 -0.14184876822E+03  0.16106880105E+03  0.41800000000E+01 0. -1.
         -5    1    3    3    0  502 -0.10006882731E+02  0.34047320628E+02 -0.48960742242E+01  0.36066628436E+02  0.41800000000E+01 0. -1.
        -11    1    1    2    0    0  0.33693997522E+02 -0.17344083832E+01 -0.52517367765E+02  0.62420890401E+02  0.00000000000E+00 0.  1.
         11    1    1    2    0    0 -0.52031278676E+02  0.38406403361E+02 -0.12249590610E+03  0.13851914233E+03  0.00000000000E+00 0. -1.
</event>
<event>
 7    1  0.2661133E-009  0.1945598E+03  0.7561462E-02  0.1154412E+00
         -1   -1    0    0    0  501 -0.00000000000E+00  0.00000000000E+00  0.16547348062E+03  0.16547348062E+03  0.00000000000E+00 0.  1.
          1   -1    0    0  501    0  0.00000000000E+00 -0.00000000000E+00 -0.28967148770E+03  0.28967148770E+03  0.00000000000E+00 0. -1.
         25    2    1    2    0    0  0.65225863363E+02 -0.16485509235E+03  0.11547955418E+02  0.21728222044E+03  0.12508634346E+03 0.  0.
          5    1    3    3  502    0  0.19882156768E+01 -0.13272104825E+03 -0.28344776329E+02  0.13579296151E+03  0.41800000000E+01 0.  1.
         -5    1    3    3    0  502  0.63237647686E+02 -0.32134044100E+02  0.39892731747E+02  0.81489258932E+02  0.41800000000E+01 0.  1.
        -11    1    1    2    0    0 -0.12522335837E+02  0.35817934799E+00  0.64856738404E+01  0.14106776827E+02  0.00000000000E+00 0.  1.
         11    1    1    2    0    0 -0.52703527525E+02  0.16449691301E+03 -0.14223163634E+03  0.22375597104E+03  0.00000000000E+00 0. -1.
</event>
<event>
 7    1  0.2661133E-009  0.8579323E+02  0.7561462E-02  0.1313371E+00
          1   -1    0    0  501    0  0.00000000000E+00  0.00000000000E+00  0.31265449518E+03  0.31265449518E+03  0.00000000000E+00 0. -1.
         -1   -1    0    0    0  501 -0.00000000000E+00 -0.00000000000E+00 -0.26310949905E+02  0.26310949905E+02  0.00000000000E+00 0.  1.
         25    2    1    2    0    0  0.10337298794E+02  0.66313620307E+01  0.20874232595E+03  0.24366296112E+03  0.12508974886E+03 0.  0.
          5    1    3    3  502    0  0.33215972233E+02  0.56820528411E+02  0.80960512395E+02  0.10442198153E+03  0.41800000000E+01 0.  1.
         -5    1    3    3    0  502 -0.22878673439E+02 -0.50189166380E+02  0.12778181356E+03  0.13924097959E+03  0.41800000000E+01 0.  1.
        -11    1    1    2    0    0  0.19442943385E+02 -0.66249857881E+01  0.13384647098E+02  0.24516673145E+02  0.00000000000E+00 0.  1.
         11    1    1    2    0    0 -0.29780242179E+02 -0.63762426351E-02  0.64216572218E+02  0.70785810812E+02  0.00000000000E+00 0. -1.
</event>
<event>
 7    1  0.2661133E-009  0.1023578E+03  0.7561462E-02  0.1275415E+00
         -2   -1    0    0    0  501 -0.00000000000E+00  0.00000000000E+00  0.15690188693E+02  0.15690188693E+02  0.00000000000E+00 0.  1.
          2   -1    0    0  501    0  0.00000000000E+00 -0.00000000000E+00 -0.97057167109E+03  0.97057167109E+03  0.00000000000E+00 0. -1.
         25    2    1    2    0    0 -0.19719997802E+02  0.46883293569E+02 -0.63809814736E+03  0.65222955952E+03  0.12508889289E+03 0.  0.
          5    1    3    3  502    0  0.16702649666E+02  0.72492085541E+02 -0.53051888083E+03  0.53572552328E+03  0.41800000000E+01 0. -1.
         -5    1    3    3    0  502 -0.36422647468E+02 -0.25608791973E+02 -0.10757926652E+03  0.11650403624E+03  0.41800000000E+01 0. -1.
        -11    1    1    2    0    0 -0.25394499938E+02 -0.10301424758E+02 -0.26947328353E+02  0.38433819541E+02  0.00000000000E+00 0.  1.
         11    1    1    2    0    0  0.45114497740E+02 -0.36581868811E+02 -0.28983600669E+03  0.29559848072E+03  0.00000000000E+00 0. -1.
</event>
<event>
 7    1  0.4490124E-009  0.1160367E+03  0.7561462E-02  0.1249782E+00
          3   -1    0    0  501    0  0.00000000000E+00  0.00000000000E+00  0.12849909845E+03  0.12849909845E+03  0.00000000000E+00 0. -1.
         -3   -1    0    0    0  501 -0.00000000000E+00 -0.00000000000E+00 -0.18119967988E+03  0.18119967988E+03  0.00000000000E+00 0.  1.
         25    2    1    2    0    0 -0.24217360760E+02  0.62049647356E+02 -0.11308571419E+03  0.18130716294E+03  0.12508904540E+03 0.  0.
          5    1    3    3  502    0 -0.72042494412E+02  0.17887568419E+02 -0.44464358645E+02  0.86629311983E+02  0.41800000000E+01 0. -1.
         -5    1    3    3    0  502  0.47825133652E+02  0.44162078937E+02 -0.68621355542E+02  0.94677850954E+02  0.41800000000E+01 0. -1.
        -11    1    1    2    0    0  0.42689088704E+02 -0.21199486805E+02 -0.62577179469E+01  0.48072191223E+02  0.00000000000E+00 0.  1.
         11    1    1    2    0    0 -0.18471727944E+02 -0.40850160551E+02  0.66642850698E+02  0.80319424173E+02  0.00000000000E+00 0. -1.
</event>
<event>
 7    1  0.2661133E-009  0.1148946E+03  0.7561462E-02  0.1251765E+00
          2   -1    0    0  501    0  0.00000000000E+00  0.00000000000E+00  0.12196428586E+04  0.12196428586E+04  0.00000000000E+00 0. -1.
         -2   -1    0    0    0  501 -0.00000000000E+00 -0.00000000000E+00 -0.12385745812E+02  0.12385745812E+02  0.00000000000E+00 0.  1.
         25    2    1    2    0    0  0.22456253551E+02 -0.35912709795E+02  0.87712841202E+03  0.88701476200E+03  0.12508769241E+03 0.  0.
          5    1    3    3  502    0  0.64947009257E+02 -0.52730549429E+02  0.64289043855E+03  0.64832415753E+03  0.41800000000E+01 0. -1.
         -5    1    3    3    0  502 -0.42490755706E+02  0.16817839634E+02  0.23423797347E+03  0.23869060448E+03  0.41800000000E+01 0. -1.
        -11    1    1    2    0    0 -0.57824523197E+02  0.26044397827E+02  0.20121554607E+03  0.21097317868E+03  0.00000000000E+00 0. -1.
         11    1    1    2    0    0  0.35368269646E+02  0.98683119675E+01  0.12891315471E+03  0.13404066374E+03  0.00000000000E+00 0.  1.
</event>
<event>
 7    1  0.2661133E-009  0.1383877E+03  0.7561462E-02  0.1215515E+00
          2   -1    0    0  501    0  0.00000000000E+00  0.00000000000E+00  0.84872337429E+03  0.84872337429E+03  0.00000000000E+00 0.  1.
         -2   -1    0    0    0  501 -0.00000000000E+00 -0.00000000000E+00 -0.32257365408E+02  0.32257365408E+02  0.00000000000E+00 0. -1.
         25    2    1    2    0    0  0.10297080281E+03  0.69466742192E+02  0.40523704026E+03  0.44191756560E+03  0.12508181917E+03 0.  0.
          5    1    3    3  502    0  0.79809758677E+02  0.65870843981E+02  0.40507882002E+03  0.41810870416E+03  0.41800000000E+01 0. -1.
         -5    1    3    3    0  502  0.23161044132E+02  0.35958982110E+01  0.15822023650E+00  0.23808861436E+02  0.41800000000E+01 0. -1.
        -11    1    1    2    0    0 -0.17084784322E+01 -0.45250718663E+02  0.80863972528E+02  0.92679709166E+02  0.00000000000E+00 0. -1.
         11    1    1    2    0    0 -0.10126232438E+03 -0.24216023529E+02  0.33036499610E+03  0.34638346493E+03  0.00000000000E+00 0.  1.
</event>
<event>
 7    1  0.2661133E-009  0.1694307E+03  0.7561462E-02  0.1178443E+00
         -3   -1    0    0    0  501 -0.00000000000E+00  0.00000000000E+00  0.47659176570E+02  0.47659176570E+02  0.00000000000E+00 0.  1.
          3   -1    0    0  501    0  0.00000000000E+00 -0.00000000000E+00 -0.71413090145E+03  0.71413090145E+03  0.00000000000E+00 0. -1.
         25    2    1    2    0    0 -0.12256835002E+03  0.77974901621E+02 -0.42935372668E+03  0.47020827197E+03  0.12509240865E+03 0.  0.
          5    1    3    3  502    0 -0.70538719482E+02 -0.25506434186E+02 -0.18851606002E+03  0.20293365028E+03  0.41800000000E+01 0. -1.
         -5    1    3    3    0  502 -0.52029630543E+02  0.10348133581E+03 -0.24083766666E+03  0.26727462169E+03  0.41800000000E+01 0. -1.
        -11    1    1    2    0    0  0.90080429496E+02 -0.42087746470E+02 -0.21787372622E+03  0.23948866937E+03  0.00000000000E+00 0. -1.
         11    1    1    2    0    0  0.32487920529E+02 -0.35887155151E+02 -0.19244271978E+02  0.52093136679E+02  0.00000000000E+00 0.  1.
</event>
<event>
 7    1  0.2661133E-009  0.1010549E+03  0.7561462E-02  0.1278093E+00
          2   -1    0    0  501    0  0.00000000000E+00  0.00000000000E+00  0.16890700423E+04  0.16890700423E+04  0.00000000000E+00 0. -1.
         -2   -1    0    0    0  501 -0.00000000000E+00 -0.00000000000E+00 -0.12729946331E+02  0.12729946331E+02  0.00000000000E+00 0.  1.
         25    2    1    2    0    0 -0.15588009197E+02 -0.55923155671E+02  0.13796042987E+04  0.13864795841E+04  0.12508889215E+03 0.  0.
          5    1    3    3  502    0 -0.46695754989E+02 -0.36366691037E+02  0.12574737612E+04  0.12588728142E+04  0.41800000000E+01 0. -1.
         -5    1    3    3    0  502  0.31107745792E+02 -0.19556464634E+02  0.12213053742E+03  0.12760676991E+03  0.41800000000E+01 0. -1.
        -11    1    1    2    0    0 -0.23631822385E+02  0.61774769980E+02  0.16558258135E+03  0.17830360760E+03  0.00000000000E+00 0. -1.
         11    1    1    2    0    0  0.39219831581E+02 -0.58516143088E+01  0.13115321595E+03  0.13701679690E+03  0.00000000000E+00 0.  1.
</event>
<event>
 7    1  0.2661133E-009  0.9095164E+02  0.7561462E-02  0.1300563E+00
         -1   -1    0    0    0  501 -0.00000000000E+00  0.00000000000E+00  0.10782548276E+03  0.10782548276E+03  0.00000000000E+00 0.  1.
          1   -1    0    0  501    0  0.00000000000E+00 -0.00000000000E+00 -0.13732585574E+03  0.13732585574E+03  0.00000000000E+00 0. -1.
         25    2    1    2    0    0 -0.29920032540E+02 -0.36290953264E+02 -0.41170354577E+02  0.13984127918E+03  0.12509333968E+03 0.  0.
          5    1    3    3  502    0 -0.38439417758E+02 -0.53414160006E+02 -0.75549488566E+02  0.10027890580E+03  0.41800000000E+01 0. -1.
         -5    1    3    3    0  502  0.85193852177E+01  0.17123206741E+02  0.34379133988E+02  0.39562373379E+02  0.41800000000E+01 0. -1.
        -11    1    1    2    0    0  0.59027047256E+02  0.31438374703E+02  0.26922052154E+02  0.72092722268E+02  0.00000000000E+00 0.  1.
         11    1    1    2    0    0 -0.29107014716E+02  0.48525785610E+01 -0.15252070554E+02  0.33217337048E+02  0.00000000000E+00 0. -1.
</event>
<event>
 7    1  0.2661133E-009  0.9399967E+02  0.7561462E-02  0.1293445E+00
         -1   -1    0    0    0  501 -0.00000000000E+00  0.00000000000E+00  0.82650989530E+02  0.82650989530E+02  0.00000000000E+00 0.  1.
          1   -1    0    0  501    0  0.00000000000E+00 -0.00000000000E+00 -0.17615155587E+03  0.17615155587E+03  0.00000000000E+00 0. -1.
         25    2    1    2    0    0  0.41941518409E+02 -0.47881213767E+01 -0.44960367854E+02  0.13946744276E+03  0.12509083035E+03 0.  0.
          5    1    3    3  502    0 -0.31563501825E+01 -0.53285988807E+02 -0.49548692565E+02  0.72951384391E+02  0.41800000000E+01 0. -1.
         -5    1    3    3    0  502  0.45097868591E+02  0.48497867430E+02  0.45883247114E+01  0.66516058365E+02  0.41800000000E+01 0. -1.
        -11    1    1    2    0    0 -0.38146269386E+02  0.26249064618E+02 -0.73079848353E+02  0.86514828189E+02  0.00000000000E+00 0. -1.
         11    1    1    2    0    0 -0.37952490229E+01 -0.21460943241E+02  0.24539649864E+02  0.32820274456E+02  0.00000000000E+00 0.  1.
</event>
<event>
 7    1  0.2661133E-009  0.1833327E+03  0.7561462E-02  0.1164616E+00
         -3   -1    0    0    0  501 -0.00000000000E+00  0.00000000000E+00  0.55579161237E+03  0.55579161237E+03  0.00000000000E+00 0.  1.
          3   -1    0    0  501    0  0.00000000000E+00 -0.00000000000E+00 -0.65192752707E+02  0.65192752707E+02  0.00000000000E+00 0. -1.
         25    2    1    2    0    0 -0.14113377450E+03  0.66640186128E+02  0.20857870387E+03  0.28898406540E+03  0.12508819942E+03 0.  0.
          5    1    3    3  502    0 -0.43722303091E+02 -0.32287985003E+02  0.28357268086E+02  0.61447219762E+02  0.41800000000E+01 0. -1.
         -5    1    3    3    0  502 -0.97411471408E+02  0.98928171132E+02  0.18022143578E+03  0.22753684563E+03  0.41800000000E+01 0. -1.
        -11    1    1    2    0    0  0.15025426154E+03 -0.59252249470E+02  0.27298725230E+03  0.31718955232E+03  0.00000000000E+00 0.  1.
         11    1    1    2    0    0 -0.91204870432E+01 -0.73879366586E+01  0.90329034839E+01  0.14810747359E+02  0.00000000000E+00 0. -1.
</event>
<event>
 7    1  0.2661133E-009  0.1398308E+03  0.7561462E-02  0.1213557E+00
         -2   -1    0    0    0  501 -0.00000000000E+00  0.00000000000E+00  0.30511311708E+02  0.30511311708E+02  0.00000000000E+00 0.  1.
          2   -1    0    0  501    0  0.00000000000E+00 -0.00000000000E+00 -0.82124667311E+03  0.82124667311E+03  0.00000000000E+00 0. -1.
         25    2    1    2    0    0  0.19989666840E+02  0.11356314105E+03 -0.41966702127E+03  0.45284070402E+03  0.12509244856E+03 0.  0.
          5    1    3    3  502    0 -0.34493611444E+02  0.92210669879E+02 -0.17112613446E+03  0.19746960061E+03  0.41800000000E+01 0. -1.
         -5    1    3    3    0  502  0.54483278284E+02  0.21352471167E+02 -0.24854088681E+03  0.25537110340E+03  0.41800000000E+01 0. -1.
        -11    1    1    2    0    0  0.69911650841E+01 -0.75366116312E+02 -0.10895891533E+03  0.13266865910E+03  0.00000000000E+00 0.  1.
         11    1    1    2    0    0 -0.26980831924E+02 -0.38197024733E+02 -0.26210942480E+03  0.26624862171E+03  0.00000000000E+00 0. -1.
</event>
<event>
 7    1  0.2661133E-009  0.1162185E+03  0.7561462E-02  0.1249469E+00
          2   -1    0    0  501    0  0.00000000000E+00  0.00000000000E+00  0.78007917725E+03  0.78007917725E+03  0.00000000000E+00 0. -1.
         -2   -1    0    0    0  501 -0.00000000000E+00 -0.00000000000E+00 -0.26064946272E+02  0.26064946272E+02  0.00000000000E+00 0.  1.
         25    2    1    2    0    0 -0.29774332349E+02  0.38065130998E+02  0.63776478412E+03  0.65171120724E+03  0.12509241667E+03 0.  0.
          5    1    3    3  502    0 -0.69378396690E+01  0.82507051047E+02  0.35654727984E+03  0.36605871421E+03  0.41800000000E+01 0.  1.
         -5    1    3    3    0  502 -0.22836492680E+02 -0.44441920049E+02  0.28121750429E+03  0.28565249303E+03  0.41800000000E+01 0.  1.
        -11    1    1    2    0    0 -0.27739649433E+02  0.41507131027E+01  0.48608824369E+02  0.56120712544E+02  0.00000000000E+00 0.  1.
         11    1    1    2    0    0  0.57513981783E+02 -0.42215844101E+02  0.67640622483E+02  0.98312203737E+02  0.00000000000E+00 0. -1.
</event>
<event>
 7    1  0.2661133E-009  0.3412962E+03  0.7561462E-02  0.1066245E+00
          2   -1    0    0  501    0  0.00000000000E+00  0.00000000000E+00  0.32104533512E+03  0.32104533512E+03  0.00000000000E+00 0. -1.
         -2   -1    0    0    0  501 -0.00000000000E+00 -0.00000000000E+00 -0.40079559673E+03  0.40079559673E+03  0.00000000000E+00 0.  1.
         25    2    1    2    0    0 -0.31044738212E+03 -0.11087395093E+03  0.50929413411E+02  0.35624709355E+03  0.12509027321E+03 0.  0.
          5    1    3    3  502    0 -0.23480895975E+03 -0.13145485787E+03  0.64069802786E+02  0.27665509080E+03  0.41800000000E+01 0. -1.
         -5    1    3    3    0  502 -0.75638422368E+02  0.20580906938E+02 -0.13140389374E+02  0.79592002749E+02  0.41800000000E+01 0. -1.
        -11    1    1    2    0    0  0.12686406947E+03  0.14709968019E+02 -0.84883533827E+02  0.15334956667E+03  0.00000000000E+00 0.  1.
         11    1    1    2    0    0  0.18358331265E+03  0.96163982910E+02 -0.45796141197E+02  0.21224427163E+03  0.00000000000E+00 0. -1.
</event>
<event>
 7    1  0.2661133E-009  0.1115057E+03  0.7561462E-02  0.1257807E+00
          1   -1    0    0  501    0  0.00000000000E+00  0.00000000000E+00  0.15834084975E+03  0.15834084975E+03  0.00000000000E+00 0. -1.
         -1   -1    0    0    0  501 -0.00000000000E+00 -0.00000000000E+00 -0.14166097862E+03  0.14166097862E+03  0.00000000000E+00 0.  1.
         25    2    1    2    0    0  0.35973011412E+02 -0.90074326123E+02  0.44405071598E+02  0.16439714099E+03  0.12508863980E+03 0.  0.
          5    1    3    3  502    0  0.34650410421E+02 -0.17015676698E+02 -0.37898246334E+02  0.54258028632E+02  0.41800000000E+01 0.  1.
         -5    1    3    3    0  502  0.13226009912E+01 -0.73058649425E+02  0.82303317933E+02  0.11013911236E+03  0.41800000000E+01 0.  1.
        -11    1    1    2    0    0  0.11025761492E+02  0.43312212158E+02  0.24716206873E+02  0.51072556434E+02  0.00000000000E+00 0. -1.
         11    1    1    2    0    0 -0.46998772904E+02  0.46762113964E+02 -0.52441407339E+02  0.84532130936E+02  0.00000000000E+00 0.  1.
</event>
<event>
 7    1  0.2661133E-009  0.1246782E+03  0.7561462E-02  0.1235573E+00
         -2   -1    0    0    0  501 -0.00000000000E+00  0.00000000000E+00  0.18851686105E+03  0.18851686105E+03  0.00000000000E+00 0. -1.
          2   -1    0    0  501    0  0.00000000000E+00 -0.00000000000E+00 -0.13432811898E+03  0.13432811898E+03  0.00000000000E+00 0.  1.
         25    2    1    2    0    0  0.87283217726E+02 -0.59267694614E+02  0.77543084987E+02  0.18108300549E+03  0.12508838925E+03 0.  0.
          5    1    3    3  502    0 -0.27043483111E+01 -0.17062773726E+02 -0.29820352781E+02  0.34715667745E+02  0.41800000000E+01 0.  1.
         -5    1    3    3    0  502  0.89987566037E+02 -0.42204920887E+02  0.10736343777E+03  0.14636733774E+03  0.41800000000E+01 0.  1.
        -11    1    1    2    0    0 -0.17255831947E+02  0.59625992688E+02  0.12145116105E+02  0.63249716090E+02  0.00000000000E+00 0. -1.
         11    1    1    2    0    0 -0.70027385779E+02 -0.35829807472E+00 -0.35499459023E+02  0.78512258453E+02  0.00000000000E+00 0.  1.
</event>
<event>
 7    1  0.2661133E-009  0.1193325E+03  0.7561462E-02  0.1244202E+00
          2   -1    0    0  501    0  0.00000000000E+00  0.00000000000E+00  0.93044860413E+03  0.93044860413E+03  0.00000000000E+00 0. -1.
         -2   -1    0    0    0  501 -0.00000000000E+00 -0.00000000000E+00 -0.15811791730E+02  0.15811791730E+02  0.00000000000E+00 0.  1.
         25    2    1    2    0    0 -0.10862760573E+02 -0.50030131840E+02  0.53190656471E+03  0.54881149386E+03  0.12509375905E+03 0.  0.
          5    1    3    3  502    0  0.31006129473E+02 -0.78301103891E+02  0.34463918289E+03  0.35480428650E+03  0.41800000000E+01 0. -1.
         -5    1    3    3    0  502 -0.41868890046E+02  0.28270972052E+02  0.18726738182E+03  0.19400720736E+03  0.41800000000E+01 0. -1.
        -11    1    1    2    0    0  0.40353442662E+02  0.60185811752E+02  0.21611914277E+03  0.22794344944E+03  0.00000000000E+00 0.  1.
         11    1    1    2    0    0 -0.29490682089E+02 -0.10155679912E+02  0.16661110492E+03  0.16950545256E+03  0.00000000000E+00 0. -1.
</event>
<event>
 7    1  0.2661133E-009  0.1108877E+03  0.7561462E-02  0.1258935E+00
          1   -1    0    0  501    0  0.00000000000E+00  0.00000000000E+00  0.34700380100E+03  0.34700380100E+03  0.00000000000E+00 0. -1.
         -1   -1    0    0    0  501 -0.00000000000E+00 -0.00000000000E+00 -0.53589651458E+02  0.53589651458E+02  0.00000000000E+00 0.  1.
         25    2    1    2    0    0 -0.34858878487E+02  0.67334468767E+02  0.20792885961E+03  0.25422140105E+03  0.12508012632E+03 0.  0.
          5    1    3    3  502    0 -0.54037785330E+02  0.65797711018E+02  0.21655207318E+03  0.23272665042E+03  0.41800000000E+01 0.  1.
         -5    1    3    3    0  502  0.19178906844E+02  0.15367577496E+01 -0.86232135730E+01  0.21494750625E+02  0.41800000000E+01 0.  1.
        -11    1    1    2    0    0  0.54630556615E+02 -0.91544682220E+01  0.53872104029E+02  0.77269046824E+02  0.00000000000E+00 0. -1.
         11    1    1    2    0    0 -0.19771678128E+02 -0.58180000545E+02  0.31613185901E+02  0.69103004582E+02  0.00000000000E+00 0.  1.
</event>
<event>
 7    1  0.2661133E-009  0.2814949E+03  0.7561462E-02  0.1094875E+00
          2   -1    0    0  501    0  0.00000000000E+00  0.00000000000E+00  0.99042123896E+03  0.99042123896E+03  0.00000000000E+00 0. -1.
         -2   -1    0    0    0  501 -0.00000000000E+00 -0.00000000000E+00 -0.88295875597E+02  0.88295875597E+02  0.00000000000E+00 0.  1.
         25    2    1    2    0    0  0.19718892211E+03 -0.17052524209E+03  0.61775393212E+03  0.68207713950E+03  0.12508786670E+03 0.  0.
          5    1    3    3  502    0  0.18467186145E+02  0.20215553134E+02  0.62304098173E+02  0.68183418819E+02  0.41800000000E+01 0. -1.
         -5    1    3    3    0  502  0.17872173596E+03 -0.19074079522E+03  0.55544983394E+03  0.61389372068E+03  0.41800000000E+01 0. -1.
        -11    1    1    2    0    0 -0.93272320804E+02  0.27808024498E+02  0.75666318329E+02  0.12328180638E+03  0.00000000000E+00 0.  1.
         11    1    1    2    0    0 -0.10391660130E+03  0.14271721759E+03  0.20870511292E+03  0.27335816867E+03  0.00000000000E+00 0. -1.
</event>
<event>
 7    1  0.2661133E-009  0.2913029E+03  0.7561462E-02  0.1089671E+00
         -2   -1    0    0    0  501 -0.00000000000E+00  0.00000000000E+00  0.50252119799E+02  0.50252119799E+02  0.00000000000E+00 0. -1.
          2   -1    0    0  501    0  0.00000000000E+00 -0.00000000000E+00 -0.18319433161E+04  0.18319433161E+04  0.00000000000E+00 0.  1.
         25    2    1    2    0    0 -0.64945726096E+02  0.26673967251E+03 -0.11137226396E+04  0.11538605379E+04  0.12509205635E+03 0.  0.
          5    1    3    3  502    0 -0.93614402336E+02  0.17438211036E+03 -0.85512756518E+03  0.87774335763E+03  0.41800000000E+01 0.  1.
         -5    1    3    3    0  502  0.28668676240E+02  0.92357562144E+02 -0.25859507447E+03  0.27611718023E+03  0.41800000000E+01 0.  1.
        -11    1    1    2    0    0 -0.18626120336E+02 -0.95516298443E+02 -0.27266494581E+03  0.28951073953E+03  0.00000000000E+00 0.  1.
         11    1    1    2    0    0  0.83571846432E+02 -0.17122337406E+03 -0.39530361086E+03  0.43882415852E+03  0.00000000000E+00 0. -1.
</event>
<event>
 7    1  0.2661133E-009  0.1926533E+03  0.7561462E-02  0.1156090E+00
         -1   -1    0    0    0  501 -0.00000000000E+00  0.00000000000E+00  0.35325158753E+03  0.35325158753E+03  0.00000000000E+00 0.  1.
          1   -1    0    0  501    0  0.00000000000E+00 -0.00000000000E+00 -0.12171120356E+03  0.12171120356E+03  0.00000000000E+00 0. -1.
         25    2    1    2    0    0  0.16584021924E+03  0.34040963747E+01  0.18243798508E+03  0.27649089529E+03  0.12509608541E+03 0.  0.
          5    1    3    3  502    0 -0.15196780612E+02  0.96274592231E+01 -0.12042821182E+01  0.18508182176E+02  0.41800000000E+01 0.  1.
         -5    1    3    3    0  502  0.18103699986E+03 -0.62233628483E+01  0.18364226720E+03  0.25798271311E+03  0.41800000000E+01 0.  1.
        -11    1    1    2    0    0 -0.23423501617E+02 -0.32722744799E+02 -0.10080382950E+02  0.41485570691E+02  0.00000000000E+00 0. -1.
         11    1    1    2    0    0 -0.14241671763E+03  0.29318648424E+02  0.59182781832E+02  0.15698632511E+03  0.00000000000E+00 0.  1.
</event>
<event>
 7    1  0.2661133E-009  0.2018856E+03  0.7561462E-02  0.1148158E+00
          2   -1    0    0  501    0  0.00000000000E+00  0.00000000000E+00  0.11594407891E+04  0.11594407891E+04  0.00000000000E+00 0.  1.
         -2   -1    0    0    0  501 -0.00000000000E+00 -0.00000000000E+00 -0.41292021177E+02  0.41292021177E+02  0.00000000000E+00 0. -1.
         25    2    1    2    0    0  0.16783987815E+03  0.37225055953E+02  0.81073354055E+03  0.83814808691E+03  0.12508961723E+03 0.  0.
          5    1    3    3  502    0  0.12447824111E+03 -0.33252787875E+02  0.52927982543E+03  0.54475240836E+03  0.41800000000E+01 0.  1.
         -5    1    3    3    0  502  0.43361637037E+02  0.70477843828E+02  0.28145371512E+03  0.29339567855E+03  0.41800000000E+01 0.  1.
        -11    1    1    2    0    0 -0.95488046299E+02 -0.63896612110E+02  0.19299566310E+03  0.22460647809E+03  0.00000000000E+00 0. -1.
         11    1    1    2    0    0 -0.72351831851E+02  0.26671556158E+02  0.11441956428E+03  0.13797824528E+03  0.00000000000E+00 0.  1.
</event>
<event>
 7    1  0.2661133E-009  0.5725557E+02  0.7561462E-02  0.1409724E+00
          2   -1    0    0  501    0  0.00000000000E+00  0.00000000000E+00  0.16701940872E+03  0.16701940872E+03  0.00000000000E+00 0. -1.
         -2   -1    0    0    0  501 -0.00000000000E+00 -0.00000000000E+00 -0.10115410537E+03  0.10115410537E+03  0.00000000000E+00 0.  1.
         25    2    1    2    0    0 -0.35088592526E+02 -0.38712632445E+02  0.88823828498E+02  0.16206757096E+03  0.12508536209E+03 0.  0.
          5    1    3    3  502    0  0.16667179238E+01 -0.17584023644E+02 -0.30430494687E+02  0.35432516747E+02  0.41800000000E+01 0.  1.
         -5    1    3    3    0  502 -0.36755310450E+02 -0.21128608801E+02  0.11925432318E+03  0.12663505421E+03  0.41800000000E+01 0.  1.
        -11    1    1    2    0    0  0.14173918766E+02  0.70953669428E+01 -0.54520647123E+02  0.56778034203E+02  0.00000000000E+00 0.  1.
         11    1    1    2    0    0  0.20914673760E+02  0.31617265502E+02  0.31562121972E+02  0.49327908933E+02  0.00000000000E+00 0. -1.
</event>
<event>
 7    1  0.2661133E-009  0.2878022E+03  0.7561462E-02  0.1091502E+00
          1   -1    0    0  501    0  0.00000000000E+00  0.00000000000E+00  0.18627115215E+04  0.18627115215E+04  0.00000000000E+00 0. -1.
         -1   -1    0    0    0  501 -0.00000000000E+00 -0.00000000000E+00 -0.48775179613E+02  0.48775179613E+02  0.00000000000E+00 0.  1.
         25    2    1    2    0    0  0.17436759138E+03 -0.21251103336E+03  0.74149357906E+03  0.80064058288E+03  0.12509044302E+03 0.  0.
          5    1    3    3  502    0  0.80149814463E+02 -0.14738889616E+02  0.16957156283E+03  0.18818399227E+03  0.41800000000E+01 0.  1.
         -5    1    3    3    0  502  0.94217776916E+02 -0.19777214375E+03  0.57192201623E+03  0.61245659060E+03  0.41800000000E+01 0.  1.
        -11    1    1    2    0    0 -0.10592889700E+03  0.13033637890E+03  0.47288104824E+03  0.50182167019E+03  0.00000000000E+00 0.  1.
         11    1    1    2    0    0 -0.68438694377E+02  0.82174654462E+02  0.59956171463E+03  0.60902444809E+03  0.00000000000E+00 0. -1.
</event>
<event>
 7    1  0.2661133E-009  0.1751706E+03  0.7561462E-02  0.1172561E+00
          2   -1    0    0  501    0  0.00000000000E+00  0.00000000000E+00  0.25034600684E+03  0.25034600684E+03  0.00000000000E+00 0. -1.
         -2   -1    0    0    0  501 -0.00000000000E+00 -0.00000000000E+00 -0.15912252325E+03  0.15912252325E+03  0.00000000000E+00 0.  1.
         25    2    1    2    0    0  0.14868284234E+03 -0.59198369025E+02 -0.34150736417E+00  0.20312281329E+03  0.12509087156E+03 0.  0.
          5    1    3    3  502    0 -0.11089574403E+02 -0.18767566145E+02  0.28117696429E+02  0.35822862140E+02  0.41800000000E+01 0. -1.
         -5    1    3    3    0  502  0.15977241674E+03 -0.40430802880E+02 -0.28459203793E+02  0.16729995115E+03  0.41800000000E+01 0. -1.
        -11    1    1    2    0    0 -0.30213356831E+02  0.26991467077E+02  0.71170457014E+02  0.81893956905E+02  0.00000000000E+00 0. -1.
         11    1    1    2    0    0 -0.11846948551E+03  0.32206901948E+02  0.20394533942E+02  0.12445175991E+03  0.00000000000E+00 0.  1.
</event>
<event>
 7    1  0.2826022E-009  0.7214765E+02  0.7561462E-02  0.1352938E+00
          3   -1    0    0  501    0  0.00000000000E+00  0.00000000000E+00  0.12981399758E+03  0.12981399758E+03  0.00000000000E+00 0. -1.
         -3   -1    0    0    0  501 -0.00000000000E+00 -0.00000000000E+00 -0.10513049220E+03  0.10513049220E+03  0.00000000000E+00 0.  1.
         25    2    1    2    0    0  0.37936121052E+02  0.18223141938E+02  0.20806955751E+02  0.13361109627E+03  0.12509102069E+03 0.  0.
          5    1    3    3  502    0  0.41658220987E+02 -0.10061403074E+02 -0.44683688808E+02  0.62054360469E+02  0.41800000000E+01 0. -1.
         -5    1    3    3    0  502 -0.37220999354E+01  0.28284545012E+02  0.65490644559E+02  0.71556735806E+02  0.41800000000E+01 0. -1.
        -11    1    1    2    0    0 -0.52037693462E+02 -0.37140644700E+01 -0.31237682673E+02  0.60807142957E+02  0.00000000000E+00 0.  1.
         11    1    1    2    0    0  0.14101572410E+02 -0.14509077468E+02  0.35114232302E+02  0.40526250549E+02  0.00000000000E+00 0. -1.
</event>
<event>
 7    1  0.2661133E-009  0.1326169E+03  0.7561462E-02  0.1223624E+00
         -3   -1    0    0    0  501 -0.00000000000E+00  0.00000000000E+00  0.23503706556E+03  0.23503706556E+03  0.00000000000E+00 0.  1.
          3   -1    0    0  501    0  0.00000000000E+00 -0.00000000000E+00 -0.80728888869E+02  0.80728888869E+02  0.00000000000E+00 0. -1.
         25    2    1    2    0    0  0.82058945949E+02  0.41012803392E+01  0.10471911175E+03  0.18268636713E+03  0.12513083256E+03 0.  0.
          5    1    3    3  502    0  0.71873322742E+02  0.55434092825E+02  0.90614444667E+02  0.12832444487E+03  0.41800000000E+01 0. -1.
         -5    1    3    3    0  502  0.10185623206E+02 -0.51332812486E+02  0.14104667082E+02  0.54361922255E+02  0.41800000000E+01 0. -1.
        -11    1    1    2    0    0 -0.61457944369E+01  0.35652043888E+02  0.24841611580E+02  0.43885586342E+02  0.00000000000E+00 0.  1.
         11    1    1    2    0    0 -0.75913151512E+02 -0.39753324227E+02  0.24747453365E+02  0.89194000962E+02  0.00000000000E+00 0. -1.
</event>
<event>
 7    1  0.2661133E-009  0.1771023E+03  0.7561462E-02  0.1170637E+00
         -1   -1    0    0    0  501 -0.00000000000E+00  0.00000000000E+00  0.12760833584E+03  0.12760833584E+03  0.00000000000E+00 0.  1.
          1   -1    0    0  501    0  0.00000000000E+00 -0.00000000000E+00 -0.31055084755E+03  0.31055084755E+03  0.00000000000E+00 0. -1.
         25    2    1    2    0    0  0.59314855477E+02  0.14195463193E+03 -0.25329658351E+02  0.19989636193E+03  0.12509034461E+03 0.  0.
          5    1    3    3  502    0 -0.20903222117E+02  0.74876593593E+02  0.27627800709E+02  0.82608817537E+02  0.41800000000E+01 0.  1.
         -5    1    3    3    0  502  0.80218077594E+02  0.67078038341E+02 -0.52957459060E+02  0.11728754440E+03  0.41800000000E+01 0.  1.
        -11    1    1    2    0    0  0.15649267658E+02 -0.66200683034E+01 -0.41449276855E+02  0.44796957870E+02  0.00000000000E+00 0. -1.
         11    1    1    2    0    0 -0.74964123135E+02 -0.13533456363E+03 -0.11616357650E+03  0.19346586359E+03  0.00000000000E+00 0.  1.
</event>
<event>
 7    1  0.2661133E-009  0.1748516E+03  0.7561462E-02  0.1172881E+00
         -2   -1    0    0    0  501 -0.00000000000E+00  0.00000000000E+00  0.91470912232E+02  0.91470912232E+02  0.00000000000E+00 0.  1.
          2   -1    0    0  501    0  0.00000000000E+00 -0.00000000000E+00 -0.52709762650E+03  0.52709762650E+03  0.00000000000E+00 0. -1.
         25    2    1    2    0    0  0.14087785081E+03  0.54822686533E+02 -0.62556103714E+02  0.20594072724E+03  0.12508485606E+03 0.  0.
          5    1    3    3  502    0  0.50892509200E+02  0.65201527572E+02  0.17882586164E+02  0.84726300393E+02  0.41800000000E+01 0. -1.
         -5    1    3    3    0  502  0.89985341608E+02 -0.10378841039E+02 -0.80438689877E+02  0.12121442684E+03  0.41800000000E+01 0. -1.
        -11    1    1    2    0    0 -0.34756171042E+01 -0.37565102433E+02 -0.85328056404E+02  0.93295734333E+02  0.00000000000E+00 0.  1.
         11    1    1    2    0    0 -0.13740223370E+03 -0.17257584100E+02 -0.28774255415E+03  0.31933207716E+03  0.00000000000E+00 0. -1.
</event>
<event>
 7    1  0.2661133E-009  0.2077417E+03  0.7561462E-02  0.1143367E+00
         -3   -1    0    0    0  501 -0.00000000000E+00  0.00000000000E+00  0.16379803892E+04  0.16379803892E+04  0.00000000000E+00 0.  1.
          3   -1    0    0  501    0  0.00000000000E+00 -0.00000000000E+00 -0.31574747065E+02  0.31574747065E+02  0.00000000000E+00 0. -1.
         25    2    1    2    0    0 -0.28149048435E+02 -0.19443131551E+03  0.97858709554E+03  0.10059224446E+04  0.12510537779E+03 0.  0.
          5    1    3    3  502    0 -0.56727996094E-01  0.10026518814E+02  0.76528061026E+01  0.13288044959E+02  0.41800000000E+01 0. -1.
         -5    1    3    3    0  502 -0.28092320439E+02 -0.20445783432E+03  0.97093428944E+03  0.99263439961E+03  0.41800000000E+01 0. -1.
        -11    1    1    2    0    0  0.51617954350E+01  0.12408421179E+03  0.50666200346E+03  0.52166073410E+03  0.00000000000E+00 0.  1.
         11    1    1    2    0    0  0.22987253000E+02  0.70347103715E+02  0.12115654316E+03  0.14197195762E+03  0.00000000000E+00 0. -1.
</event>
<event>
 7    1  0.2661133E-009  0.1002691E+03  0.7561462E-02  0.1279731E+00
          2   -1    0    0  501    0  0.00000000000E+00  0.00000000000E+00  0.10863080871E+04  0.10863080871E+04  0.00000000000E+00 0. -1.
         -2   -1    0    0    0  501 -0.00000000000E+00 -0.00000000000E+00 -0.13428670369E+02  0.13428670369E+02  0.00000000000E+00 0.  1.
         25    2    1    2    0    0  0.27054437412E+02  0.43487892411E+02  0.65351260938E+03  0.66734237228E+03  0.12507586438E+03 0.  0.
          5    1    3    3  502    0  0.59134923797E+02  0.23129426614E+02  0.15764835898E+03  0.17000702067E+03  0.41800000000E+01 0.  1.
         -5    1    3    3    0  502 -0.32080486385E+02  0.20358465797E+02  0.49586425040E+03  0.49733535161E+03  0.41800000000E+01 0.  1.
        -11    1    1    2    0    0  0.30276184234E+02 -0.82313668215E+01  0.71568623107E+02  0.78143909200E+02  0.00000000000E+00 0.  1.
         11    1    1    2    0    0 -0.57330621646E+02 -0.35256525590E+02  0.34779818422E+03  0.35425047597E+03  0.00000000000E+00 0. -1.
</event>
<event>
 7    1  0.2661133E-009  0.1132639E+03  0.7561462E-02  0.1254642E+00
          3   -1    0    0  501    0  0.00000000000E+00  0.00000000000E+00  0.46637080695E+03  0.46637080695E+03  0.00000000000E+00 0. -1.
         -3   -1    0    0    0  501 -0.00000000000E+00 -0.00000000000E+00 -0.47589792653E+02  0.47589792653E+02  0.00000000000E+00 0.  1.
         25    2    1    2    0    0 -0.13712778572E+00 -0.99519440576E+02  0.17223716214E+03  0.23498401601E+03  0.12509080662E+03 0.  0.
          5    1    3    3  502    0 -0.20204109554E+02 -0.10320389372E+03  0.60651511251E+02  0.12147151081E+03  0.41800000000E+01 0.  1.
         -5    1    3    3    0  502  0.20066981768E+02  0.36844531398E+01  0.11158565089E+03  0.11351250520E+03  0.41800000000E+01 0.  1.
        -11    1    1    2    0    0 -0.41806892829E+01  0.88811278183E+02  0.25124322378E+03  0.26651093560E+03  0.00000000000E+00 0. -1.
         11    1    1    2    0    0  0.43178170686E+01  0.10708162393E+02 -0.46993716346E+01  0.12465647991E+02  0.00000000000E+00 0.  1.
</event>
<event>
 7    1  0.2661133E-009  0.1453555E+03  0.7561462E-02  0.1206299E+00
         -3   -1    0    0    0  501 -0.00000000000E+00  0.00000000000E+00  0.13405953912E+03  0.13405953912E+03  0.00000000000E+00 0.  1.
          3   -1    0    0  501    0  0.00000000000E+00 -0.00000000000E+00 -0.21405158769E+03  0.21405158769E+03  0.00000000000E+00 0. -1.
         25    2    1    2    0    0  0.13443236828E+03  0.21656620905E+02 -0.79022440318E+02  0.20107921635E+03  0.12508890560E+03 0.  0.
          5    1    3    3  502    0  0.22277300410E+02  0.26806793970E+02  0.28764669452E+02  0.45384589071E+02  0.41800000000E+01 0. -1.
         -5    1    3    3    0  502  0.11215506787E+03 -0.51501730650E+01 -0.10778710977E+03  0.15569462728E+03  0.41800000000E+01 0. -1.
        -11    1    1    2    0    0 -0.10307292345E+03 -0.35446390278E+02 -0.14976283460E+02  0.11002164878E+03  0.00000000000E+00 0. -1.
         11    1    1    2    0    0 -0.31359444826E+02  0.13789769373E+02  0.14006675210E+02  0.37010261679E+02  0.00000000000E+00 0.  1.
</event>
<event>
 7    1  0.2661133E-009  0.1314122E+03  0.7561462E-02  0.1225375E+00
         -1   -1    0    0    0  501 -0.00000000000E+00  0.00000000000E+00  0.73283346223E+03  0.73283346223E+03  0.00000000000E+00 0.  1.
          1   -1    0    0  501    0  0.00000000000E+00 -0.00000000000E+00 -0.33737514646E+02  0.33737514646E+02  0.00000000000E+00 0. -1.
         25    2    1    2    0    0 -0.32256215190E+01  0.94366474014E+02  0.22004030357E+03  0.27015003217E+03  0.12509144109E+03 0.  0.
          5    1    3    3  502    0 -0.25367876783E+02  0.10701448019E+03  0.10454180509E+03  0.15179621060E+03  0.41800000000E+01 0.  1.
         -5    1    3    3    0  502  0.22142255264E+02 -0.12648006173E+02  0.11549849848E+03  0.11835382157E+03  0.41800000000E+01 0.  1.
        -11    1    1    2    0    0  0.40440732264E+02 -0.23220683945E+02  0.23218202549E+03  0.23681880405E+03  0.00000000000E+00 0. -1.
         11    1    1    2    0    0 -0.37215110745E+02 -0.71145790068E+02  0.24687361852E+03  0.25960214066E+03  0.00000000000E+00 0.  1.
</event>
<event>
 7    1  0.2661133E-009  0.1174401E+03  0.7561462E-02  0.1247381E+00
          2   -1    0    0  501    0  0.00000000000E+00  0.00000000000E+00  0.31315468790E+03  0.31315468790E+03  0.00000000000E+00 0. -1.
         -2   -1    0    0    0  501 -0.00000000000E+00 -0.00000000000E+00 -0.64877090590E+02  0.64877090590E+02  0.00000000000E+00 0.  1.
         25    2    1    2    0    0  0.18836486429E+01 -0.77149837878E+02  0.68484672767E+02  0.16214747567E+03  0.12508400316E+03 0.  0.
          5    1    3    3  502    0 -0.22491046241E+02 -0.10174442548E+03  0.72542322876E+02  0.12703399657E+03  0.41800000000E+01 0. -1.
         -5    1    3    3    0  502  0.24374694884E+02  0.24594587603E+02 -0.40576501095E+01  0.35113479099E+02  0.41800000000E+01 0. -1.
        -11    1    1    2    0    0 -0.52854480175E+01 -0.84950868986E+01 -0.57219838498E+01  0.11525778123E+02  0.00000000000E+00 0.  1.
         11    1    1    2    0    0  0.34017993746E+01  0.85644924777E+02  0.18551490839E+03  0.20435852469E+03  0.00000000000E+00 0. -1.
</event>
<event>
 7    1  0.2661133E-009  0.5474740E+02  0.7561462E-02  0.1421297E+00
         -2   -1    0    0    0  501 -0.00000000000E+00  0.00000000000E+00  0.86376697899E+02  0.86376697899E+02  0.00000000000E+00 0.  1.
          2   -1    0    0  501    0  0.00000000000E+00 -0.00000000000E+00 -0.17542299832E+03  0.17542299832E+03  0.00000000000E+00 0. -1.
         25    2    1    2    0    0 -0.16241638511E+02  0.48316690691E+02 -0.19072688087E+02  0.13640315811E+03  0.12507502025E+03 0.  0.
          5    1    3    3  502    0 -0.12201954648E+02  0.46589209934E+02 -0.70025332057E+02  0.85090902623E+02  0.41800000000E+01 0.  1.
         -5    1    3    3    0  502 -0.40396838627E+01  0.17274807575E+01  0.50952643970E+02  0.51312255486E+02  0.41800000000E+01 0.  1.
        -11    1    1    2    0    0  0.68454892326E+00 -0.33812091543E+02 -0.90023527020E+02  0.96166322373E+02  0.00000000000E+00 0. -1.
         11    1    1    2    0    0  0.15557089588E+02 -0.14504599149E+02  0.20049914688E+02  0.29230215734E+02  0.00000000000E+00 0.  1.
</event>
<event>
 7    1  0.2661133E-009  0.9841045E+02  0.7561462E-02  0.1283675E+00
          1   -1    0    0  501    0  0.00000000000E+00  0.00000000000E+00  0.61655159701E+03  0.61655159701E+03  0.00000000000E+00 0.  1.
         -1   -1    0    0    0  501 -0.00000000000E+00 -0.00000000000E+00 -0.26715385473E+02  0.26715385473E+02  0.00000000000E+00 0. -1.
         25    2    1    2    0    0  0.53190935601E+01  0.59983371403E+02  0.42434389096E+03  0.44647510204E+03  0.12508389725E+03 0.  0.
          5    1    3    3  502    0  0.30175884595E+02  0.63952708602E+01  0.35021501688E+03  0.35159566828E+03  0.41800000000E+01 0. -1.
         -5    1    3    3    0  502 -0.24856791035E+02  0.53588100543E+02  0.74128874074E+02  0.94879433766E+02  0.41800000000E+01 0. -1.
        -11    1    1    2    0    0  0.54076936679E+01 -0.81896600352E+02  0.12887876164E+03  0.15279408203E+03  0.00000000000E+00 0. -1.
         11    1    1    2    0    0 -0.10726787228E+02  0.21913228948E+02  0.36613558939E+02  0.43997798415E+02  0.00000000000E+00 0.  1.
</event>
<event>
 7    1  0.2661133E-009  0.1190273E+03  0.7561462E-02  0.1244710E+00
         -2   -1    0    0    0  501 -0.00000000000E+00  0.00000000000E+00  0.36458075460E+02  0.36458075460E+02  0.00000000000E+00 0.  1.
          2   -1    0    0  501    0  0.00000000000E+00 -0.00000000000E+00 -0.54453258662E+03  0.54453258662E+03  0.00000000000E+00 0. -1.
         25    2    1    2    0    0  0.55065546786E+02  0.56259307298E+02 -0.35479204786E+03  0.38434568171E+03  0.12508749626E+03 0.  0.
          5    1    3    3  502    0  0.10504380366E+02 -0.37521142254E+02 -0.14538715021E+03  0.15057580805E+03  0.41800000000E+01 0. -1.
         -5    1    3    3    0  502  0.44561166420E+02  0.93780449551E+02 -0.20940489765E+03  0.23376987366E+03  0.41800000000E+01 0. -1.
        -11    1    1    2    0    0 -0.20335124308E+02 -0.56683852813E+02 -0.27587277534E+02  0.66239220497E+02  0.00000000000E+00 0.  1.
         11    1    1    2    0    0 -0.34730422478E+02  0.42454551489E+00 -0.12569518576E+03  0.13040575987E+03  0.00000000000E+00 0. -1.
</event>
<event>
 7    1  0.2661133E-009  0.9984438E+02  0.7561462E-02  0.1280624E+00
          2   -1    0    0  501    0  0.00000000000E+00  0.00000000000E+00  0.28610435520E+02  0.28610435520E+02  0.00000000000E+00 0. -1.
         -2   -1    0    0    0  501 -0.00000000000E+00 -0.00000000000E+00 -0.65438642734E+03  0.65438642734E+03  0.00000000000E+00 0.  1.
         25    2    1    2    0    0 -0.31864447720E+02 -0.27573146181E+02 -0.16457836404E+03  0.21097718322E+03  0.12509881099E+03 0.  0.
          5    1    3    3  502    0 -0.54975755681E+02  0.13103169659E+02 -0.21879834704E+02  0.60747233143E+02  0.41800000000E+01 0. -1.
         -5    1    3    3    0  502  0.23111307962E+02 -0.40676315839E+02 -0.14269852934E+03  0.15022995008E+03  0.41800000000E+01 0. -1.
        -11    1    1    2    0    0  0.98889738155E-01  0.54442977083E+02 -0.32761028902E+03  0.33210322041E+03  0.00000000000E+00 0.  1.
         11    1    1    2    0    0  0.31765557981E+02 -0.26869830903E+02 -0.13358733875E+03  0.13991645922E+03  0.00000000000E+00 0. -1.
</event>
<event>
 7    1  0.2661133E-009  0.1005955E+03  0.7561462E-02  0.1279049E+00
         -1   -1    0    0    0  501 -0.00000000000E+00  0.00000000000E+00  0.76207366930E+02  0.76207366930E+02  0.00000000000E+00 0.  1.
          1   -1    0    0  501    0  0.00000000000E+00 -0.00000000000E+00 -0.17943948866E+03  0.17943948866E+03  0.00000000000E+00 0. -1.
         25    2    1    2    0    0 -0.20911400601E+02 -0.38043293278E+02 -0.26558791370E+02  0.13504664982E+03  0.12509056475E+03 0.  0.
          5    1    3    3  502    0  0.47531520027E+02  0.94040491562E+01 -0.14807133543E+02  0.50837044961E+02  0.41800000000E+01 0.  1.
         -5    1    3    3    0  502 -0.68442920628E+02 -0.47447342434E+02 -0.11751657827E+02  0.84209604855E+02  0.41800000000E+01 0.  1.
        -11    1    1    2    0    0  0.12644580119E+02 -0.12604940248E+02 -0.65751449114E+02  0.68132393072E+02  0.00000000000E+00 0. -1.
         11    1    1    2    0    0  0.82668204824E+01  0.50648233526E+02 -0.10921881251E+02  0.52467812707E+02  0.00000000000E+00 0.  1.
</event>
<event>
 7    1  0.2661133E-009  0.1182701E+03  0.7561462E-02  0.1245978E+00
         -2   -1    0    0    0  501 -0.00000000000E+00  0.00000000000E+00  0.80374874468E+02  0.80374874468E+02  0.00000000000E+00 0.  1.
          2   -1    0    0  501    0  0.00000000000E+00 -0.00000000000E+00 -0.23446962109E+03  0.23446962109E+03  0.00000000000E+00 0. -1.
         25    2    1    2    0    0  0.82877712813E+02  0.10805996808E+02 -0.99560217261E+02  0.18040332543E+03  0.12509051970E+03 0.  0.
          5    1    3    3  502    0  0.10012479466E+03 -0.31028993249E+02 -0.66517593273E+02  0.12421688912E+03  0.41800000000E+01 0.  1.
         -5    1    3    3    0  502 -0.17247081849E+02  0.41834990057E+02 -0.33042623988E+02  0.56186436312E+02  0.41800000000E+01 0.  1.
        -11    1    1    2    0    0 -0.20133846326E+02 -0.11994259096E+02  0.24245953667E+02  0.33720917668E+02  0.00000000000E+00 0.  1.
         11    1    1    2    0    0 -0.62743866486E+02  0.11882622883E+01 -0.78780483023E+02  0.10072025245E+03  0.00000000000E+00 0. -1.
</event>
<event>
 7    1  0.2661133E-009  0.1183148E+03  0.7561462E-02  0.1245903E+00
          1   -1    0    0  501    0  0.00000000000E+00  0.00000000000E+00  0.17446155550E+03  0.17446155550E+03  0.00000000000E+00 0. -1.
         -1   -1    0    0    0  501 -0.00000000000E+00 -0.00000000000E+00 -0.92128197332E+02  0.92128197332E+02  0.00000000000E+00 0.  1.
         25    2    1    2    0    0  0.48969574381E+02 -0.37193528469E+02  0.24495950844E+02  0.14152463664E+03  0.12509114035E+03 0.  0.
          5    1    3    3  502    0 -0.22149741242E+02  0.26242813128E+02 -0.15724433658E+02  0.38000348575E+02  0.41800000000E+01 0.  1.
         -5    1    3    3    0  502  0.71119315623E+02 -0.63436341597E+02  0.40220384501E+02  0.10352428807E+03  0.41800000000E+01 0.  1.
        -11    1    1    2    0    0 -0.48941119829E+02  0.63592235171E+02  0.27444222193E+02  0.84807964932E+02  0.00000000000E+00 0.  1.
         11    1    1    2    0    0 -0.28454552528E-01 -0.26398706702E+02  0.30393185134E+02  0.40257151263E+02  0.00000000000E+00 0. -1.
</event>
<event>
 7    1  0.2661133E-009  0.1095425E+03  0.7561462E-02  0.1261420E+00
          2   -1    0    0  501    0  0.00000000000E+00  0.00000000000E+00  0.28052388599E+03  0.28052388599E+03  0.00000000000E+00 0. -1.
         -2   -1    0    0    0  501 -0.00000000000E+00 -0.00000000000E+00 -0.64688584267E+02  0.64688584267E+02  0.00000000000E+00 0.  1.
         25    2    1    2    0    0  0.71803580759E+02  0.27473631589E+02  0.15257354344E+03  0.21176755222E+03  0.12512495904E+03 0.  0.
          5    1    3    3  502    0  0.22997964941E+02 -0.22339610584E+02 -0.10795093613E+02  0.34087696293E+02  0.41800000000E+01 0.  1.
         -5    1    3    3    0  502  0.48805615818E+02  0.49813242172E+02  0.16336863705E+03  0.17767985593E+03  0.41800000000E+01 0.  1.
        -11    1    1    2    0    0 -0.97892541632E+01  0.30477974422E+02  0.23526390927E+02  0.39726911433E+02  0.00000000000E+00 0.  1.
         11    1    1    2    0    0 -0.62014326596E+02 -0.57951606011E+02  0.39735367358E+02  0.93718006602E+02  0.00000000000E+00 0. -1.
</event>
<event>
 7    1  0.2661133E-009  0.2920259E+03  0.7561462E-02  0.1089296E+00
          3   -1    0    0  501    0  0.00000000000E+00  0.00000000000E+00  0.22021436402E+03  0.22021436402E+03  0.00000000000E+00 0. -1.
         -3   -1    0    0    0  501 -0.00000000000E+00 -0.00000000000E+00 -0.42612794967E+03  0.42612794967E+03  0.00000000000E+00 0.  1.
         25    2    1    2    0    0  0.26447663115E+03 -0.89659089617E+02 -0.38395552950E+02  0.30839687305E+03  0.12509105503E+03 0.  0.
          5    1    3    3  502    0  0.21661537397E+03 -0.28050063101E+02 -0.61445228258E+02  0.22694055335E+03  0.41800000000E+01 0.  1.
         -5    1    3    3    0  502  0.47861257174E+02 -0.61609026517E+02  0.23049675308E+02  0.81456319696E+02  0.41800000000E+01 0.  1.
        -11    1    1    2    0    0 -0.16817437494E+03  0.21643225387E+02 -0.13177924293E+03  0.21474826765E+03  0.00000000000E+00 0.  1.
         11    1    1    2    0    0 -0.96302256209E+02  0.68015864231E+02 -0.35738789768E+02  0.12319717299E+03  0.00000000000E+00 0. -1.
</event>
<event>
 7    1  0.2661133E-009  0.9069133E+02  0.7561462E-02  0.1301186E+00
         -4   -1    0    0    0  501 -0.00000000000E+00  0.00000000000E+00  0.11484659854E+03  0.11484659854E+03  0.00000000000E+00 0.  1.
          4   -1    0    0  501    0  0.00000000000E+00 -0.00000000000E+00 -0.11038970767E+03  0.11038970767E+03  0.00000000000E+00 0. -1.
         25    2    1    2    0    0 -0.24471410061E+02 -0.43312089987E+01 -0.99349482333E+01  0.12792113933E+03  0.12508998925E+03 0.  0.
          5    1    3    3  502    0 -0.51409495559E+02 -0.21960507577E+02 -0.50853462927E+02  0.75688488017E+02  0.41800000000E+01 0.  1.
         -5    1    3    3    0  502  0.26938085498E+02  0.17629298578E+02  0.40918514694E+02  0.52232651315E+02  0.41800000000E+01 0.  1.
        -11    1    1    2    0    0  0.32947442439E+02  0.42491510329E+02 -0.43887430478E+01  0.53947414014E+02  0.00000000000E+00 0. -1.
         11    1    1    2    0    0 -0.84760323780E+01 -0.38160301330E+02  0.18780582151E+02  0.43367752863E+02  0.00000000000E+00 0.  1.
</event>
<event>
 7    1  0.2661133E-009  0.6159966E+02  0.7561462E-02  0.1391239E+00
          3   -1    0    0  501    0  0.00000000000E+00  0.00000000000E+00  0.20850666904E+03  0.20850666904E+03  0.00000000000E+00 0. -1.
         -3   -1    0    0    0  501 -0.00000000000E+00 -0.00000000000E+00 -0.62198136421E+02  0.62198136421E+02  0.00000000000E+00 0.  1.
         25    2    1    2    0    0  0.97319950935E+01 -0.19819694727E+02  0.55628668705E+02  0.13867200044E+03  0.12509133822E+03 0.  0.
          5    1    3    3  502    0 -0.13554200954E+02  0.43038451052E+01 -0.37114825814E+02  0.39965261683E+02  0.41800000000E+01 0. -1.
         -5    1    3    3    0  502  0.23286196048E+02 -0.24123539832E+02  0.92743494519E+02  0.98706738757E+02  0.41800000000E+01 0. -1.
        -11    1    1    2    0    0  0.18964041339E+02 -0.18647666859E+02 -0.30102997331E+01  0.26766252029E+02  0.00000000000E+00 0.  1.
         11    1    1    2    0    0 -0.28696036433E+02  0.38467361585E+02  0.93690163643E+02  0.10526655299E+03  0.00000000000E+00 0. -1.
</event>
<event>
 7    1  0.2661133E-009  0.1158528E+03  0.7561462E-02  0.1250100E+00
          2   -1    0    0  501    0  0.00000000000E+00  0.00000000000E+00  0.44873659358E+03  0.44873659358E+03  0.00000000000E+00 0. -1.
         -2   -1    0    0    0  501 -0.00000000000E+00 -0.00000000000E+00 -0.34923519566E+02  0.34923519566E+02  0.00000000000E+00 0.  1.
         25    2    1    2    0    0  0.30428901069E+02  0.98646835354E+01  0.30895436487E+03  0.33484883354E+03  0.12509081400E+03 0.  0.
          5    1    3    3  502    0  0.77877831387E+02  0.30172102516E+01  0.15487585529E+03  0.17343028320E+03  0.41800000000E+01 0.  1.
         -5    1    3    3    0  502 -0.47448930318E+02  0.68474732838E+01  0.15407850958E+03  0.16141855034E+03  0.41800000000E+01 0.  1.
        -11    1    1    2    0    0  0.36726064740E+02 -0.11106212093E+02  0.35809364681E+02  0.52482972259E+02  0.00000000000E+00 0. -1.
         11    1    1    2    0    0 -0.67154965809E+02  0.12415285571E+01  0.69049344465E+02  0.96328307351E+02  0.00000000000E+00 0.  1.
</event>
<event>
 7    1  0.2661133E-009  0.1053494E+03  0.7561462E-02  0.1269433E+00
         -1   -1    0    0    0  501 -0.00000000000E+00  0.00000000000E+00  0.25115821435E+03  0.25115821435E+03  0.00000000000E+00 0.  1.
          1   -1    0    0  501    0  0.00000000000E+00 -0.00000000000E+00 -0.50228512369E+02  0.50228512369E+02  0.00000000000E+00 0. -1.
         25    2    1    2    0    0  0.28101096539E+02  0.11973094816E+02  0.87294364497E+02  0.15556461153E+03  0.12508803165E+03 0.  0.
          5    1    3    3  502    0  0.17493197764E+02 -0.51780609999E+02  0.69276138098E+02  0.88339681059E+02  0.41800000000E+01 0.  1.
         -5    1    3    3    0  502  0.10607898775E+02  0.63753704815E+02  0.18018226399E+02  0.67224930469E+02  0.41800000000E+01 0.  1.
        -11    1    1    2    0    0 -0.40064816066E+02  0.28335177479E+02  0.66715669835E+02  0.82819396102E+02  0.00000000000E+00 0.  1.
         11    1    1    2    0    0  0.11963719527E+02 -0.40308272295E+02  0.46919667652E+02  0.63002719091E+02  0.00000000000E+00 0. -1.
</event>
<event>
 7    1  0.2661133E-009  0.1390111E+03  0.7561462E-02  0.1214666E+00
          2   -1    0    0  501    0  0.00000000000E+00  0.00000000000E+00  0.14107919973E+04  0.14107919973E+04  0.00000000000E+00 0. -1.
         -2   -1    0    0    0  501 -0.00000000000E+00 -0.00000000000E+00 -0.20453756388E+02  0.20453756388E+02  0.00000000000E+00 0.  1.
         25    2    1    2    0    0  0.95795001115E+02  0.59728335278E+02  0.10176724182E+04  0.10315274826E+04  0.12509052848E+03 0.  0.
          5    1    3    3  502    0  0.97182165986E+02  0.85087007656E+02  0.63651872462E+03  0.64950575937E+03  0.41800000000E+01 0.  1.
         -5    1    3    3    0  502 -0.13871648716E+01 -0.25358672378E+02  0.38115369357E+03  0.38202172323E+03  0.41800000000E+01 0.  1.
        -11    1    1    2    0    0 -0.45652427054E+02 -0.56728719337E+02  0.10752576138E+03  0.12986177673E+03  0.00000000000E+00 0.  1.
         11    1    1    2    0    0 -0.50142574060E+02 -0.29996159415E+01  0.26514006136E+03  0.26985649440E+03  0.00000000000E+00 0. -1.
</event>
<event>
 7    1  0.2661133E-009  0.2338603E+03  0.7561462E-02  0.1123952E+00
         -3   -1    0    0    0  501 -0.00000000000E+00  0.00000000000E+00  0.60453307296E+03  0.60453307296E+03  0.00000000000E+00 0.  1.
          3   -1    0    0  501    0  0.00000000000E+00 -0.00000000000E+00 -0.10373298085E+03  0.10373298085E+03  0.00000000000E+00 0. -1.
         25    2    1    2    0    0  0.62280518381E+02  0.21160531751E+03  0.19368199827E+03  0.31908644250E+03  0.12509103873E+03 0.  0.
          5    1    3    3  502    0  0.91245157006E+02  0.12263842446E+03  0.15506536549E+03  0.21778108689E+03  0.41800000000E+01 0.  1.
         -5    1    3    3    0  502 -0.28964638625E+02  0.88966893049E+02  0.38616632776E+02  0.10130535562E+03  0.41800000000E+01 0.  1.
        -11    1    1    2    0    0 -0.24646018811E+02 -0.58392569295E+02  0.16532382933E+03  0.17705673366E+03  0.00000000000E+00 0.  1.
         11    1    1    2    0    0 -0.37634499570E+02 -0.15321274821E+03  0.14179426451E+03  0.21212287765E+03  0.00000000000E+00 0. -1.
</event>
<event>
 7    1  0.3044894E-009  0.1176050E+03  0.7561462E-02  0.1247101E+00
         -2   -1    0    0    0  501 -0.00000000000E+00  0.00000000000E+00  0.18284986506E+03  0.18284986506E+03  0.00000000000E+00 0.  1.
          2   -1    0    0  501    0  0.00000000000E+00 -0.00000000000E+00 -0.92872888434E+02  0.92872888434E+02  0.00000000000E+00 0. -1.
         25    2    1    2    0    0 -0.68092697042E+02  0.41515565413E+01  0.24414952179E+02  0.14456011747E+03  0.12509071452E+03 0.  0.
          5    1    3    3  502    0  0.63415185454E+01 -0.44815310289E+02  0.31162250633E+02  0.55110662836E+02  0.41800000000E+01 0.  1.
         -5    1    3    3    0  502 -0.74434215587E+02  0.48966866830E+02 -0.67472984534E+01  0.89449454630E+02  0.41800000000E+01 0.  1.
        -11    1    1    2    0    0  0.79914479193E+02 -0.18441647617E+02  0.74295752075E+02  0.11066289861E+03  0.00000000000E+00 0.  1.
         11    1    1    2    0    0 -0.11821782152E+02  0.14290091076E+02 -0.87337276256E+01  0.20499737423E+02  0.00000000000E+00 0. -1.
</event>
<event>
 7    1  0.2661133E-009  0.1159060E+03  0.7561462E-02  0.1250008E+00
         -1   -1    0    0    0  501 -0.00000000000E+00  0.00000000000E+00  0.15700981212E+03  0.15700981212E+03  0.00000000000E+00 0.  1.
          1   -1    0    0  501    0  0.00000000000E+00 -0.00000000000E+00 -0.10849929716E+03  0.10849929716E+03  0.00000000000E+00 0. -1.
         25    2    1    2    0    0  0.41594717295E+02  0.58104820066E+02  0.18291358993E+02  0.14521720270E+03  0.12508865465E+03 0.  0.
          5    1    3    3  502    0  0.53273780329E+02 -0.36749446834E+01  0.51226506137E+02  0.74116315478E+02  0.41800000000E+01 0. -1.
         -5    1    3    3    0  502 -0.11679063034E+02  0.61779764750E+02 -0.32935147144E+02  0.71100887218E+02  0.41800000000E+01 0. -1.
        -11    1    1    2    0    0 -0.32359019141E+02 -0.82784616917E+02  0.15879094552E+02  0.90291442350E+02  0.00000000000E+00 0. -1.
         11    1    1    2    0    0 -0.92356981539E+01  0.24679796850E+02  0.14340061419E+02  0.30000464237E+02  0.00000000000E+00 0.  1.
</event>
<event>
 7    1  0.2661133E-009  0.1114446E+03  0.7561462E-02  0.1257918E+00
         -1   -1    0    0    0  501 -0.00000000000E+00  0.00000000000E+00  0.29836644879E+03  0.29836644879E+03  0.00000000000E+00 0.  1.
          1   -1    0    0  501    0  0.00000000000E+00 -0.00000000000E+00 -0.12827706239E+03  0.12827706239E+03  0.00000000000E+00 0. -1.
         25    2    1    2    0    0  0.62786801454E+02 -0.71669899078E+02 -0.54581001016E+02  0.16644987554E+03  0.12509084109E+03 0.  0.
          5    1    3    3  502    0  0.30322170133E+01  0.15898936761E+02 -0.57937301375E+02  0.60300695027E+02  0.41800000000E+01 0. -1.
         -5    1    3    3    0  502  0.59754584440E+02 -0.87568835839E+02  0.33563003588E+01  0.10614918051E+03  0.41800000000E+01 0. -1.
        -11    1    1    2    0    0 -0.36899449670E+02  0.62563046994E+02  0.22084880341E+03  0.23248633982E+03  0.00000000000E+00 0.  1.
         11    1    1    2    0    0 -0.25887351783E+02  0.91068520841E+01  0.38215840022E+01  0.27707295818E+02  0.00000000000E+00 0. -1.
</event>
<event>
 7    1  0.2661133E-009  0.1462414E+03  0.7561462E-02  0.1205169E+00
         -2   -1    0    0    0  501 -0.00000000000E+00  0.00000000000E+00  0.36693131480E+02  0.36693131480E+02  0.00000000000E+00 0.  1.
          2   -1    0    0  501    0  0.00000000000E+00 -0.00000000000E+00 -0.79560936016E+03  0.79560936016E+03  0.00000000000E+00 0. -1.
         25    2    1    2    0    0 -0.62498886272E+02  0.94914928035E+02 -0.56260547807E+03  0.58743837397E+03  0.12507583662E+03 0.  0.
          5    1    3    3  502    0 -0.84920236523E+02  0.10055792862E+03 -0.53601977561E+03  0.55195834610E+03  0.41800000000E+01 0. -1.
         -5    1    3    3    0  502  0.22421350251E+02 -0.56430005811E+01 -0.26585702462E+02  0.35480027875E+02  0.41800000000E+01 0. -1.
        -11    1    1    2    0    0 -0.13636184897E+02 -0.43107702850E+02 -0.28500538460E+02  0.53446237248E+02  0.00000000000E+00 0.  1.
         11    1    1    2    0    0  0.76135071168E+02 -0.51807225185E+02 -0.16781021215E+03  0.19141788042E+03  0.00000000000E+00 0. -1.
</event>
<event>
 7    1  0.2661133E-009  0.1971389E+03  0.7561462E-02  0.1152176E+00
         -1   -1    0    0    0  501 -0.00000000000E+00  0.00000000000E+00  0.64822197897E+02  0.64822197897E+02  0.00000000000E+00 0.  1.
          1   -1    0    0  501    0  0.00000000000E+00 -0.00000000000E+00 -0.67820937194E+03  0.67820937194E+03  0.00000000000E+00 0. -1.
         25    2    1    2    0    0  0.12365723540E+03 -0.13167988314E+03 -0.30127195911E+03  0.37288461762E+03  0.12508973268E+03 0.  0.
          5    1    3    3  502    0  0.65171917134E+02 -0.13914538072E+03 -0.25531241200E+03  0.29801126804E+03  0.41800000000E+01 0. -1.
         -5    1    3    3    0  502  0.58485318267E+02  0.74654975761E+01 -0.45959547108E+02  0.74873349580E+02  0.41800000000E+01 0. -1.
        -11    1    1    2    0    0 -0.73496586290E+02  0.90342193031E+02 -0.11951805935E+03  0.16687727991E+03  0.00000000000E+00 0.  1.
         11    1    1    2    0    0 -0.50160649111E+02  0.41337690109E+02 -0.19259715559E+03  0.20326967232E+03  0.00000000000E+00 0. -1.
</event>
<event>
 7    1  0.2661133E-009  0.1611326E+03  0.7561462E-02  0.1187424E+00
          2   -1    0    0  501    0  0.00000000000E+00  0.00000000000E+00  0.13079101381E+03  0.13079101381E+03  0.00000000000E+00 0. -1.
         -2   -1    0    0    0  501 -0.00000000000E+00 -0.00000000000E+00 -0.26142982829E+03  0.26142982829E+03  0.00000000000E+00 0.  1.
         25    2    1    2    0    0  0.11891542859E+03  0.69536660890E+02 -0.12915213500E+03  0.22650436565E+03  0.12509087625E+03 0.  0.
          5    1    3    3  502    0  0.12981621925E+03  0.69315367195E+02 -0.14512006984E+03  0.20672246607E+03  0.41800000000E+01 0. -1.
         -5    1    3    3    0  502 -0.10900790661E+02  0.22129369530E+00  0.15967934838E+02  0.19781899579E+02  0.41800000000E+01 0. -1.
        -11    1    1    2    0    0 -0.17427780802E+02 -0.58781181033E+02  0.12896291538E+02  0.62651968227E+02  0.00000000000E+00 0. -1.
         11    1    1    2    0    0 -0.10148764779E+03 -0.10755479857E+02 -0.14382971015E+02  0.10306450822E+03  0.00000000000E+00 0.  1.
</event>
<event>
 7    1  0.2661133E-009  0.7671975E+02  0.7561462E-02  0.1338627E+00
          3   -1    0    0  501    0  0.00000000000E+00  0.00000000000E+00  0.47094630338E+03  0.47094630338E+03  0.00000000000E+00 0. -1.
         -3   -1    0    0    0  501 -0.00000000000E+00 -0.00000000000E+00 -0.45784936525E+02  0.45784936525E+02  0.00000000000E+00 0.  1.
         25    2    1    2    0    0 -0.35132292185E+02 -0.59867917872E+01  0.39375484233E+03  0.41468074551E+03  0.12508846952E+03 0.  0.
          5    1    3    3  502    0 -0.32932924202E+02 -0.50662829309E+02  0.95688197358E+02  0.11324753103E+03  0.41800000000E+01 0.  1.
         -5    1    3    3    0  502 -0.21993679831E+01  0.44676037522E+02  0.29806664497E+03  0.30143321448E+03  0.41800000000E+01 0.  1.
        -11    1    1    2    0    0  0.25048534805E+02  0.19030048062E+02 -0.26941751485E+02  0.41417747382E+02  0.00000000000E+00 0.  1.
         11    1    1    2    0    0  0.10083757380E+02 -0.13043256275E+02  0.58348276017E+02  0.60632747021E+02  0.00000000000E+00 0. -1.
</event>
<event>
 7    1  0.2661133E-009  0.1021737E+03  0.7561462E-02  0.1275790E+00
         -1   -1    0    0    0  501 -0.00000000000E+00  0.00000000000E+00  0.26270355370E+02  0.26270355370E+02  0.00000000000E+00 0.  1.
          1   -1    0    0  501    0  0.00000000000E+00 -0.00000000000E+00 -0.52261406750E+03  0.52261406750E+03  0.00000000000E+00 0. -1.
         25    2    1    2    0    0 -0.19528342211E+01  0.11204007448E+02 -0.17883470981E+03  0.21853556013E+03  0.12508634723E+03 0.  0.
          5    1    3    3  502    0 -0.43961758445E+02 -0.30626023379E+02 -0.13311528779E+03  0.14355396810E+03  0.41800000000E+01 0. -1.
         -5    1    3    3    0  502  0.42008924224E+02  0.41830030827E+02 -0.45719422015E+02  0.74981592026E+02  0.41800000000E+01 0. -1.
        -11    1    1    2    0    0 -0.19248147309E+02  0.35222080784E+02 -0.13564706485E+03  0.14146099233E+03  0.00000000000E+00 0. -1.
         11    1    1    2    0    0  0.21200981530E+02 -0.46426088232E+02 -0.18186193747E+03  0.18888787041E+03  0.00000000000E+00 0.  1.
</event>
<event>
 7    1  0.2661133E-009  0.1959554E+03  0.7561462E-02  0.1153197E+00
         -2   -1    0    0    0  501 -0.00000000000E+00  0.00000000000E+00  0.37805926618E+02  0.37805926618E+02  0.00000000000E+00 0.  1.
          2   -1    0    0  501    0  0.00000000000E+00 -0.00000000000E+00 -0.11619700311E+04  0.11619700311E+04  0.00000000000E+00 0. -1.
         25    2    1    2    0    0  0.16119584707E+03 -0.44880623839E+02 -0.39790638937E+03  0.44941650263E+03  0.12508927461E+03 0.  0.
          5    1    3    3  502    0 -0.96728342560E+01  0.19566798205E+02 -0.20989709690E+02  0.30568997815E+02  0.41800000000E+01 0.  1.
         -5    1    3    3    0  502  0.17086868132E+03 -0.64447422043E+02 -0.37691667968E+03  0.41884750481E+03  0.41800000000E+01 0.  1.
        -11    1    1    2    0    0  0.20091733013E+01  0.22149206196E+02 -0.58889974984E+02  0.62949608943E+02  0.00000000000E+00 0.  1.
         11    1    1    2    0    0 -0.16320502037E+03  0.22731417643E+02 -0.66736774014E+03  0.68740984617E+03  0.00000000000E+00 0. -1.
</event>
<event>
 7    1  0.2661133E-009  0.1016114E+03  0.7561462E-02  0.1276943E+00
          1   -1    0    0  501    0  0.00000000000E+00  0.00000000000E+00  0.72371006118E+03  0.72371006118E+03  0.00000000000E+00 0. -1.
         -1   -1    0    0    0  501 -0.00000000000E+00 -0.00000000000E+00 -0.21288363172E+02  0.21288363172E+02  0.00000000000E+00 0.  1.
         25    2    1    2    0    0  0.14931240602E+02  0.21654072778E+02  0.55818446400E+03  0.57263291248E+03  0.12508683298E+03 0.  0.
          5    1    3    3  502    0  0.64570070704E+02 -0.13011060349E+02  0.32858972707E+03  0.33515259638E+03  0.41800000000E+01 0.  1.
         -5    1    3    3    0  502 -0.49638830102E+02  0.34665133127E+02  0.22959473693E+03  0.23748031610E+03  0.41800000000E+01 0.  1.
        -11    1    1    2    0    0 -0.82651713933E+01 -0.48332790445E+02  0.13455622836E+03  0.14321225605E+03  0.00000000000E+00 0. -1.
         11    1    1    2    0    0 -0.66660692091E+01  0.26678717666E+02  0.96810056392E+01  0.29153255825E+02  0.00000000000E+00 0.  1.
</event>
<event>
 7    1  0.2873162E-009  0.8292076E+02  0.7561462E-02  0.1320961E+00
          1   -1    0    0  501    0  0.00000000000E+00  0.00000000000E+00  0.11795761557E+03  0.11795761557E+03  0.00000000000E+00 0. -1.
         -1   -1    0    0    0  501 -0.00000000000E+00 -0.00000000000E+00 -0.15371107676E+03  0.15371107676E+03  0.00000000000E+00 0.  1.
         25    2    1    2    0    0 -0.57431467898E+02  0.50115891016E+02 -0.42202283246E+02  0.15243932824E+03  0.12508692996E+03 0.  0.
          5    1    3    3  502    0 -0.21881836248E+02  0.10072773397E+02  0.44311810526E+02  0.50609134290E+02  0.41800000000E+01 0.  1.
         -5    1    3    3    0  502 -0.35549631650E+02  0.40043117619E+02 -0.86514093772E+02  0.10183019395E+03  0.41800000000E+01 0.  1.
        -11    1    1    2    0    0  0.38232710503E+02 -0.48813447955E+01 -0.37152866297E+02  0.53534130734E+02  0.00000000000E+00 0.  1.
         11    1    1    2    0    0  0.19198757395E+02 -0.45234546220E+02  0.43601688353E+02  0.65695233347E+02  0.00000000000E+00 0. -1.
</event>
<event>
 7    1  0.2661133E-009  0.1028688E+03  0.7561462E-02  0.1274376E+00
          1   -1    0    0  501    0  0.00000000000E+00  0.00000000000E+00  0.24935858684E+02  0.24935858684E+02  0.00000000000E+00 0. -1.
         -1   -1    0    0    0  501 -0.00000000000E+00 -0.00000000000E+00 -0.81756283628E+03  0.81756283628E+03  0.00000000000E+00 0.  1.
         25    2    1    2    0    0  0.75881226492E+02 -0.45189209119E+02 -0.52382655507E+03  0.54574889205E+03  0.12509024030E+03 0.  0.
          5    1    3    3  502    0  0.77874179235E+02 -0.55883438416E+02 -0.52531145404E+03  0.53400088261E+03  0.41800000000E+01 0. -1.
         -5    1    3    3    0  502 -0.19929527425E+01  0.10694229297E+02  0.14848989664E+01  0.11748009441E+02  0.41800000000E+01 0. -1.
        -11    1    1    2    0    0 -0.56122947983E+01  0.24146389627E+02 -0.83365240738E+01  0.26154227546E+02  0.00000000000E+00 0. -1.
         11    1    1    2    0    0 -0.70268931694E+02  0.21042819492E+02 -0.26046389845E+03  0.27059557537E+03  0.00000000000E+00 0.  1.
</event>
<event>
 7    1  0.2661133E-009  0.1047468E+03  0.7561462E-02  0.1270619E+00
          3   -1    0    0  501    0  0.00000000000E+00  0.00000000000E+00  0.90998571822E+02  0.90998571822E+02  0.00000000000E+00 0.  1.
         -3   -1    0    0    0  501 -0.00000000000E+00 -0.00000000000E+00 -0.18130811638E+03  0.18130811638E+03  0.00000000000E+00 0. -1.
         25    2    1    2    0    0  0.72642312323E+01 -0.48428144487E+02 -0.10206374522E+03  0.16870952425E+03  0.12509133165E+03 0.  0.
          5    1    3    3  502    0  0.47817109397E+02 -0.71062712138E+01  0.30654000760E+01  0.48619380079E+02  0.41800000000E+01 0. -1.
         -5    1    3    3    0  502 -0.40552878164E+02 -0.41321873273E+02 -0.10512914529E+03  0.12009014418E+03  0.41800000000E+01 0. -1.
        -11    1    1    2    0    0 -0.26846785933E+02  0.69290966504E+02  0.80483646226E+01  0.74744659522E+02  0.00000000000E+00 0.  1.
         11    1    1    2    0    0  0.19582554701E+02 -0.20862822018E+02  0.37058360320E+01  0.28852504429E+02  0.00000000000E+00 0. -1.
</event>
<event>
 7    1  0.2661133E-009  0.1165552E+03  0.7561462E-02  0.1248891E+00
          2   -1    0    0  501    0  0.00000000000E+00  0.00000000000E+00  0.18743657287E+04  0.18743657287E+04  0.00000000000E+00 0. -1.
         -2   -1    0    0    0  501 -0.00000000000E+00 -0.00000000000E+00 -0.11310090444E+02  0.11310090444E+02  0.00000000000E+00 0.  1.
         25    2    1    2    0    0 -0.23011256331E+02  0.35940028696E+02  0.15681188115E+04  0.15736789943E+04  0.12509103271E+03 0.  0.
          5    1    3    3  502    0 -0.62903518321E+02 -0.16671561346E+02  0.86507417697E+03  0.86752844198E+03  0.41800000000E+01 0. -1.
         -5    1    3    3    0  502  0.39892261990E+02  0.52611590042E+02  0.70304463454E+03  0.70615055231E+03  0.41800000000E+01 0. -1.
        -11    1    1    2    0    0  0.21385453581E+02 -0.67159157306E+02  0.20202303891E+03  0.21396494639E+03  0.00000000000E+00 0.  1.
         11    1    1    2    0    0  0.16258027504E+01  0.31219128609E+02  0.92913787884E+02  0.98031878512E+02  0.00000000000E+00 0. -1.
</event>
<event>
 7    1  0.2661133E-009  0.1973264E+03  0.7561462E-02  0.1152015E+00
          1   -1    0    0  501    0  0.00000000000E+00  0.00000000000E+00  0.93437480245E+03  0.93437480245E+03  0.00000000000E+00 0. -1.
         -1   -1    0    0    0  501 -0.00000000000E+00 -0.00000000000E+00 -0.48297908921E+02  0.48297908921E+02  0.00000000000E+00 0.  1.
         25    2    1    2    0    0  0.55526826045E+01  0.17820766203E+03  0.54025275259E+03  0.58250200169E+03  0.12508693855E+03 0.  0.
          5    1    3    3  502    0 -0.74739691614E+01  0.19464151515E+03  0.46247491501E+03  0.50183831962E+03  0.41800000000E+01 0. -1.
         -5    1    3    3    0  502  0.13026651766E+02 -0.16433853117E+02  0.77777837587E+02  0.80663682064E+02  0.41800000000E+01 0. -1.
        -11    1    1    2    0    0 -0.76451126619E+00 -0.12845221946E+03  0.14726389549E+03  0.19541548576E+03  0.00000000000E+00 0.  1.
         11    1    1    2    0    0 -0.47881713383E+01 -0.49755442573E+02  0.19856024545E+03  0.20475522392E+03  0.00000000000E+00 0. -1.
</event>
<event>
 7    1  0.2661133E-009  0.1046583E+03  0.7561462E-02  0.1270794E+00
          1   -1    0    0  501    0  0.00000000000E+00  0.00000000000E+00  0.10500998943E+03  0.10500998943E+03  0.00000000000E+00 0. -1.
         -1   -1    0    0    0  501 -0.00000000000E+00 -0.00000000000E+00 -0.12828287287E+03  0.12828287287E+03  0.00000000000E+00 0.  1.
         25    2    1    2    0    0  0.35773337771E+02  0.19871334038E+02 -0.47497987637E+01  0.13169792275E+03  0.12508869117E+03 0.  0.
          5    1    3    3  502    0 -0.35406556359E+02 -0.46764057400E+01 -0.35249577197E+02  0.50353729717E+02  0.41800000000E+01 0.  1.
         -5    1    3    3    0  502  0.71179894130E+02  0.24547739778E+02  0.30499778433E+02  0.81344193038E+02  0.41800000000E+01 0.  1.
        -11    1    1    2    0    0 -0.65212282433E+02 -0.20936636604E+02 -0.21987895266E+02  0.71933664377E+02  0.00000000000E+00 0. -1.
         11    1    1    2    0    0  0.29438944662E+02  0.10653025669E+01  0.34648105957E+01  0.29661275172E+02  0.00000000000E+00 0.  1.
</event>
<event>
 7    1  0.2661133E-009  0.1227296E+03  0.7561462E-02  0.1238661E+00
          1   -1    0    0  501    0  0.00000000000E+00  0.00000000000E+00  0.23813814603E+02  0.23813814603E+02  0.00000000000E+00 0. -1.
         -1   -1    0    0    0  501 -0.00000000000E+00 -0.00000000000E+00 -0.78079501819E+03  0.78079501819E+03  0.00000000000E+00 0.  1.
         25    2    1    2    0    0 -0.78950856039E+02  0.35431945274E+01 -0.33649866479E+03  0.36759650267E+03  0.12510014177E+03 0.  0.
          5    1    3    3  502    0 -0.11316033420E+03  0.26985145225E+00 -0.25141835132E+03  0.27574262245E+03  0.41800000000E+01 0. -1.
         -5    1    3    3    0  502  0.34209478157E+02  0.32733430751E+01 -0.85080313475E+02  0.91853880221E+02  0.41800000000E+01 0. -1.
        -11    1    1    2    0    0  0.82665157530E+02 -0.16351015467E+02 -0.41342291204E+03  0.42192343876E+03  0.00000000000E+00 0.  1.
         11    1    1    2    0    0 -0.37143014918E+01  0.12807820939E+02 -0.70596267621E+01  0.15088891371E+02  0.00000000000E+00 0. -1.
</event>
<event>
 7    1  0.2661133E-009  0.1586255E+03  0.7561462E-02  0.1190257E+00
         -2   -1    0    0    0  501 -0.00000000000E+00  0.00000000000E+00  0.85870042013E+02  0.85870042013E+02  0.00000000000E+00 0. -1.
          2   -1    0    0  501    0  0.00000000000E+00 -0.00000000000E+00 -0.48828771894E+03  0.48828771894E+03  0.00000000000E+00 0.  1.
         25    2    1    2    0    0 -0.42322729708E+02 -0.12848983539E+03 -0.36240800883E+03  0.40655597525E+03  0.12508934767E+03 0.  0.
          5    1    3    3  502    0 -0.29536859812E+02  0.26241510740E+01 -0.17438656627E+03  0.17693913968E+03  0.41800000000E+01 0.  1.
         -5    1    3    3    0  502 -0.12785869896E+02 -0.13111398646E+03 -0.18802144256E+03  0.22961683557E+03  0.41800000000E+01 0.  1.
        -11    1    1    2    0    0  0.34585697056E+02  0.13855544812E+03 -0.50146879378E+02  0.15135551577E+03  0.00000000000E+00 0.  1.
         11    1    1    2    0    0  0.77370326527E+01 -0.10065612729E+02  0.10137211284E+02  0.16246269926E+02  0.00000000000E+00 0. -1.
</event>
<event>
 7    1  0.2661133E-009  0.8455358E+02  0.7561462E-02  0.1316604E+00
         -1   -1    0    0    0  501 -0.00000000000E+00  0.00000000000E+00  0.24628653438E+03  0.24628653438E+03  0.00000000000E+00 0.  1.
          1   -1    0    0  501    0  0.00000000000E+00 -0.00000000000E+00 -0.58458917439E+02  0.58458917439E+02  0.00000000000E+00 0. -1.
         25    2    1    2    0    0 -0.20675104040E+02  0.43333582874E+02  0.82970497466E+02  0.15758955632E+03  0.12508039607E+03 0.  0.
          5    1    3    3  502    0  0.15011262446E+02  0.12218068695E+02  0.10381684402E+03  0.10568835653E+03  0.41800000000E+01 0.  1.
         -5    1    3    3    0  502 -0.35686366486E+02  0.31115514179E+02 -0.20846346556E+02  0.51901199797E+02  0.41800000000E+01 0.  1.
        -11    1    1    2    0    0 -0.22435175681E+02  0.16627543055E+02  0.40525640511E+02  0.49215239863E+02  0.00000000000E+00 0.  1.
         11    1    1    2    0    0  0.43110279721E+02 -0.59961125929E+02  0.64331478967E+02  0.97940655636E+02  0.00000000000E+00 0. -1.
</event>
<event>
 7    1  0.2661133E-009  0.1324204E+03  0.7561462E-02  0.1223908E+00
          2   -1    0    0  501    0  0.00000000000E+00  0.00000000000E+00  0.11601017139E+04  0.11601017139E+04  0.00000000000E+00 0.  1.
         -2   -1    0    0    0  501 -0.00000000000E+00 -0.00000000000E+00 -0.19463761805E+02  0.19463761805E+02  0.00000000000E+00 0. -1.
         25    2    1    2    0    0 -0.79013412529E+02 -0.42213947310E+01  0.88948545646E+03  0.90171645220E+03  0.12508894189E+03 0.  0.
          5    1    3    3  502    0 -0.42293368643E+01  0.53262866798E+02  0.32499922316E+03  0.32938850576E+03  0.41800000000E+01 0. -1.
         -5    1    3    3    0  502 -0.74784075664E+02 -0.57484261529E+02  0.56448623330E+03  0.57232794644E+03  0.41800000000E+01 0. -1.
        -11    1    1    2    0    0  0.92281900930E+02 -0.14980430227E+02  0.17792332385E+03  0.20099022787E+03  0.00000000000E+00 0.  1.
         11    1    1    2    0    0 -0.13268488401E+02  0.19201824958E+02  0.73229171778E+02  0.76858795628E+02  0.00000000000E+00 0. -1.
</event>
<event>
 7    1  0.2661133E-009  0.1357186E+03  0.7561462E-02  0.1219209E+00
         -1   -1    0    0    0  501 -0.00000000000E+00  0.00000000000E+00  0.38091845999E+02  0.38091845999E+02  0.00000000000E+00 0.  1.
          1   -1    0    0  501    0  0.00000000000E+00 -0.00000000000E+00 -0.51851961455E+03  0.51851961455E+03  0.00000000000E+00 0. -1.
         25    2    1    2    0    0  0.10966908475E+01 -0.88399387768E+02 -0.25006992031E+03  0.29325495832E+03  0.12509137079E+03 0.  0.
          5    1    3    3  502    0 -0.37432168085E+02 -0.97055160370E+02 -0.22018362509E+03  0.24355527611E+03  0.41800000000E+01 0.  1.
         -5    1    3    3    0  502  0.38528858932E+02  0.86557726020E+01 -0.29886295214E+02  0.49699682208E+02  0.41800000000E+01 0.  1.
        -11    1    1    2    0    0  0.42616176230E+02  0.65841735828E+02 -0.14380927211E+03  0.16380591991E+03  0.00000000000E+00 0. -1.
         11    1    1    2    0    0 -0.43712867077E+02  0.22557651939E+02 -0.86548576136E+02  0.99550582320E+02  0.00000000000E+00 0.  1.
</event>
<event>
 7    1  0.2661133E-009  0.1187437E+03  0.7561462E-02  0.1245184E+00
          4   -1    0    0  501    0  0.00000000000E+00  0.00000000000E+00  0.74205034746E+02  0.74205034746E+02  0.00000000000E+00 0. -1.
         -4   -1    0    0    0  501 -0.00000000000E+00 -0.00000000000E+00 -0.22126471464E+03  0.22126471464E+03  0.00000000000E+00 0.  1.
         25    2    1    2    0    0 -0.60386104414E+02 -0.41987990673E+01 -0.68887425882E+02  0.15510428264E+03  0.12509096502E+03 0.  0.
          5    1    3    3  502    0  0.35830163274E+02  0.68986845100E+01 -0.97617205175E+00  0.36739866087E+02  0.41800000000E+01 0.  1.
         -5    1    3    3    0  502 -0.96216267688E+02 -0.11097483577E+02 -0.67911253830E+02  0.11836441655E+03  0.41800000000E+01 0.  1.
        -11    1    1    2    0    0 -0.19521427740E+02  0.12957048188E+02  0.57808540356E+01  0.24132747712E+02  0.00000000000E+00 0. -1.
         11    1    1    2    0    0  0.79907532154E+02 -0.87582491203E+01 -0.83953108048E+02  0.11623271903E+03  0.00000000000E+00 0.  1.
</event>
<event>
 7    1  0.2661133E-009  0.9274109E+02  0.7561462E-02  0.1296346E+00
         -1   -1    0    0    0  501 -0.00000000000E+00  0.00000000000E+00  0.30879266340E+03  0.30879266340E+03  0.00000000000E+00 0.  1.
          1   -1    0    0  501    0  0.00000000000E+00 -0.00000000000E+00 -0.41492248993E+02  0.41492248993E+02  0.00000000000E+00 0. -1.
         25    2    1    2    0    0  0.15065023444E+02 -0.15111505086E+02  0.11785572052E+03  0.17319178626E+03  0.12510040549E+03 0.  0.
          5    1    3    3  502    0  0.57907864725E+02 -0.12597727011E+02  0.14429241177E+02  0.61136723202E+02  0.41800000000E+01 0.  1.
         -5    1    3    3    0  502 -0.42842841282E+02 -0.25137780756E+01  0.10342647934E+03  0.11205506306E+03  0.41800000000E+01 0.  1.
        -11    1    1    2    0    0  0.28629010285E+02 -0.12528801444E+02  0.18512050957E+02  0.36321992320E+02  0.00000000000E+00 0. -1.
         11    1    1    2    0    0 -0.43694033728E+02  0.27640306530E+02  0.13093264293E+03  0.14077113381E+03  0.00000000000E+00 0.  1.
</event>
<event>
 7    1  0.2661133E-009  0.1399758E+03  0.7561462E-02  0.1213362E+00
          2   -1    0    0  501    0  0.00000000000E+00  0.00000000000E+00  0.15090629407E+04  0.15090629407E+04  0.00000000000E+00 0. -1.
         -2   -1    0    0    0  501 -0.00000000000E+00 -0.00000000000E+00 -0.19381460679E+02  0.19381460679E+02  0.00000000000E+00 0.  1.
         25    2    1    2    0    0  0.12002703828E+03 -0.75633269490E+00  0.10351744397E+04  0.10495968057E+04  0.12514100814E+03 0.  0.
          5    1    3    3  502    0  0.73841118890E+02 -0.24520781956E+02  0.91868651618E+03  0.92198490606E+03  0.41800000000E+01 0.  1.
         -5    1    3    3    0  502  0.46185919394E+02  0.23764449261E+02  0.11648792355E+03  0.12761189965E+03  0.41800000000E+01 0.  1.
        -11    1    1    2    0    0 -0.88201504763E+02  0.42113003069E+02  0.31908427050E+03  0.33371811781E+03  0.00000000000E+00 0. -1.
         11    1    1    2    0    0 -0.31825533521E+02 -0.41356670375E+02  0.13542276975E+03  0.14512947783E+03  0.00000000000E+00 0.  1.
</event>
<event>
 7    1  0.2661133E-009  0.1173555E+03  0.7561462E-02  0.1247525E+00
          2   -1    0    0  501    0  0.00000000000E+00  0.00000000000E+00  0.38104976449E+03  0.38104976449E+03  0.00000000000E+00 0. -1.
         -2   -1    0    0    0  501 -0.00000000000E+00 -0.00000000000E+00 -0.49165566175E+02  0.49165566175E+02  0.00000000000E+00 0.  1.
         25    2    1    2    0    0  0.61652555192E+02  0.27052854063E+01  0.93133962129E+02  0.16772238030E+03  0.12509398795E+03 0.  0.
          5    1    3    3  502    0  0.88572603591E+02 -0.19439976043E+02  0.30219267874E+02  0.95674946179E+02  0.41800000000E+01 0.  1.
         -5    1    3    3    0  502 -0.26920048399E+02  0.22145261450E+02  0.62914694255E+02  0.72047434123E+02  0.41800000000E+01 0.  1.
        -11    1    1    2    0    0 -0.51875117537E+02  0.39690348074E+02  0.13421827864E+03  0.14926787287E+03  0.00000000000E+00 0.  1.
         11    1    1    2    0    0 -0.97774376548E+01 -0.42395633480E+02  0.10453195755E+03  0.11322507749E+03  0.00000000000E+00 0. -1.
</event>
<event>
 7    1  0.2661133E-009  0.1547440E+03  0.7561462E-02  0.1194762E+00
         -2   -1    0    0    0  501 -0.00000000000E+00  0.00000000000E+00  0.91532430923E+02  0.91532430923E+02  0.00000000000E+00 0.  1.
          2   -1    0    0  501    0  0.00000000000E+00 -0.00000000000E+00 -0.49516329591E+03  0.49516329591E+03  0.00000000000E+00 0. -1.
         25    2    1    2    0    0 -0.75849617459E+02 -0.93086026959E+02 -0.39918655167E+03  0.43522144411E+03  0.12509847918E+03 0.  0.
          5    1    3    3  502    0 -0.33946071458E+02  0.27816838257E+02 -0.80527840538E+02  0.91805869963E+02  0.41800000000E+01 0.  1.
         -5    1    3    3    0  502 -0.41903546001E+02 -0.12090286522E+03 -0.31865871113E+03  0.34341557414E+03  0.41800000000E+01 0.  1.
        -11    1    1    2    0    0  0.35475702227E+02  0.90167908509E+02 -0.32524858647E+02  0.10220882351E+03  0.00000000000E+00 0. -1.
         11    1    1    2    0    0  0.40373915232E+02  0.29181184508E+01  0.28080545325E+02  0.49265459220E+02  0.00000000000E+00 0.  1.
</event>
<event>
 7    1  0.2661133E-009  0.1716292E+03  0.7561462E-02  0.1176159E+00
          2   -1    0    0  501    0  0.00000000000E+00  0.00000000000E+00  0.10077284234E+03  0.10077284234E+03  0.00000000000E+00 0. -1.
         -2   -1    0    0    0  501 -0.00000000000E+00 -0.00000000000E+00 -0.38272362501E+03  0.38272362501E+03  0.00000000000E+00 0.  1.
         25    2    1    2    0    0  0.13077290157E+03 -0.13039965998E+02 -0.24500918301E+03  0.30487629151E+03  0.12509380827E+03 0.  0.
          5    1    3    3  502    0 -0.17752488969E+02  0.51763973705E+01 -0.14787892268E+01  0.19015918908E+02  0.41800000000E+01 0.  1.
         -5    1    3    3    0  502  0.14852539054E+03 -0.18216363369E+02 -0.24353039378E+03  0.28586037260E+03  0.41800000000E+01 0.  1.
        -11    1    1    2    0    0 -0.39533065470E+02  0.60104202988E+02 -0.11524641749E+02  0.72857366476E+02  0.00000000000E+00 0.  1.
         11    1    1    2    0    0 -0.91239836102E+02 -0.47064236990E+02 -0.25416957915E+02  0.10576280937E+03  0.00000000000E+00 0. -1.
</event>
<event>
 7    1  0.2661133E-009  0.1121880E+03  0.7561462E-02  0.1256571E+00
         -2   -1    0    0    0  501 -0.00000000000E+00  0.00000000000E+00  0.43323037497E+02  0.43323037497E+02  0.00000000000E+00 0.  1.
          2   -1    0    0  501    0  0.00000000000E+00 -0.00000000000E+00 -0.56418590907E+03  0.56418590907E+03  0.00000000000E+00 0. -1.
         25    2    1    2    0    0 -0.47419799927E+02 -0.71023562676E+02 -0.42332291813E+03  0.44959825414E+03  0.12507323148E+03 0.  0.
          5    1    3    3  502    0 -0.63209485522E+02 -0.89675989282E+02 -0.23191887944E+03  0.25659513081E+03  0.41800000000E+01 0. -1.
         -5    1    3    3    0  502  0.15789685595E+02  0.18652426606E+02 -0.19140403868E+03  0.19300312333E+03  0.41800000000E+01 0. -1.
        -11    1    1    2    0    0  0.32683138873E+02  0.24105567444E+02 -0.10075111385E+03  0.10862804836E+03  0.00000000000E+00 0.  1.
         11    1    1    2    0    0  0.14736661054E+02  0.46917995233E+02  0.32111604010E+01  0.49282644073E+02  0.00000000000E+00 0. -1.
</event>
<event>
 7    1  0.2661133E-009  0.9425292E+02  0.7561462E-02  0.1292868E+00
         -1   -1    0    0    0  501 -0.00000000000E+00  0.00000000000E+00  0.31918770253E+02  0.31918770253E+02  0.00000000000E+00 0.  1.
          1   -1    0    0  501    0  0.00000000000E+00 -0.00000000000E+00 -0.52959735963E+03  0.52959735963E+03  0.00000000000E+00 0. -1.
         25    2    1    2    0    0 -0.57621139059E+02  0.34227068363E+01 -0.35263363389E+03  0.37858922172E+03  0.12508960176E+03 0.  0.
          5    1    3    3  502    0  0.23980710586E+02  0.17974981699E+02 -0.21262894306E+02  0.36983205940E+02  0.41800000000E+01 0.  1.
         -5    1    3    3    0  502 -0.81601849645E+02 -0.14552274863E+02 -0.33137073958E+03  0.34160601578E+03  0.41800000000E+01 0.  1.
        -11    1    1    2    0    0  0.19020871319E+01 -0.17644060788E+02  0.79768386763E+01  0.19456638245E+02  0.00000000000E+00 0.  1.
         11    1    1    2    0    0  0.55719051927E+02  0.14221353951E+02 -0.15302179417E+03  0.16347026992E+03  0.00000000000E+00 0. -1.
</event>
<event>
 7    1  0.2661133E-009  0.9581941E+02  0.7561462E-02  0.1289341E+00
          3   -1    0    0  501    0  0.00000000000E+00  0.00000000000E+00  0.42114247339E+03  0.42114247339E+03  0.00000000000E+00 0. -1.
         -3   -1    0    0    0  501 -0.00000000000E+00 -0.00000000000E+00 -0.49056742554E+02  0.49056742554E+02  0.00000000000E+00 0.  1.
         25    2    1    2    0    0  0.26895247686E+02 -0.72185776520E+02  0.30121210240E+03  0.33512826275E+03  0.12509229066E+03 0.  0.
          5    1    3    3  502    0 -0.10940880621E+02 -0.33920021458E+02  0.27081531339E+03  0.27318249778E+03  0.41800000000E+01 0.  1.
         -5    1    3    3    0  502  0.37836128307E+02 -0.38265755062E+02  0.30396789002E+02  0.61945764968E+02  0.41800000000E+01 0.  1.
        -11    1    1    2    0    0  0.19628664578E+02  0.53502404587E+01  0.45393165377E+02  0.49743833879E+02  0.00000000000E+00 0. -1.
         11    1    1    2    0    0 -0.46523912264E+02  0.66835536062E+02  0.25480463061E+02  0.85327119316E+02  0.00000000000E+00 0.  1.
</event>
<event>
 7    1  0.2661133E-009  0.9777091E+02  0.7561462E-02  0.1285054E+00
          1   -1    0    0  501    0  0.00000000000E+00  0.00000000000E+00  0.56133620249E+03  0.56133620249E+03  0.00000000000E+00 0. -1.
         -1   -1    0    0    0  501 -0.00000000000E+00 -0.00000000000E+00 -0.34667553595E+02  0.34667553595E+02  0.00000000000E+00 0.  1.
         25    2    1    2    0    0 -0.80148553602E+01  0.14120958008E+02  0.10529961636E+03  0.16431057507E+03  0.12508523699E+03 0.  0.
          5    1    3    3  502    0 -0.53384819931E+02 -0.13877813361E+01  0.59231372098E+01  0.53892679378E+02  0.41800000000E+01 0.  1.
         -5    1    3    3    0  502  0.45369964571E+02  0.15508739345E+02  0.99376479147E+02  0.11041789569E+03  0.41800000000E+01 0.  1.
        -11    1    1    2    0    0 -0.42364702599E+02 -0.51921614998E+01  0.19174824649E+03  0.19644112756E+03  0.00000000000E+00 0.  1.
         11    1    1    2    0    0  0.50379557959E+02 -0.89287965086E+01  0.22962078605E+03  0.23525205345E+03  0.00000000000E+00 0. -1.
</event>
<event>
 7    1  0.2661133E-009  0.1328960E+03  0.7561462E-02  0.1223221E+00
         -1   -1    0    0    0  501 -0.00000000000E+00  0.00000000000E+00  0.66207784671E+02  0.66207784671E+02  0.00000000000E+00 0.  1.
          1   -1    0    0  501    0  0.00000000000E+00 -0.00000000000E+00 -0.36117173891E+03  0.36117173891E+03  0.00000000000E+00 0. -1.
         25    2    1    2    0    0  0.92910412769E+02 -0.28201367135E+02 -0.84360988214E+02  0.17941683435E+03  0.12508382072E+03 0.  0.
          5    1    3    3  502    0  0.82296913453E+02 -0.65581641044E+02 -0.91710661605E+02  0.13964974564E+03  0.41800000000E+01 0.  1.
         -5    1    3    3    0  502  0.10613499316E+02  0.37380273909E+02  0.73496733904E+01  0.39767088706E+02  0.41800000000E+01 0.  1.
        -11    1    1    2    0    0 -0.65602518938E+02  0.53131189791E+02 -0.97497225914E+02  0.12896636337E+03  0.00000000000E+00 0. -1.
         11    1    1    2    0    0 -0.27307893831E+02 -0.24929822656E+02 -0.11310574011E+03  0.11899632586E+03  0.00000000000E+00 0.  1.
</event>
<event>
 7    1  0.2661133E-009  0.2064715E+03  0.7561462E-02  0.1144391E+00
         -2   -1    0    0    0  501 -0.00000000000E+00  0.00000000000E+00  0.27378203370E+03  0.27378203370E+03  0.00000000000E+00 0.  1.
          2   -1    0    0  501    0  0.00000000000E+00 -0.00000000000E+00 -0.17873338433E+03  0.17873338433E+03  0.00000000000E+00 0. -1.
         25    2    1    2    0    0 -0.18696689576E+03  0.26131609462E+01  0.20458923383E+01  0.22497898243E+03  0.12509159899E+03 0.  0.
          5    1    3    3  502    0 -0.40692097046E+02 -0.41388992033E+02  0.36023222222E+02  0.68440049407E+02  0.41800000000E+01 0. -1.
         -5    1    3    3    0  502 -0.14627479872E+03  0.44002152979E+02 -0.33977329884E+02  0.15653893302E+03  0.41800000000E+01 0. -1.
        -11    1    1    2    0    0  0.48743215383E+02 -0.34961480223E+02  0.42900224621E+01  0.60138261015E+02  0.00000000000E+00 0. -1.
         11    1    1    2    0    0  0.13822368038E+03  0.32348319277E+02  0.88712734573E+02  0.16739817458E+03  0.00000000000E+00 0.  1.
</event>
<event>
 7    1  0.2661133E-009  0.8636826E+02  0.7561462E-02  0.1311893E+00
          3   -1    0    0  501    0  0.00000000000E+00  0.00000000000E+00  0.25464376520E+03  0.25464376520E+03  0.00000000000E+00 0. -1.
         -3   -1    0    0    0  501 -0.00000000000E+00 -0.00000000000E+00 -0.89307595046E+02  0.89307595046E+02  0.00000000000E+00 0.  1.
         25    2    1    2    0    0 -0.25255315033E+01 -0.17700233387E+02 -0.28940441858E+02  0.12963011863E+03  0.12508693741E+03 0.  0.
          5    1    3    3  502    0 -0.21736919213E+02  0.34805206786E+02  0.27895373314E+02  0.49794782143E+02  0.41800000000E+01 0.  1.
         -5    1    3    3    0  502  0.19211387710E+02 -0.52505440173E+02 -0.56835815173E+02  0.79835336486E+02  0.41800000000E+01 0.  1.
        -11    1    1    2    0    0 -0.29318931465E+02  0.29377934975E+02  0.44910220518E+02  0.61152193032E+02  0.00000000000E+00 0.  1.
         11    1    1    2    0    0  0.31844462969E+02 -0.11677701588E+02  0.14936639150E+03  0.15316904859E+03  0.00000000000E+00 0. -1.
</event>
<event>
 6    1  0.2661133E-009  0.1059236E+03  0.7561462E-02  0.1268311E+00
         -2   -1    0    0    0  501 -0.00000000000E+00  0.00000000000E+00  0.34294886263E+02  0.34294886263E+02  0.00000000000E+00 0.  1.
          2   -1    0    0  501    0  0.00000000000E+00 -0.00000000000E+00 -0.93548646426E+03  0.93548646426E+03  0.00000000000E+00 0. -1.
          5    1    1    2  502    0 -0.89854217663E+02  0.12717303368E+02 -0.65162865259E+03  0.65793075890E+03  0.41800000000E+01 0.  1.
         -5    1    1    2    0  502  0.36426487995E+02  0.33797338230E+02 -0.23255505556E+03  0.23784128188E+03  0.41800000000E+01 0.  1.
        -11    1    1    2    0    0  0.39033353347E+02 -0.37638231581E+02 -0.78848308669E+01  0.54794248857E+02  0.00000000000E+00 0.  1.
         11    1    1    2    0    0  0.14394376321E+02 -0.88764100177E+01 -0.91230389796E+01  0.19215060882E+02  0.00000000000E+00 0. -1.
</event>
<event>
 7    1  0.2661133E-009  0.9804795E+02  0.7561462E-02  0.1284455E+00
         -2   -1    0    0    0  501 -0.00000000000E+00  0.00000000000E+00  0.32262171149E+02  0.32262171149E+02  0.00000000000E+00 0.  1.
          2   -1    0    0  501    0  0.00000000000E+00 -0.00000000000E+00 -0.55313529908E+03  0.55313529908E+03  0.00000000000E+00 0. -1.
         25    2    1    2    0    0  0.43877111784E+02  0.26269186870E+02 -0.16012907998E+03  0.20953036087E+03  0.12508548577E+03 0.  0.
          5    1    3    3  502    0  0.75058690524E+02  0.78700568972E+01 -0.15536332210E+03  0.17277435884E+03  0.41800000000E+01 0. -1.
         -5    1    3    3    0  502 -0.31181578740E+02  0.18399129973E+02 -0.47657578810E+01  0.36756002022E+02  0.41800000000E+01 0. -1.
        -11    1    1    2    0    0 -0.57439843252E+02 -0.34806504640E+01 -0.33121983390E+03  0.33618154157E+03  0.00000000000E+00 0. -1.
         11    1    1    2    0    0  0.13562731468E+02 -0.22788536406E+02 -0.29524214047E+02  0.39685567799E+02  0.00000000000E+00 0.  1.
</event>
<event>
 7    1  0.2661133E-009  0.7984411E+02  0.7561462E-02  0.1329494E+00
          2   -1    0    0  501    0  0.00000000000E+00  0.00000000000E+00  0.56879870362E+03  0.56879870362E+03  0.00000000000E+00 0. -1.
         -2   -1    0    0    0  501 -0.00000000000E+00 -0.00000000000E+00 -0.24255018870E+02  0.24255018870E+02  0.00000000000E+00 0.  1.
         25    2    1    2    0    0  0.31044750197E+02  0.59641076821E+01  0.39186902081E+03  0.41256411568E+03  0.12509385670E+03 0.  0.
          5    1    3    3  502    0  0.25775396776E+02 -0.43652716148E+02  0.32537149627E+03  0.32932356990E+03  0.41800000000E+01 0.  1.
         -5    1    3    3    0  502  0.52693534204E+01  0.49616823830E+02  0.66497524534E+02  0.83240545779E+02  0.41800000000E+01 0.  1.
        -11    1    1    2    0    0 -0.44668915041E+02 -0.63702602656E+01  0.15913340244E+03  0.16540656565E+03  0.00000000000E+00 0. -1.
         11    1    1    2    0    0  0.13624164844E+02  0.40615258349E+00 -0.64587385003E+01  0.15083041160E+02  0.00000000000E+00 0.  1.
</event>
<event>
 7    1  0.2661133E-009  0.1596952E+03  0.7561462E-02  0.1189041E+00
         -1   -1    0    0    0  501 -0.00000000000E+00  0.00000000000E+00  0.50666350861E+03  0.50666350861E+03  0.00000000000E+00 0.  1.
          1   -1    0    0  501    0  0.00000000000E+00 -0.00000000000E+00 -0.61504093720E+02  0.61504093720E+02  0.00000000000E+00 0. -1.
         25    2    1    2    0    0  0.12909027980E+03  0.21633449187E+02  0.30576458859E+03  0.35534748105E+03  0.12509013626E+03 0.  0.
          5    1    3    3  502    0  0.14494243437E+03 -0.61616787125E+01  0.27401592602E+03  0.31007817672E+03  0.41800000000E+01 0. -1.
         -5    1    3    3    0  502 -0.15852154569E+02  0.27795127899E+02  0.31748662573E+02  0.45269304331E+02  0.41800000000E+01 0. -1.
        -11    1    1    2    0    0 -0.44181826845E+02  0.18711702967E+02  0.42135944788E+01  0.48165506638E+02  0.00000000000E+00 0. -1.
         11    1    1    2    0    0 -0.84908452959E+02 -0.40345152154E+02  0.13518123182E+03  0.16465461464E+03  0.00000000000E+00 0.  1.
</event>
<event>
 7    1  0.2661133E-009  0.9718164E+02  0.7561462E-02  0.1286337E+00
          1   -1    0    0  501    0  0.00000000000E+00  0.00000000000E+00  0.79679834399E+02  0.79679834399E+02  0.00000000000E+00 0. -1.
         -1   -1    0    0    0  501 -0.00000000000E+00 -0.00000000000E+00 -0.18860382658E+03  0.18860382658E+03  0.00000000000E+00 0.  1.
         25    2    1    2    0    0  0.10859361049E+02  0.56199369145E+02 -0.59117417090E+02  0.14972962589E+03  0.12509115497E+03 0.  0.
          5    1    3    3  502    0  0.64095286748E+02  0.79959119436E+01 -0.36554524570E+02  0.74336034718E+02  0.41800000000E+01 0. -1.
         -5    1    3    3    0  502 -0.53235925699E+02  0.48203457202E+02 -0.22562892520E+02  0.75393591174E+02  0.41800000000E+01 0. -1.
        -11    1    1    2    0    0 -0.10095874483E+02 -0.33562297347E+02 -0.76140356837E+02  0.83819499068E+02  0.00000000000E+00 0.  1.
         11    1    1    2    0    0 -0.76348656558E+00 -0.22637071798E+02  0.26333781747E+02  0.34734536018E+02  0.00000000000E+00 0. -1.
</event>
<event>
 7    1  0.2661133E-009  0.1425704E+03  0.7561462E-02  0.1209912E+00
          2   -1    0    0  501    0  0.00000000000E+00  0.00000000000E+00  0.89061941931E+03  0.89061941931E+03  0.00000000000E+00 0.  1.
         -2   -1    0    0    0  501 -0.00000000000E+00 -0.00000000000E+00 -0.28806090044E+02  0.28806090044E+02  0.00000000000E+00 0. -1.
         25    2    1    2    0    0 -0.85334163421E+02 -0.82051467301E+02  0.47791027197E+03  0.50799600614E+03  0.12508937393E+03 0.  0.
          5    1    3    3  502    0 -0.19259671314E+02 -0.66718927294E+02  0.87850613787E+02  0.11206048787E+03  0.41800000000E+01 0. -1.
         -5    1    3    3    0  502 -0.66074492106E+02 -0.15332540007E+02  0.39005965818E+03  0.39593551828E+03  0.41800000000E+01 0. -1.
        -11    1    1    2    0    0 -0.71089813350E+01  0.48886893802E+02  0.14209941395E+03  0.15044171445E+03  0.00000000000E+00 0.  1.
         11    1    1    2    0    0  0.92443144756E+02  0.33164573498E+02  0.24180364334E+03  0.26098778876E+03  0.00000000000E+00 0. -1.
</event>
<event>
 7    1  0.2661133E-009  0.8716932E+02  0.7561462E-02  0.1309855E+00
         -1   -1    0    0    0  501 -0.00000000000E+00  0.00000000000E+00  0.96147386022E+02  0.96147386022E+02  0.00000000000E+00 0.  1.
          1   -1    0    0  501    0  0.00000000000E+00 -0.00000000000E+00 -0.14386815434E+03  0.14386815434E+03  0.00000000000E+00 0. -1.
         25    2    1    2    0    0 -0.98490086137E+01  0.58734194982E+02  0.16471174637E+02  0.13951103870E+03  0.12508126037E+03 0.  0.
          5    1    3    3  502    0  0.41603752066E+02  0.11786015156E+02 -0.32507912137E+02  0.54258815788E+02  0.41800000000E+01 0.  1.
         -5    1    3    3    0  502 -0.51452760679E+02  0.46948179825E+02  0.48979086774E+02  0.85252222914E+02  0.41800000000E+01 0.  1.
        -11    1    1    2    0    0  0.13105648875E+02 -0.39702857627E+02 -0.10019110520E+02  0.42993691535E+02  0.00000000000E+00 0. -1.
         11    1    1    2    0    0 -0.32566402614E+01 -0.19031337355E+02 -0.54172832432E+02  0.57510810123E+02  0.00000000000E+00 0.  1.
</event>
<event>
 7    1  0.2661133E-009  0.1089367E+03  0.7561462E-02  0.1262552E+00
         -1   -1    0    0    0  501 -0.00000000000E+00  0.00000000000E+00  0.70646532425E+02  0.70646532425E+02  0.00000000000E+00 0.  1.
          1   -1    0    0  501    0  0.00000000000E+00 -0.00000000000E+00 -0.28117471340E+03  0.28117471340E+03  0.00000000000E+00 0. -1.
         25    2    1    2    0    0 -0.52531692302E+02  0.32529551375E+02 -0.19430161832E+03  0.23920306397E+03  0.12508891446E+03 0.  0.
          5    1    3    3  502    0  0.21358540485E+01 -0.26176085069E+02 -0.13938291662E+03  0.14189721332E+03  0.41800000000E+01 0. -1.
         -5    1    3    3    0  502 -0.54667546351E+02  0.58705636444E+02 -0.54918701696E+02  0.97305850648E+02  0.41800000000E+01 0. -1.
        -11    1    1    2    0    0 -0.16334067857E+02 -0.38507306273E+02 -0.11248389895E+02  0.43314439675E+02  0.00000000000E+00 0.  1.
         11    1    1    2    0    0  0.68865760159E+02  0.59777548979E+01 -0.49781727577E+01  0.69303742178E+02  0.00000000000E+00 0. -1.
</event>
<event>
 7    1  0.2661133E-009  0.1062758E+03  0.7561462E-02  0.1267626E+00
          2   -1    0    0  501    0  0.00000000000E+00  0.00000000000E+00  0.72633478774E+03  0.72633478774E+03  0.00000000000E+00 0. -1.
         -2   -1    0    0    0  501 -0.00000000000E+00 -0.00000000000E+00 -0.17022630904E+02  0.17022630904E+02  0.00000000000E+00 0.  1.
         25    2    1    2    0    0  0.26446260230E+02  0.20515913241E+01  0.43120693586E+03  0.44976723558E+03  0.12509009136E+03 0.  0.
          5    1    3    3  502    0  0.71871281154E+02  0.22357739759E+02  0.21382807268E+03  0.22672729577E+03  0.41800000000E+01 0.  1.
         -5    1    3    3    0  502 -0.45425020924E+02 -0.20306148435E+02  0.21737886319E+03  0.22303993981E+03  0.41800000000E+01 0.  1.
        -11    1    1    2    0    0  0.18239749545E+02  0.27976222769E+02  0.57356589566E+02  0.66371197597E+02  0.00000000000E+00 0.  1.
         11    1    1    2    0    0 -0.44686009775E+02 -0.30027814093E+02  0.22074863140E+03  0.22721898546E+03  0.00000000000E+00 0. -1.
</event>
<event>
 7    1  0.2661133E-009  0.6766798E+02  0.7561462E-02  0.1368208E+00
          2   -1    0    0  501    0  0.00000000000E+00  0.00000000000E+00  0.77316338974E+03  0.77316338974E+03  0.00000000000E+00 0.  1.
         -2   -1    0    0    0  501 -0.00000000000E+00 -0.00000000000E+00 -0.17546493928E+02  0.17546493928E+02  0.00000000000E+00 0. -1.
         25    2    1    2    0    0  0.19342719509E+02 -0.38661429530E+02  0.40154287765E+03  0.42280787005E+03  0.12514377910E+03 0.  0.
          5    1    3    3  502    0  0.40368525762E+01 -0.25452559815E+02  0.40131327202E+03  0.40216158901E+03  0.41800000000E+01 0.  1.
         -5    1    3    3    0  502  0.15305866933E+02 -0.13208869716E+02  0.22960563432E+00  0.20646281032E+02  0.41800000000E+01 0.  1.
        -11    1    1    2    0    0 -0.30090843572E+02  0.58632865166E+02  0.32165611308E+03  0.32833812880E+03  0.00000000000E+00 0.  1.
         11    1    1    2    0    0  0.10748124063E+02 -0.19971435636E+02  0.32417905082E+02  0.39563884822E+02  0.00000000000E+00 0. -1.
</event>
<event>
 7    1  0.2661133E-009  0.3233996E+03  0.7561462E-02  0.1074095E+00
          2   -1    0    0  501    0  0.00000000000E+00  0.00000000000E+00  0.86023170682E+03  0.86023170682E+03  0.00000000000E+00 0. -1.
         -2   -1    0    0    0  501 -0.00000000000E+00 -0.00000000000E+00 -0.12648551940E+03  0.12648551940E+03  0.00000000000E+00 0.  1.
         25    2    1    2    0    0 -0.17123981568E+03  0.25964511610E+03  0.37457990335E+03  0.50268976375E+03  0.12509290066E+03 0.  0.
          5    1    3    3  502    0 -0.14055425351E+03  0.10016107717E+03  0.18580155851E+03  0.25362852975E+03  0.41800000000E+01 0. -1.
         -5    1    3    3    0  502 -0.30685562166E+02  0.15948403893E+03  0.18877834484E+03  0.24906123399E+03  0.41800000000E+01 0. -1.
        -11    1    1    2    0    0  0.12565974810E+03 -0.20598652672E+03  0.21327176408E+03  0.32203364240E+03  0.00000000000E+00 0.  1.
         11    1    1    2    0    0  0.45580067578E+02 -0.53658589381E+02  0.14589452000E+03  0.16199382007E+03  0.00000000000E+00 0. -1.
</event>
<event>
 7    1  0.2661133E-009  0.9931573E+02  0.7561462E-02  0.1281741E+00
          2   -1    0    0  501    0  0.00000000000E+00  0.00000000000E+00  0.16781544589E+03  0.16781544589E+03  0.00000000000E+00 0. -1.
         -2   -1    0    0    0  501 -0.00000000000E+00 -0.00000000000E+00 -0.11303922052E+03  0.11303922052E+03  0.00000000000E+00 0.  1.
         25    2    1    2    0    0 -0.80691962618E+02 -0.36654648872E+01  0.56389957542E+02  0.15922152746E+03  0.12508812506E+03 0.  0.
          5    1    3    3  502    0  0.16476906909E+02  0.98593396581E+01  0.57766251676E+02  0.61017270280E+02  0.41800000000E+01 0.  1.
         -5    1    3    3    0  502 -0.97168869527E+02 -0.13524804545E+02 -0.13762941336E+01  0.98204257182E+02  0.41800000000E+01 0.  1.
        -11    1    1    2    0    0  0.32497883920E+02  0.83570754671E+00 -0.45815576590E+02  0.56177201111E+02  0.00000000000E+00 0.  1.
         11    1    1    2    0    0  0.48194078698E+02  0.28297573405E+01  0.44201844418E+02  0.65455937837E+02  0.00000000000E+00 0. -1.
</event>
<event>
 7    1  0.2661133E-009  0.8707612E+02  0.7561462E-02  0.1310091E+00
         -2   -1    0    0    0  501 -0.00000000000E+00  0.00000000000E+00  0.31364867529E+02  0.31364867529E+02  0.00000000000E+00 0.  1.
          2   -1    0    0  501    0  0.00000000000E+00 -0.00000000000E+00 -0.76756968877E+03  0.76756968877E+03  0.00000000000E+00 0. -1.
         25    2    1    2    0    0 -0.67544744939E+02  0.61602446641E+01 -0.62306804552E+03  0.63911016843E+03  0.12509107425E+03 0.  0.
          5    1    3    3  502    0 -0.46209578538E+02 -0.37306011190E+01 -0.61021259734E+03  0.61198539924E+03  0.41800000000E+01 0. -1.
         -5    1    3    3    0  502 -0.21335166402E+02  0.98908457831E+01 -0.12855448189E+02  0.27124769194E+02  0.41800000000E+01 0. -1.
        -11    1    1    2    0    0  0.85525162619E+02 -0.41330724816E+01 -0.62378234730E+02  0.10593715069E+03  0.00000000000E+00 0.  1.
         11    1    1    2    0    0 -0.17980417680E+02 -0.20271721824E+01 -0.50758540989E+02  0.53887237175E+02  0.00000000000E+00 0. -1.
</event>
<event>
 7    1  0.2661133E-009  0.1019546E+03  0.7561462E-02  0.1276239E+00
         -1   -1    0    0    0  501 -0.00000000000E+00  0.00000000000E+00  0.13194634719E+03  0.13194634719E+03  0.00000000000E+00 0.  1.
          1   -1    0    0  501    0  0.00000000000E+00 -0.00000000000E+00 -0.10777393551E+03  0.10777393551E+03  0.00000000000E+00 0. -1.
         25    2    1    2    0    0 -0.40550006690E+00 -0.19524328830E+02 -0.21560787171E+02  0.12843044027E+03  0.12509255213E+03 0.  0.
          5    1    3    3  502    0 -0.38039392326E+02  0.26272282473E+02 -0.44906756854E+02  0.64585736862E+02  0.41800000000E+01 0. -1.
         -5    1    3    3    0  502  0.37633892259E+02 -0.45796611303E+02  0.23345969683E+02  0.63844703413E+02  0.41800000000E+01 0. -1.
        -11    1    1    2    0    0  0.35933982149E+02 -0.22992303897E+02  0.34243937739E+02  0.54704153256E+02  0.00000000000E+00 0.  1.
         11    1    1    2    0    0 -0.35528482082E+02  0.42516632726E+02  0.11489261115E+02  0.56585689166E+02  0.00000000000E+00 0. -1.
</event>
<event>
 7    1  0.2661133E-009  0.1340528E+03  0.7561462E-02  0.1221563E+00
          1   -1    0    0  501    0  0.00000000000E+00  0.00000000000E+00  0.98866489586E+02  0.98866489586E+02  0.00000000000E+00 0. -1.
         -1   -1    0    0    0  501 -0.00000000000E+00 -0.00000000000E+00 -0.30477758524E+03  0.30477758524E+03  0.00000000000E+00 0.  1.
         25    2    1    2    0    0  0.10400028642E+03  0.58685288854E+02 -0.18013659846E+03  0.24971273399E+03  0.12508889922E+03 0.  0.
          5    1    3    3  502    0  0.43477217538E+02  0.36065316054E+02 -0.17593616198E+03  0.18482959979E+03  0.41800000000E+01 0.  1.
         -5    1    3    3    0  502  0.60523068880E+02  0.22619972800E+02 -0.42004364741E+01  0.64883134193E+02  0.41800000000E+01 0.  1.
        -11    1    1    2    0    0 -0.10436199616E+03 -0.17848850567E+02 -0.44958286750E+00  0.10587827838E+03  0.00000000000E+00 0.  1.
         11    1    1    2    0    0  0.36170973826E+00 -0.40836438287E+02 -0.25324914332E+02  0.48053062460E+02  0.00000000000E+00 0. -1.
</event>
<event>
 7    1  0.2661133E-009  0.1190695E+03  0.7561462E-02  0.1244640E+00
          1   -1    0    0  501    0  0.00000000000E+00  0.00000000000E+00  0.19542503838E+03  0.19542503838E+03  0.00000000000E+00 0. -1.
         -1   -1    0    0    0  501 -0.00000000000E+00 -0.00000000000E+00 -0.11629644419E+03  0.11629644419E+03  0.00000000000E+00 0.  1.
         25    2    1    2    0    0  0.83668409981E+02  0.46471150803E+02  0.83076834179E+02  0.17806806488E+03  0.12508598909E+03 0.  0.
          5    1    3    3  502    0 -0.16479761632E+02  0.12353419047E+02  0.67931049733E+02  0.71107590476E+02  0.41800000000E+01 0.  1.
         -5    1    3    3    0  502  0.10014817161E+03  0.34117731756E+02  0.15145784447E+02  0.10696047440E+03  0.41800000000E+01 0.  1.
        -11    1    1    2    0    0 -0.50717299880E+02 -0.57332249998E+02  0.32654876082E+02  0.83220023605E+02  0.00000000000E+00 0.  1.
         11    1    1    2    0    0 -0.32951110101E+02  0.10861099195E+02 -0.36603116077E+02  0.50433394087E+02  0.00000000000E+00 0. -1.
</event>
<event>
 7    1  0.2661133E-009  0.9925447E+02  0.7561462E-02  0.1281872E+00
          2   -1    0    0  501    0  0.00000000000E+00  0.00000000000E+00  0.29849995118E+03  0.29849995118E+03  0.00000000000E+00 0. -1.
         -2   -1    0    0    0  501 -0.00000000000E+00 -0.00000000000E+00 -0.44220615277E+02  0.44220615277E+02  0.00000000000E+00 0.  1.
         25    2    1    2    0    0  0.10807920443E+02  0.62336819659E+01  0.16853875894E+03  0.21027323923E+03  0.12511535452E+03 0.  0.
          5    1    3    3  502    0  0.35491762170E+02  0.49729697359E+02  0.42308764633E+02  0.74432600023E+02  0.41800000000E+01 0. -1.
         -5    1    3    3    0  502 -0.24683841727E+02 -0.43496015393E+02  0.12622999431E+03  0.13584063921E+03  0.41800000000E+01 0. -1.
        -11    1    1    2    0    0 -0.40241451749E+02 -0.29225865464E+02  0.14164078968E+02  0.51712153156E+02  0.00000000000E+00 0.  1.
         11    1    1    2    0    0  0.29433531306E+02  0.22992183498E+02  0.71576497988E+02  0.80735174066E+02  0.00000000000E+00 0. -1.
</event>
<event>
 7    1  0.2661133E-009  0.1140447E+03  0.7561462E-02  0.1253258E+00
          2   -1    0    0  501    0  0.00000000000E+00  0.00000000000E+00  0.37357485410E+02  0.37357485410E+02  0.00000000000E+00 0. -1.
         -2   -1    0    0    0  501 -0.00000000000E+00 -0.00000000000E+00 -0.44385361088E+03  0.44385361088E+03  0.00000000000E+00 0.  1.
         25    2    1    2    0    0  0.10980014407E+02  0.63370782040E+02 -0.17660793927E+03  0.22577384335E+03  0.12508815850E+03 0.  0.
          5    1    3    3  502    0  0.92291366361E+01  0.97904605433E+02 -0.93910482229E+02  0.13604094898E+03  0.41800000000E+01 0. -1.
         -5    1    3    3    0  502  0.17508777708E+01 -0.34533823393E+02 -0.82697457037E+02  0.89732894367E+02  0.41800000000E+01 0. -1.
        -11    1    1    2    0    0 -0.33524376015E+02 -0.71762371433E+01 -0.15690968401E+03  0.16061142893E+03  0.00000000000E+00 0.  1.
         11    1    1    2    0    0  0.22544361608E+02 -0.56194544897E+02 -0.72978502194E+02  0.94825824009E+02  0.00000000000E+00 0. -1.
</event>
<event>
 7    1  0.2661133E-009  0.1014655E+03  0.7561462E-02  0.1277244E+00
          2   -1    0    0  501    0  0.00000000000E+00  0.00000000000E+00  0.29578041034E+03  0.29578041034E+03  0.00000000000E+00 0. -1.
         -2   -1    0    0    0  501 -0.00000000000E+00 -0.00000000000E+00 -0.54014722006E+02  0.54014722006E+02  0.00000000000E+00 0.  1.
         25    2    1    2    0    0  0.69898777712E+01  0.21929242816E+02  0.49712855637E+02  0.13656161836E+03  0.12509179634E+03 0.  0.
          5    1    3    3  502    0 -0.56207319008E+02  0.66247634271E+01  0.38497710369E+01  0.56880957601E+02  0.41800000000E+01 0. -1.
         -5    1    3    3    0  502  0.63197196780E+02  0.15304479389E+02  0.45863084601E+02  0.79680660761E+02  0.41800000000E+01 0. -1.
        -11    1    1    2    0    0 -0.34051852318E+02 -0.36805035585E+02  0.62898091406E+02  0.80438232161E+02  0.00000000000E+00 0.  1.
         11    1    1    2    0    0  0.27061974547E+02  0.14875792769E+02  0.12915474129E+03  0.13279528183E+03  0.00000000000E+00 0. -1.
</event>
<event>
 7    1  0.2661133E-009  0.9898710E+02  0.7561462E-02  0.1282440E+00
          2   -1    0    0  501    0  0.00000000000E+00  0.00000000000E+00  0.50769749444E+03  0.50769749444E+03  0.00000000000E+00 0.  1.
         -2   -1    0    0    0  501 -0.00000000000E+00 -0.00000000000E+00 -0.35756339964E+02  0.35756339964E+02  0.00000000000E+00 0. -1.
         25    2    1    2    0    0  0.41025139376E+02 -0.63522830568E+02  0.20338720823E+03  0.25046376519E+03  0.12509008408E+03 0.  0.
          5    1    3    3  502    0  0.46060470659E+02 -0.49083469446E+01  0.18180583357E+03  0.18766057750E+03  0.41800000000E+01 0.  1.
         -5    1    3    3    0  502 -0.50353312828E+01 -0.58614483624E+02  0.21581374661E+02  0.62803187689E+02  0.41800000000E+01 0.  1.
        -11    1    1    2    0    0 -0.37631367333E+01  0.53860324093E+02  0.23741802588E+03  0.24347980352E+03  0.00000000000E+00 0.  1.
         11    1    1    2    0    0 -0.37262002642E+02  0.96625064748E+01  0.31135920361E+02  0.49510265693E+02  0.00000000000E+00 0. -1.
</event>
<event>
 7    1  0.2661133E-009  0.1245470E+03  0.7561462E-02  0.1235779E+00
          2   -1    0    0  501    0  0.00000000000E+00  0.00000000000E+00  0.17635176215E+04  0.17635176215E+04  0.00000000000E+00 0. -1.
         -2   -1    0    0    0  501 -0.00000000000E+00 -0.00000000000E+00 -0.14458361910E+02  0.14458361910E+02  0.00000000000E+00 0.  1.
         25    2    1    2    0    0  0.73431617472E+02  0.95348929072E+01  0.14505397460E+04  0.14578031237E+04  0.12506508731E+03 0.  0.
          5    1    3    3  502    0  0.89100392737E+02 -0.29375232530E+02  0.12065002566E+04  0.12101496295E+04  0.41800000000E+01 0. -1.
         -5    1    3    3    0  502 -0.15668775265E+02  0.38910125438E+02  0.24403948940E+03  0.24765349416E+03  0.41800000000E+01 0. -1.
        -11    1    1    2    0    0 -0.86445900026E+02 -0.27617163978E+02  0.26328047815E+03  0.27848197707E+03  0.00000000000E+00 0. -1.
         11    1    1    2    0    0  0.13014282554E+02  0.18082271071E+02  0.35239035388E+02  0.41690882607E+02  0.00000000000E+00 0.  1.
</event>
<event>
 7    1  0.2661133E-009  0.1826281E+03  0.7561462E-02  0.1165284E+00
         -2   -1    0    0    0  501 -0.00000000000E+00  0.00000000000E+00  0.43094892853E+02  0.43094892853E+02  0.00000000000E+00 0. -1.
          2   -1    0    0  501    0  0.00000000000E+00 -0.00000000000E+00 -0.81349980304E+03  0.81349980304E+03  0.00000000000E+00 0.  1.
         25    2    1    2    0    0  0.14167605908E+03  0.51610115518E+02 -0.34636339507E+03  0.39792917490E+03  0.12507724433E+03 0.  0.
          5    1    3    3  502    0  0.37344845323E+02 -0.40811601055E+02 -0.11736747396E+03  0.12981841393E+03  0.41800000000E+01 0. -1.
         -5    1    3    3    0  502  0.10433121375E+03  0.92421716574E+02 -0.22899592111E+03  0.26811076096E+03  0.41800000000E+01 0. -1.
        -11    1    1    2    0    0  0.21109652645E+01 -0.23789394265E+02 -0.10398919220E+03  0.10669650205E+03  0.00000000000E+00 0.  1.
         11    1    1    2    0    0 -0.14378702434E+03 -0.27820721253E+02 -0.32005232292E+03  0.35196901895E+03  0.00000000000E+00 0. -1.
</event>
<event>
 7    1  0.2794060E-009  0.1000146E+03  0.7561462E-02  0.1280265E+00
         -2   -1    0    0    0  501 -0.00000000000E+00  0.00000000000E+00  0.12034677962E+03  0.12034677962E+03  0.00000000000E+00 0.  1.
          2   -1    0    0  501    0  0.00000000000E+00 -0.00000000000E+00 -0.13810080845E+03  0.13810080845E+03  0.00000000000E+00 0. -1.
         25    2    1    2    0    0  0.11994803155E+02 -0.60221675796E+02 -0.41042233374E+02  0.14526798290E+03  0.12509115235E+03 0.  0.
          5    1    3    3  502    0  0.62191792108E+01  0.23462184576E+02  0.27459958969E+02  0.36887315458E+02  0.41800000000E+01 0.  1.
         -5    1    3    3    0  502  0.57756239446E+01 -0.83683860372E+02 -0.68502192343E+02  0.10838066744E+03  0.41800000000E+01 0.  1.
        -11    1    1    2    0    0  0.37152881352E+01 -0.14545571329E+02  0.32913620385E+02  0.36175729682E+02  0.00000000000E+00 0.  1.
         11    1    1    2    0    0 -0.15710091291E+02  0.74767247125E+02 -0.96254158332E+01  0.77003875493E+02  0.00000000000E+00 0. -1.
</event>
<event>
 7    1  0.2661133E-009  0.9306396E+02  0.7561462E-02  0.1295597E+00
         -1   -1    0    0    0  501 -0.00000000000E+00  0.00000000000E+00  0.34277628048E+02  0.34277628048E+02  0.00000000000E+00 0.  1.
          1   -1    0    0  501    0  0.00000000000E+00 -0.00000000000E+00 -0.40273212210E+03  0.40273212210E+03  0.00000000000E+00 0. -1.
         25    2    1    2    0    0 -0.52459367106E+01 -0.47462092470E+02 -0.21162274283E+03  0.25042315372E+03  0.12508957015E+03 0.  0.
          5    1    3    3  502    0 -0.41745473862E+02 -0.40429520826E+02 -0.31058523268E+02  0.66025260392E+02  0.41800000000E+01 0.  1.
         -5    1    3    3    0  502  0.36499537151E+02 -0.70325716432E+01 -0.18056421957E+03  0.18439789333E+03  0.41800000000E+01 0.  1.
        -11    1    1    2    0    0 -0.32021759688E+02  0.41966331157E+02 -0.13008112791E+03  0.14038399440E+03  0.00000000000E+00 0. -1.
         11    1    1    2    0    0  0.37267696399E+02  0.54957613126E+01 -0.26750623308E+02  0.46202602033E+02  0.00000000000E+00 0.  1.
</event>
<event>
 7    1  0.2661133E-009  0.2640983E+03  0.7561462E-02  0.1104706E+00
         -1   -1    0    0    0  501 -0.00000000000E+00  0.00000000000E+00  0.14270285000E+03  0.14270285000E+03  0.00000000000E+00 0.  1.
          1   -1    0    0  501    0  0.00000000000E+00 -0.00000000000E+00 -0.54005319233E+03  0.54005319233E+03  0.00000000000E+00 0. -1.
         25    2    1    2    0    0 -0.23713235834E+03  0.81624693274E+02 -0.14781651469E+03  0.31684597205E+03  0.12508917645E+03 0.  0.
          5    1    3    3  502    0 -0.15105960435E+03  0.40508947075E+01 -0.13031269654E+03  0.19958528276E+03  0.41800000000E+01 0.  1.
         -5    1    3    3    0  502 -0.86072753991E+02  0.77573798567E+02 -0.17503818152E+02  0.11726068929E+03  0.41800000000E+01 0.  1.
        -11    1    1    2    0    0  0.13282236700E+03 -0.73491534057E+01 -0.16724150773E+03  0.21369490667E+03  0.00000000000E+00 0. -1.
         11    1    1    2    0    0  0.10430999135E+03 -0.74275539869E+02 -0.82292319906E+02  0.15221516361E+03  0.00000000000E+00 0.  1.
</event>
<event>
 7    1  0.2661133E-009  0.1409470E+03  0.7561462E-02  0.1212060E+00
         -1   -1    0    0    0  501 -0.00000000000E+00  0.00000000000E+00  0.39477537014E+03  0.39477537014E+03  0.00000000000E+00 0.  1.
          1   -1    0    0  501    0  0.00000000000E+00 -0.00000000000E+00 -0.72883102113E+02  0.72883102113E+02  0.00000000000E+00 0. -1.
         25    2    1    2    0    0 -0.77315952361E+02 -0.87807626611E+02  0.10494866460E+03  0.20086334761E+03  0.12507568282E+03 0.  0.
          5    1    3    3  502    0 -0.51267971988E+02 -0.11347760117E+03  0.10666577472E+03  0.16401411773E+03  0.41800000000E+01 0.  1.
         -5    1    3    3    0  502 -0.26047980372E+02  0.25669974561E+02 -0.17171101248E+01  0.36849229878E+02  0.41800000000E+01 0.  1.
        -11    1    1    2    0    0  0.34737750414E+02  0.60943807494E+02  0.35741721816E+02  0.78729471318E+02  0.00000000000E+00 0. -1.
         11    1    1    2    0    0  0.42578201946E+02  0.26863819117E+02  0.18120188162E+03  0.18806565333E+03  0.00000000000E+00 0.  1.
</event>
<event>
 7    1  0.2661133E-009  0.9276637E+02  0.7561462E-02  0.1296288E+00
          1   -1    0    0  501    0  0.00000000000E+00  0.00000000000E+00  0.46696641079E+02  0.46696641079E+02  0.00000000000E+00 0. -1.
         -1   -1    0    0    0  501 -0.00000000000E+00 -0.00000000000E+00 -0.38961274684E+03  0.38961274684E+03  0.00000000000E+00 0.  1.
         25    2    1    2    0    0  0.42909486216E+02  0.12678093460E+02 -0.29318062786E+03  0.32187392399E+03  0.12508390916E+03 0.  0.
          5    1    3    3  502    0  0.20051658446E+02  0.67866958787E+02 -0.13032087359E+03  0.14835429079E+03  0.41800000000E+01 0. -1.
         -5    1    3    3    0  502  0.22857827769E+02 -0.55188865327E+02 -0.16285975427E+03  0.17351963321E+03  0.41800000000E+01 0. -1.
        -11    1    1    2    0    0  0.71037348656E+00 -0.11089463312E+02 -0.66690034925E+02  0.67609478517E+02  0.00000000000E+00 0.  1.
         11    1    1    2    0    0 -0.43619859702E+02 -0.15886301478E+01  0.16954557021E+02  0.46825985414E+02  0.00000000000E+00 0. -1.
</event>
<event>
 7    1  0.2661133E-009  0.1048480E+03  0.7561462E-02  0.1270419E+00
          3   -1    0    0  501    0  0.00000000000E+00  0.00000000000E+00  0.55261781717E+02  0.55261781717E+02  0.00000000000E+00 0. -1.
         -3   -1    0    0    0  501 -0.00000000000E+00 -0.00000000000E+00 -0.32479154062E+03  0.32479154062E+03  0.00000000000E+00 0.  1.
         25    2    1    2    0    0 -0.31040765870E+02 -0.69964209952E+02 -0.13337004471E+03  0.19822237779E+03  0.12508406138E+03 0.  0.
          5    1    3    3  502    0 -0.59241705723E+02 -0.74527790377E+01 -0.15563914589E+02  0.61845221721E+02  0.41800000000E+01 0.  1.
         -5    1    3    3    0  502  0.28200939853E+02 -0.62511430914E+02 -0.11780613013E+03  0.13637715607E+03  0.41800000000E+01 0.  1.
        -11    1    1    2    0    0  0.30882955903E+02  0.37102482975E+02 -0.72702385430E+01  0.48818107057E+02  0.00000000000E+00 0. -1.
         11    1    1    2    0    0  0.15780996712E+00  0.32861726977E+02 -0.12888947564E+03  0.13301283748E+03  0.00000000000E+00 0.  1.
</event>
<event>
 7    1  0.2661133E-009  0.1605495E+03  0.7561462E-02  0.1188078E+00
          1   -1    0    0  501    0  0.00000000000E+00  0.00000000000E+00  0.15210217735E+03  0.15210217735E+03  0.00000000000E+00 0. -1.
         -1   -1    0    0    0  501 -0.00000000000E+00 -0.00000000000E+00 -0.22598725173E+03  0.22598725173E+03  0.00000000000E+00 0.  1.
         25    2    1    2    0    0 -0.11880793852E+03  0.34820700435E+02 -0.12740189913E+03  0.21727023167E+03  0.12508917712E+03 0.  0.
          5    1    3    3  502    0  0.18955288160E+02 -0.14062800096E+02 -0.40778584159E+02  0.47301486465E+02  0.41800000000E+01 0. -1.
         -5    1    3    3    0  502 -0.13776322668E+03  0.48883500531E+02 -0.86623314972E+02  0.16996874521E+03  0.41800000000E+01 0. -1.
        -11    1    1    2    0    0  0.89669339013E+02  0.17163275152E+02  0.40200703007E+02  0.99756026862E+02  0.00000000000E+00 0.  1.
         11    1    1    2    0    0  0.29138599511E+02 -0.51983975586E+02  0.13316121741E+02  0.61063170549E+02  0.00000000000E+00 0. -1.
</event>
<event>
 7    1  0.2661133E-009  0.4827788E+03  0.7561462E-02  0.1018374E+00
         -2   -1    0    0    0  501 -0.00000000000E+00  0.00000000000E+00  0.99346561952E+02  0.99346561952E+02  0.00000000000E+00 0.  1.
          2   -1    0    0  501    0  0.00000000000E+00 -0.00000000000E+00 -0.23574347022E+04  0.23574347022E+04  0.00000000000E+00 0. -1.
         25    2    1    2    0    0 -0.43909567524E+03 -0.17081658713E+03 -0.11744024391E+04  0.12715548795E+04  0.12508958491E+03 0.  0.
          5    1    3    3  502    0 -0.34604430694E+03 -0.18396472053E+03 -0.98406671438E+03  0.10592423951E+04  0.41800000000E+01 0. -1.
         -5    1    3    3    0  502 -0.93051368297E+02  0.13148133400E+02 -0.19033572467E+03  0.21231248442E+03  0.41800000000E+01 0.  1.
        -11    1    1    2    0    0  0.96567427607E+02  0.79468009567E+02 -0.26117265136E+03  0.28957138401E+03  0.00000000000E+00 0. -1.
         11    1    1    2    0    0  0.34252824763E+03  0.91348577564E+02 -0.82251304987E+03  0.89565500069E+03  0.00000000000E+00 0.  1.
</event>
<event>
 7    1  0.2661133E-009  0.1125036E+03  0.7561462E-02  0.1256003E+00
          3   -1    0    0  501    0  0.00000000000E+00  0.00000000000E+00  0.29876547682E+02  0.29876547682E+02  0.00000000000E+00 0. -1.
         -3   -1    0    0    0  501 -0.00000000000E+00 -0.00000000000E+00 -0.53704117006E+03  0.53704117006E+03  0.00000000000E+00 0.  1.
         25    2    1    2    0    0  0.23986756265E+02  0.40316573036E+02 -0.18532773911E+03  0.22846850175E+03  0.12510273726E+03 0.  0.
          5    1    3    3  502    0  0.45551701889E+02  0.70098700505E+02 -0.76041205827E+02  0.11308635082E+03  0.41800000000E+01 0. -1.
         -5    1    3    3    0  502 -0.21564945624E+02 -0.29782127469E+02 -0.10928653328E+03  0.11538215093E+03  0.41800000000E+01 0. -1.
        -11    1    1    2    0    0  0.16189850106E+02 -0.58134425621E+02 -0.20123090758E+03  0.21008474684E+03  0.00000000000E+00 0.  1.
         11    1    1    2    0    0 -0.40176606371E+02  0.17817852584E+02 -0.12060597569E+03  0.12836446915E+03  0.00000000000E+00 0. -1.
</event>
<event>
 7    1  0.2661133E-009  0.1410992E+03  0.7561462E-02  0.1211858E+00
         -2   -1    0    0    0  501 -0.00000000000E+00  0.00000000000E+00  0.13631907985E+03  0.13631907985E+03  0.00000000000E+00 0.  1.
          2   -1    0    0  501    0  0.00000000000E+00 -0.00000000000E+00 -0.21362527242E+03  0.21362527242E+03  0.00000000000E+00 0. -1.
         25    2    1    2    0    0 -0.60154278805E+02  0.10854434188E+03 -0.72943280305E+02  0.19070581575E+03  0.12509026583E+03 0.  0.
          5    1    3    3  502    0 -0.51442947992E+02  0.77662656002E+02 -0.10820903555E+03  0.14284443570E+03  0.41800000000E+01 0.  1.
         -5    1    3    3    0  502 -0.87113308132E+01  0.30881685882E+02  0.35265755244E+02  0.47861380051E+02  0.41800000000E+01 0.  1.
        -11    1    1    2    0    0  0.10225534630E+02 -0.10611214743E+03  0.10416798650E+02  0.10711143302E+03  0.00000000000E+00 0.  1.
         11    1    1    2    0    0  0.49928744175E+02 -0.24321944552E+01 -0.14779710918E+02  0.52127103503E+02  0.00000000000E+00 0. -1.
</event>
<event>
 7    1  0.2661133E-009  0.1438591E+03  0.7561462E-02  0.1208229E+00
         -1   -1    0    0    0  501 -0.00000000000E+00  0.00000000000E+00  0.32267404333E+03  0.32267404333E+03  0.00000000000E+00 0.  1.
          1   -1    0    0  501    0  0.00000000000E+00 -0.00000000000E+00 -0.18833518160E+03  0.18833518160E+03  0.00000000000E+00 0. -1.
         25    2    1    2    0    0  0.11873645726E+03 -0.10365537067E+02 -0.12329658366E+03  0.21226270512E+03  0.12509043848E+03 0.  0.
          5    1    3    3  502    0  0.13859386357E+03  0.10351338661E+02 -0.11886669915E+03  0.18292668968E+03  0.41800000000E+01 0.  1.
         -5    1    3    3    0  502 -0.19857406304E+02 -0.20716875728E+02 -0.44298845109E+01  0.29336015439E+02  0.41800000000E+01 0.  1.
        -11    1    1    2    0    0 -0.96541596916E+01  0.38678470348E+01 -0.69328924945E+01  0.12499121504E+02  0.00000000000E+00 0. -1.
         11    1    1    2    0    0 -0.10908229757E+03  0.64976900320E+01  0.26456833789E+03  0.28624739830E+03  0.00000000000E+00 0.  1.
</event>
<event>
 7    1  0.2661133E-009  0.1321490E+03  0.7561462E-02  0.1224301E+00
          1   -1    0    0  501    0  0.00000000000E+00  0.00000000000E+00  0.88906001023E+02  0.88906001023E+02  0.00000000000E+00 0. -1.
         -1   -1    0    0    0  501 -0.00000000000E+00 -0.00000000000E+00 -0.22226407049E+03  0.22226407049E+03  0.00000000000E+00 0.  1.
         25    2    1    2    0    0 -0.12921294749E+02 -0.86380645721E+02 -0.85551198211E+02  0.17491340819E+03  0.12508843686E+03 0.  0.
          5    1    3    3  502    0 -0.60883206395E+02 -0.55873098802E+02 -0.14789351489E+02  0.84052158259E+02  0.41800000000E+01 0.  1.
         -5    1    3    3    0  502  0.47961911646E+02 -0.30507546919E+02 -0.70761846722E+02  0.90861249932E+02  0.41800000000E+01 0.  1.
        -11    1    1    2    0    0  0.30445524661E+02 -0.55741675487E+01  0.41939162551E+00  0.30954437567E+02  0.00000000000E+00 0.  1.
         11    1    1    2    0    0 -0.17524229912E+02  0.91954813269E+02 -0.48226262884E+02  0.10530222576E+03  0.00000000000E+00 0. -1.
</event>
<event>
 7    1  0.2661133E-009  0.9421133E+02  0.7561462E-02  0.1292962E+00
         -4   -1    0    0    0  501 -0.00000000000E+00  0.00000000000E+00  0.17828577999E+02  0.17828577999E+02  0.00000000000E+00 0.  1.
          4   -1    0    0  501    0  0.00000000000E+00 -0.00000000000E+00 -0.96235817647E+03  0.96235817647E+03  0.00000000000E+00 0. -1.
         25    2    1    2    0    0  0.16071408853E+02  0.70511230819E+02 -0.45902725745E+03  0.48123520809E+03  0.12510467044E+03 0.  0.
          5    1    3    3  502    0 -0.11031209529E+02  0.52997695354E+01  0.34451376403E+01  0.13383441790E+02  0.41800000000E+01 0.  1.
         -5    1    3    3    0  502  0.27102618382E+02  0.65211461284E+02 -0.46247239509E+03  0.46785176630E+03  0.41800000000E+01 0.  1.
        -11    1    1    2    0    0  0.21281021278E+02  0.37616462449E+01 -0.37336283031E+02  0.43139655535E+02  0.00000000000E+00 0.  1.
         11    1    1    2    0    0 -0.37352430131E+02 -0.74272877064E+02 -0.44816605799E+03  0.45581189084E+03  0.00000000000E+00 0. -1.
</event>
<event>
 7    1  0.2661133E-009  0.1072277E+03  0.7561462E-02  0.1265792E+00
          1   -1    0    0  501    0  0.00000000000E+00  0.00000000000E+00  0.20950417521E+03  0.20950417521E+03  0.00000000000E+00 0. -1.
         -1   -1    0    0    0  501 -0.00000000000E+00 -0.00000000000E+00 -0.12634326088E+03  0.12634326088E+03  0.00000000000E+00 0.  1.
         25    2    1    2    0    0  0.44496016331E+02  0.62767632159E+01  0.14052023800E+03  0.19342004031E+03  0.12508429750E+03 0.  0.
          5    1    3    3  502    0  0.76344420744E+02 -0.12692864316E+02  0.13505909888E+03  0.15571773172E+03  0.41800000000E+01 0.  1.
         -5    1    3    3    0  502 -0.31848404413E+02  0.18969627532E+02  0.54611391201E+01  0.37702308588E+02  0.41800000000E+01 0.  1.
        -11    1    1    2    0    0 -0.60773358972E+02  0.23943818200E+02  0.10710819706E+02  0.66192365492E+02  0.00000000000E+00 0. -1.
         11    1    1    2    0    0  0.16277342641E+02 -0.30220581416E+02 -0.68070143374E+02  0.76235030291E+02  0.00000000000E+00 0.  1.
</event>
<event>
 7    1  0.2661133E-009  0.1394636E+03  0.7561462E-02  0.1214053E+00
         -2   -1    0    0    0  501 -0.00000000000E+00  0.00000000000E+00  0.11334502744E+03  0.11334502744E+03  0.00000000000E+00 0. -1.
          2   -1    0    0  501    0  0.00000000000E+00 -0.00000000000E+00 -0.19903785787E+03  0.19903785787E+03  0.00000000000E+00 0.  1.
         25    2    1    2    0    0 -0.88180143682E+02  0.76601828402E+01 -0.10087252364E+03  0.18345750668E+03  0.12508786748E+03 0.  0.
          5    1    3    3  502    0 -0.39091678587E+02  0.64802898396E+02 -0.35806754040E+02  0.83828223231E+02  0.41800000000E+01 0. -1.
         -5    1    3    3    0  502 -0.49088465095E+02 -0.57142715555E+02 -0.65065769601E+02  0.99629283448E+02  0.41800000000E+01 0. -1.
        -11    1    1    2    0    0  0.48692201888E+01 -0.38530153638E+02  0.27512624707E+00  0.38837581529E+02  0.00000000000E+00 0.  1.
         11    1    1    2    0    0  0.83310923494E+02  0.30869970798E+02  0.14904566960E+02  0.90087797102E+02  0.00000000000E+00 0. -1.
</event>
<event>
 7    1  0.2661133E-009  0.1768554E+03  0.7561462E-02  0.1170882E+00
          2   -1    0    0  501    0  0.00000000000E+00  0.00000000000E+00  0.16247748124E+04  0.16247748124E+04  0.00000000000E+00 0. -1.
         -2   -1    0    0    0  501 -0.00000000000E+00 -0.00000000000E+00 -0.26272013901E+02  0.26272013901E+02  0.00000000000E+00 0.  1.
         25    2    1    2    0    0  0.92516487371E+02  0.10962326637E+03  0.12353510436E+04  0.12499263607E+04  0.12508854960E+03 0.  0.
          5    1    3    3  502    0 -0.19732348695E+02  0.63469552625E+02  0.53436643092E+03  0.53850042209E+03  0.41800000000E+01 0.  1.
         -5    1    3    3    0  502  0.11224883607E+03  0.46153713746E+02  0.70098461269E+03  0.71142593860E+03  0.41800000000E+01 0.  1.
        -11    1    1    2    0    0 -0.20983171037E+02 -0.88693571502E+02  0.24523002299E+03  0.26161920279E+03  0.00000000000E+00 0. -1.
         11    1    1    2    0    0 -0.71533316334E+02 -0.20929694869E+02  0.11792173188E+03  0.13950126280E+03  0.00000000000E+00 0.  1.
</event>
<event>
 7    1  0.2661133E-009  0.9357008E+02  0.7561462E-02  0.1294429E+00
          2   -1    0    0  501    0  0.00000000000E+00  0.00000000000E+00  0.91251165102E+03  0.91251165102E+03  0.00000000000E+00 0. -1.
         -2   -1    0    0    0  501 -0.00000000000E+00 -0.00000000000E+00 -0.19450319750E+02  0.19450319750E+02  0.00000000000E+00 0.  1.
         25    2    1    2    0    0 -0.50832638636E+02  0.44519674990E+02  0.63250349366E+03  0.64828555371E+03  0.12509009173E+03 0.  0.
          5    1    3    3  502    0  0.12747290041E+02  0.43803514543E+02  0.49056931040E+03  0.49270372639E+03  0.41800000000E+01 0.  1.
         -5    1    3    3    0  502 -0.63579928677E+02  0.71616044758E+00  0.14193418325E+03  0.15558182732E+03  0.41800000000E+01 0.  1.
        -11    1    1    2    0    0  0.14823872984E+02  0.56401987045E+01 -0.42680221549E-01  0.15860670644E+02  0.00000000000E+00 0.  1.
         11    1    1    2    0    0  0.36008765652E+02 -0.50159873695E+02  0.26060051784E+03  0.26781574642E+03  0.00000000000E+00 0. -1.
</event>
<event>
 7    1  0.2661133E-009  0.9230921E+02  0.7561462E-02  0.1297354E+00
          2   -1    0    0  501    0  0.00000000000E+00  0.00000000000E+00  0.16718494441E+03  0.16718494441E+03  0.00000000000E+00 0. -1.
         -2   -1    0    0    0  501 -0.00000000000E+00 -0.00000000000E+00 -0.13094768606E+03  0.13094768606E+03  0.00000000000E+00 0.  1.
         25    2    1    2    0    0  0.38359275707E+02 -0.24856578947E+02 -0.71053413941E+02  0.15095394810E+03  0.12509685554E+03 0.  0.
          5    1    3    3  502    0  0.11563798245E+02  0.35373757935E+02 -0.75988405320E+02  0.84715608499E+02  0.41800000000E+01 0. -1.
         -5    1    3    3    0  502  0.26795477462E+02 -0.60230336882E+02  0.49349913786E+01  0.66238339602E+02  0.41800000000E+01 0. -1.
        -11    1    1    2    0    0  0.17289890070E+02 -0.49510761972E+01  0.73311948073E+02  0.75485728350E+02  0.00000000000E+00 0. -1.
         11    1    1    2    0    0 -0.55649165777E+02  0.29807655144E+02  0.33978724217E+02  0.71692954021E+02  0.00000000000E+00 0.  1.
</event>
<event>
 7    1  0.2661133E-009  0.1034412E+03  0.7561462E-02  0.1273222E+00
          1   -1    0    0  501    0  0.00000000000E+00  0.00000000000E+00  0.30149385390E+03  0.30149385390E+03  0.00000000000E+00 0. -1.
         -1   -1    0    0    0  501 -0.00000000000E+00 -0.00000000000E+00 -0.79464216327E+02  0.79464216327E+02  0.00000000000E+00 0.  1.
         25    2    1    2    0    0  0.67204407911E+02  0.61925672224E+02  0.19435278433E+03  0.24853885396E+03  0.12508931140E+03 0.  0.
          5    1    3    3  502    0  0.40833638344E+02  0.74855861812E+02  0.20078727690E+03  0.21818292563E+03  0.41800000000E+01 0. -1.
         -5    1    3    3    0  502  0.26370769568E+02 -0.12930189588E+02 -0.64344925710E+01  0.30355928334E+02  0.41800000000E+01 0. -1.
        -11    1    1    2    0    0 -0.55710306782E+02 -0.46248515354E+02  0.60444580266E+02  0.94319196019E+02  0.00000000000E+00 0. -1.
         11    1    1    2    0    0 -0.11494101129E+02 -0.15677156870E+02 -0.32767727027E+02  0.38100020247E+02  0.00000000000E+00 0.  1.
</event>
<event>
 7    1  0.2661133E-009  0.7981866E+02  0.7561462E-02  0.1329567E+00
         -1   -1    0    0    0  501 -0.00000000000E+00  0.00000000000E+00  0.66016520786E+02  0.66016520786E+02  0.00000000000E+00 0.  1.
          1   -1    0    0  501    0  0.00000000000E+00 -0.00000000000E+00 -0.17452590164E+03  0.17452590164E+03  0.00000000000E+00 0. -1.
         25    2    1    2    0    0  0.18133184430E+02 -0.15489072419E+01 -0.23664046954E+02  0.12859444509E+03  0.12508130435E+03 0.  0.
          5    1    3    3  502    0  0.31420922461E+02 -0.37694104579E+02  0.33484343315E+02  0.59554962308E+02  0.41800000000E+01 0.  1.
         -5    1    3    3    0  502 -0.13287738031E+02  0.36145197337E+02 -0.57148390269E+02  0.69039482782E+02  0.41800000000E+01 0.  1.
        -11    1    1    2    0    0  0.15936426262E+02  0.25453808789E+02 -0.25121782645E+02  0.39153161138E+02  0.00000000000E+00 0. -1.
         11    1    1    2    0    0 -0.34069610692E+02 -0.23904901547E+02 -0.59723551253E+02  0.72794816196E+02  0.00000000000E+00 0.  1.
</event>
<event>
 7    1  0.2661133E-009  0.1649460E+03  0.7561462E-02  0.1183223E+00
          1   -1    0    0  501    0  0.00000000000E+00  0.00000000000E+00  0.62281845266E+03  0.62281845266E+03  0.00000000000E+00 0. -1.
         -1   -1    0    0    0  501 -0.00000000000E+00 -0.00000000000E+00 -0.51012697645E+02  0.51012697645E+02  0.00000000000E+00 0.  1.
         25    2    1    2    0    0  0.55054171829E+02 -0.13402163137E+03  0.32615450619E+03  0.37817662266E+03  0.12509211209E+03 0.  0.
          5    1    3    3  502    0  0.37487857531E+02 -0.14706267409E+03  0.32132250204E+03  0.35538485096E+03  0.41800000000E+01 0.  1.
         -5    1    3    3    0  502  0.17566314298E+02  0.13041042715E+02  0.48320041438E+01  0.22791771698E+02  0.41800000000E+01 0.  1.
        -11    1    1    2    0    0  0.65577859546E+01  0.55987310540E+02  0.13823360523E+03  0.14928534126E+03  0.00000000000E+00 0. -1.
         11    1    1    2    0    0 -0.61611957783E+02  0.78034320833E+02  0.10741764360E+03  0.14636918639E+03  0.00000000000E+00 0.  1.
</event>
<event>
 7    1  0.2661133E-009  0.2038409E+03  0.7561462E-02  0.1146538E+00
         -1   -1    0    0    0  501 -0.00000000000E+00  0.00000000000E+00  0.54028615959E+02  0.54028615959E+02  0.00000000000E+00 0.  1.
          1   -1    0    0  501    0  0.00000000000E+00 -0.00000000000E+00 -0.10954948876E+04  0.10954948876E+04  0.00000000000E+00 0. -1.
         25    2    1    2    0    0  0.17411918171E+03  0.50173130716E+02 -0.25286825030E+03  0.33529666288E+03  0.12508664056E+03 0.  0.
          5    1    3    3  502    0  0.65908533609E+02 -0.35216090888E+02 -0.50057989993E+02  0.90041005225E+02  0.41800000000E+01 0.  1.
         -5    1    3    3    0  502  0.10821064810E+03  0.85389221604E+02 -0.20281026030E+03  0.24525565766E+03  0.41800000000E+01 0.  1.
        -11    1    1    2    0    0 -0.80638938474E+02  0.13588576796E+02 -0.22544652449E+03  0.23981956389E+03  0.00000000000E+00 0.  1.
         11    1    1    2    0    0 -0.93480243235E+02 -0.63761707512E+02 -0.56315149682E+03  0.57440727676E+03  0.00000000000E+00 0. -1.
</event>
<event>
 7    1  0.2661133E-009  0.1191575E+03  0.7561462E-02  0.1244493E+00
          2   -1    0    0  501    0  0.00000000000E+00  0.00000000000E+00  0.10641425985E+03  0.10641425985E+03  0.00000000000E+00 0. -1.
         -2   -1    0    0    0  501 -0.00000000000E+00 -0.00000000000E+00 -0.18940654877E+03  0.18940654877E+03  0.00000000000E+00 0.  1.
         25    2    1    2    0    0 -0.90900360362E+02 -0.73310851634E+01 -0.29623662059E+02  0.15761588232E+03  0.12509430316E+03 0.  0.
          5    1    3    3  502    0 -0.28180375756E+02  0.45772217420E+02  0.24400990623E+02  0.59178629662E+02  0.41800000000E+01 0. -1.
         -5    1    3    3    0  502 -0.62719984606E+02 -0.53103302583E+02 -0.54024652682E+02  0.98437252662E+02  0.41800000000E+01 0. -1.
        -11    1    1    2    0    0  0.36791572882E+02 -0.19585228626E+02 -0.64460442472E+02  0.76761641847E+02  0.00000000000E+00 0.  1.
         11    1    1    2    0    0  0.54108787481E+02  0.26916313790E+02  0.11091815604E+02  0.61443284450E+02  0.00000000000E+00 0. -1.
</event>
<event>
 7    1  0.2661133E-009  0.1299944E+03  0.7561462E-02  0.1227464E+00
          3   -1    0    0  501    0  0.00000000000E+00  0.00000000000E+00  0.76469564841E+02  0.76469564841E+02  0.00000000000E+00 0. -1.
         -3   -1    0    0    0  501 -0.00000000000E+00 -0.00000000000E+00 -0.34130442109E+03  0.34130442109E+03  0.00000000000E+00 0.  1.
         25    2    1    2    0    0 -0.92697179473E+02 -0.77730343016E+02 -0.13782896799E+03  0.22198901861E+03  0.12509007419E+03 0.  0.
          5    1    3    3  502    0 -0.90905840808E+02 -0.88404420904E+02 -0.54881624948E+02  0.13823414443E+03  0.41800000000E+01 0. -1.
         -5    1    3    3    0  502 -0.17913386652E+01  0.10674077889E+02 -0.82947343038E+02  0.83754874187E+02  0.41800000000E+01 0. -1.
        -11    1    1    2    0    0  0.34774811947E+02  0.22098704987E+02 -0.10457652745E+03  0.11240058007E+03  0.00000000000E+00 0.  1.
         11    1    1    2    0    0  0.57922367526E+02  0.55631638028E+02 -0.22429360818E+02  0.83384387245E+02  0.00000000000E+00 0. -1.
</event>
<event>
 7    1  0.2661133E-009  0.1114273E+03  0.7561462E-02  0.1257949E+00
         -1   -1    0    0    0  501 -0.00000000000E+00  0.00000000000E+00  0.49096439212E+02  0.49096439212E+02  0.00000000000E+00 0.  1.
          1   -1    0    0  501    0  0.00000000000E+00 -0.00000000000E+00 -0.46241241292E+03  0.46241241292E+03  0.00000000000E+00 0. -1.
         25    2    1    2    0    0 -0.78907003792E+02  0.23721598394E+02 -0.32844283923E+03  0.36098581215E+03  0.12508808278E+03 0.  0.
          5    1    3    3  502    0 -0.54973352278E+02 -0.18365465402E+02 -0.45241609005E+02  0.73645334988E+02  0.41800000000E+01 0. -1.
         -5    1    3    3    0  502 -0.23933651514E+02  0.42087063796E+02 -0.28320123022E+03  0.28734047716E+03  0.41800000000E+01 0. -1.
        -11    1    1    2    0    0  0.31899924527E+02 -0.52208323179E+02 -0.17626588133E+02  0.63671114355E+02  0.00000000000E+00 0.  1.
         11    1    1    2    0    0  0.47007079265E+02  0.28486724785E+02 -0.67246546350E+02  0.86851925632E+02  0.00000000000E+00 0. -1.
</event>
<event>
 7    1  0.2661133E-009  0.1195019E+03  0.7561462E-02  0.1243921E+00
          1   -1    0    0  501    0  0.00000000000E+00  0.00000000000E+00  0.51876189609E+03  0.51876189609E+03  0.00000000000E+00 0. -1.
         -1   -1    0    0    0  501 -0.00000000000E+00 -0.00000000000E+00 -0.41751356739E+02  0.41751356739E+02  0.00000000000E+00 0.  1.
         25    2    1    2    0    0 -0.14003433078E+02 -0.87863461717E+02  0.33826791253E+03  0.37146827373E+03  0.12508962268E+03 0.  0.
          5    1    3    3  502    0 -0.47137541161E+02 -0.88169967935E+02  0.31565074578E+03  0.33113253652E+03  0.41800000000E+01 0.  1.
         -5    1    3    3    0  502  0.33134108084E+02  0.30650621798E+00  0.22617166747E+02  0.40335737209E+02  0.41800000000E+01 0.  1.
        -11    1    1    2    0    0  0.33552055873E+02  0.32045686634E+02  0.10135683126E+02  0.47491036603E+02  0.00000000000E+00 0.  1.
         11    1    1    2    0    0 -0.19548622796E+02  0.55817775082E+02  0.12860694370E+03  0.14155394250E+03  0.00000000000E+00 0. -1.
</event>
<event>
 7    1  0.2661133E-009  0.1129809E+03  0.7561462E-02  0.1255147E+00
          2   -1    0    0  501    0  0.00000000000E+00  0.00000000000E+00  0.38744443331E+03  0.38744443331E+03  0.00000000000E+00 0. -1.
         -2   -1    0    0    0  501 -0.00000000000E+00 -0.00000000000E+00 -0.57301195661E+02  0.57301195661E+02  0.00000000000E+00 0.  1.
         25    2    1    2    0    0 -0.71876202268E+02 -0.35832259176E+02  0.27322509423E+03  0.31104911490E+03  0.12509780380E+03 0.  0.
          5    1    3    3  502    0 -0.66038411068E+02 -0.76624972279E+02  0.14933572207E+03  0.18041920186E+03  0.41800000000E+01 0. -1.
         -5    1    3    3    0  502 -0.58377912000E+01  0.40792713103E+02  0.12388937215E+03  0.13062991304E+03  0.41800000000E+01 0. -1.
        -11    1    1    2    0    0  0.10784761332E+02  0.15561522201E+02  0.66027509927E+02  0.68688456944E+02  0.00000000000E+00 0. -1.
         11    1    1    2    0    0  0.61091440937E+02  0.20270736975E+02 -0.91093665024E+01  0.65008057126E+02  0.00000000000E+00 0.  1.
</event>
<event>
 7    1  0.2661133E-009  0.1257892E+03  0.7561462E-02  0.1233841E+00
          2   -1    0    0  501    0  0.00000000000E+00  0.00000000000E+00  0.81623056430E+03  0.81623056430E+03  0.00000000000E+00 0. -1.
         -2   -1    0    0    0  501 -0.00000000000E+00 -0.00000000000E+00 -0.24415442121E+02  0.24415442121E+02  0.00000000000E+00 0.  1.
         25    2    1    2    0    0 -0.46257879603E+02 -0.69902845481E+02  0.31859650846E+03  0.35238763582E+03  0.12508841450E+03 0.  0.
          5    1    3    3  502    0  0.33777300873E+02 -0.50959145485E+02  0.85663872569E+02  0.10532574247E+03  0.41800000000E+01 0.  1.
         -5    1    3    3    0  502 -0.80035180475E+02 -0.18943699997E+02  0.23293263589E+03  0.24706189335E+03  0.41800000000E+01 0.  1.
        -11    1    1    2    0    0  0.46150630676E+02  0.82936195724E+02  0.46001900773E+03  0.46970818680E+03  0.00000000000E+00 0. -1.
         11    1    1    2    0    0  0.10724892734E+00 -0.13033350243E+02  0.13199605988E+02  0.18550183803E+02  0.00000000000E+00 0.  1.
</event>
<event>
 7    1  0.2661133E-009  0.8679391E+02  0.7561462E-02  0.1310807E+00
         -2   -1    0    0    0  501 -0.00000000000E+00  0.00000000000E+00  0.13968786436E+02  0.13968786436E+02  0.00000000000E+00 0.  1.
          2   -1    0    0  501    0  0.00000000000E+00 -0.00000000000E+00 -0.90512266348E+03  0.90512266348E+03  0.00000000000E+00 0. -1.
         25    2    1    2    0    0 -0.17222566116E+02 -0.17865844643E+02 -0.57464437726E+03  0.58863054643E+03  0.12511576511E+03 0.  0.
          5    1    3    3  502    0 -0.15839993642E+02 -0.46929075423E+02 -0.87754793215E+02  0.10085444785E+03  0.41800000000E+01 0. -1.
         -5    1    3    3    0  502 -0.13825724733E+01  0.29063230780E+02 -0.48688958405E+03  0.48777609858E+03  0.41800000000E+01 0. -1.
        -11    1    1    2    0    0  0.51408543998E+02 -0.74528069252E+01 -0.15666790595E+03  0.16505518920E+03  0.00000000000E+00 0. -1.
         11    1    1    2    0    0 -0.34185977882E+02  0.25318651568E+02 -0.15984159383E+03  0.16540571429E+03  0.00000000000E+00 0.  1.
</event>
<event>
 7    1  0.2661133E-009  0.1370710E+03  0.7561462E-02  0.1217325E+00
          1   -1    0    0  501    0  0.00000000000E+00  0.00000000000E+00  0.18866107599E+03  0.18866107599E+03  0.00000000000E+00 0. -1.
         -1   -1    0    0    0  501 -0.00000000000E+00 -0.00000000000E+00 -0.12961597623E+03  0.12961597623E+03  0.00000000000E+00 0.  1.
         25    2    1    2    0    0 -0.34757730128E+02  0.10083676605E+03 -0.54186645317E+01  0.16447964984E+03  0.12509212644E+03 0.  0.
          5    1    3    3  502    0 -0.35500792750E+02 -0.31422321501E+00  0.39889551106E+02  0.53563548329E+02  0.41800000000E+01 0. -1.
         -5    1    3    3    0  502  0.74306262180E+00  0.10115098926E+03 -0.45308215638E+02  0.11091610151E+03  0.41800000000E+01 0. -1.
        -11    1    1    2    0    0  0.45646445728E+01 -0.10636212075E+03  0.37287747614E+02  0.11280120936E+03  0.00000000000E+00 0.  1.
         11    1    1    2    0    0  0.30193085555E+02  0.55253547025E+01  0.27176016677E+02  0.40996193023E+02  0.00000000000E+00 0. -1.
</event>
<event>
 7    1  0.2661133E-009  0.1797092E+03  0.7561462E-02  0.1168085E+00
         -1   -1    0    0    0  501 -0.00000000000E+00  0.00000000000E+00  0.45018473414E+02  0.45018473414E+02  0.00000000000E+00 0.  1.
          1   -1    0    0  501    0  0.00000000000E+00 -0.00000000000E+00 -0.86724339395E+03  0.86724339395E+03  0.00000000000E+00 0. -1.
         25    2    1    2    0    0 -0.15743362870E+03  0.43170383346E+02 -0.38551829189E+03  0.43694608943E+03  0.12509397363E+03 0.  0.
          5    1    3    3  502    0 -0.14764153052E+03  0.23272926332E+02 -0.19820740250E+03  0.24828068278E+03  0.41800000000E+01 0. -1.
         -5    1    3    3    0  502 -0.97920981810E+01  0.19897457013E+02 -0.18731088939E+03  0.18866540665E+03  0.41800000000E+01 0. -1.
        -11    1    1    2    0    0  0.86801882791E+02 -0.70266305484E+02 -0.24656221511E+03  0.27067479835E+03  0.00000000000E+00 0.  1.
         11    1    1    2    0    0  0.70631745911E+02  0.27095922139E+02 -0.19014441353E+03  0.20464097958E+03  0.00000000000E+00 0. -1.
</event>
<event>
 7    1  0.2661133E-009  0.2554793E+03  0.7561462E-02  0.1109890E+00
          4   -1    0    0  501    0  0.00000000000E+00  0.00000000000E+00  0.14529734252E+03  0.14529734252E+03  0.00000000000E+00 0. -1.
         -4   -1    0    0    0  501 -0.00000000000E+00 -0.00000000000E+00 -0.62121647000E+03  0.62121647000E+03  0.00000000000E+00 0.  1.
         25    2    1    2    0    0  0.16400242333E+03  0.17155342670E+03 -0.43174149669E+03  0.50830661640E+03  0.12509006053E+03 0.  0.
          5    1    3    3  502    0  0.13917178607E+02 -0.14688063037E+02 -0.82086636776E+02  0.84647004634E+02  0.41800000000E+01 0.  1.
         -5    1    3    3    0  502  0.15008524473E+03  0.18624148974E+03 -0.34965485991E+03  0.42365961177E+03  0.41800000000E+01 0.  1.
        -11    1    1    2    0    0 -0.13913094616E+03 -0.17746961795E+03 -0.52092857766E+02  0.23144448860E+03  0.00000000000E+00 0.  1.
         11    1    1    2    0    0 -0.24871477174E+02  0.59161912482E+01  0.79152269762E+01  0.26762707519E+02  0.00000000000E+00 0. -1.
</event>
<event>
 7    1  0.2661133E-009  0.9432278E+02  0.7561462E-02  0.1292709E+00
         -2   -1    0    0    0  501 -0.00000000000E+00  0.00000000000E+00  0.32579439796E+03  0.32579439796E+03  0.00000000000E+00 0. -1.
          2   -1    0    0  501    0  0.00000000000E+00 -0.00000000000E+00 -0.45146489340E+02  0.45146489340E+02  0.00000000000E+00 0.  1.
         25    2    1    2    0    0  0.12763854122E+01 -0.54583333310E+02  0.16444199550E+03  0.21370274955E+03  0.12508687320E+03 0.  0.
          5    1    3    3  502    0 -0.40639067477E+02 -0.56416310523E+02  0.35777654756E+02  0.78306110095E+02  0.41800000000E+01 0.  1.
         -5    1    3    3    0  502  0.41915452889E+02  0.18329772130E+01  0.12866434074E+03  0.13539663945E+03  0.41800000000E+01 0.  1.
        -11    1    1    2    0    0  0.15596265004E+02 -0.38019845584E+01 -0.87527988096E+01  0.18284147660E+02  0.00000000000E+00 0.  1.
         11    1    1    2    0    0 -0.16872650416E+02  0.58385317868E+02  0.12495871193E+03  0.13895399009E+03  0.00000000000E+00 0. -1.
</event>
<event>
 7    1  0.2661133E-009  0.1390887E+03  0.7561462E-02  0.1214560E+00
          1   -1    0    0  501    0  0.00000000000E+00  0.00000000000E+00  0.61162207385E+02  0.61162207385E+02  0.00000000000E+00 0. -1.
         -1   -1    0    0    0  501 -0.00000000000E+00 -0.00000000000E+00 -0.48467700440E+03  0.48467700440E+03  0.00000000000E+00 0.  1.
         25    2    1    2    0    0  0.69045536767E+02  0.11287157847E+03 -0.18274678762E+03  0.25797765259E+03  0.12509516970E+03 0.  0.
          5    1    3    3  502    0  0.68189808358E+02  0.55216430149E+02 -0.27078673203E+02  0.91920786902E+02  0.41800000000E+01 0. -1.
         -5    1    3    3    0  502  0.85572840891E+00  0.57655148316E+02 -0.15566811441E+03  0.16605686569E+03  0.41800000000E+01 0. -1.
        -11    1    1    2    0    0 -0.41660665212E+02 -0.74899225702E+02 -0.69601115954E+02  0.11040751957E+03  0.00000000000E+00 0. -1.
         11    1    1    2    0    0 -0.27384871555E+02 -0.37972352764E+02 -0.17116689345E+03  0.17745403962E+03  0.00000000000E+00 0.  1.
</event>
<event>
 7    1  0.2661133E-009  0.1053330E+03  0.7561462E-02  0.1269465E+00
         -2   -1    0    0    0  501 -0.00000000000E+00  0.00000000000E+00  0.52551846502E+02  0.52551846502E+02  0.00000000000E+00 0.  1.
          2   -1    0    0  501    0  0.00000000000E+00 -0.00000000000E+00 -0.31008897503E+03  0.31008897503E+03  0.00000000000E+00 0. -1.
         25    2    1    2    0    0  0.57344546333E+02  0.15209279486E+02 -0.18561662153E+03  0.23156261901E+03  0.12509195480E+03 0.  0.
          5    1    3    3  502    0 -0.34461320778E+02 -0.12095052739E+02 -0.84873772180E+02  0.92492716116E+02  0.41800000000E+01 0. -1.
         -5    1    3    3    0  502  0.91805867112E+02  0.27304332226E+02 -0.10074284935E+03  0.13906990289E+03  0.41800000000E+01 0. -1.
        -11    1    1    2    0    0 -0.31833819904E+02  0.17677419277E+02 -0.80705756369E+02  0.88539834838E+02  0.00000000000E+00 0. -1.
         11    1    1    2    0    0 -0.25510726429E+02 -0.32886698763E+02  0.87852493769E+01  0.42538367683E+02  0.00000000000E+00 0.  1.
</event>
<event>
 7    1  0.2661133E-009  0.1163846E+03  0.7561462E-02  0.1249183E+00
          2   -1    0    0  501    0  0.00000000000E+00  0.00000000000E+00  0.12388777515E+03  0.12388777515E+03  0.00000000000E+00 0. -1.
         -2   -1    0    0    0  501 -0.00000000000E+00 -0.00000000000E+00 -0.11577385154E+03  0.11577385154E+03  0.00000000000E+00 0.  1.
         25    2    1    2    0    0 -0.51461349057E+02  0.40142731008E+01 -0.18468623006E+02  0.13657282469E+03  0.12508661629E+03 0.  0.
          5    1    3    3  502    0  0.28991617600E+02  0.37496788132E+02 -0.12113987712E+02  0.49099329014E+02  0.41800000000E+01 0. -1.
         -5    1    3    3    0  502 -0.80452966658E+02 -0.33482515031E+02 -0.63546352942E+01  0.87473495680E+02  0.41800000000E+01 0. -1.
        -11    1    1    2    0    0  0.74545314766E+01 -0.40253332823E+02  0.20423189711E+02  0.45749399131E+02  0.00000000000E+00 0.  1.
         11    1    1    2    0    0  0.44006817581E+02  0.36239059722E+02  0.61593569043E+01  0.57339402862E+02  0.00000000000E+00 0. -1.
</event>
<event>
 7    1  0.2661133E-009  0.1194981E+03  0.7561462E-02  0.1243927E+00
          1   -1    0    0  501    0  0.00000000000E+00  0.00000000000E+00  0.11052960748E+03  0.11052960748E+03  0.00000000000E+00 0. -1.
         -1   -1    0    0    0  501 -0.00000000000E+00 -0.00000000000E+00 -0.16568917624E+03  0.16568917624E+03  0.00000000000E+00 0.  1.
         25    2    1    2    0    0  0.43941348969E+01  0.80853333494E+02 -0.27312802890E+02  0.15149284411E+03  0.12509005818E+03 0.  0.
          5    1    3    3  502    0  0.65989440771E+01  0.11399108954E+03 -0.12675494844E+02  0.11495936294E+03  0.41800000000E+01 0.  1.
         -5    1    3    3    0  502 -0.22048091802E+01 -0.33137756049E+02 -0.14637308046E+02  0.36533481169E+02  0.41800000000E+01 0.  1.
        -11    1    1    2    0    0  0.15983762282E+02 -0.60061248438E+02  0.22887577495E+02  0.66231981884E+02  0.00000000000E+00 0. -1.
         11    1    1    2    0    0 -0.20377897179E+02 -0.20792085056E+02 -0.50734343363E+02  0.58493957729E+02  0.00000000000E+00 0.  1.
</event>
<event>
 7    1  0.2661133E-009  0.1302942E+03  0.7561462E-02  0.1227020E+00
          2   -1    0    0  501    0  0.00000000000E+00  0.00000000000E+00  0.38119989358E+03  0.38119989358E+03  0.00000000000E+00 0. -1.
         -2   -1    0    0    0  501 -0.00000000000E+00 -0.00000000000E+00 -0.13487105801E+03  0.13487105801E+03  0.00000000000E+00 0.  1.
         25    2    1    2    0    0 -0.96162492595E+02 -0.10909940549E+02  0.32534324919E+03  0.36173895284E+03  0.12506233816E+03 0.  0.
          5    1    3    3  502    0 -0.10071888102E+03  0.17610718946E+02  0.13620991285E+03  0.17036737709E+03  0.41800000000E+01 0. -1.
         -5    1    3    3    0  502  0.45563884278E+01 -0.28520659495E+02  0.18913333634E+03  0.19137157576E+03  0.41800000000E+01 0. -1.
        -11    1    1    2    0    0  0.92908404828E+02  0.39023876928E+02 -0.75279706291E+02  0.12578501038E+03  0.00000000000E+00 0.  1.
         11    1    1    2    0    0  0.32540877665E+01 -0.28113936378E+02 -0.37347073201E+01  0.28546988364E+02  0.00000000000E+00 0. -1.
</event>
<event>
 7    1  0.2661133E-009  0.1002923E+03  0.7561462E-02  0.1279682E+00
         -1   -1    0    0    0  501 -0.00000000000E+00  0.00000000000E+00  0.89286207115E+02  0.89286207115E+02  0.00000000000E+00 0.  1.
          1   -1    0    0  501    0  0.00000000000E+00 -0.00000000000E+00 -0.15935167408E+03  0.15935167408E+03  0.00000000000E+00 0. -1.
         25    2    1    2    0    0  0.18049565189E+02 -0.44448690923E+02 -0.24080516232E+02  0.13612186195E+03  0.12509123515E+03 0.  0.
          5    1    3    3  502    0 -0.32514979583E+02 -0.68627406812E+02 -0.30632590215E+01  0.76117020559E+02  0.41800000000E+01 0.  1.
         -5    1    3    3    0  502  0.50564544772E+02  0.24178715888E+02 -0.21017257211E+02  0.60004841394E+02  0.41800000000E+01 0.  1.
        -11    1    1    2    0    0 -0.32020138803E+02  0.14241843715E+02  0.18736602500E+02  0.39738893727E+02  0.00000000000E+00 0.  1.
         11    1    1    2    0    0  0.13970573613E+02  0.30206847208E+02 -0.64721553237E+02  0.72777125518E+02  0.00000000000E+00 0. -1.
</event>
<event>
 7    1  0.2661133E-009  0.1883034E+03  0.7561462E-02  0.1160000E+00
         -1   -1    0    0    0  501 -0.00000000000E+00  0.00000000000E+00  0.43003411817E+03  0.43003411817E+03  0.00000000000E+00 0.  1.
          1   -1    0    0  501    0  0.00000000000E+00 -0.00000000000E+00 -0.10690306205E+03  0.10690306205E+03  0.00000000000E+00 0. -1.
         25    2    1    2    0    0  0.15343987456E+03 -0.95713797544E+02  0.21623314450E+03  0.30839959363E+03  0.12509440605E+03 0.  0.
          5    1    3    3  502    0  0.10986660032E+03 -0.87913359089E+02  0.22270701316E+03  0.26346786271E+03  0.41800000000E+01 0.  1.
         -5    1    3    3    0  502  0.43573274234E+02 -0.78004384547E+01 -0.64738686569E+01  0.44931730914E+02  0.41800000000E+01 0.  1.
        -11    1    1    2    0    0 -0.12483878090E+03  0.44166924637E+02  0.10593315460E+03  0.16957969127E+03  0.00000000000E+00 0.  1.
         11    1    1    2    0    0 -0.28601093659E+02  0.51546872907E+02  0.96475702666E+00  0.58957895324E+02  0.00000000000E+00 0. -1.
</event>
<event>
 7    1  0.2661133E-009  0.7536402E+02  0.7561462E-02  0.1342747E+00
          2   -1    0    0  501    0  0.00000000000E+00  0.00000000000E+00  0.15503737227E+03  0.15503737227E+03  0.00000000000E+00 0. -1.
         -2   -1    0    0    0  501 -0.00000000000E+00 -0.00000000000E+00 -0.93040903045E+02  0.93040903045E+02  0.00000000000E+00 0.  1.
         25    2    1    2    0    0  0.28023531923E+00 -0.48254283016E+02  0.56222296421E+02  0.14539272595E+03  0.12509813661E+03 0.  0.
          5    1    3    3  502    0  0.50702737254E+01 -0.17309486613E+02  0.94194866788E+02  0.95997246479E+02  0.41800000000E+01 0. -1.
         -5    1    3    3    0  502 -0.47900384061E+01 -0.30944796403E+02 -0.37972570366E+02  0.49395479475E+02  0.41800000000E+01 0. -1.
        -11    1    1    2    0    0 -0.12826890822E+02  0.72337885125E+02  0.12946966646E+02  0.74598409486E+02  0.00000000000E+00 0. -1.
         11    1    1    2    0    0  0.12546655503E+02 -0.24083602109E+02 -0.71727938430E+01  0.28087139875E+02  0.00000000000E+00 0.  1.
</event>
<event>
 7    1  0.2661133E-009  0.1480609E+03  0.7561462E-02  0.1202876E+00
          2   -1    0    0  501    0  0.00000000000E+00  0.00000000000E+00  0.91038252852E+03  0.91038252852E+03  0.00000000000E+00 0. -1.
         -2   -1    0    0    0  501 -0.00000000000E+00 -0.00000000000E+00 -0.30580093063E+02  0.30580093063E+02  0.00000000000E+00 0.  1.
         25    2    1    2    0    0  0.12256657878E+03  0.29758912087E+01  0.56374515106E+03  0.59032801146E+03  0.12508854307E+03 0.  0.
          5    1    3    3  502    0 -0.16716149120E+02  0.13511219350E+02  0.22748640443E+02  0.31574605805E+02  0.41800000000E+01 0. -1.
         -5    1    3    3    0  502  0.13928272790E+03 -0.10535328141E+02  0.54099651062E+03  0.55875340566E+03  0.41800000000E+01 0. -1.
        -11    1    1    2    0    0 -0.56544256430E+02 -0.28961913193E+02  0.69904176956E+02  0.94459723199E+02  0.00000000000E+00 0.  1.
         11    1    1    2    0    0 -0.66022322355E+02  0.25986021984E+02  0.24615310744E+03  0.25617488692E+03  0.00000000000E+00 0. -1.
</event>
<event>
 7    1  0.2661133E-009  0.1292217E+03  0.7561462E-02  0.1228615E+00
         -2   -1    0    0    0  501 -0.00000000000E+00  0.00000000000E+00  0.93024319041E+02  0.93024319041E+02  0.00000000000E+00 0.  1.
          2   -1    0    0  501    0  0.00000000000E+00 -0.00000000000E+00 -0.25696041018E+03  0.25696041018E+03  0.00000000000E+00 0. -1.
         25    2    1    2    0    0  0.52275803317E+02 -0.92159544620E+02 -0.12471361790E+03  0.20597258642E+03  0.12508028857E+03 0.  0.
          5    1    3    3  502    0  0.60903508245E+02 -0.94537627037E+02 -0.14491914222E+03  0.18348196212E+03  0.41800000000E+01 0.  1.
         -5    1    3    3    0  502 -0.86277049282E+01  0.23780824176E+01  0.20205524316E+02  0.22490624296E+02  0.41800000000E+01 0.  1.
        -11    1    1    2    0    0 -0.16238750925E+01 -0.16271702123E+02 -0.14394295603E+02  0.21785339249E+02  0.00000000000E+00 0. -1.
         11    1    1    2    0    0 -0.50651928225E+02  0.10843124674E+03 -0.24828177634E+02  0.12222680356E+03  0.00000000000E+00 0.  1.
</event>
<event>
 7    1  0.2661133E-009  0.9946260E+02  0.7561462E-02  0.1281430E+00
          2   -1    0    0  501    0  0.00000000000E+00  0.00000000000E+00  0.11316381785E+04  0.11316381785E+04  0.00000000000E+00 0. -1.
         -2   -1    0    0    0  501 -0.00000000000E+00 -0.00000000000E+00 -0.19590218113E+02  0.19590218113E+02  0.00000000000E+00 0.  1.
         25    2    1    2    0    0 -0.38531215788E+02  0.16028380824E+01  0.99178431825E+03  0.10003849643E+04  0.12508684659E+03 0.  0.
          5    1    3    3  502    0 -0.74729290646E+02 -0.70088835653E+01  0.86300551236E+03  0.86627338531E+03  0.41800000000E+01 0.  1.
         -5    1    3    3    0  502  0.36198074859E+02  0.86117216478E+01  0.12877880589E+03  0.13411157899E+03  0.41800000000E+01 0.  1.
        -11    1    1    2    0    0  0.38228924009E+02 -0.35643227204E+02  0.95078775262E+02  0.10849822018E+03  0.00000000000E+00 0. -1.
         11    1    1    2    0    0  0.30229177896E+00  0.34040389121E+02  0.25184866890E+02  0.42345212151E+02  0.00000000000E+00 0.  1.
</event>
<event>
 7    1  0.2661133E-009  0.1274857E+03  0.7561462E-02  0.1231235E+00
          2   -1    0    0  501    0  0.00000000000E+00  0.00000000000E+00  0.20814161922E+03  0.20814161922E+03  0.00000000000E+00 0. -1.
         -2   -1    0    0    0  501 -0.00000000000E+00 -0.00000000000E+00 -0.13434745283E+03  0.13434745283E+03  0.00000000000E+00 0.  1.
         25    2    1    2    0    0  0.42249987275E+02 -0.88760487672E+02 -0.42318012125E+02  0.16462917672E+03  0.12509382911E+03 0.  0.
          5    1    3    3  502    0  0.11603675210E+02 -0.88582706055E+02 -0.77100974309E+02  0.11808291041E+03  0.41800000000E+01 0. -1.
         -5    1    3    3    0  502  0.30646312066E+02 -0.17778161722E+00  0.34782962184E+02  0.46546266315E+02  0.41800000000E+01 0. -1.
        -11    1    1    2    0    0  0.26494118350E+02  0.62740560063E+01  0.26643778605E+02  0.38094527484E+02  0.00000000000E+00 0.  1.
         11    1    1    2    0    0 -0.68744105625E+02  0.82486431666E+02  0.89468399911E+02  0.13976536785E+03  0.00000000000E+00 0. -1.
</event>
<event>
 7    1  0.2661133E-009  0.1313242E+03  0.7561462E-02  0.1225504E+00
         -2   -1    0    0    0  501 -0.00000000000E+00  0.00000000000E+00  0.26237417966E+03  0.26237417966E+03  0.00000000000E+00 0.  1.
          2   -1    0    0  501    0  0.00000000000E+00 -0.00000000000E+00 -0.93576269032E+02  0.93576269032E+02  0.00000000000E+00 0. -1.
         25    2    1    2    0    0 -0.90082938614E+02 -0.27061675975E+02  0.19143264676E+02  0.15767124646E+03  0.12508591944E+03 0.  0.
          5    1    3    3  502    0  0.10001746384E+02  0.31778326648E+02 -0.14720814662E+02  0.36661584248E+02  0.41800000000E+01 0.  1.
         -5    1    3    3    0  502 -0.10008468500E+03 -0.58840002624E+02  0.33864079338E+02  0.12100966221E+03  0.41800000000E+01 0.  1.
        -11    1    1    2    0    0  0.90282238208E+02  0.45627060255E+01  0.15072408402E+03  0.17575394825E+03  0.00000000000E+00 0.  1.
         11    1    1    2    0    0 -0.19929959424E+00  0.22498969950E+02 -0.10694380662E+01  0.22525253981E+02  0.00000000000E+00 0. -1.
</event>
<event>
 7    1  0.2661133E-009  0.1247281E+03  0.7561462E-02  0.1235495E+00
         -2   -1    0    0    0  501 -0.00000000000E+00  0.00000000000E+00  0.92169589535E+02  0.92169589535E+02  0.00000000000E+00 0.  1.
          2   -1    0    0  501    0  0.00000000000E+00 -0.00000000000E+00 -0.27145780259E+03  0.27145780259E+03  0.00000000000E+00 0. -1.
         25    2    1    2    0    0  0.60341153080E+02  0.78324972647E+02 -0.30627098496E+02  0.16236208187E+03  0.12509024891E+03 0.  0.
          5    1    3    3  502    0  0.80465419701E+02  0.15689955969E+02 -0.46792984951E+02  0.94487641132E+02  0.41800000000E+01 0.  1.
         -5    1    3    3    0  502 -0.20124266621E+02  0.62635016678E+02  0.16165886455E+02  0.67874440743E+02  0.41800000000E+01 0.  1.
        -11    1    1    2    0    0 -0.24528199716E+02 -0.50338474933E+02 -0.12031818623E+02  0.57274420986E+02  0.00000000000E+00 0. -1.
         11    1    1    2    0    0 -0.35812953365E+02 -0.27986497715E+02 -0.13662929594E+03  0.14399088927E+03  0.00000000000E+00 0.  1.
</event>
<event>
 6    1  0.2661133E-009  0.6936572E+02  0.7561462E-02  0.1362263E+00
          2   -1    0    0  501    0  0.00000000000E+00  0.00000000000E+00  0.11516517289E+04  0.11516517289E+04  0.00000000000E+00 0. -1.
         -2   -1    0    0    0  501 -0.00000000000E+00 -0.00000000000E+00 -0.20308390980E+02  0.20308390980E+02  0.00000000000E+00 0.  1.
          5    1    1    2  502    0 -0.18175784997E+02  0.26140587490E+02  0.97677869509E+03  0.97730639058E+03  0.41800000000E+01 0. -1.
         -5    1    1    2    0  502 -0.26954935582E+01  0.12329338370E+02  0.63636340292E+01  0.14739284522E+02  0.41800000000E+01 0. -1.
        -11    1    1    2    0    0  0.26725324245E+01 -0.62847100215E+02  0.61259971834E+02  0.87804809572E+02  0.00000000000E+00 0.  1.
         11    1    1    2    0    0  0.18198746131E+02  0.24377174354E+02  0.86941036985E+02  0.92109635230E+02  0.00000000000E+00 0. -1.
</event>
<event>
 7    1  0.2661133E-009  0.9522590E+02  0.7561462E-02  0.1290668E+00
          2   -1    0    0  501    0  0.00000000000E+00  0.00000000000E+00  0.11534040351E+04  0.11534040351E+04  0.00000000000E+00 0. -1.
         -2   -1    0    0    0  501 -0.00000000000E+00 -0.00000000000E+00 -0.14286184576E+02  0.14286184576E+02  0.00000000000E+00 0.  1.
         25    2    1    2    0    0 -0.13049370451E+02 -0.53039532211E+02  0.83587447787E+03  0.84694593140E+03  0.12509112644E+03 0.  0.
          5    1    3    3  502    0  0.44329832162E+02 -0.28108416513E+02  0.16618683915E+03  0.17432944389E+03  0.41800000000E+01 0. -1.
         -5    1    3    3    0  502 -0.57379202613E+02 -0.24931115698E+02  0.66968763872E+03  0.67261648751E+03  0.41800000000E+01 0. -1.
        -11    1    1    2    0    0  0.25712529201E+02  0.60311120152E+01  0.19435222065E+02  0.32790796373E+02  0.00000000000E+00 0.  1.
         11    1    1    2    0    0 -0.12663158750E+02  0.47008420196E+02  0.28380815059E+03  0.28795349191E+03  0.00000000000E+00 0. -1.
</event>
<event>
 7    1  0.2661133E-009  0.1034917E+03  0.7561462E-02  0.1273120E+00
         -2   -1    0    0    0  501 -0.00000000000E+00  0.00000000000E+00  0.72162222574E+03  0.72162222574E+03  0.00000000000E+00 0.  1.
          2   -1    0    0  501    0  0.00000000000E+00 -0.00000000000E+00 -0.29184771868E+02  0.29184771868E+02  0.00000000000E+00 0. -1.
         25    2    1    2    0    0 -0.23916045856E+02 -0.13685328132E+02  0.60311134305E+03  0.61656409114E+03  0.12509484768E+03 0.  0.
          5    1    3    3  502    0  0.42010224428E+02  0.75315912690E+00  0.94842444953E+02  0.10381708901E+03  0.41800000000E+01 0. -1.
         -5    1    3    3    0  502 -0.65926270285E+02 -0.14438487259E+02  0.50826889810E+03  0.51274700214E+03  0.41800000000E+01 0. -1.
        -11    1    1    2    0    0  0.31961117962E+02 -0.35230548181E+02  0.60277322728E+02  0.76785807424E+02  0.00000000000E+00 0. -1.
         11    1    1    2    0    0 -0.80450721064E+01  0.48915876312E+02  0.29048788098E+02  0.57457099044E+02  0.00000000000E+00 0.  1.
</event>
<event>
 7    1  0.2661133E-009  0.1585856E+03  0.7561462E-02  0.1190303E+00
          1   -1    0    0  501    0  0.00000000000E+00  0.00000000000E+00  0.12850698269E+03  0.12850698269E+03  0.00000000000E+00 0. -1.
         -1   -1    0    0    0  501 -0.00000000000E+00 -0.00000000000E+00 -0.27166441085E+03  0.27166441085E+03  0.00000000000E+00 0.  1.
         25    2    1    2    0    0 -0.13030022362E+03  0.76241508346E+02 -0.54855453808E+02  0.20358734736E+03  0.12509105212E+03 0.  0.
          5    1    3    3  502    0 -0.46218465825E+02  0.37373933396E+02  0.39347822403E+02  0.71405048901E+02  0.41800000000E+01 0. -1.
         -5    1    3    3    0  502 -0.84081757798E+02  0.38867574950E+02 -0.94203276211E+02  0.13218229846E+03  0.41800000000E+01 0. -1.
        -11    1    1    2    0    0  0.11309863840E+03 -0.88607818400E+02 -0.48759362571E+02  0.15172383770E+03  0.00000000000E+00 0.  1.
         11    1    1    2    0    0  0.17201585223E+02  0.12366310053E+02 -0.39542611779E+02  0.44860208480E+02  0.00000000000E+00 0. -1.
</event>
<event>
 7    1  0.2661133E-009  0.6008050E+02  0.7561462E-02  0.1397494E+00
          1   -1    0    0  501    0  0.00000000000E+00  0.00000000000E+00  0.47487715874E+02  0.47487715874E+02  0.00000000000E+00 0. -1.
         -1   -1    0    0    0  501 -0.00000000000E+00 -0.00000000000E+00 -0.26099260745E+03  0.26099260745E+03  0.00000000000E+00 0.  1.
         25    2    1    2    0    0 -0.17930484388E+02 -0.60782084151E+01 -0.15032504607E+03  0.19647791572E+03  0.12508998762E+03 0.  0.
          5    1    3    3  502    0 -0.21348717844E+02  0.88323610785E+01  0.16629854953E+02  0.28771562898E+02  0.41800000000E+01 0.  1.
         -5    1    3    3    0  502  0.34182334559E+01 -0.14910569494E+02 -0.16695490102E+03  0.16770635282E+03  0.41800000000E+01 0.  1.
        -11    1    1    2    0    0 -0.75488999145E+01  0.38700973464E+02 -0.37922418726E+01  0.39612275060E+02  0.00000000000E+00 0. -1.
         11    1    1    2    0    0  0.25479384303E+02 -0.32622765049E+02 -0.59387603634E+02  0.72390132541E+02  0.00000000000E+00 0.  1.
</event>
<event>
 7    1  0.2661133E-009  0.9991844E+02  0.7561462E-02  0.1280468E+00
          2   -1    0    0  501    0  0.00000000000E+00  0.00000000000E+00  0.20753272240E+03  0.20753272240E+03  0.00000000000E+00 0. -1.
         -2   -1    0    0    0  501 -0.00000000000E+00 -0.00000000000E+00 -0.81587095127E+02  0.81587095127E+02  0.00000000000E+00 0.  1.
         25    2    1    2    0    0  0.17506609582E+01 -0.72510695955E+02  0.75387803496E+02  0.16306898561E+03  0.12508919741E+03 0.  0.
          5    1    3    3  502    0  0.21845886322E+02  0.10126122024E+02  0.73977360957E+02  0.77909584972E+02  0.41800000000E+01 0. -1.
         -5    1    3    3    0  502 -0.20095225363E+02 -0.82636817979E+02  0.14104425386E+01  0.85159400634E+02  0.41800000000E+01 0. -1.
        -11    1    1    2    0    0 -0.76543534787E+01 -0.70885727670E+01 -0.18017755508E+02  0.20820098574E+02  0.00000000000E+00 0.  1.
         11    1    1    2    0    0  0.59036925205E+01  0.79599268722E+02  0.68575579284E+02  0.10523073335E+03  0.00000000000E+00 0. -1.
</event>
<event>
 7    1  0.2661133E-009  0.1207427E+03  0.7561462E-02  0.1241877E+00
         -1   -1    0    0    0  501 -0.00000000000E+00  0.00000000000E+00  0.46472850051E+02  0.46472850051E+02  0.00000000000E+00 0.  1.
          1   -1    0    0  501    0  0.00000000000E+00 -0.00000000000E+00 -0.54836604966E+03  0.54836604966E+03  0.00000000000E+00 0. -1.
         25    2    1    2    0    0 -0.80737109910E+02  0.80124788985E+02 -0.22331787310E+03  0.28010133894E+03  0.12508966746E+03 0.  0.
          5    1    3    3  502    0 -0.53674951178E+02  0.36786205919E+02 -0.16826009441E+02  0.67341015166E+02  0.41800000000E+01 0. -1.
         -5    1    3    3    0  502 -0.27062158732E+02  0.43338583067E+02 -0.20649186366E+03  0.21276032378E+03  0.41800000000E+01 0. -1.
        -11    1    1    2    0    0  0.26443016303E+01 -0.34440252630E+02 -0.18099514632E+02  0.38996355756E+02  0.00000000000E+00 0.  1.
         11    1    1    2    0    0  0.78092808279E+02 -0.45684536355E+02 -0.26047581188E+03  0.27574120501E+03  0.00000000000E+00 0. -1.
</event>
<event>
 7    1  0.2661133E-009  0.1134048E+03  0.7561462E-02  0.1254392E+00
         -2   -1    0    0    0  501 -0.00000000000E+00  0.00000000000E+00  0.22236194535E+02  0.22236194535E+02  0.00000000000E+00 0.  1.
          2   -1    0    0  501    0  0.00000000000E+00 -0.00000000000E+00 -0.10724564902E+04  0.10724564902E+04  0.00000000000E+00 0. -1.
         25    2    1    2    0    0 -0.71110370226E+02  0.62147566326E+01 -0.86266984333E+03  0.87460965939E+03  0.12508992667E+03 0.  0.
          5    1    3    3  502    0  0.20623574726E+02  0.85572297872E+01 -0.34163436508E+02  0.41026464754E+02  0.41800000000E+01 0.  1.
         -5    1    3    3    0  502 -0.91733944952E+02 -0.23424731546E+01 -0.82850640682E+03  0.83358319464E+03  0.41800000000E+01 0.  1.
        -11    1    1    2    0    0  0.91458317606E+02 -0.80038658439E+01 -0.13109239185E+03  0.16004343450E+03  0.00000000000E+00 0.  1.
         11    1    1    2    0    0 -0.20347947380E+02  0.17891092112E+01 -0.56458060504E+02  0.60039590856E+02  0.00000000000E+00 0. -1.
</event>
<event>
 7    1  0.2661133E-009  0.1682869E+03  0.7561462E-02  0.1179646E+00
          2   -1    0    0  501    0  0.00000000000E+00  0.00000000000E+00  0.76968095969E+03  0.76968095969E+03  0.00000000000E+00 0. -1.
         -2   -1    0    0    0  501 -0.00000000000E+00 -0.00000000000E+00 -0.41652457240E+02  0.41652457240E+02  0.00000000000E+00 0.  1.
         25    2    1    2    0    0  0.12764434606E+03  0.38139562274E+02  0.28377706941E+03  0.33752725133E+03  0.12509002747E+03 0.  0.
          5    1    3    3  502    0  0.11274694527E+03  0.72668803250E+02  0.26068217928E+03  0.29319839636E+03  0.41800000000E+01 0.  1.
         -5    1    3    3    0  502  0.14897400786E+02 -0.34529240976E+02  0.23094890137E+02  0.44328854970E+02  0.41800000000E+01 0.  1.
        -11    1    1    2    0    0 -0.13300936513E+03 -0.72759956049E+01  0.36820633248E+03  0.39156140591E+03  0.00000000000E+00 0.  1.
         11    1    1    2    0    0  0.53650190696E+01 -0.30863566669E+02  0.76045100561E+02  0.82244759690E+02  0.00000000000E+00 0. -1.
</event>
<event>
 7    1  0.2661133E-009  0.9365379E+02  0.7561462E-02  0.1294237E+00
         -2   -1    0    0    0  501 -0.00000000000E+00  0.00000000000E+00  0.68775105179E+03  0.68775105179E+03  0.00000000000E+00 0.  1.
          2   -1    0    0  501    0  0.00000000000E+00 -0.00000000000E+00 -0.20644766681E+02  0.20644766681E+02  0.00000000000E+00 0. -1.
         25    2    1    2    0    0  0.38466424708E+02  0.24717257121E+02  0.43506604889E+03  0.45499355292E+03  0.12508420231E+03 0.  0.
          5    1    3    3  502    0 -0.24006414212E+02 -0.23282140926E+02  0.26941245871E+03  0.27151226734E+03  0.41800000000E+01 0.  1.
         -5    1    3    3    0  502  0.62472838919E+02  0.47999398047E+02  0.16565359018E+03  0.18348128557E+03  0.41800000000E+01 0.  1.
        -11    1    1    2    0    0 -0.46376046014E+02  0.24256501963E+01  0.21591985446E+03  0.22085743133E+03  0.00000000000E+00 0.  1.
         11    1    1    2    0    0  0.79096213066E+01 -0.27142907317E+02  0.16120381759E+02  0.32544834228E+02  0.00000000000E+00 0. -1.
</event>
<event>
 7    1  0.2661133E-009  0.1188585E+03  0.7561462E-02  0.1244992E+00
          2   -1    0    0  501    0  0.00000000000E+00  0.00000000000E+00  0.27406475467E+02  0.27406475467E+02  0.00000000000E+00 0. -1.
         -2   -1    0    0    0  501 -0.00000000000E+00 -0.00000000000E+00 -0.56240269894E+03  0.56240269894E+03  0.00000000000E+00 0.  1.
         25    2    1    2    0    0 -0.49650191442E+02  0.17496077160E+02 -0.24369489144E+03  0.27893592400E+03  0.12508715105E+03 0.  0.
          5    1    3    3  502    0  0.22950695613E+02  0.46357401831E+02 -0.13798919113E+03  0.14742534519E+03  0.41800000000E+01 0. -1.
         -5    1    3    3    0  502 -0.72600887055E+02 -0.28861324671E+02 -0.10570570031E+03  0.13151057882E+03  0.41800000000E+01 0. -1.
        -11    1    1    2    0    0  0.37113597060E+02 -0.55947518825E+02 -0.20134269160E+03  0.21224142718E+03  0.00000000000E+00 0.  1.
         11    1    1    2    0    0  0.12536594382E+02  0.38451441665E+02 -0.89958640432E+02  0.98631823227E+02  0.00000000000E+00 0. -1.
</event>
<event>
 7    1  0.2661133E-009  0.8430151E+02  0.7561462E-02  0.1317269E+00
          1   -1    0    0  501    0  0.00000000000E+00  0.00000000000E+00  0.36868773093E+03  0.36868773093E+03  0.00000000000E+00 0. -1.
         -1   -1    0    0    0  501 -0.00000000000E+00 -0.00000000000E+00 -0.33601763280E+02  0.33601763280E+02  0.00000000000E+00 0.  1.
         25    2    1    2    0    0 -0.18584137655E+02  0.62137183735E+01  0.21241729094E+03  0.24729035997E+03  0.12508971251E+03 0.  0.
          5    1    3    3  502    0 -0.29436289881E+01  0.55599518255E+02  0.44152204285E+02  0.71181886214E+02  0.41800000000E+01 0. -1.
         -5    1    3    3    0  502 -0.15640508667E+02 -0.49385799881E+02  0.16826508666E+03  0.17610847376E+03  0.41800000000E+01 0. -1.
        -11    1    1    2    0    0 -0.15430358239E+02  0.14331782867E+02 -0.46982895814E+01  0.21577068395E+02  0.00000000000E+00 0.  1.
         11    1    1    2    0    0  0.34014495894E+02 -0.20545501240E+02  0.12736696629E+03  0.13342206585E+03  0.00000000000E+00 0. -1.
</event>
<event>
 7    1  0.2661133E-009  0.1110035E+03  0.7561462E-02  0.1258723E+00
          1   -1    0    0  501    0  0.00000000000E+00  0.00000000000E+00  0.19131236181E+03  0.19131236181E+03  0.00000000000E+00 0. -1.
         -1   -1    0    0    0  501 -0.00000000000E+00 -0.00000000000E+00 -0.88106342190E+02  0.88106342190E+02  0.00000000000E+00 0.  1.
         25    2    1    2    0    0  0.19493281135E+02  0.64396031490E+02  0.84813928342E+02  0.16543280351E+03  0.12509105946E+03 0.  0.
          5    1    3    3  502    0  0.72606908031E+02  0.31740623971E+02  0.43117490079E+02  0.90309582297E+02  0.41800000000E+01 0. -1.
         -5    1    3    3    0  502 -0.53113626896E+02  0.32655407519E+02  0.41696438262E+02  0.75123221217E+02  0.41800000000E+01 0. -1.
        -11    1    1    2    0    0 -0.32793121855E+02 -0.35341859087E+02  0.49705949675E+02  0.69246785324E+02  0.00000000000E+00 0. -1.
         11    1    1    2    0    0  0.13299840720E+02 -0.29054172403E+02 -0.31313858401E+02  0.44739115158E+02  0.00000000000E+00 0.  1.
</event>
<event>
 7    1  0.2661133E-009  0.6738903E+02  0.7561462E-02  0.1369204E+00
          3   -1    0    0  501    0  0.00000000000E+00  0.00000000000E+00  0.10899294009E+03  0.10899294009E+03  0.00000000000E+00 0. -1.
         -3   -1    0    0    0  501 -0.00000000000E+00 -0.00000000000E+00 -0.11002650949E+03  0.11002650949E+03  0.00000000000E+00 0.  1.
         25    2    1    2    0    0 -0.15055555542E+02 -0.81763934802E+00  0.57676862606E+01  0.12612587757E+03  0.12508849868E+03 0.  0.
          5    1    3    3  502    0  0.12402976435E+02 -0.11740167260E+02 -0.55368818450E+02  0.58093405894E+02  0.41800000000E+01 0. -1.
         -5    1    3    3    0  502 -0.27458531977E+02  0.10922527912E+02  0.61136504711E+02  0.68032471678E+02  0.41800000000E+01 0. -1.
        -11    1    1    2    0    0 -0.30846171260E+02  0.20887465553E+02 -0.18282438742E+02  0.41497229607E+02  0.00000000000E+00 0.  1.
         11    1    1    2    0    0  0.45901726803E+02 -0.20069826205E+02  0.11481183089E+02  0.51396342404E+02  0.00000000000E+00 0. -1.
</event>
<event>
 7    1  0.2661133E-009  0.1134993E+03  0.7561462E-02  0.1254224E+00
         -2   -1    0    0    0  501 -0.00000000000E+00  0.00000000000E+00  0.18260903946E+02  0.18260903946E+02  0.00000000000E+00 0.  1.
          2   -1    0    0  501    0  0.00000000000E+00 -0.00000000000E+00 -0.87192749881E+03  0.87192749881E+03  0.00000000000E+00 0. -1.
         25    2    1    2    0    0 -0.54751008134E+01 -0.69007146200E+02 -0.45588687920E+03  0.47777615479E+03  0.12508095177E+03 0.  0.
          5    1    3    3  502    0 -0.48502655454E+02  0.72343761852E+01 -0.10280432020E+03  0.11397826300E+03  0.41800000000E+01 0.  1.
         -5    1    3    3    0  502  0.43027554641E+02 -0.76241522385E+02 -0.35308255901E+03  0.36379789179E+03  0.41800000000E+01 0.  1.
        -11    1    1    2    0    0 -0.12539646572E+02 -0.53464488267E+01 -0.93746196303E+01  0.16544205766E+02  0.00000000000E+00 0.  1.
         11    1    1    2    0    0  0.18014747386E+02  0.74353595027E+02 -0.38840509603E+03  0.39586804220E+03  0.00000000000E+00 0. -1.
</event>
<event>
 7    1  0.2661133E-009  0.1222775E+03  0.7561462E-02  0.1239386E+00
          2   -1    0    0  501    0  0.00000000000E+00  0.00000000000E+00  0.23706842386E+03  0.23706842386E+03  0.00000000000E+00 0. -1.
         -2   -1    0    0    0  501 -0.00000000000E+00 -0.00000000000E+00 -0.93690789193E+02  0.93690789193E+02  0.00000000000E+00 0.  1.
         25    2    1    2    0    0  0.10045906035E+03 -0.50551383719E+01  0.96617611366E+02  0.18735571791E+03  0.12509846113E+03 0.  0.
          5    1    3    3  502    0  0.29659210476E+02  0.27277760525E+02  0.10147098191E+03  0.10925922183E+03  0.41800000000E+01 0.  1.
         -5    1    3    3    0  502  0.70799849877E+02 -0.32332898897E+02 -0.48533705456E+01  0.78096496076E+02  0.41800000000E+01 0.  1.
        -11    1    1    2    0    0 -0.46986245586E+01 -0.25228842548E+02  0.33344606160E+02  0.42076529432E+02  0.00000000000E+00 0. -1.
         11    1    1    2    0    0 -0.95760435795E+02  0.30283980920E+02  0.13415417143E+02  0.10132696572E+03  0.00000000000E+00 0.  1.
</event>
<event>
 7    1  0.2661133E-009  0.1188991E+03  0.7561462E-02  0.1244924E+00
         -3   -1    0    0    0  501 -0.00000000000E+00  0.00000000000E+00  0.11447985978E+03  0.11447985978E+03  0.00000000000E+00 0.  1.
          3   -1    0    0  501    0  0.00000000000E+00 -0.00000000000E+00 -0.13934637696E+03  0.13934637696E+03  0.00000000000E+00 0. -1.
         25    2    1    2    0    0  0.51493231572E+02  0.21550796596E+02 -0.51782362294E+02  0.14643965856E+03  0.12508865186E+03 0.  0.
          5    1    3    3  502    0 -0.40006066304E+02  0.26144131275E+01 -0.30420553822E+02  0.50499534572E+02  0.41800000000E+01 0.  1.
         -5    1    3    3    0  502  0.91499297876E+02  0.18936383469E+02 -0.21361808472E+02  0.95940123993E+02  0.41800000000E+01 0.  1.
        -11    1    1    2    0    0 -0.67135428065E+02 -0.41256138085E+02  0.20205283174E+02  0.81347944654E+02  0.00000000000E+00 0. -1.
         11    1    1    2    0    0  0.15642196493E+02  0.19705341489E+02  0.67105619400E+01  0.26038633526E+02  0.00000000000E+00 0.  1.
</event>
<event>
 7    1  0.2661133E-009  0.8273126E+02  0.7561462E-02  0.1321474E+00
          2   -1    0    0  501    0  0.00000000000E+00  0.00000000000E+00  0.15235509106E+03  0.15235509106E+03  0.00000000000E+00 0. -1.
         -2   -1    0    0    0  501 -0.00000000000E+00 -0.00000000000E+00 -0.84040938775E+02  0.84040938775E+02  0.00000000000E+00 0.  1.
         25    2    1    2    0    0 -0.36198360769E+02 -0.15042285628E+02  0.44086277326E+02  0.13829908288E+03  0.12508574978E+03 0.  0.
          5    1    3    3  502    0 -0.68803233300E+02 -0.12910570702E+02  0.67929794766E+02  0.97634508066E+02  0.41800000000E+01 0.  1.
         -5    1    3    3    0  502  0.32604872531E+02 -0.21317149259E+01 -0.23843517439E+02  0.40664574819E+02  0.41800000000E+01 0.  1.
        -11    1    1    2    0    0 -0.47005094269E+00  0.24516027826E+02 -0.25640224673E+02  0.35477847870E+02  0.00000000000E+00 0.  1.
         11    1    1    2    0    0  0.36668411711E+02 -0.94737421982E+01  0.49868099631E+02  0.62619099079E+02  0.00000000000E+00 0. -1.
</event>
<event>
 7    1  0.2661133E-009  0.1229904E+03  0.7561462E-02  0.1238244E+00
         -2   -1    0    0    0  501 -0.00000000000E+00  0.00000000000E+00  0.15429517481E+02  0.15429517481E+02  0.00000000000E+00 0.  1.
          2   -1    0    0  501    0  0.00000000000E+00 -0.00000000000E+00 -0.11298654492E+04  0.11298654492E+04  0.00000000000E+00 0. -1.
         25    2    1    2    0    0  0.69486105665E+02  0.11821029241E+02 -0.73031354306E+03  0.74429102880E+03  0.12507281383E+03 0.  0.
          5    1    3    3  502    0 -0.22357729719E+02 -0.27698113060E+02 -0.10327691821E+03  0.10931901838E+03  0.41800000000E+01 0.  1.
         -5    1    3    3    0  502  0.91843835384E+02  0.39519142301E+02 -0.62703662485E+03  0.63497201041E+03  0.41800000000E+01 0.  1.
        -11    1    1    2    0    0 -0.70341513788E+02 -0.40639185385E+02 -0.22330871236E+03  0.23762628846E+03  0.00000000000E+00 0.  1.
         11    1    1    2    0    0  0.85540812248E+00  0.28818156144E+02 -0.16081367625E+03  0.16337764938E+03  0.00000000000E+00 0. -1.
</event>
<event>
 7    1  0.2661133E-009  0.8907056E+02  0.7561462E-02  0.1305118E+00
         -2   -1    0    0    0  501 -0.00000000000E+00  0.00000000000E+00  0.78332425385E+02  0.78332425385E+02  0.00000000000E+00 0.  1.
          2   -1    0    0  501    0  0.00000000000E+00 -0.00000000000E+00 -0.19170149807E+03  0.19170149807E+03  0.00000000000E+00 0. -1.
         25    2    1    2    0    0 -0.49039013194E+02 -0.37827548675E+01 -0.94421673138E+02  0.16426203373E+03  0.12508968509E+03 0.  0.
          5    1    3    3  502    0 -0.57845659213E+02 -0.38103216599E+02 -0.10605059116E+03  0.12673663910E+03  0.41800000000E+01 0.  1.
         -5    1    3    3    0  502  0.88066460193E+01  0.34320461732E+02  0.11628918020E+02  0.37525394627E+02  0.41800000000E+01 0.  1.
        -11    1    1    2    0    0  0.60692489303E+02  0.66869001676E+01  0.20600013196E+02  0.64441084995E+02  0.00000000000E+00 0.  1.
         11    1    1    2    0    0 -0.11653476109E+02 -0.29041453002E+01 -0.39547412744E+02  0.41330804736E+02  0.00000000000E+00 0. -1.
</event>
<event>
 6    1  0.2661133E-009  0.8399401E+02  0.7561462E-02  0.1318084E+00
         -4   -1    0    0    0  501 -0.00000000000E+00  0.00000000000E+00  0.30417035148E+02  0.30417035148E+02  0.00000000000E+00 0.  1.
          4   -1    0    0  501    0  0.00000000000E+00 -0.00000000000E+00 -0.43174446425E+03  0.43174446425E+03  0.00000000000E+00 0. -1.
          5    1    1    2  502    0 -0.83334303280E+01  0.50254522634E+02 -0.16864131076E+03  0.17621670523E+03  0.41800000000E+01 0.  1.
         -5    1    1    2    0  502  0.19993497682E+02 -0.31254694047E+02 -0.27790160693E+01  0.37440501864E+02  0.41800000000E+01 0.  1.
        -11    1    1    2    0    0 -0.43993929097E+02 -0.49054282016E+01 -0.19068125096E+03  0.19575205872E+03  0.00000000000E+00 0. -1.
         11    1    1    2    0    0  0.32333861743E+02 -0.14094400385E+02 -0.39225851303E+02  0.52752233582E+02  0.00000000000E+00 0.  1.
</event>
<event>
 7    1  0.2661133E-009  0.1101325E+03  0.7561462E-02  0.1260325E+00
          2   -1    0    0  501    0  0.00000000000E+00  0.00000000000E+00  0.74249285026E+03  0.74249285026E+03  0.00000000000E+00 0. -1.
         -2   -1    0    0    0  501 -0.00000000000E+00 -0.00000000000E+00 -0.24993520112E+02  0.24993520112E+02  0.00000000000E+00 0.  1.
         25    2    1    2    0    0 -0.72224956607E+02  0.18384510701E+02  0.29926948351E+03  0.33281267633E+03  0.12509044396E+03 0.  0.
          5    1    3    3  502    0 -0.63712023770E+02  0.42004174658E+02  0.29765370121E+03  0.30730891772E+03  0.41800000000E+01 0. -1.
         -5    1    3    3    0  502 -0.85129328369E+01 -0.23619663956E+02  0.16157823016E+01  0.25503758612E+02  0.41800000000E+01 0. -1.
        -11    1    1    2    0    0 -0.22223052323E+02 -0.67392111783E+01  0.77552869266E+02  0.80955102083E+02  0.00000000000E+00 0.  1.
         11    1    1    2    0    0  0.94448008929E+02 -0.11645299523E+02  0.34067697736E+03  0.35371859196E+03  0.00000000000E+00 0. -1.
</event>
<event>
 7    1  0.2661133E-009  0.9002368E+02  0.7561462E-02  0.1302794E+00
          1   -1    0    0  501    0  0.00000000000E+00  0.00000000000E+00  0.10841328212E+03  0.10841328212E+03  0.00000000000E+00 0. -1.
         -1   -1    0    0    0  501 -0.00000000000E+00 -0.00000000000E+00 -0.12368573349E+03  0.12368573349E+03  0.00000000000E+00 0.  1.
         25    2    1    2    0    0  0.47990030324E+01 -0.42151822726E+02 -0.21919604292E+02  0.13389604811E+03  0.12509147077E+03 0.  0.
          5    1    3    3  502    0  0.56378010947E+02 -0.50221890103E+02 -0.29115846449E+02  0.81030384908E+02  0.41800000000E+01 0.  1.
         -5    1    3    3    0  502 -0.51579007915E+02  0.80700673770E+01  0.71962421570E+01  0.52865663205E+02  0.41800000000E+01 0.  1.
        -11    1    1    2    0    0 -0.17090981311E+02  0.17240926750E+02 -0.38311097595E+02  0.45355169455E+02  0.00000000000E+00 0.  1.
         11    1    1    2    0    0  0.12291978278E+02  0.24910895977E+02  0.44958250518E+02  0.52847798043E+02  0.00000000000E+00 0. -1.
</event>
<event>
 7    1  0.2661133E-009  0.1043077E+03  0.7561462E-02  0.1271490E+00
          2   -1    0    0  501    0  0.00000000000E+00  0.00000000000E+00  0.75489475331E+03  0.75489475331E+03  0.00000000000E+00 0. -1.
         -2   -1    0    0    0  501 -0.00000000000E+00 -0.00000000000E+00 -0.27245032922E+02  0.27245032922E+02  0.00000000000E+00 0.  1.
         25    2    1    2    0    0 -0.57144457641E+02  0.31867693003E+02  0.58491526958E+03  0.60170845294E+03  0.12508457477E+03 0.  0.
          5    1    3    3  502    0 -0.90029035352E+01  0.75305204792E+02  0.29801704105E+03  0.30754439565E+03  0.41800000000E+01 0. -1.
         -5    1    3    3    0  502 -0.48141554106E+02 -0.43437511789E+02  0.28689822853E+03  0.29416405728E+03  0.41800000000E+01 0. -1.
        -11    1    1    2    0    0  0.21978536407E+02 -0.29935311770E+01 -0.75332568931E+01  0.23425781757E+02  0.00000000000E+00 0.  1.
         11    1    1    2    0    0  0.35165921234E+02 -0.28874161826E+02  0.15026770770E+03  0.15700555154E+03  0.00000000000E+00 0. -1.
</event>
<event>
 7    1  0.3381722E-009  0.8398001E+02  0.7561462E-02  0.1318122E+00
         -2   -1    0    0    0  501 -0.00000000000E+00  0.00000000000E+00  0.13896166013E+03  0.13896166013E+03  0.00000000000E+00 0. -1.
          2   -1    0    0  501    0  0.00000000000E+00 -0.00000000000E+00 -0.11746409868E+03  0.11746409868E+03  0.00000000000E+00 0.  1.
         25    2    1    2    0    0 -0.21263801890E+02 -0.52221005314E+01 -0.52739905038E+02  0.13750687182E+03  0.12508885885E+03 0.  0.
          5    1    3    3  502    0 -0.69070103126E+02  0.16710104143E+02 -0.15303176052E+02  0.72811855652E+02  0.41800000000E+01 0. -1.
         -5    1    3    3    0  502  0.47806301235E+02 -0.21932204674E+02 -0.37436728986E+02  0.64695016167E+02  0.41800000000E+01 0. -1.
        -11    1    1    2    0    0  0.32410044339E+02  0.23164419439E+01  0.92100445612E+02  0.97664061759E+02  0.00000000000E+00 0. -1.
         11    1    1    2    0    0 -0.11146242449E+02  0.29056585874E+01 -0.17862979127E+02  0.21254825237E+02  0.00000000000E+00 0.  1.
</event>
<event>
 7    1  0.2661133E-009  0.1024168E+03  0.7561462E-02  0.1275294E+00
         -2   -1    0    0    0  501 -0.00000000000E+00  0.00000000000E+00  0.11357014674E+02  0.11357014674E+02  0.00000000000E+00 0. -1.
          2   -1    0    0  501    0  0.00000000000E+00 -0.00000000000E+00 -0.10836692687E+04  0.10836692687E+04  0.00000000000E+00 0.  1.
         25    2    1    2    0    0 -0.22658663967E+02 -0.15980257170E+01 -0.70279924081E+03  0.71420624715E+03  0.12509125409E+03 0.  0.
          5    1    3    3  502    0  0.28889380738E+02  0.40775022855E+02 -0.17040683216E+03  0.17763209073E+03  0.41800000000E+01 0. -1.
         -5    1    3    3    0  502 -0.51548044704E+02 -0.42373048572E+02 -0.53239240865E+03  0.53657415643E+03  0.41800000000E+01 0. -1.
        -11    1    1    2    0    0  0.55119316658E+02  0.40960680051E+01 -0.28380319720E+03  0.28913521333E+03  0.00000000000E+00 0.  1.
         11    1    1    2    0    0 -0.32460652691E+02 -0.24980422881E+01 -0.85709815995E+02  0.91684822879E+02  0.00000000000E+00 0. -1.
</event>
<event>
 7    1  0.2661133E-009  0.1106719E+03  0.7561462E-02  0.1259331E+00
          2   -1    0    0  501    0  0.00000000000E+00  0.00000000000E+00  0.30349857967E+03  0.30349857967E+03  0.00000000000E+00 0. -1.
         -2   -1    0    0    0  501 -0.00000000000E+00 -0.00000000000E+00 -0.12444434677E+03  0.12444434677E+03  0.00000000000E+00 0.  1.
         25    2    1    2    0    0 -0.70524087274E+02 -0.34669517448E+02 -0.60667322039E+02  0.15969664731E+03  0.12508746089E+03 0.  0.
          5    1    3    3  502    0 -0.39705033818E+02  0.26927484715E+02  0.21209724592E+02  0.52620375909E+02  0.41800000000E+01 0. -1.
         -5    1    3    3    0  502 -0.30819053456E+02 -0.61597002163E+02 -0.81877046631E+02  0.10707627140E+03  0.41800000000E+01 0. -1.
        -11    1    1    2    0    0  0.73423335654E+02  0.41646106530E+01  0.94061734409E+02  0.11939824153E+03  0.00000000000E+00 0.  1.
         11    1    1    2    0    0 -0.28992483799E+01  0.30504906795E+02  0.14565982053E+03  0.14884803760E+03  0.00000000000E+00 0. -1.
</event>
<event>
 7    1  0.3994594E-009  0.1131567E+03  0.7561462E-02  0.1254833E+00
          2   -1    0    0  501    0  0.00000000000E+00  0.00000000000E+00  0.75903915675E+03  0.75903915675E+03  0.00000000000E+00 0. -1.
         -2   -1    0    0    0  501 -0.00000000000E+00 -0.00000000000E+00 -0.23159629436E+02  0.23159629436E+02  0.00000000000E+00 0.  1.
         25    2    1    2    0    0 -0.66758226312E+02  0.33093423580E+02  0.45340675275E+03  0.47621198235E+03  0.12509329812E+03 0.  0.
          5    1    3    3  502    0  0.21936465179E+02  0.14662334182E+02  0.19874694448E+02  0.33296672921E+02  0.41800000000E+01 0. -1.
         -5    1    3    3    0  502 -0.88694691491E+02  0.18431089398E+02  0.43353205830E+03  0.44291530943E+03  0.41800000000E+01 0. -1.
        -11    1    1    2    0    0  0.60333513349E+02  0.13544061465E+02  0.10029724035E+03  0.11782661353E+03  0.00000000000E+00 0.  1.
         11    1    1    2    0    0  0.64247129625E+01 -0.46637485045E+02  0.18217553422E+03  0.18816019031E+03  0.00000000000E+00 0. -1.
</event>
<event>
 7    1  0.2661133E-009  0.1565964E+03  0.7561462E-02  0.1192594E+00
         -1   -1    0    0    0  501 -0.00000000000E+00  0.00000000000E+00  0.88226420228E+02  0.88226420228E+02  0.00000000000E+00 0.  1.
          1   -1    0    0  501    0  0.00000000000E+00 -0.00000000000E+00 -0.30760417196E+03  0.30760417196E+03  0.00000000000E+00 0. -1.
         25    2    1    2    0    0 -0.97761278181E+02 -0.75405475437E+02 -0.10432539335E+03  0.20438767146E+03  0.12508908550E+03 0.  0.
          5    1    3    3  502    0 -0.53234449847E+02  0.29554548782E+02 -0.28200266887E+02  0.67231729539E+02  0.41800000000E+01 0. -1.
         -5    1    3    3    0  502 -0.44526828333E+02 -0.10496002422E+03 -0.76125126463E+02  0.13715594192E+03  0.41800000000E+01 0. -1.
        -11    1    1    2    0    0  0.61158494023E+02  0.80518920187E+02 -0.41832005098E+02  0.10942382990E+03  0.00000000000E+00 0.  1.
         11    1    1    2    0    0  0.36602784157E+02 -0.51134447501E+01 -0.73220353286E+02  0.82019090830E+02  0.00000000000E+00 0. -1.
</event>
<event>
 7    1  0.2661133E-009  0.2002528E+03  0.7561462E-02  0.1149526E+00
         -2   -1    0    0    0  501 -0.00000000000E+00  0.00000000000E+00  0.39031566487E+02  0.39031566487E+02  0.00000000000E+00 0.  1.
          2   -1    0    0  501    0  0.00000000000E+00 -0.00000000000E+00 -0.12822038151E+04  0.12822038151E+04  0.00000000000E+00 0. -1.
         25    2    1    2    0    0  0.18415473032E+03  0.35838666547E+02 -0.79175037207E+03  0.82323296517E+03  0.12508592464E+03 0.  0.
          5    1    3    3  502    0  0.93254250497E+02  0.33561157366E+02 -0.62885278069E+03  0.63662861914E+03  0.41800000000E+01 0.  1.
         -5    1    3    3    0  502  0.90900479822E+02  0.22775091806E+01 -0.16289759138E+03  0.18660434603E+03  0.41800000000E+01 0.  1.
        -11    1    1    2    0    0 -0.54726142651E+02  0.32777119501E+02 -0.13957366510E+03  0.15346041262E+03  0.00000000000E+00 0. -1.
         11    1    1    2    0    0 -0.12942858767E+03 -0.68615786047E+02 -0.31184821140E+03  0.34454200376E+03  0.00000000000E+00 0.  1.
</event>
<event>
 7    1  0.2661133E-009  0.2131015E+03  0.7561462E-02  0.1139133E+00
         -1   -1    0    0    0  501 -0.00000000000E+00  0.00000000000E+00  0.35525511399E+03  0.35525511399E+03  0.00000000000E+00 0.  1.
          1   -1    0    0  501    0  0.00000000000E+00 -0.00000000000E+00 -0.18523981970E+03  0.18523981970E+03  0.00000000000E+00 0. -1.
         25    2    1    2    0    0 -0.19667782127E+03  0.15029999305E+02  0.21618291249E+03  0.31826247052E+03  0.12509149542E+03 0.  0.
          5    1    3    3  502    0 -0.32726114398E+02 -0.41846907388E+02  0.86443315176E+02  0.10154841880E+03  0.41800000000E+01 0. -1.
         -5    1    3    3    0  502 -0.16395170687E+03  0.56876906693E+02  0.12973959732E+03  0.21671405172E+03  0.41800000000E+01 0. -1.
        -11    1    1    2    0    0  0.87434270077E+02  0.76014456216E+01 -0.64839220757E+02  0.10911763427E+03  0.00000000000E+00 0. -1.
         11    1    1    2    0    0  0.10924355119E+03 -0.22631444926E+02  0.18671602564E+02  0.11311482891E+03  0.00000000000E+00 0.  1.
</event>
<event>
 7    1  0.2661133E-009  0.2278332E+03  0.7561462E-02  0.1128174E+00
          1   -1    0    0  501    0  0.00000000000E+00  0.00000000000E+00  0.10823205826E+04  0.10823205826E+04  0.00000000000E+00 0. -1.
         -1   -1    0    0    0  501 -0.00000000000E+00 -0.00000000000E+00 -0.53965092605E+02  0.53965092605E+02  0.00000000000E+00 0.  1.
         25    2    1    2    0    0 -0.13291712191E+03  0.16339740990E+03  0.63635471899E+03  0.68188029900E+03  0.12509092265E+03 0.  0.
          5    1    3    3  502    0  0.23250264946E+02  0.95184310457E+01  0.57726767727E+02  0.63095383839E+02  0.41800000000E+01 0.  1.
         -5    1    3    3    0  502 -0.15616738686E+03  0.15387897886E+03  0.57862795126E+03  0.61878491516E+03  0.41800000000E+01 0.  1.
        -11    1    1    2    0    0  0.91879231552E+02 -0.10473179811E+03  0.16276620624E+03  0.21425074240E+03  0.00000000000E+00 0. -1.
         11    1    1    2    0    0  0.41037890361E+02 -0.58665611791E+02  0.22923456481E+03  0.24015463384E+03  0.00000000000E+00 0.  1.
</event>
<event>
 7    1  0.2661133E-009  0.1827305E+03  0.7561462E-02  0.1165186E+00
         -1   -1    0    0    0  501 -0.00000000000E+00  0.00000000000E+00  0.21075448371E+03  0.21075448371E+03  0.00000000000E+00 0.  1.
          1   -1    0    0  501    0  0.00000000000E+00 -0.00000000000E+00 -0.26148916157E+03  0.26148916157E+03  0.00000000000E+00 0. -1.
         25    2    1    2    0    0  0.16767196451E+03 -0.34069820405E+02 -0.14480912226E+03  0.25667670790E+03  0.12505442873E+03 0.  0.
          5    1    3    3  502    0  0.34691201027E+02 -0.45149822052E+02  0.34117328118E+01  0.57193515199E+02  0.41800000000E+01 0. -1.
         -5    1    3    3    0  502  0.13298076348E+03  0.11080001647E+02 -0.14822085508E+03  0.19948319271E+03  0.41800000000E+01 0. -1.
        -11    1    1    2    0    0 -0.53828293999E+02 -0.60248871307E+01  0.76295018499E+02  0.93566630524E+02  0.00000000000E+00 0.  1.
         11    1    1    2    0    0 -0.11384367051E+03  0.40094707536E+02  0.17779425904E+02  0.12200030685E+03  0.00000000000E+00 0. -1.
</event>
<event>
 7    1  0.2661133E-009  0.1320249E+03  0.7561462E-02  0.1224482E+00
          2   -1    0    0  501    0  0.00000000000E+00  0.00000000000E+00  0.49111730357E+03  0.49111730357E+03  0.00000000000E+00 0.  1.
         -2   -1    0    0    0  501 -0.00000000000E+00 -0.00000000000E+00 -0.55110627756E+02  0.55110627756E+02  0.00000000000E+00 0. -1.
         25    2    1    2    0    0  0.87644419692E+02 -0.90464464826E+02  0.24144382846E+03  0.29968087943E+03  0.12509253973E+03 0.  0.
          5    1    3    3  502    0  0.68279536375E+02 -0.90614994105E+02  0.84598714419E+02  0.14158950217E+03  0.41800000000E+01 0. -1.
         -5    1    3    3    0  502  0.19364883317E+02  0.15052927818E+00  0.15684511404E+03  0.15809137726E+03  0.41800000000E+01 0. -1.
        -11    1    1    2    0    0 -0.24668419957E+02  0.50255902107E+02  0.14866874069E+03  0.15886025651E+03  0.00000000000E+00 0.  1.
         11    1    1    2    0    0 -0.62975999735E+02  0.40208562719E+02  0.45894106662E+02  0.87686795385E+02  0.00000000000E+00 0. -1.
</event>
<event>
 7    1  0.2661133E-009  0.1665690E+03  0.7561462E-02  0.1181474E+00
         -1   -1    0    0    0  501 -0.00000000000E+00  0.00000000000E+00  0.62178056494E+02  0.62178056494E+02  0.00000000000E+00 0.  1.
          1   -1    0    0  501    0  0.00000000000E+00 -0.00000000000E+00 -0.46403949427E+03  0.46403949427E+03  0.00000000000E+00 0. -1.
         25    2    1    2    0    0 -0.51094968671E+02  0.11517575231E+03 -0.16261197610E+03  0.24076466592E+03  0.12509524308E+03 0.  0.
          5    1    3    3  502    0 -0.92907995598E+02  0.79722405175E+02 -0.11551443784E+03  0.16837047034E+03  0.41800000000E+01 0. -1.
         -5    1    3    3    0  502  0.41813026926E+02  0.35453347137E+02 -0.47097538268E+02  0.72394195588E+02  0.41800000000E+01 0. -1.
        -11    1    1    2    0    0 -0.26409327165E+02 -0.21304696324E+02 -0.49570621408E+02  0.60071533637E+02  0.00000000000E+00 0.  1.
         11    1    1    2    0    0  0.77504295836E+02 -0.93871055988E+02 -0.18967884027E+03  0.22538135120E+03  0.00000000000E+00 0. -1.
</event>
<event>
 7    1  0.2661133E-009  0.1350366E+03  0.7561462E-02  0.1220168E+00
         -2   -1    0    0    0  501 -0.00000000000E+00  0.00000000000E+00  0.18815804536E+03  0.18815804536E+03  0.00000000000E+00 0.  1.
          2   -1    0    0  501    0  0.00000000000E+00 -0.00000000000E+00 -0.14395602671E+03  0.14395602671E+03  0.00000000000E+00 0. -1.
         25    2    1    2    0    0  0.22063281443E+02  0.91780149564E+02 -0.57729959560E+02  0.16700351548E+03  0.12508813576E+03 0.  0.
          5    1    3    3  502    0  0.58065294957E+02  0.91738940488E+02 -0.12989923771E+02  0.10942496150E+03  0.41800000000E+01 0.  1.
         -5    1    3    3    0  502 -0.36002013514E+02  0.41209076394E-01 -0.44740035789E+02  0.57578553974E+02  0.41800000000E+01 0.  1.
        -11    1    1    2    0    0  0.43658567121E+01  0.14768616343E+02  0.13905038354E+00  0.15401041151E+02  0.00000000000E+00 0.  1.
         11    1    1    2    0    0 -0.26429138155E+02 -0.10654876591E+03  0.10179292783E+03  0.14970951545E+03  0.00000000000E+00 0. -1.
</event>
<event>
 7    1  0.2661133E-009  0.8543677E+02  0.7561462E-02  0.1314294E+00
          4   -1    0    0  501    0  0.00000000000E+00  0.00000000000E+00  0.11019549675E+03  0.11019549675E+03  0.00000000000E+00 0. -1.
         -4   -1    0    0    0  501 -0.00000000000E+00 -0.00000000000E+00 -0.12109406241E+03  0.12109406241E+03  0.00000000000E+00 0.  1.
         25    2    1    2    0    0  0.33024596740E+02 -0.13603339701E+02  0.89206712801E+01  0.13039412523E+03  0.12508946670E+03 0.  0.
          5    1    3    3  502    0 -0.21435090120E+02 -0.83926536449E+01 -0.46720147921E+02  0.52250783204E+02  0.41800000000E+01 0. -1.
         -5    1    3    3    0  502  0.54459686860E+02 -0.52106860565E+01  0.55640819201E+02  0.78143342028E+02  0.41800000000E+01 0. -1.
        -11    1    1    2    0    0  0.89476756441E+01 -0.30464964070E+02  0.97763967755E+01  0.33222776361E+02  0.00000000000E+00 0. -1.
         11    1    1    2    0    0 -0.41972272384E+02  0.44068303772E+02 -0.29595633723E+02  0.67672657565E+02  0.00000000000E+00 0.  1.
</event>
<event>
 7    1  0.2661133E-009  0.1156101E+03  0.7561462E-02  0.1250520E+00
          2   -1    0    0  501    0  0.00000000000E+00  0.00000000000E+00  0.83827577242E+03  0.83827577242E+03  0.00000000000E+00 0. -1.
         -2   -1    0    0    0  501 -0.00000000000E+00 -0.00000000000E+00 -0.16599726381E+02  0.16599726381E+02  0.00000000000E+00 0.  1.
         25    2    1    2    0    0 -0.40515115028E+02 -0.10017879433E+02  0.54265111982E+03  0.55844400499E+03  0.12509051285E+03 0.  0.
          5    1    3    3  502    0 -0.47577173364E+02  0.50997883057E+02  0.31094178472E+03  0.31869521080E+03  0.41800000000E+01 0. -1.
         -5    1    3    3    0  502  0.70620583357E+01 -0.61015762490E+02  0.23170933510E+03  0.23974879419E+03  0.41800000000E+01 0. -1.
        -11    1    1    2    0    0  0.12659291751E+02  0.49708282274E+02  0.13197316948E+03  0.14159127253E+03  0.00000000000E+00 0.  1.
         11    1    1    2    0    0  0.27855823278E+02 -0.39690402841E+02  0.14705175674E+03  0.15484022129E+03  0.00000000000E+00 0. -1.
</event>
<event>
 7    1  0.2661133E-009  0.9778913E+02  0.7561462E-02  0.1285015E+00
          2   -1    0    0  501    0  0.00000000000E+00  0.00000000000E+00  0.13676411180E+04  0.13676411180E+04  0.00000000000E+00 0. -1.
         -2   -1    0    0    0  501 -0.00000000000E+00 -0.00000000000E+00 -0.10284018628E+02  0.10284018628E+02  0.00000000000E+00 0.  1.
         25    2    1    2    0    0  0.91743836281E+01  0.47792498107E+02  0.91502653946E+03  0.92481853928E+03  0.12508984966E+03 0.  0.
          5    1    3    3  502    0  0.25283963765E+02  0.67264709905E+02  0.27452499949E+03  0.28380498193E+03  0.41800000000E+01 0. -1.
         -5    1    3    3    0  502 -0.16109580137E+02 -0.19472211798E+02  0.64050153997E+03  0.64101355736E+03  0.41800000000E+01 0. -1.
        -11    1    1    2    0    0  0.59392580834E+00  0.24763628766E+02  0.12640949267E+03  0.12881362465E+03  0.00000000000E+00 0. -1.
         11    1    1    2    0    0 -0.97683094365E+01 -0.72556126873E+02  0.31592106724E+03  0.32429297270E+03  0.00000000000E+00 0.  1.
</event>
<event>
 7    1  0.2661133E-009  0.2680607E+03  0.7561462E-02  0.1102395E+00
         -2   -1    0    0    0  501 -0.00000000000E+00  0.00000000000E+00  0.18852652590E+03  0.18852652590E+03  0.00000000000E+00 0.  1.
          2   -1    0    0  501    0  0.00000000000E+00 -0.00000000000E+00 -0.41845500797E+03  0.41845500797E+03  0.00000000000E+00 0. -1.
         25    2    1    2    0    0 -0.24064555433E+03 -0.94431052357E+02 -0.13429415160E+03  0.31703193629E+03  0.12508726159E+03 0.  0.
          5    1    3    3  502    0 -0.22336376143E+03 -0.49588162436E+02 -0.75483371514E+02  0.24096798034E+03  0.41800000000E+01 0.  1.
         -5    1    3    3    0  502 -0.17281792899E+02 -0.44842889920E+02 -0.58810780081E+02  0.76063955958E+02  0.41800000000E+01 0.  1.
        -11    1    1    2    0    0  0.17583106130E+02  0.11756586628E+02  0.16623928269E+02  0.26902377988E+02  0.00000000000E+00 0.  1.
         11    1    1    2    0    0  0.22306244820E+03  0.82674465728E+02 -0.11225825873E+03  0.26304721959E+03  0.00000000000E+00 0. -1.
</event>
<event>
 7    1  0.2661133E-009  0.1144802E+03  0.7561462E-02  0.1252491E+00
         -2   -1    0    0    0  501 -0.00000000000E+00  0.00000000000E+00  0.74129617872E+02  0.74129617872E+02  0.00000000000E+00 0. -1.
          2   -1    0    0  501    0  0.00000000000E+00 -0.00000000000E+00 -0.26619711529E+03  0.26619711529E+03  0.00000000000E+00 0.  1.
         25    2    1    2    0    0 -0.54037575937E+02  0.54590711636E+02 -0.51219477859E+02  0.15547152000E+03  0.12509097973E+03 0.  0.
          5    1    3    3  502    0 -0.62720871635E+02 -0.12748329881E+02  0.88162420577E+01  0.64742769306E+02  0.41800000000E+01 0. -1.
         -5    1    3    3    0  502  0.86832956984E+01  0.67339041518E+02 -0.60035719917E+02  0.90728750695E+02  0.41800000000E+01 0. -1.
        -11    1    1    2    0    0 -0.10106200840E+02 -0.23360988928E+02 -0.98838225662E+02  0.10206304890E+03  0.00000000000E+00 0.  1.
         11    1    1    2    0    0  0.64143776777E+02 -0.31229722709E+02 -0.42009793899E+02  0.82792164261E+02  0.00000000000E+00 0. -1.
</event>
<event>
 7    1  0.2661133E-009  0.1267005E+03  0.7561462E-02  0.1232435E+00
         -1   -1    0    0    0  501 -0.00000000000E+00  0.00000000000E+00  0.84157808191E+03  0.84157808191E+03  0.00000000000E+00 0.  1.
          1   -1    0    0  501    0  0.00000000000E+00 -0.00000000000E+00 -0.20630887768E+02  0.20630887768E+02  0.00000000000E+00 0. -1.
         25    2    1    2    0    0 -0.65460730118E+02 -0.17201688605E+02  0.54944757367E+03  0.56755550278E+03  0.12508240181E+03 0.  0.
          5    1    3    3  502    0  0.14296432662E+01  0.46494582312E+02  0.13283928329E+03  0.14081028957E+03  0.41800000000E+01 0.  1.
         -5    1    3    3    0  502 -0.66890373384E+02 -0.63696270917E+02  0.41660829038E+03  0.42674521321E+03  0.41800000000E+01 0.  1.
        -11    1    1    2    0    0  0.18280242448E+02  0.52319226825E+02  0.14159080860E+03  0.15205073442E+03  0.00000000000E+00 0.  1.
         11    1    1    2    0    0  0.47180487670E+02 -0.35117538220E+02  0.12990881187E+03  0.14260273247E+03  0.00000000000E+00 0. -1.
</event>
<event>
 7    1  0.2661133E-009  0.1690779E+03  0.7561462E-02  0.1178813E+00
         -2   -1    0    0    0  501 -0.00000000000E+00  0.00000000000E+00  0.46208095181E+03  0.46208095181E+03  0.00000000000E+00 0.  1.
          2   -1    0    0  501    0  0.00000000000E+00 -0.00000000000E+00 -0.73770028374E+02  0.73770028374E+02  0.00000000000E+00 0. -1.
         25    2    1    2    0    0  0.15085630628E+03 -0.46240960966E+01  0.23425341690E+03  0.30545155871E+03  0.12508790500E+03 0.  0.
          5    1    3    3  502    0  0.93442125873E+02 -0.45208885387E+02  0.66077436846E+02  0.12312178632E+03  0.41800000000E+01 0.  1.
         -5    1    3    3    0  502  0.57414180411E+02  0.40584789290E+02  0.16817598005E+03  0.18232977239E+03  0.41800000000E+01 0.  1.
        -11    1    1    2    0    0 -0.76730876978E+02 -0.29531186295E+02  0.11096759400E+03  0.13810693452E+03  0.00000000000E+00 0.  1.
         11    1    1    2    0    0 -0.74125429306E+02  0.34155282392E+02  0.43089912541E+02  0.92292486952E+02  0.00000000000E+00 0. -1.
</event>
<event>
 7    1  0.2661133E-009  0.1141771E+03  0.7561462E-02  0.1253024E+00
         -3   -1    0    0    0  501 -0.00000000000E+00  0.00000000000E+00  0.10228927398E+03  0.10228927398E+03  0.00000000000E+00 0.  1.
          3   -1    0    0  501    0  0.00000000000E+00 -0.00000000000E+00 -0.13242242135E+03  0.13242242135E+03  0.00000000000E+00 0. -1.
         25    2    1    2    0    0 -0.17559827937E+02 -0.30816924032E+02 -0.38965733516E+02  0.13573608182E+03  0.12509166702E+03 0.  0.
          5    1    3    3  502    0 -0.70382832714E+02 -0.30936525934E+02 -0.21439531739E+02  0.79924575063E+02  0.41800000000E+01 0. -1.
         -5    1    3    3    0  502  0.52823004777E+02  0.11960190221E+00 -0.17526201777E+02  0.55811506762E+02  0.41800000000E+01 0. -1.
        -11    1    1    2    0    0 -0.27127786315E+02  0.44077850375E+02  0.14208735666E+01  0.51776370728E+02  0.00000000000E+00 0.  1.
         11    1    1    2    0    0  0.44687614252E+02 -0.13260926343E+02  0.74117125851E+01  0.47199242775E+02  0.00000000000E+00 0. -1.
</event>
<event>
 7    1  0.2661133E-009  0.2414381E+03  0.7561462E-02  0.1118839E+00
         -2   -1    0    0    0  501 -0.00000000000E+00  0.00000000000E+00  0.41181528206E+03  0.41181528206E+03  0.00000000000E+00 0.  1.
          2   -1    0    0  501    0  0.00000000000E+00 -0.00000000000E+00 -0.15174386061E+03  0.15174386061E+03  0.00000000000E+00 0. -1.
         25    2    1    2    0    0 -0.18013858495E+03  0.12502527254E+03  0.19033723808E+03  0.31614764206E+03  0.12505934117E+03 0.  0.
          5    1    3    3  502    0 -0.61468943283E+02  0.11120444975E+03  0.64419502734E+02  0.14252089449E+03  0.41800000000E+01 0.  1.
         -5    1    3    3    0  502 -0.11866964167E+03  0.13820822790E+02  0.12591773535E+03  0.17362674757E+03  0.41800000000E+01 0.  1.
        -11    1    1    2    0    0  0.14606912764E+03 -0.51009314569E+02  0.33850277996E+02  0.15837923330E+03  0.00000000000E+00 0. -1.
         11    1    1    2    0    0  0.34069457316E+02 -0.74015957975E+02  0.35883905382E+02  0.89032267309E+02  0.00000000000E+00 0.  1.
</event>
<event>
 7    1  0.2661133E-009  0.1023121E+03  0.7561462E-02  0.1275508E+00
         -3   -1    0    0    0  501 -0.00000000000E+00  0.00000000000E+00  0.75064795170E+02  0.75064795170E+02  0.00000000000E+00 0.  1.
          3   -1    0    0  501    0  0.00000000000E+00 -0.00000000000E+00 -0.20702129709E+03  0.20702129709E+03  0.00000000000E+00 0. -1.
         25    2    1    2    0    0 -0.34837961292E+01 -0.52854818749E+02 -0.10959641690E+03  0.17454030141E+03  0.12508866263E+03 0.  0.
          5    1    3    3  502    0 -0.26046317026E+02  0.16212662106E+02 -0.95518494612E+02  0.10041173366E+03  0.41800000000E+01 0. -1.
         -5    1    3    3    0  502  0.22562520897E+02 -0.69067480856E+02 -0.14077922292E+02  0.74128567753E+02  0.41800000000E+01 0. -1.
        -11    1    1    2    0    0 -0.55445438588E+01 -0.23423367923E+02  0.73831582774E+01  0.25177512935E+02  0.00000000000E+00 0.  1.
         11    1    1    2    0    0  0.90283399881E+01  0.76278186672E+02 -0.29743243292E+02  0.82368277914E+02  0.00000000000E+00 0. -1.
</event>
<event>
 7    1  0.2661133E-009  0.1159869E+03  0.7561462E-02  0.1249868E+00
         -2   -1    0    0    0  501 -0.00000000000E+00  0.00000000000E+00  0.13386195263E+03  0.13386195263E+03  0.00000000000E+00 0. -1.
          2   -1    0    0  501    0  0.00000000000E+00 -0.00000000000E+00 -0.19273316489E+03  0.19273316489E+03  0.00000000000E+00 0.  1.
         25    2    1    2    0    0 -0.83765433077E+02  0.13301899994E+01  0.52666578953E+02  0.15949795851E+03  0.12508962006E+03 0.  0.
          5    1    3    3  502    0 -0.74566725722E+02  0.40094143814E+02  0.75391466621E+02  0.11344197897E+03  0.41800000000E+01 0.  1.
         -5    1    3    3    0  502 -0.91987073549E+01 -0.38763953815E+02 -0.22724887668E+02  0.46055979545E+02  0.41800000000E+01 0.  1.
        -11    1    1    2    0    0  0.15622171028E+02  0.28704593143E+02 -0.79639939456E+02  0.86084411200E+02  0.00000000000E+00 0.  1.
         11    1    1    2    0    0  0.68143262049E+02 -0.30034783142E+02 -0.31897851751E+02  0.81012747808E+02  0.00000000000E+00 0. -1.
</event>
<event>
 7    1  0.2661133E-009  0.2496474E+03  0.7561462E-02  0.1113528E+00
          2   -1    0    0  501    0  0.00000000000E+00  0.00000000000E+00  0.64625767708E+03  0.64625767708E+03  0.00000000000E+00 0. -1.
         -2   -1    0    0    0  501 -0.00000000000E+00 -0.00000000000E+00 -0.12207129150E+03  0.12207129150E+03  0.00000000000E+00 0.  1.
         25    2    1    2    0    0  0.17628179302E+03 -0.14976333005E+03  0.43213541886E+03  0.50585970218E+03  0.12509473403E+03 0.  0.
          5    1    3    3  502    0  0.91781314912E+02 -0.15120339600E+03  0.26688373710E+03  0.32020411967E+03  0.41800000000E+01 0.  1.
         -5    1    3    3    0  502  0.84500478112E+02  0.14400659558E+01  0.16525168177E+03  0.18565558251E+03  0.41800000000E+01 0.  1.
        -11    1    1    2    0    0 -0.95924337229E+02  0.45651091981E+02  0.83158072888E+01  0.10655821565E+03  0.00000000000E+00 0.  1.
         11    1    1    2    0    0 -0.80357455794E+02  0.10411223807E+03  0.83735159430E+02  0.15591105074E+03  0.00000000000E+00 0. -1.
</event>
<event>
 7    1  0.2661133E-009  0.8447745E+02  0.7561462E-02  0.1316805E+00
          1   -1    0    0  501    0  0.00000000000E+00  0.00000000000E+00  0.27828168876E+03  0.27828168876E+03  0.00000000000E+00 0. -1.
         -1   -1    0    0    0  501 -0.00000000000E+00 -0.00000000000E+00 -0.61220778412E+02  0.61220778412E+02  0.00000000000E+00 0.  1.
         25    2    1    2    0    0  0.46340792546E+02  0.29467014617E+02  0.60705889753E+02  0.14949637583E+03  0.12509271494E+03 0.  0.
          5    1    3    3  502    0  0.30867826462E+02  0.39295014352E+02  0.96677447062E+02  0.10890786029E+03  0.41800000000E+01 0.  1.
         -5    1    3    3    0  502  0.15472966085E+02 -0.98279997352E+01 -0.35971557309E+02  0.40588515537E+02  0.41800000000E+01 0.  1.
        -11    1    1    2    0    0  0.19542634366E+02  0.11260564608E+02  0.72159086052E+02  0.75601908528E+02  0.00000000000E+00 0. -1.
         11    1    1    2    0    0 -0.65883426913E+02 -0.40727579225E+02  0.84195934546E+02  0.11440418281E+03  0.00000000000E+00 0.  1.
</event>
<event>
 7    1  0.3107338E-009  0.1095597E+03  0.7561462E-02  0.1261388E+00
          1   -1    0    0  501    0  0.00000000000E+00  0.00000000000E+00  0.92097478047E+03  0.92097478047E+03  0.00000000000E+00 0. -1.
         -1   -1    0    0    0  501 -0.00000000000E+00 -0.00000000000E+00 -0.25539211333E+02  0.25539211333E+02  0.00000000000E+00 0.  1.
         25    2    1    2    0    0  0.79050310808E+02  0.61202927351E+02  0.60813004005E+03  0.62885948707E+03  0.12508940364E+03 0.  0.
          5    1    3    3  502    0  0.60577483951E+00  0.85902968113E+01 -0.33283467319E+01  0.10134616640E+02  0.41800000000E+01 0. -1.
         -5    1    3    3    0  502  0.78444535968E+02  0.52612630539E+02  0.61145838678E+03  0.61872487043E+03  0.41800000000E+01 0. -1.
        -11    1    1    2    0    0 -0.66096921423E+02 -0.16038878041E+02  0.79597693078E+02  0.10469881267E+03  0.00000000000E+00 0.  1.
         11    1    1    2    0    0 -0.12953389385E+02 -0.45164049310E+02  0.20770783601E+03  0.21295569207E+03  0.00000000000E+00 0. -1.
</event>
<event>
 7    1  0.2661133E-009  0.1037742E+03  0.7561462E-02  0.1272554E+00
          1   -1    0    0  501    0  0.00000000000E+00  0.00000000000E+00  0.13073551383E+03  0.13073551383E+03  0.00000000000E+00 0. -1.
         -1   -1    0    0    0  501 -0.00000000000E+00 -0.00000000000E+00 -0.12908271526E+03  0.12908271526E+03  0.00000000000E+00 0.  1.
         25    2    1    2    0    0  0.61770716860E+01  0.66278378327E+02  0.28217713392E+02  0.14448079553E+03  0.12508989280E+03 0.  0.
          5    1    3    3  502    0  0.27013759075E+01  0.82470479425E+02  0.64212322880E+02  0.10463924798E+03  0.41800000000E+01 0.  1.
         -5    1    3    3    0  502  0.34756957786E+01 -0.16192101098E+02 -0.35994609488E+02  0.39841547551E+02  0.41800000000E+01 0.  1.
        -11    1    1    2    0    0  0.17631824516E+02  0.15002878372E+02  0.70703436499E+01  0.24206556024E+02  0.00000000000E+00 0.  1.
         11    1    1    2    0    0 -0.23808896202E+02 -0.81281256700E+02 -0.33635258470E+02  0.91130877541E+02  0.00000000000E+00 0. -1.
</event>
<event>
 7    1  0.2661133E-009  0.8915918E+02  0.7561462E-02  0.1304901E+00
         -2   -1    0    0    0  501 -0.00000000000E+00  0.00000000000E+00  0.41931309325E+02  0.41931309325E+02  0.00000000000E+00 0.  1.
          2   -1    0    0  501    0  0.00000000000E+00 -0.00000000000E+00 -0.64844019175E+03  0.64844019175E+03  0.00000000000E+00 0. -1.
         25    2    1    2    0    0  0.27416648172E+02 -0.78408816585E+02 -0.50761197523E+03  0.52935536425E+03  0.12509024401E+03 0.  0.
          5    1    3    3  502    0  0.12927622097E+02 -0.33810309949E+02 -0.24394788314E+02  0.43850183225E+02  0.41800000000E+01 0.  1.
         -5    1    3    3    0  502  0.14489026074E+02 -0.44598506636E+02 -0.48321718692E+03  0.48550518103E+03  0.41800000000E+01 0.  1.
        -11    1    1    2    0    0  0.27736497687E+01  0.58659733629E+02 -0.32764898783E+01  0.58816603679E+02  0.00000000000E+00 0.  1.
         11    1    1    2    0    0 -0.30190297940E+02  0.19749082956E+02 -0.95620417313E+02  0.10219953314E+03  0.00000000000E+00 0. -1.
</event>
<event>
 7    1  0.2661133E-009  0.4432590E+03  0.7561462E-02  0.1029752E+00
         -1   -1    0    0    0  501 -0.00000000000E+00  0.00000000000E+00  0.32179957894E+03  0.32179957894E+03  0.00000000000E+00 0.  1.
          1   -1    0    0  501    0  0.00000000000E+00 -0.00000000000E+00 -0.67546801005E+03  0.67546801005E+03  0.00000000000E+00 0. -1.
         25    2    1    2    0    0 -0.80179595402E+02  0.42724120776E+03 -0.39904354757E+02  0.45409636288E+03  0.12508929663E+03 0.  0.
          5    1    3    3  502    0  0.18586482852E+02  0.22079447926E+03 -0.40036933442E+02  0.22520232649E+03  0.41800000000E+01 0.  1.
         -5    1    3    3    0  502 -0.98766078254E+02  0.20644672850E+03  0.13257868436E+00  0.22889403640E+03  0.41800000000E+01 0.  1.
        -11    1    1    2    0    0  0.43155284670E+02 -0.14309430097E+03 -0.62279125709E+02  0.16191679056E+03  0.00000000000E+00 0.  1.
         11    1    1    2    0    0  0.37024310732E+02 -0.28414690678E+03 -0.25148495065E+03  0.38125443554E+03  0.00000000000E+00 0. -1.
</event>
<event>
 7    1  0.2661133E-009  0.1022169E+03  0.7561462E-02  0.1275702E+00
         -1   -1    0    0    0  501 -0.00000000000E+00  0.00000000000E+00  0.69125323026E+02  0.69125323026E+02  0.00000000000E+00 0.  1.
          1   -1    0    0  501    0  0.00000000000E+00 -0.00000000000E+00 -0.24948406407E+03  0.24948406407E+03  0.00000000000E+00 0. -1.
         25    2    1    2    0    0  0.69356997423E+02  0.27097352391E+02 -0.95709296593E+02  0.17422095371E+03  0.12509201278E+03 0.  0.
          5    1    3    3  502    0  0.44143709001E+02  0.57004716234E+02 -0.16192773322E+01  0.72237796038E+02  0.41800000000E+01 0.  1.
         -5    1    3    3    0  502  0.25213288422E+02 -0.29907363844E+02 -0.94090019260E+02  0.10198315768E+03  0.41800000000E+01 0.  1.
        -11    1    1    2    0    0 -0.67829954722E+02 -0.21333788600E+01 -0.13797773647E+02  0.69251950302E+02  0.00000000000E+00 0.  1.
         11    1    1    2    0    0 -0.15270427005E+01 -0.24963973531E+02 -0.70851670800E+02  0.75136483076E+02  0.00000000000E+00 0. -1.
</event>
<event>
 7    1  0.2661133E-009  0.2231230E+03  0.7561462E-02  0.1131576E+00
         -1   -1    0    0    0  501 -0.00000000000E+00  0.00000000000E+00  0.50081713276E+03  0.50081713276E+03  0.00000000000E+00 0.  1.
          1   -1    0    0  501    0  0.00000000000E+00 -0.00000000000E+00 -0.12695577514E+03  0.12695577514E+03  0.00000000000E+00 0. -1.
         25    2    1    2    0    0 -0.21075766062E+03  0.33116362194E+02  0.28965106745E+03  0.38086771717E+03  0.12508793769E+03 0.  0.
          5    1    3    3  502    0 -0.41133159684E+01 -0.18182169275E+02 -0.25759838377E+01  0.19277415297E+02  0.41800000000E+01 0.  1.
         -5    1    3    3    0  502 -0.20664434465E+03  0.51298531469E+02  0.29222705129E+03  0.36159030187E+03  0.41800000000E+01 0.  1.
        -11    1    1    2    0    0  0.15577112795E+03 -0.15977653988E+02  0.15657986001E+02  0.15736931802E+03  0.00000000000E+00 0. -1.
         11    1    1    2    0    0  0.54986532667E+02 -0.17138708206E+02  0.68552304177E+02  0.89535872708E+02  0.00000000000E+00 0.  1.
</event>
<event>
 7    1  0.2661133E-009  0.2455716E+03  0.7561462E-02  0.1116136E+00
          2   -1    0    0  501    0  0.00000000000E+00  0.00000000000E+00  0.14977565819E+04  0.14977565819E+04  0.00000000000E+00 0.  1.
         -2   -1    0    0    0  501 -0.00000000000E+00 -0.00000000000E+00 -0.49531483181E+02  0.49531483181E+02  0.00000000000E+00 0. -1.
         25    2    1    2    0    0  0.20950946039E+03  0.87316054172E+02  0.10370074940E+04  0.10689017335E+04  0.12509222952E+03 0.  0.
          5    1    3    3  502    0  0.18674090287E+03  0.26068724959E+02  0.66723733193E+03  0.69337931376E+03  0.41800000000E+01 0.  1.
         -5    1    3    3    0  502  0.22768557522E+02  0.61247329213E+02  0.36977016208E+03  0.37552241972E+03  0.41800000000E+01 0.  1.
        -11    1    1    2    0    0 -0.19409488098E+03 -0.55753791941E+02  0.29906359436E+03  0.36086055701E+03  0.00000000000E+00 0. -1.
         11    1    1    2    0    0 -0.15414579409E+02 -0.31562262230E+02  0.11215401037E+03  0.11752577461E+03  0.00000000000E+00 0.  1.
</event>
<event>
 7    1  0.2661133E-009  0.1038358E+03  0.7561462E-02  0.1272431E+00
          2   -1    0    0  501    0  0.00000000000E+00  0.00000000000E+00  0.27209500669E+03  0.27209500669E+03  0.00000000000E+00 0. -1.
         -2   -1    0    0    0  501 -0.00000000000E+00 -0.00000000000E+00 -0.56134583309E+02  0.56134583309E+02  0.00000000000E+00 0.  1.
         25    2    1    2    0    0 -0.44315425849E+01 -0.57371837845E+02  0.12622423977E+03  0.18679088589E+03  0.12508840873E+03 0.  0.
          5    1    3    3  502    0  0.26201324902E+02  0.28121077166E+02  0.69801499120E+02  0.79793646908E+02  0.41800000000E+01 0. -1.
         -5    1    3    3    0  502 -0.30632867487E+02 -0.85492915011E+02  0.56422740649E+02  0.10699723898E+03  0.41800000000E+01 0. -1.
        -11    1    1    2    0    0  0.28691632177E+02  0.29642474882E+02  0.95609151253E+02  0.10412970699E+03  0.00000000000E+00 0. -1.
         11    1    1    2    0    0 -0.24260089592E+02  0.27729362963E+02 -0.58729676384E+01  0.37308997122E+02  0.00000000000E+00 0.  1.
</event>
<event>
 7    1  0.2661133E-009  0.2039724E+03  0.7561462E-02  0.1146430E+00
          2   -1    0    0  501    0  0.00000000000E+00  0.00000000000E+00  0.80728176226E+03  0.80728176226E+03  0.00000000000E+00 0. -1.
         -2   -1    0    0    0  501 -0.00000000000E+00 -0.00000000000E+00 -0.57189662297E+02  0.57189662297E+02  0.00000000000E+00 0.  1.
         25    2    1    2    0    0  0.18538058696E+03 -0.23649044302E+02  0.50470576206E+03  0.55254031238E+03  0.12509057214E+03 0.  0.
          5    1    3    3  502    0  0.12793040257E+03  0.41061263647E+02  0.25547695459E+03  0.28868349797E+03  0.41800000000E+01 0.  1.
         -5    1    3    3    0  502  0.57450184386E+02 -0.64710307949E+02  0.24922880747E+03  0.26385681441E+03  0.41800000000E+01 0.  1.
        -11    1    1    2    0    0 -0.66217128936E+02  0.78235713319E+01  0.53442025368E+02  0.85451544798E+02  0.00000000000E+00 0.  1.
         11    1    1    2    0    0 -0.11916345802E+03  0.15825472970E+02  0.19194431254E+03  0.22647956738E+03  0.00000000000E+00 0. -1.
</event>
<event>
 7    1  0.2661133E-009  0.1276989E+03  0.7561462E-02  0.1230911E+00
          2   -1    0    0  501    0  0.00000000000E+00  0.00000000000E+00  0.60008678804E+03  0.60008678804E+03  0.00000000000E+00 0. -1.
         -2   -1    0    0    0  501 -0.00000000000E+00 -0.00000000000E+00 -0.29909528244E+02  0.29909528244E+02  0.00000000000E+00 0.  1.
         25    2    1    2    0    0  0.39626854764E+02 -0.61838182364E+02  0.38980724688E+03  0.41592218609E+03  0.12508927513E+03 0.  0.
          5    1    3    3  502    0  0.69147782183E+01 -0.94520694614E+02  0.30265105272E+03  0.31717047148E+03  0.41800000000E+01 0. -1.
         -5    1    3    3    0  502  0.32712076546E+02  0.32682512250E+02  0.87156194158E+02  0.98751714613E+02  0.41800000000E+01 0. -1.
        -11    1    1    2    0    0 -0.39428916276E+01 -0.22333855997E+02  0.49331818492E+02  0.54295265299E+02  0.00000000000E+00 0.  1.
         11    1    1    2    0    0 -0.35683963136E+02  0.84172038361E+02  0.13103819443E+03  0.15977886489E+03  0.00000000000E+00 0. -1.
</event>
<event>
 7    1  0.2661133E-009  0.1113735E+03  0.7561462E-02  0.1258047E+00
          2   -1    0    0  501    0  0.00000000000E+00  0.00000000000E+00  0.10083750518E+04  0.10083750518E+04  0.00000000000E+00 0. -1.
         -2   -1    0    0    0  501 -0.00000000000E+00 -0.00000000000E+00 -0.15447226293E+02  0.15447226293E+02  0.00000000000E+00 0.  1.
         25    2    1    2    0    0  0.16072028229E+02 -0.48728549793E+02  0.76065684386E+03  0.77258003556E+03  0.12509314763E+03 0.  0.
          5    1    3    3  502    0  0.38926176467E+02  0.29152419673E+02  0.39472674706E+03  0.39773331270E+03  0.41800000000E+01 0.  1.
         -5    1    3    3    0  502 -0.22854148237E+02 -0.77880969466E+02  0.36593009680E+03  0.37484672286E+03  0.41800000000E+01 0.  1.
        -11    1    1    2    0    0  0.27561338437E+02  0.41796025587E+00  0.42878551073E+02  0.50974230836E+02  0.00000000000E+00 0.  1.
         11    1    1    2    0    0 -0.43633366667E+02  0.48310589537E+02  0.18939243055E+03  0.20026801167E+03  0.00000000000E+00 0. -1.
</event>
<event>
 7    1  0.2661133E-009  0.1007761E+03  0.7561462E-02  0.1278672E+00
         -2   -1    0    0    0  501 -0.00000000000E+00  0.00000000000E+00  0.52320611658E+02  0.52320611658E+02  0.00000000000E+00 0.  1.
          2   -1    0    0  501    0  0.00000000000E+00 -0.00000000000E+00 -0.25025408077E+03  0.25025408077E+03  0.00000000000E+00 0. -1.
         25    2    1    2    0    0  0.25563200733E+02  0.11104038122E+02 -0.13380027296E+03  0.18527440634E+03  0.12508923098E+03 0.  0.
          5    1    3    3  502    0  0.52544805491E+02  0.40111351065E+02 -0.27434719351E+02  0.71693886031E+02  0.41800000000E+01 0. -1.
         -5    1    3    3    0  502 -0.26981604757E+02 -0.29007312943E+02 -0.10636555360E+03  0.11358052031E+03  0.41800000000E+01 0. -1.
        -11    1    1    2    0    0  0.23514137544E+01  0.38493704676E+02 -0.12736969567E+02  0.40614342788E+02  0.00000000000E+00 0.  1.
         11    1    1    2    0    0 -0.27914614488E+02 -0.49597742798E+02 -0.51396226593E+02  0.76685943305E+02  0.00000000000E+00 0. -1.
</event>
<event>
 7    1  0.3766077E-009  0.1123280E+03  0.7561462E-02  0.1256319E+00
         -1   -1    0    0    0  501 -0.00000000000E+00  0.00000000000E+00  0.39929644837E+02  0.39929644837E+02  0.00000000000E+00 0.  1.
          1   -1    0    0  501    0  0.00000000000E+00 -0.00000000000E+00 -0.45532119094E+03  0.45532119094E+03  0.00000000000E+00 0. -1.
         25    2    1    2    0    0  0.65190623774E+02  0.27273863738E+02 -0.16037543190E+03  0.21531201223E+03  0.12508118317E+03 0.  0.
          5    1    3    3  502    0  0.54009225129E+02 -0.35794685966E+02 -0.33356808051E+02  0.72995924446E+02  0.41800000000E+01 0. -1.
         -5    1    3    3    0  502  0.11181398645E+02  0.63068549704E+02 -0.12701862385E+03  0.14231608778E+03  0.41800000000E+01 0. -1.
        -11    1    1    2    0    0 -0.52721393135E+02  0.12223725100E+02 -0.21724101375E+03  0.22388082277E+03  0.00000000000E+00 0. -1.
         11    1    1    2    0    0 -0.12469230639E+02 -0.39497588839E+02 -0.37775100450E+02  0.56058000775E+02  0.00000000000E+00 0.  1.
</event>
<event>
 7    1  0.2661133E-009  0.2035294E+03  0.7561462E-02  0.1146795E+00
         -4   -1    0    0    0  501 -0.00000000000E+00  0.00000000000E+00  0.49338953810E+02  0.49338953810E+02  0.00000000000E+00 0.  1.
          4   -1    0    0  501    0  0.00000000000E+00 -0.00000000000E+00 -0.86199518082E+03  0.86199518082E+03  0.00000000000E+00 0. -1.
         25    2    1    2    0    0  0.14586511463E+03  0.96427712803E+02 -0.40214158199E+03  0.45600529844E+03  0.12509214515E+03 0.  0.
          5    1    3    3  502    0 -0.19275659963E+02 -0.59462807225E+01 -0.41553249386E+02  0.46379459419E+02  0.41800000000E+01 0.  1.
         -5    1    3    3    0  502  0.16514077459E+03  0.10237399353E+03 -0.36058833261E+03  0.40962583902E+03  0.41800000000E+01 0.  1.
        -11    1    1    2    0    0 -0.48854490613E+02 -0.79978555470E+02 -0.15022070518E+03  0.17705815670E+03  0.00000000000E+00 0.  1.
         11    1    1    2    0    0 -0.97010624017E+02 -0.16449157333E+02 -0.26029393984E+03  0.27827067949E+03  0.00000000000E+00 0. -1.
</event>
<event>
 7    1  0.2661133E-009  0.1130895E+03  0.7561462E-02  0.1254953E+00
         -2   -1    0    0    0  501 -0.00000000000E+00  0.00000000000E+00  0.73045736964E+02  0.73045736964E+02  0.00000000000E+00 0.  1.
          2   -1    0    0  501    0  0.00000000000E+00 -0.00000000000E+00 -0.18951473118E+03  0.18951473118E+03  0.00000000000E+00 0. -1.
         25    2    1    2    0    0 -0.25640428130E+02  0.35930275753E+02 -0.85744109979E+02  0.15796418161E+03  0.12510880867E+03 0.  0.
          5    1    3    3  502    0 -0.73137714941E+02  0.12236121083E+02 -0.27882663294E+02  0.79333242203E+02  0.41800000000E+01 0.  1.
         -5    1    3    3    0  502  0.47497286811E+02  0.23694154670E+02 -0.57861446685E+02  0.78630939409E+02  0.41800000000E+01 0.  1.
        -11    1    1    2    0    0  0.33642564646E+02 -0.62464895782E+02 -0.29550386148E+02  0.76856429025E+02  0.00000000000E+00 0.  1.
         11    1    1    2    0    0 -0.80021365154E+01  0.26534620029E+02 -0.11744980923E+01  0.27739857509E+02  0.00000000000E+00 0. -1.
</event>
<event>
 7    1  0.2661133E-009  0.1365594E+03  0.7561462E-02  0.1218035E+00
         -1   -1    0    0    0  501 -0.00000000000E+00  0.00000000000E+00  0.55866777209E+03  0.55866777209E+03  0.00000000000E+00 0.  1.
          1   -1    0    0  501    0  0.00000000000E+00 -0.00000000000E+00 -0.52740915845E+02  0.52740915845E+02  0.00000000000E+00 0. -1.
         25    2    1    2    0    0 -0.19018221387E+02  0.83252724933E+02  0.45296463193E+03  0.47761604942E+03  0.12508966357E+03 0.  0.
          5    1    3    3  502    0 -0.49335617309E+02  0.10268998685E+03  0.36758620383E+03  0.38485883929E+03  0.41800000000E+01 0. -1.
         -5    1    3    3    0  502  0.30317395922E+02 -0.19437261916E+02  0.85378428101E+02  0.92757210131E+02  0.41800000000E+01 0. -1.
        -11    1    1    2    0    0  0.52840698095E+02 -0.33042641428E+02  0.27324799814E+02  0.68048513669E+02  0.00000000000E+00 0.  1.
         11    1    1    2    0    0 -0.33822476708E+02 -0.50210083506E+02  0.25637424498E+02  0.65744124842E+02  0.00000000000E+00 0. -1.
</event>
<event>
 7    1  0.2661133E-009  0.1235897E+03  0.7561462E-02  0.1237290E+00
         -1   -1    0    0    0  501 -0.00000000000E+00  0.00000000000E+00  0.50130315620E+03  0.50130315620E+03  0.00000000000E+00 0.  1.
          1   -1    0    0  501    0  0.00000000000E+00 -0.00000000000E+00 -0.35630348638E+02  0.35630348638E+02  0.00000000000E+00 0. -1.
         25    2    1    2    0    0 -0.56731338640E+02 -0.48668804277E+02  0.30160938793E+03  0.33495872599E+03  0.12506809319E+03 0.  0.
          5    1    3    3  502    0 -0.64499257059E+02 -0.83681745903E+02  0.25459641708E+03  0.27568024367E+03  0.41800000000E+01 0.  1.
         -5    1    3    3    0  502  0.77679184188E+01  0.35012941627E+02  0.47012970850E+02  0.59278482319E+02  0.41800000000E+01 0.  1.
        -11    1    1    2    0    0 -0.15655319258E+02  0.24397263510E+02  0.93939369329E+02  0.98310328032E+02  0.00000000000E+00 0.  1.
         11    1    1    2    0    0  0.72386657898E+02  0.24271540767E+02  0.70124050299E+02  0.10366445082E+03  0.00000000000E+00 0. -1.
</event>
<event>
 7    1  0.2661133E-009  0.1347808E+03  0.7561462E-02  0.1220529E+00
         -2   -1    0    0    0  501 -0.00000000000E+00  0.00000000000E+00  0.36756272391E+02  0.36756272391E+02  0.00000000000E+00 0.  1.
          2   -1    0    0  501    0  0.00000000000E+00 -0.00000000000E+00 -0.57626319385E+03  0.57626319385E+03  0.00000000000E+00 0. -1.
         25    2    1    2    0    0  0.90718493960E+02 -0.18280674303E+02 -0.30721673142E+03  0.34437629688E+03  0.12509550589E+03 0.  0.
          5    1    3    3  502    0  0.10277924294E+03 -0.52751216388E+02 -0.25997706512E+03  0.28452031632E+03  0.41800000000E+01 0.  1.
         -5    1    3    3    0  502 -0.12060748978E+02  0.34470542085E+02 -0.47239666298E+02  0.59855980566E+02  0.41800000000E+01 0.  1.
        -11    1    1    2    0    0 -0.75484261712E+02 -0.18217923806E+02 -0.80755511538E+02  0.11203222375E+03  0.00000000000E+00 0. -1.
         11    1    1    2    0    0 -0.15234232248E+02  0.36498598108E+02 -0.15153467851E+03  0.15661094562E+03  0.00000000000E+00 0.  1.
</event>
<event>
 7    1  0.2661133E-009  0.1297801E+03  0.7561462E-02  0.1227782E+00
          1   -1    0    0  501    0  0.00000000000E+00  0.00000000000E+00  0.43102070189E+03  0.43102070189E+03  0.00000000000E+00 0. -1.
         -1   -1    0    0    0  501 -0.00000000000E+00 -0.00000000000E+00 -0.53432186322E+02  0.53432186322E+02  0.00000000000E+00 0.  1.
         25    2    1    2    0    0 -0.66991938117E+02  0.83206255005E+02  0.21505593091E+03  0.27073444848E+03  0.12504754107E+03 0.  0.
          5    1    3    3  502    0  0.16410156413E+02 -0.12152281953E+02  0.91065671622E+02  0.93420555223E+02  0.41800000000E+01 0. -1.
         -5    1    3    3    0  502 -0.83402094530E+02  0.95358536958E+02  0.12399025929E+03  0.17731389326E+03  0.41800000000E+01 0. -1.
        -11    1    1    2    0    0  0.18175050437E+02 -0.49252442498E+02  0.14918551800E+02  0.54577456318E+02  0.00000000000E+00 0.  1.
         11    1    1    2    0    0  0.48816887680E+02 -0.33953812507E+02  0.14761403286E+03  0.15914098342E+03  0.00000000000E+00 0. -1.
</event>
<event>
 7    1  0.2661133E-009  0.9780322E+02  0.7561462E-02  0.1284984E+00
         -2   -1    0    0    0  501 -0.00000000000E+00  0.00000000000E+00  0.33492464846E+02  0.33492464846E+02  0.00000000000E+00 0.  1.
          2   -1    0    0  501    0  0.00000000000E+00 -0.00000000000E+00 -0.38670553884E+03  0.38670553884E+03  0.00000000000E+00 0. -1.
         25    2    1    2    0    0  0.24309311432E+02 -0.19876961419E+02 -0.17146985627E+03  0.21455895257E+03  0.12509035254E+03 0.  0.
          5    1    3    3  502    0 -0.44602854540E+02 -0.87216814224E+01 -0.24502504662E+02  0.51800844536E+02  0.41800000000E+01 0. -1.
         -5    1    3    3    0  502  0.68912165972E+02 -0.11155279997E+02 -0.14696735161E+03  0.16275810803E+03  0.41800000000E+01 0. -1.
        -11    1    1    2    0    0 -0.42933662443E+02  0.35510861014E+02 -0.16948390089E+03  0.17840715592E+03  0.00000000000E+00 0. -1.
         11    1    1    2    0    0  0.18624351011E+02 -0.15633899595E+02 -0.12259316831E+02  0.27231895202E+02  0.00000000000E+00 0.  1.
</event>
<event>
 7    1  0.2661133E-009  0.1610621E+03  0.7561462E-02  0.1187503E+00
          1   -1    0    0  501    0  0.00000000000E+00  0.00000000000E+00  0.92613497238E+02  0.92613497238E+02  0.00000000000E+00 0. -1.
         -1   -1    0    0    0  501 -0.00000000000E+00 -0.00000000000E+00 -0.35536685579E+03  0.35536685579E+03  0.00000000000E+00 0.  1.
         25    2    1    2    0    0  0.10007319661E+03 -0.10264746549E+03 -0.11593519228E+03  0.22280011555E+03  0.12509107014E+03 0.  0.
          5    1    3    3  502    0  0.35381460830E+02  0.12816487090E+00 -0.92397924675E+02  0.99028849740E+02  0.41800000000E+01 0. -1.
         -5    1    3    3    0  502  0.64691735785E+02 -0.10277563036E+03 -0.23537267607E+02  0.12377126581E+03  0.41800000000E+01 0. -1.
        -11    1    1    2    0    0 -0.23585854154E+01  0.57145850201E+02 -0.80063878584E+02  0.98394287305E+02  0.00000000000E+00 0.  1.
         11    1    1    2    0    0 -0.97714611199E+02  0.45501615286E+02 -0.66754287682E+02  0.12678595017E+03  0.00000000000E+00 0. -1.
</event>
<event>
 7    1  0.2661133E-009  0.1440243E+03  0.7561462E-02  0.1208014E+00
          2   -1    0    0  501    0  0.00000000000E+00  0.00000000000E+00  0.55395502484E+03  0.55395502484E+03  0.00000000000E+00 0. -1.
         -2   -1    0    0    0  501 -0.00000000000E+00 -0.00000000000E+00 -0.83744122263E+02  0.83744122263E+02  0.00000000000E+00 0.  1.
         25    2    1    2    0    0 -0.12222539811E+03 -0.57204457850E+02  0.54770223497E+02  0.19198178758E+03  0.12508329800E+03 0.  0.
          5    1    3    3  502    0 -0.46950883670E+02 -0.59495239078E+02 -0.27161820830E+02  0.80618272501E+02  0.41800000000E+01 0.  1.
         -5    1    3    3    0  502 -0.75274514437E+02  0.22907812275E+01  0.81932044328E+02  0.11136351508E+03  0.41800000000E+01 0.  1.
        -11    1    1    2    0    0  0.38562666454E+02  0.29620794457E+02  0.49753648942E+02  0.69569363167E+02  0.00000000000E+00 0.  1.
         11    1    1    2    0    0  0.83662731652E+02  0.27583663393E+02  0.36568703014E+03  0.37614799636E+03  0.00000000000E+00 0. -1.
</event>
<event>
 7    1  0.2661133E-009  0.8859852E+02  0.7561462E-02  0.1306281E+00
          2   -1    0    0  501    0  0.00000000000E+00  0.00000000000E+00  0.33494445441E+03  0.33494445441E+03  0.00000000000E+00 0. -1.
         -2   -1    0    0    0  501 -0.00000000000E+00 -0.00000000000E+00 -0.42380391207E+02  0.42380391207E+02  0.00000000000E+00 0.  1.
         25    2    1    2    0    0  0.23198467749E+02  0.12061023015E+02  0.22958614122E+03  0.26275641401E+03  0.12508996636E+03 0.  0.
          5    1    3    3  502    0 -0.24967770335E+02  0.39105414883E+02  0.29491391561E+02  0.55134722316E+02  0.41800000000E+01 0. -1.
         -5    1    3    3    0  502  0.48166238084E+02 -0.27044391868E+02  0.20009474966E+03  0.20762169170E+03  0.41800000000E+01 0. -1.
        -11    1    1    2    0    0 -0.11126541732E+02 -0.41728254471E+02 -0.80665898910E+00  0.43193724670E+02  0.00000000000E+00 0.  1.
         11    1    1    2    0    0 -0.12071926017E+02  0.29667231456E+02  0.63784580974E+02  0.71374706935E+02  0.00000000000E+00 0. -1.
</event>
<event>
 7    1  0.2661133E-009  0.1489241E+03  0.7561462E-02  0.1201801E+00
          1   -1    0    0  501    0  0.00000000000E+00  0.00000000000E+00  0.68573678090E+03  0.68573678090E+03  0.00000000000E+00 0. -1.
         -1   -1    0    0    0  501 -0.00000000000E+00 -0.00000000000E+00 -0.39867702719E+02  0.39867702719E+02  0.00000000000E+00 0.  1.
         25    2    1    2    0    0  0.10655875318E+03 -0.51295163751E+02  0.25819094968E+03  0.31031661517E+03  0.12509146036E+03 0.  0.
          5    1    3    3  502    0  0.19997977468E+02  0.40006738051E+02  0.51793650611E+02  0.68560286142E+02  0.41800000000E+01 0. -1.
         -5    1    3    3    0  502  0.86560775712E+02 -0.91301901803E+02  0.20639729906E+03  0.24175632903E+03  0.41800000000E+01 0. -1.
        -11    1    1    2    0    0 -0.45472878109E+02  0.47626725371E+02  0.90774661190E+02  0.11214333118E+03  0.00000000000E+00 0. -1.
         11    1    1    2    0    0 -0.61085875070E+02  0.36684383798E+01  0.29690346732E+03  0.30314453727E+03  0.00000000000E+00 0.  1.
</event>
<event>
 7    1  0.2661133E-009  0.9968086E+02  0.7561462E-02  0.1280968E+00
         -2   -1    0    0    0  501 -0.00000000000E+00  0.00000000000E+00  0.77113048785E+02  0.77113048785E+02  0.00000000000E+00 0. -1.
          2   -1    0    0  501    0  0.00000000000E+00 -0.00000000000E+00 -0.23443768117E+03  0.23443768117E+03  0.00000000000E+00 0.  1.
         25    2    1    2    0    0 -0.11003081141E+02 -0.53517823111E+02 -0.15183976364E+03  0.20417012750E+03  0.12507958250E+03 0.  0.
          5    1    3    3  502    0  0.56278910063E+02 -0.13903371509E+02 -0.69971748052E+02  0.90962285496E+02  0.41800000000E+01 0. -1.
         -5    1    3    3    0  502 -0.67281991204E+02 -0.39614451602E+02 -0.81868015584E+02  0.11320784201E+03  0.41800000000E+01 0. -1.
        -11    1    1    2    0    0 -0.74674966508E+01  0.38578599989E+02 -0.45948191976E+02  0.60459145125E+02  0.00000000000E+00 0.  1.
         11    1    1    2    0    0  0.18470577791E+02  0.14939223123E+02  0.40463323225E+02  0.46921457329E+02  0.00000000000E+00 0. -1.
</event>
<event>
 7    1  0.2661133E-009  0.8430170E+02  0.7561462E-02  0.1317269E+00
         -2   -1    0    0    0  501 -0.00000000000E+00  0.00000000000E+00  0.69689558838E+03  0.69689558838E+03  0.00000000000E+00 0.  1.
          2   -1    0    0  501    0  0.00000000000E+00 -0.00000000000E+00 -0.25963179269E+02  0.25963179269E+02  0.00000000000E+00 0. -1.
         25    2    1    2    0    0 -0.10103302861E+01 -0.28839475879E+02  0.18925947593E+03  0.22868982200E+03  0.12508856591E+03 0.  0.
          5    1    3    3  502    0  0.20824462208E+02 -0.33533592330E+02  0.19975548776E+03  0.20366120724E+03  0.41800000000E+01 0.  1.
         -5    1    3    3    0  502 -0.21834792494E+02  0.46941164511E+01 -0.10496011837E+02  0.25028614764E+02  0.41800000000E+01 0.  1.
        -11    1    1    2    0    0  0.51208414448E+02  0.79728836578E+01  0.16772845037E+03  0.17555256093E+03  0.00000000000E+00 0.  1.
         11    1    1    2    0    0 -0.50198084162E+02  0.20866592221E+02  0.31394448281E+03  0.31861638472E+03  0.00000000000E+00 0. -1.
</event>
<event>
 7    1  0.2661133E-009  0.1050466E+03  0.7561462E-02  0.1270028E+00
         -2   -1    0    0    0  501 -0.00000000000E+00  0.00000000000E+00  0.26056437631E+03  0.26056437631E+03  0.00000000000E+00 0.  1.
          2   -1    0    0  501    0  0.00000000000E+00 -0.00000000000E+00 -0.58671979499E+02  0.58671979499E+02  0.00000000000E+00 0. -1.
         25    2    1    2    0    0  0.31555582032E+02 -0.34913777912E+01  0.47778784705E+02  0.13762152369E+03  0.12509567154E+03 0.  0.
          5    1    3    3  502    0  0.19596394442E+02 -0.63158487596E+02  0.36303991201E+02  0.75554387084E+02  0.41800000000E+01 0. -1.
         -5    1    3    3    0  502  0.11959187590E+02  0.59667109805E+02  0.11474793505E+02  0.62067136604E+02  0.41800000000E+01 0. -1.
        -11    1    1    2    0    0  0.40584007408E+01 -0.32176470425E+02  0.10983908689E+03  0.11452694388E+03  0.00000000000E+00 0.  1.
         11    1    1    2    0    0 -0.35613982773E+02  0.35667848217E+02  0.44274525212E+02  0.67087888237E+02  0.00000000000E+00 0. -1.
</event>
<event>
 7    1  0.2661133E-009  0.6574309E+02  0.7561462E-02  0.1375198E+00
         -1   -1    0    0    0  501 -0.00000000000E+00  0.00000000000E+00  0.42590391721E+02  0.42590391721E+02  0.00000000000E+00 0.  1.
          1   -1    0    0  501    0  0.00000000000E+00 -0.00000000000E+00 -0.31126347114E+03  0.31126347114E+03  0.00000000000E+00 0. -1.
         25    2    1    2    0    0 -0.26089852966E+02  0.21465902836E+02 -0.13105104186E+03  0.18431058412E+03  0.12511814590E+03 0.  0.
          5    1    3    3  502    0 -0.40627213941E+01  0.14849976017E+02  0.23278702445E+02  0.28220522326E+02  0.41800000000E+01 0.  1.
         -5    1    3    3    0  502 -0.22027131572E+02  0.66159268194E+01 -0.15432974430E+03  0.15609006179E+03  0.41800000000E+01 0.  1.
        -11    1    1    2    0    0 -0.28103618207E+02  0.95913694904E+01 -0.18355152381E+02  0.34910161041E+02  0.00000000000E+00 0.  1.
         11    1    1    2    0    0  0.54193471172E+02 -0.31057272326E+02 -0.11926688518E+03  0.13463311770E+03  0.00000000000E+00 0. -1.
</event>
<event>
 7    1  0.2661133E-009  0.1134197E+03  0.7561462E-02  0.1254365E+00
         -2   -1    0    0    0  501 -0.00000000000E+00  0.00000000000E+00  0.11369951274E+03  0.11369951274E+03  0.00000000000E+00 0.  1.
          2   -1    0    0  501    0  0.00000000000E+00 -0.00000000000E+00 -0.18767854991E+03  0.18767854991E+03  0.00000000000E+00 0. -1.
         25    2    1    2    0    0 -0.57843725378E+02 -0.56019406064E+02  0.21976430356E+02  0.15038157375E+03  0.12509030262E+03 0.  0.
          5    1    3    3  502    0 -0.75320350960E+02 -0.83240806487E+02  0.31005066385E+02  0.11653743465E+03  0.41800000000E+01 0. -1.
         -5    1    3    3    0  502  0.17476625582E+02  0.27221400424E+02 -0.90286360291E+01  0.33844139098E+02  0.41800000000E+01 0. -1.
        -11    1    1    2    0    0  0.24179445121E+02  0.13639568542E+02  0.11992013667E+02  0.30240565275E+02  0.00000000000E+00 0.  1.
         11    1    1    2    0    0  0.33664280257E+02  0.42379837522E+02 -0.10794748119E+03  0.12075592362E+03  0.00000000000E+00 0. -1.
</event>
<event>
 7    1  0.2661133E-009  0.1203857E+03  0.7561462E-02  0.1242462E+00
          2   -1    0    0  501    0  0.00000000000E+00  0.00000000000E+00  0.11171944106E+03  0.11171944106E+03  0.00000000000E+00 0. -1.
         -2   -1    0    0    0  501 -0.00000000000E+00 -0.00000000000E+00 -0.19880236724E+03  0.19880236724E+03  0.00000000000E+00 0.  1.
         25    2    1    2    0    0 -0.77708338924E+02  0.76342961401E+01 -0.11757035714E+03  0.18859176498E+03  0.12508875459E+03 0.  0.
          5    1    3    3  502    0 -0.77515726004E+02 -0.44804919290E+02 -0.48946793304E+02  0.10212457856E+03  0.41800000000E+01 0. -1.
         -5    1    3    3    0  502 -0.19261291981E+00  0.52439215430E+02 -0.68623563836E+02  0.86467186424E+02  0.41800000000E+01 0. -1.
        -11    1    1    2    0    0  0.47724077811E+02 -0.34008559985E+02  0.50412515619E+02  0.77301950080E+02  0.00000000000E+00 0. -1.
         11    1    1    2    0    0  0.29984261113E+02  0.26374263845E+02 -0.19925084659E+02  0.44628093243E+02  0.00000000000E+00 0.  1.
</event>
<event>
 7    1  0.2661133E-009  0.8793395E+02  0.7561462E-02  0.1307933E+00
         -3   -1    0    0    0  501 -0.00000000000E+00  0.00000000000E+00  0.17174408560E+03  0.17174408560E+03  0.00000000000E+00 0.  1.
          3   -1    0    0  501    0  0.00000000000E+00 -0.00000000000E+00 -0.72379036653E+02  0.72379036653E+02  0.00000000000E+00 0. -1.
         25    2    1    2    0    0  0.19278978594E+02  0.13166169560E+02  0.73398995205E+02  0.14690277022E+03  0.12509190367E+03 0.  0.
          5    1    3    3  502    0 -0.35695554565E+02  0.21589295956E+02 -0.13150509258E+02  0.43939488041E+02  0.41800000000E+01 0. -1.
         -5    1    3    3    0  502  0.54974533158E+02 -0.84231263959E+01  0.86549504463E+02  0.10296328218E+03  0.41800000000E+01 0. -1.
        -11    1    1    2    0    0  0.17681382907E+02 -0.32095638015E+02 -0.14340360406E+02  0.39349805815E+02  0.00000000000E+00 0. -1.
         11    1    1    2    0    0 -0.36960361501E+02  0.18929468454E+02  0.40306414151E+02  0.57870546222E+02  0.00000000000E+00 0.  1.
</event>
<event>
 7    1  0.2661133E-009  0.1830926E+03  0.7561462E-02  0.1164843E+00
         -1   -1    0    0    0  501 -0.00000000000E+00  0.00000000000E+00  0.12743981632E+03  0.12743981632E+03  0.00000000000E+00 0.  1.
          1   -1    0    0  501    0  0.00000000000E+00 -0.00000000000E+00 -0.56502567777E+03  0.56502567777E+03  0.00000000000E+00 0. -1.
         25    2    1    2    0    0 -0.97347211315E+02 -0.12650076472E+03  0.15339890848E+02  0.20337665618E+03  0.12509128269E+03 0.  0.
          5    1    3    3  502    0 -0.84856238277E+02 -0.15084542637E+03  0.32079772187E+01  0.17315509622E+03  0.41800000000E+01 0. -1.
         -5    1    3    3    0  502 -0.12490973038E+02  0.24344661648E+02  0.12131913630E+02  0.30221559961E+02  0.41800000000E+01 0. -1.
        -11    1    1    2    0    0  0.45001544096E+01  0.34079921537E+02 -0.27721029814E+02  0.44160479341E+02  0.00000000000E+00 0.  1.
         11    1    1    2    0    0  0.92847056905E+02  0.92420843181E+02 -0.42520472248E+03  0.44492835856E+03  0.00000000000E+00 0. -1.
</event>
<event>
 7    1  0.2661133E-009  0.1218569E+03  0.7561462E-02  0.1240065E+00
          2   -1    0    0  501    0  0.00000000000E+00  0.00000000000E+00  0.82642945890E+02  0.82642945890E+02  0.00000000000E+00 0.  1.
         -2   -1    0    0    0  501 -0.00000000000E+00 -0.00000000000E+00 -0.23905576812E+03  0.23905576812E+03  0.00000000000E+00 0. -1.
         25    2    1    2    0    0 -0.79287971352E+02 -0.25364771560E+02 -0.12437208030E+03  0.19504176776E+03  0.12507167056E+03 0.  0.
          5    1    3    3  502    0 -0.76965094159E+02  0.36370788774E+02 -0.91084127549E+02  0.12474073387E+03  0.41800000000E+01 0.  1.
         -5    1    3    3    0  502 -0.23228771928E+01 -0.61735560334E+02 -0.33287952749E+02  0.70301033893E+02  0.41800000000E+01 0.  1.
        -11    1    1    2    0    0  0.82580429006E+02  0.12788756691E+02 -0.55163510639E+02  0.10013037730E+03  0.00000000000E+00 0. -1.
         11    1    1    2    0    0 -0.32924576538E+01  0.12576014868E+02  0.23122768707E+02  0.26526568946E+02  0.00000000000E+00 0.  1.
</event>
<event>
 7    1  0.2661133E-009  0.1861395E+03  0.7561462E-02  0.1161990E+00
         -1   -1    0    0    0  501 -0.00000000000E+00  0.00000000000E+00  0.58214878475E+03  0.58214878475E+03  0.00000000000E+00 0.  1.
          1   -1    0    0  501    0  0.00000000000E+00 -0.00000000000E+00 -0.10041104301E+03  0.10041104301E+03  0.00000000000E+00 0. -1.
         25    2    1    2    0    0 -0.65493580745E+02  0.16062706071E+03  0.43019468269E+03  0.48042171002E+03  0.12508833953E+03 0.  0.
          5    1    3    3  502    0 -0.34578550990E+02  0.16055934033E+03  0.41370796926E+03  0.44513675897E+03  0.41800000000E+01 0. -1.
         -5    1    3    3    0  502 -0.30915029755E+02  0.67720381957E-01  0.16486713437E+02  0.35284951053E+02  0.41800000000E+01 0. -1.
        -11    1    1    2    0    0  0.62805450886E+02 -0.11458589193E+03 -0.30081751755E+01  0.13070386532E+03  0.00000000000E+00 0. -1.
         11    1    1    2    0    0  0.26881298584E+01 -0.46041168784E+02  0.54551234222E+02  0.71434252430E+02  0.00000000000E+00 0.  1.
</event>
<event>
 7    1  0.2661133E-009  0.2676037E+03  0.7561462E-02  0.1102659E+00
         -2   -1    0    0    0  501 -0.00000000000E+00  0.00000000000E+00  0.86432714245E+02  0.86432714245E+02  0.00000000000E+00 0.  1.
          2   -1    0    0  501    0  0.00000000000E+00 -0.00000000000E+00 -0.92335598260E+03  0.92335598260E+03  0.00000000000E+00 0. -1.
         25    2    1    2    0    0 -0.15239461396E+03 -0.19586932574E+03 -0.28719852552E+03  0.39964943760E+03  0.12509104196E+03 0.  0.
          5    1    3    3  502    0 -0.10186791950E+03 -0.19698166497E+03 -0.19939056018E+03  0.29824975649E+03  0.41800000000E+01 0.  1.
         -5    1    3    3    0  502 -0.50526694462E+02  0.11123392247E+01 -0.87807965341E+02  0.10139968111E+03  0.41800000000E+01 0.  1.
        -11    1    1    2    0    0  0.20110774023E+02  0.92916555455E+02 -0.16393210742E+03  0.18950373440E+03  0.00000000000E+00 0.  1.
         11    1    1    2    0    0  0.13228383994E+03  0.10295277029E+03 -0.38579263542E+03  0.42063552484E+03  0.00000000000E+00 0. -1.
</event>
<event>
 7    1  0.2661133E-009  0.1275089E+03  0.7561462E-02  0.1231200E+00
         -2   -1    0    0    0  501 -0.00000000000E+00  0.00000000000E+00  0.19063277818E+02  0.19063277818E+02  0.00000000000E+00 0.  1.
          2   -1    0    0  501    0  0.00000000000E+00 -0.00000000000E+00 -0.20269182958E+04  0.20269182958E+04  0.00000000000E+00 0. -1.
         25    2    1    2    0    0  0.43677642194E+02 -0.99390100297E+02 -0.16662287781E+04  0.16744408543E+04  0.12509078775E+03 0.  0.
          5    1    3    3  502    0 -0.11756556694E+02 -0.87940802419E+02 -0.13666131994E+04  0.13694965902E+04  0.41800000000E+01 0. -1.
         -5    1    3    3    0  502  0.55434198888E+02 -0.11449297878E+02 -0.29961557872E+03  0.30494426415E+03  0.41800000000E+01 0. -1.
        -11    1    1    2    0    0 -0.27158739275E+02  0.44664232129E+02 -0.43564448661E+02  0.68046689397E+02  0.00000000000E+00 0.  1.
         11    1    1    2    0    0 -0.16518902920E+02  0.54725868168E+02 -0.29806179117E+03  0.30349402985E+03  0.00000000000E+00 0. -1.
</event>
<event>
 7    1  0.2661133E-009  0.9694019E+02  0.7561462E-02  0.1286865E+00
          2   -1    0    0  501    0  0.00000000000E+00  0.00000000000E+00  0.13447481471E+03  0.13447481471E+03  0.00000000000E+00 0. -1.
         -2   -1    0    0    0  501 -0.00000000000E+00 -0.00000000000E+00 -0.15955609660E+03  0.15955609660E+03  0.00000000000E+00 0.  1.
         25    2    1    2    0    0 -0.29118994493E+02 -0.27891744273E+02  0.76379936608E+02  0.15199504644E+03  0.12507091663E+03 0.  0.
          5    1    3    3  502    0 -0.71695906890E+02 -0.41656617147E+02  0.65510980464E+02  0.10575792064E+03  0.41800000000E+01 0.  1.
         -5    1    3    3    0  502  0.42576912397E+02  0.13764872874E+02  0.10868956144E+02  0.46237125799E+02  0.41800000000E+01 0.  1.
        -11    1    1    2    0    0  0.16707573791E+02 -0.14264854669E+02  0.85484717998E+01  0.23573406008E+02  0.00000000000E+00 0. -1.
         11    1    1    2    0    0  0.12411420702E+02  0.42156598942E+02 -0.11000969031E+03  0.11846245886E+03  0.00000000000E+00 0.  1.
</event>
<event>
 7    1  0.2661133E-009  0.1023680E+03  0.7561462E-02  0.1275394E+00
          2   -1    0    0  501    0  0.00000000000E+00  0.00000000000E+00  0.14512979869E+03  0.14512979869E+03  0.00000000000E+00 0. -1.
         -2   -1    0    0    0  501 -0.00000000000E+00 -0.00000000000E+00 -0.12072843903E+03  0.12072843903E+03  0.00000000000E+00 0.  1.
         25    2    1    2    0    0  0.45314776787E+02  0.54559264685E+01 -0.46185984644E+02  0.14093909125E+03  0.12508991221E+03 0.  0.
          5    1    3    3  502    0  0.33915997118E+02  0.64436585890E+02 -0.25690327703E+02  0.77329385095E+02  0.41800000000E+01 0.  1.
         -5    1    3    3    0  502  0.11398779668E+02 -0.58980659422E+02 -0.20495656941E+02  0.63609706156E+02  0.41800000000E+01 0.  1.
        -11    1    1    2    0    0 -0.24430466907E+02 -0.30431667476E+02 -0.80165675722E+01  0.39839671865E+02  0.00000000000E+00 0.  1.
         11    1    1    2    0    0 -0.20884309879E+02  0.24975741007E+02  0.78603911871E+02  0.85079474607E+02  0.00000000000E+00 0. -1.
</event>
<event>
 7    1  0.2661133E-009  0.1115018E+03  0.7561462E-02  0.1257814E+00
         -2   -1    0    0    0  501 -0.00000000000E+00  0.00000000000E+00  0.46922869318E+02  0.46922869318E+02  0.00000000000E+00 0.  1.
          2   -1    0    0  501    0  0.00000000000E+00 -0.00000000000E+00 -0.31717448380E+03  0.31717448380E+03  0.00000000000E+00 0. -1.
         25    2    1    2    0    0  0.20713189588E+02 -0.44940584589E+02 -0.11066029307E+03  0.17420257870E+03  0.12510853527E+03 0.  0.
          5    1    3    3  502    0  0.40000346100E+02 -0.78610992228E+02 -0.10068473270E+03  0.13392013883E+03  0.41800000000E+01 0.  1.
         -5    1    3    3    0  502 -0.19287156512E+02  0.33670407639E+02 -0.99755603709E+01  0.40282439867E+02  0.41800000000E+01 0.  1.
        -11    1    1    2    0    0  0.28098864890E+02  0.36619836200E+02 -0.42417952471E+02  0.62688446330E+02  0.00000000000E+00 0.  1.
         11    1    1    2    0    0 -0.48812054478E+02  0.83207483892E+01 -0.11717336894E+03  0.12720632809E+03  0.00000000000E+00 0. -1.
</event>
<event>
 7    1  0.2661133E-009  0.1004966E+03  0.7561462E-02  0.1279255E+00
         -2   -1    0    0    0  501 -0.00000000000E+00  0.00000000000E+00  0.86012750142E+02  0.86012750142E+02  0.00000000000E+00 0.  1.
          2   -1    0    0  501    0  0.00000000000E+00 -0.00000000000E+00 -0.25449590388E+03  0.25449590388E+03  0.00000000000E+00 0. -1.
         25    2    1    2    0    0  0.38484183087E+02 -0.32381365514E+01 -0.19807783503E+03  0.23743640596E+03  0.12509876207E+03 0.  0.
          5    1    3    3  502    0 -0.34965473665E+02 -0.35895462451E+02 -0.70710458420E+02  0.86766986252E+02  0.41800000000E+01 0.  1.
         -5    1    3    3    0  502  0.73449656752E+02  0.32657325899E+02 -0.12736737661E+03  0.15066941971E+03  0.41800000000E+01 0.  1.
        -11    1    1    2    0    0 -0.11563882480E+02 -0.27215944688E+02 -0.22384351660E+02  0.37087602005E+02  0.00000000000E+00 0. -1.
         11    1    1    2    0    0 -0.26920300607E+02  0.30454081240E+02  0.51979032948E+02  0.65984646056E+02  0.00000000000E+00 0.  1.
</event>
<event>
 7    1  0.2661133E-009  0.1155544E+03  0.7561462E-02  0.1250617E+00
         -2   -1    0    0    0  501 -0.00000000000E+00  0.00000000000E+00  0.10019400485E+03  0.10019400485E+03  0.00000000000E+00 0.  1.
          2   -1    0    0  501    0  0.00000000000E+00 -0.00000000000E+00 -0.15671335245E+03  0.15671335245E+03  0.00000000000E+00 0. -1.
         25    2    1    2    0    0 -0.23173318651E+01  0.50067248208E+02 -0.69919862915E+02  0.15181665542E+03  0.12508960893E+03 0.  0.
          5    1    3    3  502    0 -0.58882805214E+02  0.39722563472E+02 -0.16111214297E+02  0.72952795867E+02  0.41800000000E+01 0.  1.
         -5    1    3    3    0  502  0.56565473349E+02  0.10344684736E+02 -0.53808648618E+02  0.78863859553E+02  0.41800000000E+01 0.  1.
        -11    1    1    2    0    0  0.15301692203E+02 -0.73735203961E+02  0.18668912336E+02  0.77585761421E+02  0.00000000000E+00 0. -1.
         11    1    1    2    0    0 -0.12984360338E+02  0.23667955753E+02 -0.52683970229E+01  0.27504940467E+02  0.00000000000E+00 0.  1.
</event>
<event>
 7    1  0.2661133E-009  0.1035633E+03  0.7561462E-02  0.1272976E+00
          3   -1    0    0  501    0  0.00000000000E+00  0.00000000000E+00  0.92182959051E+02  0.92182959051E+02  0.00000000000E+00 0. -1.
         -3   -1    0    0    0  501 -0.00000000000E+00 -0.00000000000E+00 -0.15413274909E+03  0.15413274909E+03  0.00000000000E+00 0.  1.
         25    2    1    2    0    0  0.23786159166E+02  0.41714391365E+02 -0.24750176138E+02  0.13625217285E+03  0.12508481751E+03 0.  0.
          5    1    3    3  502    0  0.73844758427E+02  0.27879441262E+02 -0.28476183610E+02  0.84015933163E+02  0.41800000000E+01 0. -1.
         -5    1    3    3    0  502 -0.50058599262E+02  0.13834950103E+02  0.37260074717E+01  0.52236239682E+02  0.41800000000E+01 0. -1.
        -11    1    1    2    0    0  0.86774390485E+01  0.11037387272E+02  0.20874145145E+02  0.25156545903E+02  0.00000000000E+00 0. -1.
         11    1    1    2    0    0 -0.32463598214E+02 -0.52751778637E+02 -0.58073759048E+02  0.84906989396E+02  0.00000000000E+00 0.  1.
</event>
<event>
 7    1  0.2661133E-009  0.9494724E+02  0.7561462E-02  0.1291295E+00
         -2   -1    0    0    0  501 -0.00000000000E+00  0.00000000000E+00  0.47745504286E+02  0.47745504286E+02  0.00000000000E+00 0.  1.
          2   -1    0    0  501    0  0.00000000000E+00 -0.00000000000E+00 -0.36758694709E+03  0.36758694709E+03  0.00000000000E+00 0. -1.
         25    2    1    2    0    0  0.61799071118E+02  0.36660585131E+02 -0.13527873784E+03  0.19776389359E+03  0.12508835678E+03 0.  0.
          5    1    3    3  502    0  0.68778207357E+02  0.40153983328E+02 -0.15601491455E+03  0.17521675190E+03  0.41800000000E+01 0. -1.
         -5    1    3    3    0  502 -0.69791362382E+01 -0.34933981965E+01  0.20736176710E+02  0.22547141685E+02  0.41800000000E+01 0. -1.
        -11    1    1    2    0    0  0.75316505283E+01  0.13676094601E+02 -0.17949675455E+01  0.15715700165E+02  0.00000000000E+00 0.  1.
         11    1    1    2    0    0 -0.69330721647E+02 -0.50336679732E+02 -0.18276773742E+03  0.20185285762E+03  0.00000000000E+00 0. -1.
</event>
<event>
 7    1  0.2661133E-009  0.8281585E+02  0.7561462E-02  0.1321245E+00
         -2   -1    0    0    0  501 -0.00000000000E+00  0.00000000000E+00  0.17125788007E+02  0.17125788007E+02  0.00000000000E+00 0.  1.
          2   -1    0    0  501    0  0.00000000000E+00 -0.00000000000E+00 -0.11718883298E+04  0.11718883298E+04  0.00000000000E+00 0. -1.
         25    2    1    2    0    0 -0.18874332620E+02  0.11940583813E+02 -0.99745097943E+03  0.10055122214E+04  0.12509017938E+03 0.  0.
          5    1    3    3  502    0  0.42637347198E+02  0.68860841493E+01 -0.15999560502E+03  0.16577523204E+03  0.41800000000E+01 0.  1.
         -5    1    3    3    0  502 -0.61511679818E+02  0.50544996642E+01 -0.83745537441E+03  0.83973698933E+03  0.41800000000E+01 0.  1.
        -11    1    1    2    0    0  0.22154950898E+01  0.22242922902E+02 -0.72565344731E+00  0.22364762701E+02  0.00000000000E+00 0.  1.
         11    1    1    2    0    0  0.16658837531E+02 -0.34183506716E+02 -0.15658590893E+03  0.16113713376E+03  0.00000000000E+00 0. -1.
</event>
<event>
 7    1  0.2661133E-009  0.1125915E+03  0.7561462E-02  0.1255845E+00
         -1   -1    0    0    0  501 -0.00000000000E+00  0.00000000000E+00  0.46878708610E+03  0.46878708610E+03  0.00000000000E+00 0.  1.
          1   -1    0    0  501    0  0.00000000000E+00 -0.00000000000E+00 -0.36369468963E+02  0.36369468963E+02  0.00000000000E+00 0. -1.
         25    2    1    2    0    0  0.46468104047E+02  0.38214182288E+02  0.30806744493E+03  0.33789426363E+03  0.12508946539E+03 0.  0.
          5    1    3    3  502    0  0.35998111913E-01 -0.32219388184E+02  0.21064662175E+02  0.38720571578E+02  0.41800000000E+01 0.  1.
         -5    1    3    3    0  502  0.46432105935E+02  0.70433570472E+02  0.28700278275E+03  0.29917369206E+03  0.41800000000E+01 0.  1.
        -11    1    1    2    0    0 -0.73304469387E+02 -0.20657308612E+02  0.66447256713E+02  0.10107179407E+03  0.00000000000E+00 0.  1.
         11    1    1    2    0    0  0.26836365340E+02 -0.17556873676E+02  0.57902915500E+02  0.66190497364E+02  0.00000000000E+00 0. -1.
</event>
<event>
 7    1  0.2661133E-009  0.9933231E+02  0.7561462E-02  0.1281706E+00
          2   -1    0    0  501    0  0.00000000000E+00  0.00000000000E+00  0.65639176198E+02  0.65639176198E+02  0.00000000000E+00 0. -1.
         -2   -1    0    0    0  501 -0.00000000000E+00 -0.00000000000E+00 -0.26224938459E+03  0.26224938459E+03  0.00000000000E+00 0.  1.
         25    2    1    2    0    0  0.59935634224E+02 -0.37154922177E+02 -0.13799181632E+03  0.19915093760E+03  0.12508631454E+03 0.  0.
          5    1    3    3  502    0  0.31733573737E+02  0.13363784552E+02  0.13277954697E+02  0.37140098554E+02  0.41800000000E+01 0. -1.
         -5    1    3    3    0  502  0.28202060486E+02 -0.50518706729E+02 -0.15126977102E+03  0.16201083905E+03  0.41800000000E+01 0. -1.
        -11    1    1    2    0    0 -0.25729235955E+01 -0.22828973885E+02 -0.36013437785E+02  0.42717088917E+02  0.00000000000E+00 0.  1.
         11    1    1    2    0    0 -0.57362710628E+02  0.59983896061E+02 -0.22604954282E+02  0.86020534266E+02  0.00000000000E+00 0. -1.
</event>
<event>
 7    1  0.2661133E-009  0.9269967E+02  0.7561462E-02  0.1296443E+00
         -1   -1    0    0    0  501 -0.00000000000E+00  0.00000000000E+00  0.15259604833E+03  0.15259604833E+03  0.00000000000E+00 0.  1.
          1   -1    0    0  501    0  0.00000000000E+00 -0.00000000000E+00 -0.10188064673E+03  0.10188064673E+03  0.00000000000E+00 0. -1.
         25    2    1    2    0    0 -0.43470574554E+02  0.10233631514E+02  0.71931379893E+02  0.15103900616E+03  0.12507693593E+03 0.  0.
          5    1    3    3  502    0 -0.26069568020E+02 -0.50195182325E+02  0.67060429125E+02  0.87827969689E+02  0.41800000000E+01 0. -1.
         -5    1    3    3    0  502 -0.17401006535E+02  0.60428813838E+02  0.48709507677E+01  0.63211036471E+02  0.41800000000E+01 0. -1.
        -11    1    1    2    0    0  0.10897996551E+02  0.18993384170E+02  0.29314711676E+02  0.36590535548E+02  0.00000000000E+00 0.  1.
         11    1    1    2    0    0  0.32572578003E+02 -0.29227015684E+02 -0.50530689968E+02  0.66847153359E+02  0.00000000000E+00 0. -1.
</event>
<event>
 7    1  0.2661133E-009  0.1234199E+03  0.7561462E-02  0.1237559E+00
         -2   -1    0    0    0  501 -0.00000000000E+00  0.00000000000E+00  0.51618363179E+02  0.51618363179E+02  0.00000000000E+00 0.  1.
          2   -1    0    0  501    0  0.00000000000E+00 -0.00000000000E+00 -0.58398203223E+03  0.58398203223E+03  0.00000000000E+00 0. -1.
         25    2    1    2    0    0 -0.89976987652E+02 -0.25397758215E+02 -0.10215849823E+03  0.18661276219E+03  0.12508820817E+03 0.  0.
          5    1    3    3  502    0 -0.47581872856E+02 -0.73271349981E+02 -0.36233000470E+02  0.94673270122E+02  0.41800000000E+01 0.  1.
         -5    1    3    3    0  502 -0.42395114795E+02  0.47873591765E+02 -0.65925497764E+02  0.91939492072E+02  0.41800000000E+01 0.  1.
        -11    1    1    2    0    0  0.18778401344E+02  0.13446580577E+02 -0.14970674269E+02  0.27523807410E+02  0.00000000000E+00 0.  1.
         11    1    1    2    0    0  0.71198586307E+02  0.11951177638E+02 -0.41523449655E+03  0.42146382581E+03  0.00000000000E+00 0. -1.
</event>
<event>
 7    1  0.2846285E-009  0.9287025E+02  0.7561462E-02  0.1296046E+00
          1   -1    0    0  501    0  0.00000000000E+00  0.00000000000E+00  0.42461273473E+03  0.42461273473E+03  0.00000000000E+00 0. -1.
         -1   -1    0    0    0  501 -0.00000000000E+00 -0.00000000000E+00 -0.40587748381E+02  0.40587748381E+02  0.00000000000E+00 0.  1.
         25    2    1    2    0    0 -0.54069352106E+02 -0.33765458960E+02  0.27747804172E+03  0.31097278006E+03  0.12508559169E+03 0.  0.
          5    1    3    3  502    0  0.13103835555E+02 -0.18352174446E+02  0.21983578282E+03  0.22102885925E+03  0.41800000000E+01 0. -1.
         -5    1    3    3    0  502 -0.67173187661E+02 -0.15413284514E+02  0.57642258893E+02  0.89943920808E+02  0.41800000000E+01 0. -1.
        -11    1    1    2    0    0  0.17671188154E+02 -0.21347894373E+02 -0.13220493587E+01  0.27744392217E+02  0.00000000000E+00 0.  1.
         11    1    1    2    0    0  0.36398163951E+02  0.55113353333E+02  0.10786899399E+03  0.12648331084E+03  0.00000000000E+00 0. -1.
</event>
<event>
 7    1  0.2940667E-009  0.1775906E+03  0.7561462E-02  0.1170155E+00
         -1   -1    0    0    0  501 -0.00000000000E+00  0.00000000000E+00  0.13399334559E+03  0.13399334559E+03  0.00000000000E+00 0.  1.
          1   -1    0    0  501    0  0.00000000000E+00 -0.00000000000E+00 -0.25410889825E+03  0.25410889825E+03  0.00000000000E+00 0. -1.
         25    2    1    2    0    0  0.14574393593E+03  0.23893252494E+02 -0.83244871887E+02  0.21068747409E+03  0.12508925081E+03 0.  0.
          5    1    3    3  502    0  0.15356184186E+03 -0.12584739011E+02 -0.54789157845E+02  0.16358159783E+03  0.41800000000E+01 0. -1.
         -5    1    3    3    0  502 -0.78179059253E+01  0.36477991505E+02 -0.28455714042E+02  0.47105876268E+02  0.41800000000E+01 0. -1.
        -11    1    1    2    0    0 -0.66390330206E+02  0.24263578065E+02  0.13262658619E+02  0.71918671282E+02  0.00000000000E+00 0.  1.
         11    1    1    2    0    0 -0.79353605724E+02 -0.48156830559E+02 -0.50133339392E+02  0.10549609846E+03  0.00000000000E+00 0. -1.
</event>
<event>
 7    1  0.2661133E-009  0.3003105E+03  0.7561462E-02  0.1085085E+00
         -1   -1    0    0    0  501 -0.00000000000E+00  0.00000000000E+00  0.21190029724E+03  0.21190029724E+03  0.00000000000E+00 0.  1.
          1   -1    0    0  501    0  0.00000000000E+00 -0.00000000000E+00 -0.50612299886E+03  0.50612299886E+03  0.00000000000E+00 0. -1.
         25    2    1    2    0    0  0.25208414664E+03 -0.15892636755E+03 -0.61524122504E+02  0.32899331517E+03  0.12508947394E+03 0.  0.
          5    1    3    3  502    0  0.20893707525E+03 -0.13624898106E+03  0.11648167038E+01  0.24947407771E+03  0.41800000000E+01 0. -1.
         -5    1    3    3    0  502  0.43147071388E+02 -0.22677386489E+02 -0.62688939207E+02  0.79519237460E+02  0.41800000000E+01 0.  1.
        -11    1    1    2    0    0 -0.10108424149E+03  0.35285945921E+02 -0.38684619290E+02  0.11384033392E+03  0.00000000000E+00 0. -1.
         11    1    1    2    0    0 -0.15099990515E+03  0.12364042163E+03 -0.19401395983E+03  0.27518964701E+03  0.00000000000E+00 0.  1.
</event>
<event>
 7    1  0.2661133E-009  0.7988596E+02  0.7561462E-02  0.1329375E+00
          2   -1    0    0  501    0  0.00000000000E+00  0.00000000000E+00  0.26347715830E+03  0.26347715830E+03  0.00000000000E+00 0. -1.
         -2   -1    0    0    0  501 -0.00000000000E+00 -0.00000000000E+00 -0.52726262639E+02  0.52726262639E+02  0.00000000000E+00 0.  1.
         25    2    1    2    0    0 -0.41787100507E+02 -0.73494186067E+01  0.10984786784E+03  0.17179769797E+03  0.12509084394E+03 0.  0.
          5    1    3    3  502    0  0.28753475799E+02  0.84215316170E+01  0.92534045676E+02  0.97353513416E+02  0.41800000000E+01 0. -1.
         -5    1    3    3    0  502 -0.70540576306E+02 -0.15770950224E+02  0.17313822161E+02  0.74444184557E+02  0.41800000000E+01 0. -1.
        -11    1    1    2    0    0  0.21806684120E+02 -0.15507735120E+02  0.10960510320E+03  0.11282419939E+03  0.00000000000E+00 0. -1.
         11    1    1    2    0    0  0.19980416386E+02  0.22857153727E+02 -0.87020753762E+01  0.31581523575E+02  0.00000000000E+00 0.  1.
</event>
<event>
 7    1  0.2661133E-009  0.1667966E+03  0.7561462E-02  0.1181230E+00
         -2   -1    0    0    0  501 -0.00000000000E+00  0.00000000000E+00  0.24852316461E+02  0.24852316461E+02  0.00000000000E+00 0.  1.
          2   -1    0    0  501    0  0.00000000000E+00 -0.00000000000E+00 -0.11516538736E+04  0.11516538736E+04  0.00000000000E+00 0. -1.
         25    2    1    2    0    0  0.11585868509E+03  0.51114985148E+02 -0.69564953841E+03  0.71806131996E+03  0.12509117600E+03 0.  0.
          5    1    3    3  502    0  0.10137064400E+03 -0.21418039539E+02 -0.42331321050E+03  0.43582827635E+03  0.41800000000E+01 0. -1.
         -5    1    3    3    0  502  0.14488041088E+02  0.72533024686E+02 -0.27233632791E+03  0.28223304361E+03  0.41800000000E+01 0. -1.
        -11    1    1    2    0    0 -0.12793953470E+03 -0.29875255286E+02 -0.36252947871E+03  0.38560170948E+03  0.00000000000E+00 0. -1.
         11    1    1    2    0    0  0.12080849603E+02 -0.21239729862E+02 -0.68622540037E+02  0.72843160646E+02  0.00000000000E+00 0.  1.
</event>
<event>
 7    1  0.2661133E-009  0.9974027E+02  0.7561462E-02  0.1280843E+00
          1   -1    0    0  501    0  0.00000000000E+00  0.00000000000E+00  0.85369431798E+02  0.85369431798E+02  0.00000000000E+00 0. -1.
         -1   -1    0    0    0  501 -0.00000000000E+00 -0.00000000000E+00 -0.21825295051E+03  0.21825295051E+03  0.00000000000E+00 0.  1.
         25    2    1    2    0    0 -0.14517848709E+02  0.18656192067E+02 -0.16379607843E+03  0.20745190258E+03  0.12509322580E+03 0.  0.
          5    1    3    3  502    0 -0.52923535982E+02  0.40527704382E+02 -0.44744434739E+02  0.80392364833E+02  0.41800000000E+01 0.  1.
         -5    1    3    3    0  502  0.38405687274E+02 -0.21871512315E+02 -0.11905164370E+03  0.12705953775E+03  0.41800000000E+01 0.  1.
        -11    1    1    2    0    0  0.40105530241E+02 -0.38746028749E+02  0.30659792897E+02  0.63637498381E+02  0.00000000000E+00 0. -1.
         11    1    1    2    0    0 -0.25587681532E+02  0.20089836682E+02  0.25276682657E+00  0.32532981345E+02  0.00000000000E+00 0.  1.
</event>
<event>
 7    1  0.2661133E-009  0.1478713E+03  0.7561462E-02  0.1203113E+00
         -1   -1    0    0    0  501 -0.00000000000E+00  0.00000000000E+00  0.48278089803E+02  0.48278089803E+02  0.00000000000E+00 0.  1.
          1   -1    0    0  501    0  0.00000000000E+00 -0.00000000000E+00 -0.73161787655E+03  0.73161787655E+03  0.00000000000E+00 0. -1.
         25    2    1    2    0    0  0.28028779042E+02 -0.12599402919E+03 -0.52370854376E+03  0.55369444513E+03  0.12508713729E+03 0.  0.
          5    1    3    3  502    0 -0.22803074282E+02 -0.43760247137E+02 -0.36103658734E+03  0.36441710885E+03  0.41800000000E+01 0.  1.
         -5    1    3    3    0  502  0.50831853325E+02 -0.82233782057E+02 -0.16267195642E+03  0.18927733628E+03  0.41800000000E+01 0.  1.
        -11    1    1    2    0    0  0.24504271282E+01 -0.98925386553E+01  0.43355675465E+01  0.11075380811E+02  0.00000000000E+00 0. -1.
         11    1    1    2    0    0 -0.30479206170E+02  0.13588656785E+03 -0.16396681053E+03  0.21512614041E+03  0.00000000000E+00 0.  1.
</event>
<event>
 7    1  0.2661133E-009  0.2215550E+03  0.7561462E-02  0.1132729E+00
         -1   -1    0    0    0  501 -0.00000000000E+00  0.00000000000E+00  0.32313783499E+03  0.32313783499E+03  0.00000000000E+00 0.  1.
          1   -1    0    0  501    0  0.00000000000E+00 -0.00000000000E+00 -0.16886293939E+03  0.16886293939E+03  0.00000000000E+00 0. -1.
         25    2    1    2    0    0 -0.19448933691E+03  0.29011902419E+02  0.16409566359E+02  0.23363397542E+03  0.12509103864E+03 0.  0.
          5    1    3    3  502    0 -0.13713528400E+03  0.77520814459E+02  0.16043837773E+02  0.15839962096E+03  0.41800000000E+01 0.  1.
         -5    1    3    3    0  502 -0.57354052913E+02 -0.48508912040E+02  0.36572858532E+00  0.75234354455E+02  0.41800000000E+01 0.  1.
        -11    1    1    2    0    0  0.15096160781E+03 -0.53726175398E+02  0.72077069228E+02  0.17570148794E+03  0.00000000000E+00 0. -1.
         11    1    1    2    0    0  0.43527729093E+02  0.24714272979E+02  0.65788260012E+02  0.82665311010E+02  0.00000000000E+00 0.  1.
</event>
<event>
 7    1  0.2661133E-009  0.8984141E+02  0.7561462E-02  0.1303236E+00
          2   -1    0    0  501    0  0.00000000000E+00  0.00000000000E+00  0.43480568903E+03  0.43480568903E+03  0.00000000000E+00 0. -1.
         -2   -1    0    0    0  501 -0.00000000000E+00 -0.00000000000E+00 -0.34727291981E+02  0.34727291981E+02  0.00000000000E+00 0.  1.
         25    2    1    2    0    0 -0.52033856322E+02 -0.77339502205E+01  0.26448972654E+03  0.29726646349E+03  0.12508076863E+03 0.  0.
          5    1    3    3  502    0  0.12010268027E+02 -0.32678586624E+02  0.14463066715E+02  0.37931375676E+02  0.41800000000E+01 0.  1.
         -5    1    3    3    0  502 -0.64044124349E+02  0.24944636404E+02  0.25002665982E+03  0.25933508781E+03  0.41800000000E+01 0.  1.
        -11    1    1    2    0    0  0.35230171729E+02  0.31090059898E+02  0.16575601230E+02  0.49824766739E+02  0.00000000000E+00 0.  1.
         11    1    1    2    0    0  0.16803684593E+02 -0.23356109677E+02  0.11901306928E+03  0.12244175078E+03  0.00000000000E+00 0. -1.
</event>
<event>
 7    1  0.2661133E-009  0.9853141E+02  0.7561462E-02  0.1283415E+00
          2   -1    0    0  501    0  0.00000000000E+00  0.00000000000E+00  0.31176934251E+03  0.31176934251E+03  0.00000000000E+00 0.  1.
         -2   -1    0    0    0  501 -0.00000000000E+00 -0.00000000000E+00 -0.61716941346E+02  0.61716941346E+02  0.00000000000E+00 0. -1.
         25    2    1    2    0    0  0.47181844769E+02 -0.65606088850E+02  0.96645365366E+02  0.17753352783E+03  0.12509013345E+03 0.  0.
          5    1    3    3  502    0  0.55405032480E+02 -0.64833494834E+02  0.51167758946E+01  0.85538023545E+02  0.41800000000E+01 0. -1.
         -5    1    3    3    0  502 -0.82231877106E+01 -0.77259401598E+00  0.91528589471E+02  0.91995504283E+02  0.41800000000E+01 0. -1.
        -11    1    1    2    0    0 -0.54228705752E+02  0.22447680074E+02  0.31865527037E+02  0.66783700718E+02  0.00000000000E+00 0. -1.
         11    1    1    2    0    0  0.70468609826E+01  0.43158408775E+02  0.12154150876E+03  0.12916905531E+03  0.00000000000E+00 0.  1.
</event>
<event>
 7    1  0.2661133E-009  0.1466713E+03  0.7561462E-02  0.1204624E+00
          1   -1    0    0  501    0  0.00000000000E+00  0.00000000000E+00  0.29705677091E+03  0.29705677091E+03  0.00000000000E+00 0. -1.
         -1   -1    0    0    0  501 -0.00000000000E+00 -0.00000000000E+00 -0.10099010350E+03  0.10099010350E+03  0.00000000000E+00 0.  1.
         25    2    1    2    0    0  0.12395248904E+03 -0.38296101009E+02  0.64926354671E+02  0.19155471166E+03  0.12508782968E+03 0.  0.
          5    1    3    3  502    0  0.29624039972E+02  0.22196038888E+02 -0.27446236069E+02  0.46271115839E+02  0.41800000000E+01 0.  1.
         -5    1    3    3    0  502  0.94328449070E+02 -0.60492139897E+02  0.92372590741E+02  0.14528359582E+03  0.41800000000E+01 0.  1.
        -11    1    1    2    0    0 -0.12900955823E+03  0.27322472163E+02  0.80654315575E+02  0.15458040698E+03  0.00000000000E+00 0.  1.
         11    1    1    2    0    0  0.50570691923E+01  0.10973628846E+02  0.50485997156E+02  0.51911755775E+02  0.00000000000E+00 0. -1.
</event>
<event>
 7    1  0.2661133E-009  0.1328958E+03  0.7561462E-02  0.1223221E+00
          1   -1    0    0  501    0  0.00000000000E+00  0.00000000000E+00  0.70350127435E+02  0.70350127435E+02  0.00000000000E+00 0. -1.
         -1   -1    0    0    0  501 -0.00000000000E+00 -0.00000000000E+00 -0.31059933479E+03  0.31059933479E+03  0.00000000000E+00 0.  1.
         25    2    1    2    0    0 -0.35897122145E+02 -0.91934858453E+02 -0.15692410070E+03  0.22363801056E+03  0.12509262493E+03 0.  0.
          5    1    3    3  502    0 -0.65817786353E+02 -0.57711184126E+02 -0.36648153745E+02  0.94990111836E+02  0.41800000000E+01 0.  1.
         -5    1    3    3    0  502  0.29920664208E+02 -0.34223674327E+02 -0.12027594695E+03  0.12864789872E+03  0.41800000000E+01 0.  1.
        -11    1    1    2    0    0 -0.68569900554E+01 -0.15460255919E+02 -0.17290334259E+02  0.24186638553E+02  0.00000000000E+00 0.  1.
         11    1    1    2    0    0  0.42754112201E+02  0.10739511437E+03 -0.66034772404E+02  0.13312481312E+03  0.00000000000E+00 0. -1.
</event>
<event>
 7    1  0.2661133E-009  0.2247142E+03  0.7561462E-02  0.1130416E+00
         -2   -1    0    0    0  501 -0.00000000000E+00  0.00000000000E+00  0.44873375262E+02  0.44873375262E+02  0.00000000000E+00 0.  1.
          2   -1    0    0  501    0  0.00000000000E+00 -0.00000000000E+00 -0.12870394807E+04  0.12870394807E+04  0.00000000000E+00 0. -1.
         25    2    1    2    0    0  0.77830148295E+02  0.19878311587E+03 -0.59096379177E+03  0.64066551914E+03  0.12506736220E+03 0.  0.
          5    1    3    3  502    0  0.62133671946E+02  0.48638858686E+02 -0.10270442752E+03  0.12958396350E+03  0.41800000000E+01 0.  1.
         -5    1    3    3    0  502  0.15696476350E+02  0.15014425719E+03 -0.48825936425E+03  0.51108155564E+03  0.41800000000E+01 0.  1.
        -11    1    1    2    0    0 -0.44851425433E+02 -0.50753479481E+02 -0.31831022896E+03  0.32543658046E+03  0.00000000000E+00 0.  1.
         11    1    1    2    0    0 -0.32978722862E+02 -0.14802963639E+03 -0.33289208475E+03  0.36581075641E+03  0.00000000000E+00 0. -1.
</event>
<event>
 7    1  0.2661133E-009  0.3098283E+03  0.7561462E-02  0.1080428E+00
          1   -1    0    0  501    0  0.00000000000E+00  0.00000000000E+00  0.81116233971E+03  0.81116233971E+03  0.00000000000E+00 0. -1.
         -1   -1    0    0    0  501 -0.00000000000E+00 -0.00000000000E+00 -0.14554282309E+03  0.14554282309E+03  0.00000000000E+00 0.  1.
         25    2    1    2    0    0 -0.27443685164E+03 -0.13662255150E+03  0.48976497673E+03  0.59118508767E+03  0.12509503720E+03 0.  0.
          5    1    3    3  502    0 -0.27321419782E+03 -0.13002487063E+03  0.40250372229E+03  0.50356646407E+03  0.41800000000E+01 0.  1.
         -5    1    3    3    0  502 -0.12226538156E+01 -0.65976808677E+01  0.87261254443E+02  0.87618623603E+02  0.41800000000E+01 0.  1.
        -11    1    1    2    0    0  0.19168264618E+03  0.74426641059E+02  0.69375008177E+02  0.21701256532E+03  0.00000000000E+00 0. -1.
         11    1    1    2    0    0  0.82754205460E+02  0.62195910437E+02  0.10647953172E+03  0.14850750981E+03  0.00000000000E+00 0.  1.
</event>
<event>
 7    1  0.2661133E-009  0.3067589E+03  0.7561462E-02  0.1081910E+00
          4   -1    0    0  501    0  0.00000000000E+00  0.00000000000E+00  0.20045520595E+03  0.20045520595E+03  0.00000000000E+00 0. -1.
         -4   -1    0    0    0  501 -0.00000000000E+00 -0.00000000000E+00 -0.53687618742E+03  0.53687618742E+03  0.00000000000E+00 0.  1.
         25    2    1    2    0    0  0.27337855620E+03  0.12312145896E+03 -0.25788444451E+03  0.41478599688E+03  0.12509319664E+03 0.  0.
          5    1    3    3  502    0  0.26180202646E+02  0.32287336190E+02 -0.98328592274E+02  0.10683566608E+03  0.41800000000E+01 0. -1.
         -5    1    3    3    0  502  0.24719835355E+03  0.90834122765E+02 -0.15955585223E+03  0.30795033080E+03  0.41800000000E+01 0. -1.
        -11    1    1    2    0    0 -0.17738039711E+03 -0.41093984434E+02 -0.72959894384E+02  0.19615215274E+03  0.00000000000E+00 0.  1.
         11    1    1    2    0    0 -0.95998159092E+02 -0.82027474521E+02 -0.55766425772E+01  0.12639324376E+03  0.00000000000E+00 0. -1.
</event>
<event>
 7    1  0.2661133E-009  0.1020727E+03  0.7561462E-02  0.1275997E+00
          1   -1    0    0  501    0  0.00000000000E+00  0.00000000000E+00  0.30079591820E+03  0.30079591820E+03  0.00000000000E+00 0. -1.
         -1   -1    0    0    0  501 -0.00000000000E+00 -0.00000000000E+00 -0.75758939954E+02  0.75758939954E+02  0.00000000000E+00 0.  1.
         25    2    1    2    0    0 -0.68686149422E+01 -0.84507767636E+02  0.46601403963E+02  0.15814075297E+03  0.12509223092E+03 0.  0.
          5    1    3    3  502    0 -0.16055433075E+02 -0.11191964493E+02 -0.39696113166E+02  0.44455492359E+02  0.41800000000E+01 0.  1.
         -5    1    3    3    0  502  0.91868181329E+01 -0.73315803143E+02  0.86297517129E+02  0.11368526061E+03  0.41800000000E+01 0.  1.
        -11    1    1    2    0    0 -0.31829003283E+02  0.40839887447E+02  0.32214493187E+02  0.60981599093E+02  0.00000000000E+00 0.  1.
         11    1    1    2    0    0  0.38697618225E+02  0.43667880189E+02  0.14622108109E+03  0.15743250609E+03  0.00000000000E+00 0. -1.
</event>
<event>
 7    1  0.2661133E-009  0.1074186E+03  0.7561462E-02  0.1265426E+00
         -2   -1    0    0    0  501 -0.00000000000E+00  0.00000000000E+00  0.33268707616E+02  0.33268707616E+02  0.00000000000E+00 0.  1.
          2   -1    0    0  501    0  0.00000000000E+00 -0.00000000000E+00 -0.53584112353E+03  0.53584112353E+03  0.00000000000E+00 0. -1.
         25    2    1    2    0    0 -0.51403511649E+02  0.52572032653E+02 -0.31215477920E+03  0.34422955598E+03  0.12508893399E+03 0.  0.
          5    1    3    3  502    0  0.25420065476E+02  0.29547464488E+02 -0.26049405750E+02  0.47066722069E+02  0.41800000000E+01 0.  1.
         -5    1    3    3    0  502 -0.76823577125E+02  0.23024568165E+02 -0.28610537345E+03  0.29716283391E+03  0.41800000000E+01 0.  1.
        -11    1    1    2    0    0  0.61923333610E+02 -0.26767201436E+02 -0.56209008214E+02  0.87809082232E+02  0.00000000000E+00 0.  1.
         11    1    1    2    0    0 -0.10519821961E+02 -0.25804831217E+02 -0.13420862850E+03  0.13707119293E+03  0.00000000000E+00 0. -1.
</event>
<event>
 7    1  0.2661133E-009  0.1294044E+03  0.7561462E-02  0.1228342E+00
          1   -1    0    0  501    0  0.00000000000E+00  0.00000000000E+00  0.33882014784E+03  0.33882014784E+03  0.00000000000E+00 0. -1.
         -1   -1    0    0    0  501 -0.00000000000E+00 -0.00000000000E+00 -0.64518818389E+02  0.64518818389E+02  0.00000000000E+00 0.  1.
         25    2    1    2    0    0  0.93702150901E+02  0.22988812394E+02  0.15841028788E+03  0.22373028670E+03  0.12511132363E+03 0.  0.
          5    1    3    3  502    0 -0.28225297843E+02  0.78036533621E+01  0.57564009253E+02  0.64719796086E+02  0.41800000000E+01 0.  1.
         -5    1    3    3    0  502  0.12192744874E+03  0.15185159032E+02  0.10084627862E+03  0.15901049061E+03  0.41800000000E+01 0.  1.
        -11    1    1    2    0    0 -0.60621905789E+02 -0.36266329480E+02  0.14473412547E+02  0.72109235097E+02  0.00000000000E+00 0.  1.
         11    1    1    2    0    0 -0.33080245111E+02  0.13277517086E+02  0.10141762903E+03  0.10749944444E+03  0.00000000000E+00 0. -1.
</event>
<event>
 7    1  0.2661133E-009  0.1191431E+03  0.7561462E-02  0.1244517E+00
          2   -1    0    0  501    0  0.00000000000E+00  0.00000000000E+00  0.17446890459E+03  0.17446890459E+03  0.00000000000E+00 0. -1.
         -2   -1    0    0    0  501 -0.00000000000E+00 -0.00000000000E+00 -0.12539749126E+03  0.12539749126E+03  0.00000000000E+00 0.  1.
         25    2    1    2    0    0  0.69119716368E+02 -0.55460683608E+02 -0.19097606963E+02  0.15448229823E+03  0.12508652708E+03 0.  0.
          5    1    3    3  502    0 -0.66514047173E+00 -0.76293003174E+02  0.76342598434E+01  0.76790748586E+02  0.41800000000E+01 0. -1.
         -5    1    3    3    0  502  0.69784856839E+02  0.20832319566E+02 -0.26731866807E+02  0.77691549640E+02  0.41800000000E+01 0. -1.
        -11    1    1    2    0    0 -0.27156953347E+02  0.26483633483E+02 -0.20484284129E+02  0.43110194314E+02  0.00000000000E+00 0.  1.
         11    1    1    2    0    0 -0.41962763021E+02  0.28977050125E+02  0.88653304421E+02  0.10227390331E+03  0.00000000000E+00 0. -1.
</event>
<event>
 7    1  0.2661133E-009  0.1715342E+03  0.7561462E-02  0.1176257E+00
         -2   -1    0    0    0  501 -0.00000000000E+00  0.00000000000E+00  0.31378590828E+02  0.31378590828E+02  0.00000000000E+00 0. -1.
          2   -1    0    0  501    0  0.00000000000E+00 -0.00000000000E+00 -0.10776949565E+04  0.10776949565E+04  0.00000000000E+00 0.  1.
         25    2    1    2    0    0 -0.11948955640E+03 -0.69659690599E+02 -0.39085679014E+03  0.43307926799E+03  0.12513351023E+03 0.  0.
          5    1    3    3  502    0 -0.28794395679E+02  0.36337921595E+02 -0.85893617959E+02  0.97697225009E+02  0.41800000000E+01 0.  1.
         -5    1    3    3    0  502 -0.90695160720E+02 -0.10599761219E+03 -0.30496317218E+03  0.33538204298E+03  0.41800000000E+01 0.  1.
        -11    1    1    2    0    0  0.32229072602E+02  0.61344639311E+02 -0.39888908859E+03  0.40486341264E+03  0.00000000000E+00 0.  1.
         11    1    1    2    0    0  0.87260483797E+02  0.83150512879E+01 -0.25657048699E+03  0.27113086675E+03  0.00000000000E+00 0. -1.
</event>
<event>
 7    1  0.2661133E-009  0.1187008E+03  0.7561462E-02  0.1245256E+00
          2   -1    0    0  501    0  0.00000000000E+00  0.00000000000E+00  0.22753335733E+03  0.22753335733E+03  0.00000000000E+00 0. -1.
         -2   -1    0    0    0  501 -0.00000000000E+00 -0.00000000000E+00 -0.10617617559E+03  0.10617617559E+03  0.00000000000E+00 0.  1.
         25    2    1    2    0    0 -0.78236045569E+02 -0.16443213346E+02 -0.17042397701E+02  0.14942875865E+03  0.12508897833E+03 0.  0.
          5    1    3    3  502    0 -0.43366503275E+02  0.53901297467E+02 -0.14240678622E+02  0.70755019627E+02  0.41800000000E+01 0.  1.
         -5    1    3    3    0  502 -0.34869542295E+02 -0.70344510812E+02 -0.28017190796E+01  0.78673739018E+02  0.41800000000E+01 0.  1.
        -11    1    1    2    0    0  0.10422227619E+01  0.12110524220E+02 -0.10786140676E+02  0.16250903232E+02  0.00000000000E+00 0.  1.
         11    1    1    2    0    0  0.77193822808E+02  0.43326891252E+01  0.14918572012E+03  0.16802987105E+03  0.00000000000E+00 0. -1.
</event>
<event>
 7    1  0.2661133E-009  0.1188756E+03  0.7561462E-02  0.1244964E+00
          2   -1    0    0  501    0  0.00000000000E+00  0.00000000000E+00  0.20459965333E+04  0.20459965333E+04  0.00000000000E+00 0. -1.
         -2   -1    0    0    0  501 -0.00000000000E+00 -0.00000000000E+00 -0.17538917988E+02  0.17538917988E+02  0.00000000000E+00 0.  1.
         25    2    1    2    0    0  0.72789209646E+02  0.33374468991E+02  0.18346942843E+04  0.18406957297E+04  0.12508208685E+03 0.  0.
          5    1    3    3  502    0  0.49100545020E+02  0.80470058296E+02  0.12868992060E+04  0.12903539563E+04  0.41800000000E+01 0.  1.
         -5    1    3    3    0  502  0.23688664626E+02 -0.47095589305E+02  0.54779507832E+03  0.55034177344E+03  0.41800000000E+01 0.  1.
        -11    1    1    2    0    0 -0.26466798853E+02 -0.35330639892E+02  0.15865824150E+03  0.16468510300E+03  0.00000000000E+00 0. -1.
         11    1    1    2    0    0 -0.46322410793E+02  0.19561709015E+01  0.35105089498E+02  0.58154618517E+02  0.00000000000E+00 0.  1.
</event>
<event>
 7    1  0.2661133E-009  0.1028805E+03  0.7561462E-02  0.1274353E+00
         -1   -1    0    0    0  501 -0.00000000000E+00  0.00000000000E+00  0.27927711945E+02  0.27927711945E+02  0.00000000000E+00 0.  1.
          1   -1    0    0  501    0  0.00000000000E+00 -0.00000000000E+00 -0.49522204783E+03  0.49522204783E+03  0.00000000000E+00 0. -1.
         25    2    1    2    0    0  0.14473659799E+02 -0.41894619413E+02 -0.22079066436E+03  0.25762315907E+03  0.12512605109E+03 0.  0.
          5    1    3    3  502    0 -0.52350742250E+01  0.44001128419E+02 -0.72569948694E+02  0.85131516830E+02  0.41800000000E+01 0.  1.
         -5    1    3    3    0  502  0.19708734024E+02 -0.85895747832E+02 -0.14822071566E+03  0.17249164224E+03  0.41800000000E+01 0.  1.
        -11    1    1    2    0    0 -0.32616263059E+02  0.43990246546E+02 -0.23995513032E+03  0.24612481990E+03  0.00000000000E+00 0. -1.
         11    1    1    2    0    0  0.18142603259E+02 -0.20956271333E+01 -0.65485412116E+01  0.19401780797E+02  0.00000000000E+00 0.  1.
</event>
<event>
 7    1  0.2661133E-009  0.1292933E+03  0.7561462E-02  0.1228508E+00
          1   -1    0    0  501    0  0.00000000000E+00  0.00000000000E+00  0.10061371678E+02  0.10061371678E+02  0.00000000000E+00 0. -1.
         -1   -1    0    0    0  501 -0.00000000000E+00 -0.00000000000E+00 -0.20125809281E+04  0.20125809281E+04  0.00000000000E+00 0.  1.
         25    2    1    2    0    0 -0.59402419074E+01  0.75764975454E+02 -0.14536634058E+04  0.14610136723E+04  0.12509210725E+03 0.  0.
          5    1    3    3  502    0 -0.35500262023E+01  0.11080721032E+03 -0.11189347386E+04  0.11244213010E+04  0.41800000000E+01 0. -1.
         -5    1    3    3    0  502 -0.23902157051E+01 -0.35042234863E+02 -0.33472866727E+03  0.33659237135E+03  0.41800000000E+01 0. -1.
        -11    1    1    2    0    0  0.33213207876E+02 -0.16002005426E+01 -0.88517359093E+02  0.94556864796E+02  0.00000000000E+00 0. -1.
         11    1    1    2    0    0 -0.27272965969E+02 -0.74164774911E+02 -0.46033879146E+03  0.46707176261E+03  0.00000000000E+00 0.  1.
</event>
<event>
 7    1  0.2661133E-009  0.1311554E+03  0.7561462E-02  0.1225751E+00
          2   -1    0    0  501    0  0.00000000000E+00  0.00000000000E+00  0.61192212046E+02  0.61192212046E+02  0.00000000000E+00 0. -1.
         -2   -1    0    0    0  501 -0.00000000000E+00 -0.00000000000E+00 -0.37349683067E+03  0.37349683067E+03  0.00000000000E+00 0.  1.
         25    2    1    2    0    0  0.88328602030E+02  0.43385759162E+02 -0.11702933663E+03  0.19755242735E+03  0.12508728906E+03 0.  0.
          5    1    3    3  502    0 -0.29478933366E+02  0.26270346928E+02 -0.23843843516E+02  0.46315655169E+02  0.41800000000E+01 0.  1.
         -5    1    3    3    0  502  0.11780753540E+03  0.17115412234E+02 -0.93185493118E+02  0.15123677218E+03  0.41800000000E+01 0.  1.
        -11    1    1    2    0    0 -0.16233767821E+02 -0.23745803722E+02 -0.77282529475E+00  0.28774913918E+02  0.00000000000E+00 0. -1.
         11    1    1    2    0    0 -0.72094834209E+02 -0.19639955440E+02 -0.19450245669E+03  0.20836170144E+03  0.00000000000E+00 0.  1.
</event>
<event>
 7    1  0.2661133E-009  0.1540319E+03  0.7561462E-02  0.1195604E+00
          1   -1    0    0  501    0  0.00000000000E+00  0.00000000000E+00  0.18456930767E+03  0.18456930767E+03  0.00000000000E+00 0. -1.
         -1   -1    0    0    0  501 -0.00000000000E+00 -0.00000000000E+00 -0.29527837341E+03  0.29527837341E+03  0.00000000000E+00 0.  1.
         25    2    1    2    0    0  0.13283982243E+03 -0.27340635812E+01  0.10436573824E+03  0.21021736716E+03  0.12508093623E+03 0.  0.
          5    1    3    3  502    0  0.78333210115E+02 -0.30470773745E+02  0.12036197543E+03  0.14686400985E+03  0.41800000000E+01 0.  1.
         -5    1    3    3    0  502  0.54506612320E+02  0.27736710164E+02 -0.15996237192E+02  0.63353357303E+02  0.41800000000E+01 0.  1.
        -11    1    1    2    0    0 -0.24492846475E+02  0.40952856270E+02 -0.62095954553E+02  0.78313112166E+02  0.00000000000E+00 0.  1.
         11    1    1    2    0    0 -0.10834697596E+03 -0.38218792689E+02 -0.15297884943E+03  0.19131720175E+03  0.00000000000E+00 0. -1.
</event>
<event>
 7    1  0.2661133E-009  0.9895334E+02  0.7561462E-02  0.1282512E+00
          2   -1    0    0  501    0  0.00000000000E+00  0.00000000000E+00  0.51798637325E+03  0.51798637325E+03  0.00000000000E+00 0. -1.
         -2   -1    0    0    0  501 -0.00000000000E+00 -0.00000000000E+00 -0.35544224853E+02  0.35544224853E+02  0.00000000000E+00 0.  1.
         25    2    1    2    0    0 -0.61284547799E+02 -0.24865313769E+02  0.36788393051E+03  0.39415707006E+03  0.12508848835E+03 0.  0.
          5    1    3    3  502    0 -0.31362884573E+02 -0.49507666694E+02  0.60588672224E+02  0.84398454915E+02  0.41800000000E+01 0.  1.
         -5    1    3    3    0  502 -0.29921663226E+02  0.24642352925E+02  0.30729525829E+03  0.30975861514E+03  0.41800000000E+01 0.  1.
        -11    1    1    2    0    0  0.83760191935E+01  0.43325707954E+02  0.85581073603E+02  0.96288082473E+02  0.00000000000E+00 0. -1.
         11    1    1    2    0    0  0.52908528605E+02 -0.18460394185E+02  0.28977144282E+02  0.63085445575E+02  0.00000000000E+00 0.  1.
</event>
<event>
 7    1  0.3095558E-009  0.1026792E+03  0.7561462E-02  0.1274761E+00
         -1   -1    0    0    0  501 -0.00000000000E+00  0.00000000000E+00  0.19006647116E+02  0.19006647116E+02  0.00000000000E+00 0.  1.
          1   -1    0    0  501    0  0.00000000000E+00 -0.00000000000E+00 -0.87052604867E+03  0.87052604867E+03  0.00000000000E+00 0. -1.
         25    2    1    2    0    0 -0.17462082103E+02 -0.54930280550E+02 -0.60396423071E+03  0.61946845046E+03  0.12508440789E+03 0.  0.
          5    1    3    3  502    0 -0.69182627341E+02 -0.35094198232E+02 -0.27153914125E+03  0.28243373790E+03  0.41800000000E+01 0.  1.
         -5    1    3    3    0  502  0.51720545238E+02 -0.19836082318E+02 -0.33242508946E+03  0.33703471255E+03  0.41800000000E+01 0.  1.
        -11    1    1    2    0    0  0.29223069865E+02  0.52537064037E+02 -0.25057694935E+03  0.25768767618E+03  0.00000000000E+00 0. -1.
         11    1    1    2    0    0 -0.11760987762E+02  0.23932165136E+01  0.30217785126E+01  0.12376569145E+02  0.00000000000E+00 0.  1.
</event>
<event>
 7    1  0.2661133E-009  0.1222377E+03  0.7561462E-02  0.1239450E+00
          2   -1    0    0  501    0  0.00000000000E+00  0.00000000000E+00  0.14517016257E+04  0.14517016257E+04  0.00000000000E+00 0. -1.
         -2   -1    0    0    0  501 -0.00000000000E+00 -0.00000000000E+00 -0.14361105901E+02  0.14361105901E+02  0.00000000000E+00 0.  1.
         25    2    1    2    0    0 -0.83810273530E+02 -0.17967067798E+02  0.10319800365E+04  0.10430615447E+04  0.12509041908E+03 0.  0.
          5    1    3    3  502    0 -0.58866535897E+02 -0.54556797029E+02  0.32894156425E+03  0.33861739211E+03  0.41800000000E+01 0.  1.
         -5    1    3    3    0  502 -0.24943737634E+02  0.36589729231E+02  0.70303847223E+03  0.70444415262E+03  0.41800000000E+01 0.  1.
        -11    1    1    2    0    0  0.95639248805E+02 -0.28517416284E+01  0.34619614218E+03  0.35917512052E+03  0.00000000000E+00 0.  1.
         11    1    1    2    0    0 -0.11828975274E+02  0.20818809427E+02  0.59164341150E+02  0.63826066350E+02  0.00000000000E+00 0. -1.
</event>
<event>
 7    1  0.2661133E-009  0.1342257E+03  0.7561462E-02  0.1221317E+00
          2   -1    0    0  501    0  0.00000000000E+00  0.00000000000E+00  0.65265081896E+03  0.65265081896E+03  0.00000000000E+00 0. -1.
         -2   -1    0    0    0  501 -0.00000000000E+00 -0.00000000000E+00 -0.31741921053E+02  0.31741921053E+02  0.00000000000E+00 0.  1.
         25    2    1    2    0    0  0.28930596726E+02  0.80340881320E+02  0.41157121927E+03  0.43855273204E+03  0.12508394627E+03 0.  0.
          5    1    3    3  502    0  0.69954361494E+02  0.22955468942E+02  0.27585497697E+03  0.28554160286E+03  0.41800000000E+01 0.  1.
         -5    1    3    3    0  502 -0.41023764769E+02  0.57385412378E+02  0.13571624230E+03  0.15301112918E+03  0.41800000000E+01 0.  1.
        -11    1    1    2    0    0  0.31421265896E+02 -0.14123467852E+02  0.91785048182E+02  0.98037050978E+02  0.00000000000E+00 0. -1.
         11    1    1    2    0    0 -0.60351862622E+02 -0.66217413468E+02  0.11755263046E+03  0.14780295700E+03  0.00000000000E+00 0.  1.
</event>
<event>
 7    1  0.2661133E-009  0.1474996E+03  0.7561462E-02  0.1203580E+00
          1   -1    0    0  501    0  0.00000000000E+00  0.00000000000E+00  0.42540675024E+02  0.42540675024E+02  0.00000000000E+00 0. -1.
         -1   -1    0    0    0  501 -0.00000000000E+00 -0.00000000000E+00 -0.66219008676E+03  0.66219008676E+03  0.00000000000E+00 0.  1.
         25    2    1    2    0    0 -0.11283336879E+02 -0.11604216946E+03 -0.22178102654E+03  0.28004929127E+03  0.12509069919E+03 0.  0.
          5    1    3    3  502    0 -0.51825035091E+02 -0.75961239629E+02 -0.19758726223E+03  0.21797739053E+03  0.41800000000E+01 0.  1.
         -5    1    3    3    0  502  0.40541698211E+02 -0.40080929828E+02 -0.24193764309E+02  0.62071900738E+02  0.41800000000E+01 0.  1.
        -11    1    1    2    0    0 -0.15074783073E+02 -0.92926087851E+01 -0.26715320177E+02  0.32051676944E+02  0.00000000000E+00 0. -1.
         11    1    1    2    0    0  0.26358119952E+02  0.12533477824E+03 -0.37115306502E+03  0.39262979357E+03  0.00000000000E+00 0.  1.
</event>
<event>
 7    1  0.2661133E-009  0.9492752E+02  0.7561462E-02  0.1291339E+00
         -2   -1    0    0    0  501 -0.00000000000E+00  0.00000000000E+00  0.68313953547E+02  0.68313953547E+02  0.00000000000E+00 0.  1.
          2   -1    0    0  501    0  0.00000000000E+00 -0.00000000000E+00 -0.21157569432E+03  0.21157569432E+03  0.00000000000E+00 0. -1.
         25    2    1    2    0    0 -0.13631676994E+02 -0.34502122750E+02 -0.35685979420E+02  0.13526783371E+03  0.12509068158E+03 0.  0.
          5    1    3    3  502    0 -0.66131019090E+01 -0.74457412728E+02 -0.52200772068E+02  0.91269011343E+02  0.41800000000E+01 0.  1.
         -5    1    3    3    0  502 -0.70185750854E+01  0.39955289978E+02  0.16514792648E+02  0.43998822367E+02  0.41800000000E+01 0.  1.
        -11    1    1    2    0    0 -0.62825822712E+01 -0.17461347664E+02  0.48471857712E+01  0.19179799586E+02  0.00000000000E+00 0.  1.
         11    1    1    2    0    0  0.19914259266E+02  0.51963470414E+02 -0.11242294713E+03  0.12544201457E+03  0.00000000000E+00 0. -1.
</event>
<event>
 7    1  0.2661133E-009  0.1589047E+03  0.7561462E-02  0.1189939E+00
          1   -1    0    0  501    0  0.00000000000E+00  0.00000000000E+00  0.12687444624E+04  0.12687444624E+04  0.00000000000E+00 0. -1.
         -1   -1    0    0    0  501 -0.00000000000E+00 -0.00000000000E+00 -0.20928659464E+02  0.20928659464E+02  0.00000000000E+00 0.  1.
         25    2    1    2    0    0  0.37797479840E+01  0.12075346233E+03  0.62465490296E+03  0.64841192228E+03  0.12509431644E+03 0.  0.
          5    1    3    3  502    0 -0.35498540220E+02  0.12850849448E+03  0.49451823471E+03  0.51219169885E+03  0.41800000000E+01 0.  1.
         -5    1    3    3    0  502  0.39278288204E+02 -0.77550321552E+01  0.13013666825E+03  0.13622022343E+03  0.41800000000E+01 0.  1.
        -11    1    1    2    0    0 -0.40189745336E+02 -0.79942622870E+02  0.47441714501E+03  0.48278117824E+03  0.00000000000E+00 0. -1.
         11    1    1    2    0    0  0.36409997352E+02 -0.40810839460E+02  0.14874375499E+03  0.15848002137E+03  0.00000000000E+00 0.  1.
</event>
<event>
 7    1  0.2661133E-009  0.1030550E+03  0.7561462E-02  0.1274000E+00
          3   -1    0    0  501    0  0.00000000000E+00  0.00000000000E+00  0.15544722423E+02  0.15544722423E+02  0.00000000000E+00 0. -1.
         -3   -1    0    0    0  501 -0.00000000000E+00 -0.00000000000E+00 -0.82660289055E+03  0.82660289055E+03  0.00000000000E+00 0.  1.
         25    2    1    2    0    0 -0.30589176721E+02  0.66186990667E+00 -0.51603707651E+03  0.53186248026E+03  0.12508915929E+03 0.  0.
          5    1    3    3  502    0  0.38412556408E+02  0.26955681825E+02 -0.29605469659E+03  0.29977990100E+03  0.41800000000E+01 0. -1.
         -5    1    3    3    0  502 -0.69001733129E+02 -0.26293811918E+02 -0.21998237992E+03  0.23208257926E+03  0.41800000000E+01 0. -1.
        -11    1    1    2    0    0  0.14359638305E+02 -0.39991101557E+02 -0.75108853284E+02  0.86295001348E+02  0.00000000000E+00 0. -1.
         11    1    1    2    0    0  0.16229538416E+02  0.39329231650E+02 -0.21991223833E+03  0.22399013136E+03  0.00000000000E+00 0.  1.
</event>
<event>
 7    1  0.2661133E-009  0.9981773E+02  0.7561462E-02  0.1280680E+00
          2   -1    0    0  501    0  0.00000000000E+00  0.00000000000E+00  0.32687517157E+03  0.32687517157E+03  0.00000000000E+00 0. -1.
         -2   -1    0    0    0  501 -0.00000000000E+00 -0.00000000000E+00 -0.56790098849E+02  0.56790098849E+02  0.00000000000E+00 0.  1.
         25    2    1    2    0    0 -0.59155724027E+01 -0.12908026895E+02  0.26194275202E+03  0.29061364824E+03  0.12506268848E+03 0.  0.
          5    1    3    3  502    0 -0.23366719631E+02 -0.61266267926E+02  0.19706808179E+03  0.20773266578E+03  0.41800000000E+01 0.  1.
         -5    1    3    3    0  502  0.17451147228E+02  0.48358241032E+02  0.64874670228E+02  0.82880982454E+02  0.41800000000E+01 0.  1.
        -11    1    1    2    0    0  0.17871633863E+02 -0.31578971319E+02 -0.17548891781E+02  0.40306207081E+02  0.00000000000E+00 0.  1.
         11    1    1    2    0    0 -0.11956061460E+02  0.44486998214E+02  0.25691212484E+02  0.52745415105E+02  0.00000000000E+00 0. -1.
</event>
<event>
 7    1  0.2661133E-009  0.1178952E+03  0.7561462E-02  0.1246610E+00
          1   -1    0    0  501    0  0.00000000000E+00  0.00000000000E+00  0.31242547785E+02  0.31242547785E+02  0.00000000000E+00 0. -1.
         -1   -1    0    0    0  501 -0.00000000000E+00 -0.00000000000E+00 -0.47462222295E+03  0.47462222295E+03  0.00000000000E+00 0.  1.
         25    2    1    2    0    0 -0.45757831571E+02 -0.20745032294E+02 -0.24106170433E+03  0.27619319485E+03  0.12509116706E+03 0.  0.
          5    1    3    3  502    0 -0.88128640563E+02 -0.21278684427E+02 -0.14416927386E+03  0.17035754056E+03  0.41800000000E+01 0. -1.
         -5    1    3    3    0  502  0.42370808992E+02  0.53365213280E+00 -0.96892430463E+02  0.10583565430E+03  0.41800000000E+01 0. -1.
        -11    1    1    2    0    0  0.64905095760E+02  0.39229398889E+02 -0.17855234356E+03  0.19399112501E+03  0.00000000000E+00 0.  1.
         11    1    1    2    0    0 -0.19147264189E+02 -0.18484366595E+02 -0.23765627278E+02  0.35680450869E+02  0.00000000000E+00 0. -1.
</event>
<event>
 7    1  0.2661133E-009  0.1115411E+03  0.7561462E-02  0.1257742E+00
         -1   -1    0    0    0  501 -0.00000000000E+00  0.00000000000E+00  0.36136508882E+02  0.36136508882E+02  0.00000000000E+00 0.  1.
          1   -1    0    0  501    0  0.00000000000E+00 -0.00000000000E+00 -0.55101153038E+03  0.55101153038E+03  0.00000000000E+00 0. -1.
         25    2    1    2    0    0  0.32051931740E+02  0.75935946933E+02 -0.35309513581E+03  0.38355949527E+03  0.12509243428E+03 0.  0.
          5    1    3    3  502    0  0.45301328694E+02  0.66527609982E+01 -0.27259521861E+03  0.27644546518E+03  0.41800000000E+01 0.  1.
         -5    1    3    3    0  502 -0.13249396955E+02  0.69283185935E+02 -0.80499917206E+02  0.10711403010E+03  0.41800000000E+01 0.  1.
        -11    1    1    2    0    0  0.21211119399E+02 -0.19001854058E+02 -0.55898650473E+01  0.29021175632E+02  0.00000000000E+00 0.  1.
         11    1    1    2    0    0 -0.53263051139E+02 -0.56934092875E+02 -0.15619002064E+03  0.17456736836E+03  0.00000000000E+00 0. -1.
</event>
<event>
 7    1  0.2661133E-009  0.1138481E+03  0.7561462E-02  0.1253605E+00
          2   -1    0    0  501    0  0.00000000000E+00  0.00000000000E+00  0.10774950674E+04  0.10774950674E+04  0.00000000000E+00 0. -1.
         -2   -1    0    0    0  501 -0.00000000000E+00 -0.00000000000E+00 -0.12817984191E+02  0.12817984191E+02  0.00000000000E+00 0.  1.
         25    2    1    2    0    0 -0.42835672569E+02 -0.17093001984E+02  0.59902601628E+03  0.61368397785E+03  0.12509512754E+03 0.  0.
          5    1    3    3  502    0  0.22359918836E+02  0.35879451144E+02  0.30221601372E+03  0.30518730696E+03  0.41800000000E+01 0. -1.
         -5    1    3    3    0  502 -0.65195591405E+02 -0.52972453128E+02  0.29681000256E+03  0.30849667089E+03  0.41800000000E+01 0. -1.
        -11    1    1    2    0    0 -0.58382591410E+01 -0.31672589696E+02  0.17344692889E+03  0.17641166444E+03  0.00000000000E+00 0.  1.
         11    1    1    2    0    0  0.48673931710E+02  0.48765591680E+02  0.29220413803E+03  0.30021740929E+03  0.00000000000E+00 0. -1.
</event>
<event>
 7    1  0.3163483E-009  0.1152582E+03  0.7561462E-02  0.1251131E+00
         -1   -1    0    0    0  501 -0.00000000000E+00  0.00000000000E+00  0.24450087825E+02  0.24450087825E+02  0.00000000000E+00 0.  1.
          1   -1    0    0  501    0  0.00000000000E+00 -0.00000000000E+00 -0.80850050366E+03  0.80850050366E+03  0.00000000000E+00 0. -1.
         25    2    1    2    0    0 -0.53395269890E+02  0.68471277710E+02 -0.48202875213E+03  0.50550791968E+03  0.12508864161E+03 0.  0.
          5    1    3    3  502    0  0.74416340762E+01  0.50338217319E+02 -0.60319091664E+02  0.79026446584E+02  0.41800000000E+01 0. -1.
         -5    1    3    3    0  502 -0.60836903966E+02  0.18133060391E+02 -0.42170966046E+03  0.42648147309E+03  0.41800000000E+01 0. -1.
        -11    1    1    2    0    0 -0.15971171566E+02 -0.35726121222E+02 -0.47129871304E+02  0.61258948961E+02  0.00000000000E+00 0.  1.
         11    1    1    2    0    0  0.69366441455E+02 -0.32745156488E+02 -0.25489179240E+03  0.26618372284E+03  0.00000000000E+00 0. -1.
</event>
<event>
 7    1  0.2661133E-009  0.1172510E+03  0.7561462E-02  0.1247702E+00
          2   -1    0    0  501    0  0.00000000000E+00  0.00000000000E+00  0.47299110182E+03  0.47299110182E+03  0.00000000000E+00 0. -1.
         -2   -1    0    0    0  501 -0.00000000000E+00 -0.00000000000E+00 -0.36625216755E+02  0.36625216755E+02  0.00000000000E+00 0.  1.
         25    2    1    2    0    0 -0.41088641370E+02  0.60174847048E+02  0.22470135723E+03  0.26729641531E+03  0.12508950807E+03 0.  0.
          5    1    3    3  502    0 -0.17189336189E+02 -0.34009896435E+02  0.26761397437E+02  0.46752445144E+02  0.41800000000E+01 0.  1.
         -5    1    3    3    0  502 -0.23899305181E+02  0.94184743483E+02  0.19793995979E+03  0.22054397016E+03  0.41800000000E+01 0.  1.
        -11    1    1    2    0    0  0.44121983030E+02 -0.58624184469E+01  0.32589513420E+02  0.55165149520E+02  0.00000000000E+00 0.  1.
         11    1    1    2    0    0 -0.30333416595E+01 -0.54312428601E+02  0.17907501441E+03  0.18715475375E+03  0.00000000000E+00 0. -1.
</event>
<event>
 7    1  0.2661133E-009  0.9090027E+02  0.7561462E-02  0.1300686E+00
         -1   -1    0    0    0  501 -0.00000000000E+00  0.00000000000E+00  0.22932399409E+02  0.22932399409E+02  0.00000000000E+00 0.  1.
          1   -1    0    0  501    0  0.00000000000E+00 -0.00000000000E+00 -0.65306091546E+03  0.65306091546E+03  0.00000000000E+00 0. -1.
         25    2    1    2    0    0  0.50009190750E+02  0.25405166658E+02 -0.32119916593E+03  0.34923254424E+03  0.12509246225E+03 0.  0.
          5    1    3    3  502    0  0.17800605239E+02 -0.17761239030E+02 -0.28034918608E+03  0.28150570455E+03  0.41800000000E+01 0. -1.
         -5    1    3    3    0  502  0.32208585511E+02  0.43166405688E+02 -0.40849979843E+02  0.67726839686E+02  0.41800000000E+01 0. -1.
        -11    1    1    2    0    0 -0.32512074396E+02 -0.57316572247E+02 -0.15204143265E+03  0.16570703569E+03  0.00000000000E+00 0.  1.
         11    1    1    2    0    0 -0.17497116354E+02  0.31911405589E+02 -0.15688791748E+03  0.16105373494E+03  0.00000000000E+00 0. -1.
</event>
<event>
 7    1  0.2661133E-009  0.2083207E+03  0.7561462E-02  0.1142903E+00
          1   -1    0    0  501    0  0.00000000000E+00  0.00000000000E+00  0.44731236574E+03  0.44731236574E+03  0.00000000000E+00 0. -1.
         -1   -1    0    0    0  501 -0.00000000000E+00 -0.00000000000E+00 -0.11134856945E+03  0.11134856945E+03  0.00000000000E+00 0.  1.
         25    2    1    2    0    0 -0.19120897428E+03  0.31718208284E+02  0.19386914250E+03  0.30132926368E+03  0.12508862518E+03 0.  0.
          5    1    3    3  502    0 -0.90352849397E+02 -0.14140534409E+02  0.17803824864E+02  0.93263286921E+02  0.41800000000E+01 0. -1.
         -5    1    3    3    0  502 -0.10085612488E+03  0.45858742692E+02  0.17606531764E+03  0.20806597676E+03  0.41800000000E+01 0. -1.
        -11    1    1    2    0    0  0.56408392266E+02  0.32289958725E+02  0.49666954690E+02  0.81800700123E+02  0.00000000000E+00 0. -1.
         11    1    1    2    0    0  0.13480058202E+03 -0.64008167009E+02  0.92427699098E+02  0.17553097139E+03  0.00000000000E+00 0.  1.
</event>
<event>
 7    1  0.2661133E-009  0.1101022E+03  0.7561462E-02  0.1260381E+00
         -2   -1    0    0    0  501 -0.00000000000E+00  0.00000000000E+00  0.79614268377E+02  0.79614268377E+02  0.00000000000E+00 0.  1.
          2   -1    0    0  501    0  0.00000000000E+00 -0.00000000000E+00 -0.17846058714E+03  0.17846058714E+03  0.00000000000E+00 0. -1.
         25    2    1    2    0    0 -0.36156375018E+02  0.30249020692E+02 -0.39703778051E+02  0.13944956253E+03  0.12508998278E+03 0.  0.
          5    1    3    3  502    0 -0.69932763488E+02  0.56179295426E+02 -0.35096988891E+02  0.96415640188E+02  0.41800000000E+01 0. -1.
         -5    1    3    3    0  502  0.33776388470E+02 -0.25930274734E+02 -0.46067891600E+01  0.43033922343E+02  0.41800000000E+01 0. -1.
        -11    1    1    2    0    0  0.33010598921E+02  0.19119872240E+02 -0.57656172495E+02  0.69133952457E+02  0.00000000000E+00 0. -1.
         11    1    1    2    0    0  0.31457760972E+01 -0.49368892932E+02 -0.14863682139E+01  0.49491340526E+02  0.00000000000E+00 0.  1.
</event>
<event>
 7    1  0.2661133E-009  0.1460305E+03  0.7561462E-02  0.1205437E+00
          2   -1    0    0  501    0  0.00000000000E+00  0.00000000000E+00  0.48186687590E+03  0.48186687590E+03  0.00000000000E+00 0.  1.
         -2   -1    0    0    0  501 -0.00000000000E+00 -0.00000000000E+00 -0.55068655222E+02  0.55068655222E+02  0.00000000000E+00 0. -1.
         25    2    1    2    0    0  0.66228636581E+01 -0.96907244240E+02  0.27053009762E+03  0.31347952565E+03  0.12509197807E+03 0.  0.
          5    1    3    3  502    0  0.60330472895E+02 -0.82072796135E+02  0.18700360060E+03  0.21298715657E+03  0.41800000000E+01 0.  1.
         -5    1    3    3    0  502 -0.53707609237E+02 -0.14834448105E+02  0.83526497021E+02  0.10049236909E+03  0.41800000000E+01 0.  1.
        -11    1    1    2    0    0 -0.34257080063E+02  0.83072846741E+00  0.10631071441E+03  0.11169693658E+03  0.00000000000E+00 0.  1.
         11    1    1    2    0    0  0.27634216405E+02  0.96076515772E+02  0.49957408655E+02  0.11175906889E+03  0.00000000000E+00 0. -1.
</event>
<event>
 7    1  0.2661133E-009  0.1174683E+03  0.7561462E-02  0.1247333E+00
         -1   -1    0    0    0  501 -0.00000000000E+00  0.00000000000E+00  0.26059950696E+02  0.26059950696E+02  0.00000000000E+00 0.  1.
          1   -1    0    0  501    0  0.00000000000E+00 -0.00000000000E+00 -0.13005933797E+04  0.13005933797E+04  0.00000000000E+00 0. -1.
         25    2    1    2    0    0  0.16244910395E+02  0.92824234354E+02 -0.10866462426E+04  0.10978740022E+04  0.12508809933E+03 0.  0.
          5    1    3    3  502    0  0.54090043717E+02  0.22931253576E+02 -0.22576692409E+03  0.23332327709E+03  0.41800000000E+01 0.  1.
         -5    1    3    3    0  502 -0.37845133322E+02  0.69892980778E+02 -0.86087931851E+03  0.86455072513E+03  0.41800000000E+01 0.  1.
        -11    1    1    2    0    0 -0.18806978254E+02 -0.48051260964E+02 -0.20558678674E+02  0.55545345261E+02  0.00000000000E+00 0.  1.
         11    1    1    2    0    0  0.25620678593E+01 -0.44772973390E+02 -0.16732850772E+03  0.17323398290E+03  0.00000000000E+00 0. -1.
</event>
<event>
 7    1  0.2661133E-009  0.1636998E+03  0.7561462E-02  0.1184582E+00
         -3   -1    0    0    0  501 -0.00000000000E+00  0.00000000000E+00  0.62718802982E+02  0.62718802982E+02  0.00000000000E+00 0.  1.
          3   -1    0    0  501    0  0.00000000000E+00 -0.00000000000E+00 -0.51301231942E+03  0.51301231942E+03  0.00000000000E+00 0. -1.
         25    2    1    2    0    0  0.92459133391E+02 -0.10823168231E+02 -0.11024025380E+03  0.19096121704E+03  0.12508972995E+03 0.  0.
          5    1    3    3  502    0 -0.23287483493E+02 -0.26139716221E+02 -0.44940781788E+02  0.57120380944E+02  0.41800000000E+01 0. -1.
         -5    1    3    3    0  502  0.11574661688E+03  0.15316547990E+02 -0.65299472015E+02  0.13384083610E+03  0.41800000000E+01 0. -1.
        -11    1    1    2    0    0 -0.10940320001E+03  0.58960645795E+02 -0.19740993234E+03  0.23327258586E+03  0.00000000000E+00 0. -1.
         11    1    1    2    0    0  0.16944066614E+02 -0.48137477564E+02 -0.14264333029E+03  0.15149731950E+03  0.00000000000E+00 0.  1.
</event>
<event>
 7    1  0.2661133E-009  0.1070047E+03  0.7561462E-02  0.1266219E+00
         -2   -1    0    0    0  501 -0.00000000000E+00  0.00000000000E+00  0.10378658136E+03  0.10378658136E+03  0.00000000000E+00 0.  1.
          2   -1    0    0  501    0  0.00000000000E+00 -0.00000000000E+00 -0.17778727079E+03  0.17778727079E+03  0.00000000000E+00 0. -1.
         25    2    1    2    0    0  0.46673907729E+02 -0.49238315335E+02 -0.85087672633E+02  0.16579863116E+03  0.12508560549E+03 0.  0.
          5    1    3    3  502    0  0.75121092954E+02  0.10295966298E+02 -0.50352055749E+02  0.91115242669E+02  0.41800000000E+01 0.  1.
         -5    1    3    3    0  502 -0.28447185224E+02 -0.59534281633E+02 -0.34735616884E+02  0.74683388494E+02  0.41800000000E+01 0.  1.
        -11    1    1    2    0    0 -0.24685796852E+02  0.93259452792E+01 -0.39618568861E+02  0.47602445527E+02  0.00000000000E+00 0. -1.
         11    1    1    2    0    0 -0.21988110877E+02  0.39912370056E+02  0.50705552067E+02  0.68172775459E+02  0.00000000000E+00 0.  1.
</event>
<event>
 7    1  0.2661133E-009  0.1316181E+03  0.7561462E-02  0.1225074E+00
          2   -1    0    0  501    0  0.00000000000E+00  0.00000000000E+00  0.30214914719E+03  0.30214914719E+03  0.00000000000E+00 0. -1.
         -2   -1    0    0    0  501 -0.00000000000E+00 -0.00000000000E+00 -0.88366080339E+02  0.88366080339E+02  0.00000000000E+00 0.  1.
         25    2    1    2    0    0  0.65950718459E+02  0.97507483579E+02  0.11892915795E+03  0.20892342709E+03  0.12509055582E+03 0.  0.
          5    1    3    3  502    0  0.81765818975E+02  0.64988938071E+02  0.13363716890E+03  0.16966312662E+03  0.41800000000E+01 0.  1.
         -5    1    3    3    0  502 -0.15815100517E+02  0.32518545508E+02 -0.14708010947E+02  0.39260300462E+02  0.41800000000E+01 0.  1.
        -11    1    1    2    0    0 -0.41258027894E+02 -0.31741022009E+02 -0.12276453791E+02  0.53482975436E+02  0.00000000000E+00 0.  1.
         11    1    1    2    0    0 -0.24692690565E+02 -0.65766461570E+02  0.10713036269E+03  0.12810882501E+03  0.00000000000E+00 0. -1.
</event>
<event>
 7    1  0.2661133E-009  0.1019025E+03  0.7561462E-02  0.1276345E+00
          1   -1    0    0  501    0  0.00000000000E+00  0.00000000000E+00  0.48326877561E+02  0.48326877561E+02  0.00000000000E+00 0. -1.
         -1   -1    0    0    0  501 -0.00000000000E+00 -0.00000000000E+00 -0.43843371617E+03  0.43843371617E+03  0.00000000000E+00 0.  1.
         25    2    1    2    0    0  0.22038274309E+02 -0.16252355345E+02 -0.59899354838E+02  0.14137111024E+03  0.12509210012E+03 0.  0.
          5    1    3    3  502    0  0.14476545288E+02 -0.60831809727E+02  0.42073608451E+01  0.62811254751E+02  0.41800000000E+01 0.  1.
         -5    1    3    3    0  502  0.75617290206E+01  0.44579454382E+02 -0.64106715683E+02  0.78559855489E+02  0.41800000000E+01 0.  1.
        -11    1    1    2    0    0  0.36088292484E+02  0.38717409499E+01 -0.74559662894E+02  0.82924655943E+02  0.00000000000E+00 0. -1.
         11    1    1    2    0    0 -0.58126566793E+02  0.12380614395E+02 -0.25564782087E+03  0.26246482754E+03  0.00000000000E+00 0.  1.
</event>
<event>
 7    1  0.2661133E-009  0.1191571E+03  0.7561462E-02  0.1244494E+00
         -1   -1    0    0    0  501 -0.00000000000E+00  0.00000000000E+00  0.12836369078E+02  0.12836369078E+02  0.00000000000E+00 0.  1.
          1   -1    0    0  501    0  0.00000000000E+00 -0.00000000000E+00 -0.14012317880E+04  0.14012317880E+04  0.00000000000E+00 0. -1.
         25    2    1    2    0    0 -0.57648729259E+02  0.33102306907E+02 -0.82134233400E+03  0.83346867247E+03  0.12509060586E+03 0.  0.
          5    1    3    3  502    0 -0.79395082621E+02  0.29954592539E+01 -0.28708576552E+03  0.29790646365E+03  0.41800000000E+01 0. -1.
         -5    1    3    3    0  502  0.21746353362E+02  0.30106847653E+02 -0.53425656848E+03  0.53556220883E+03  0.41800000000E+01 0. -1.
        -11    1    1    2    0    0 -0.98117773281E+01 -0.50716491205E+02 -0.30924995456E+03  0.31353463581E+03  0.00000000000E+00 0.  1.
         11    1    1    2    0    0  0.67460506587E+02  0.17614184299E+02 -0.25780313040E+03  0.26706484883E+03  0.00000000000E+00 0. -1.
</event>
<event>
 7    1  0.2661133E-009  0.1722932E+03  0.7561462E-02  0.1175477E+00
          1   -1    0    0  501    0  0.00000000000E+00  0.00000000000E+00  0.24486326090E+02  0.24486326090E+02  0.00000000000E+00 0. -1.
         -1   -1    0    0    0  501 -0.00000000000E+00 -0.00000000000E+00 -0.17718569452E+04  0.17718569452E+04  0.00000000000E+00 0.  1.
         25    2    1    2    0    0 -0.11959699710E+03 -0.10629070606E+03 -0.12219706530E+04  0.12387337917E+04  0.12509186220E+03 0.  0.
          5    1    3    3  502    0 -0.12926118016E+03 -0.10064513549E+03 -0.80090830398E+03  0.81750197540E+03  0.41800000000E+01 0.  1.
         -5    1    3    3    0  502  0.96641830587E+01 -0.56455705667E+01 -0.42106234898E+03  0.42123181626E+03  0.41800000000E+01 0.  1.
        -11    1    1    2    0    0  0.54180940094E+02  0.14572505148E+02 -0.30466500071E+03  0.30978814508E+03  0.00000000000E+00 0.  1.
         11    1    1    2    0    0  0.65416057010E+02  0.91718200908E+02 -0.22073496549E+03  0.24782133460E+03  0.00000000000E+00 0. -1.
</event>
<event>
 7    1  0.2661133E-009  0.1432366E+03  0.7561462E-02  0.1209039E+00
         -2   -1    0    0    0  501 -0.00000000000E+00  0.00000000000E+00  0.16076442542E+03  0.16076442542E+03  0.00000000000E+00 0.  1.
          2   -1    0    0  501    0  0.00000000000E+00 -0.00000000000E+00 -0.14284933504E+03  0.14284933504E+03  0.00000000000E+00 0. -1.
         25    2    1    2    0    0 -0.62491213466E+02 -0.77037377406E+02 -0.32482289529E+02  0.16291961462E+03  0.12509113645E+03 0.  0.
          5    1    3    3  502    0  0.27482197810E+02 -0.58813041305E+02  0.11528877715E+01  0.65061867282E+02  0.41800000000E+01 0.  1.
         -5    1    3    3    0  502 -0.89973411276E+02 -0.18224336101E+02 -0.33635177300E+02  0.97857747343E+02  0.41800000000E+01 0.  1.
        -11    1    1    2    0    0  0.43620086825E+02  0.94331773798E+02  0.49414295479E+02  0.11507809574E+03  0.00000000000E+00 0.  1.
         11    1    1    2    0    0  0.18871126641E+02 -0.17294396392E+02  0.98308442320E+00  0.25616050091E+02  0.00000000000E+00 0. -1.
</event>
<event>
 7    1  0.2661133E-009  0.1200033E+03  0.7561462E-02  0.1243092E+00
          2   -1    0    0  501    0  0.00000000000E+00  0.00000000000E+00  0.28304834917E+03  0.28304834917E+03  0.00000000000E+00 0. -1.
         -2   -1    0    0    0  501 -0.00000000000E+00 -0.00000000000E+00 -0.66597276522E+02  0.66597276522E+02  0.00000000000E+00 0.  1.
         25    2    1    2    0    0 -0.56953534172E+02  0.60834324119E+02  0.13746147744E+03  0.20368497950E+03  0.12508954012E+03 0.  0.
          5    1    3    3  502    0  0.23068275454E+02  0.13388087532E+02 -0.10408858863E+02  0.28934459784E+02  0.41800000000E+01 0. -1.
         -5    1    3    3    0  502 -0.80021809626E+02  0.47446236587E+02  0.14787033630E+03  0.17475051971E+03  0.41800000000E+01 0. -1.
        -11    1    1    2    0    0  0.37918210302E+02  0.15684493171E+02  0.42497596550E+02  0.59074865308E+02  0.00000000000E+00 0.  1.
         11    1    1    2    0    0  0.19035323870E+02 -0.76518817291E+02  0.36491998659E+02  0.86885780888E+02  0.00000000000E+00 0. -1.
</event>
<event>
 7    1  0.2661133E-009  0.1373207E+03  0.7561462E-02  0.1216980E+00
          2   -1    0    0  501    0  0.00000000000E+00  0.00000000000E+00  0.48576219569E+03  0.48576219569E+03  0.00000000000E+00 0. -1.
         -2   -1    0    0    0  501 -0.00000000000E+00 -0.00000000000E+00 -0.42190956639E+02  0.42190956639E+02  0.00000000000E+00 0.  1.
         25    2    1    2    0    0  0.42059333494E+02 -0.81581885615E+02  0.20729804908E+03  0.25892855534E+03  0.12508766536E+03 0.  0.
          5    1    3    3  502    0 -0.21946042122E+02  0.22256783518E+02  0.28900116999E+02  0.42774786265E+02  0.41800000000E+01 0.  1.
         -5    1    3    3    0  502  0.64005375616E+02 -0.10383866913E+03  0.17839793208E+03  0.21615376908E+03  0.41800000000E+01 0.  1.
        -11    1    1    2    0    0  0.14096055390E+02  0.58779409691E+02  0.72478300860E+02  0.94375960269E+02  0.00000000000E+00 0.  1.
         11    1    1    2    0    0 -0.56155388884E+02  0.22802475923E+02  0.16379488911E+03  0.17464863671E+03  0.00000000000E+00 0. -1.
</event>
<event>
 7    1  0.2661133E-009  0.2466381E+03  0.7561462E-02  0.1115448E+00
          1   -1    0    0  501    0  0.00000000000E+00  0.00000000000E+00  0.23888029147E+03  0.23888029147E+03  0.00000000000E+00 0. -1.
         -1   -1    0    0    0  501 -0.00000000000E+00 -0.00000000000E+00 -0.28865733390E+03  0.28865733390E+03  0.00000000000E+00 0.  1.
         25    2    1    2    0    0  0.22107801794E+03 -0.59373570246E+02 -0.88924366282E+02  0.27560854927E+03  0.12510722860E+03 0.  0.
          5    1    3    3  502    0  0.14421391509E+03  0.24310404421E+02 -0.38930065799E+02  0.15139904720E+03  0.41800000000E+01 0.  1.
         -5    1    3    3    0  502  0.76864102849E+02 -0.83683974667E+02 -0.49994300483E+02  0.12420950207E+03  0.41800000000E+01 0.  1.
        -11    1    1    2    0    0 -0.21513602844E+03  0.47991019088E+02  0.59093321360E+02  0.22820751363E+03  0.00000000000E+00 0. -1.
         11    1    1    2    0    0 -0.59419895051E+01  0.11382551158E+02 -0.19945997506E+02  0.23721562483E+02  0.00000000000E+00 0.  1.
</event>
<event>
 7    1  0.2661133E-009  0.9478479E+02  0.7561462E-02  0.1291662E+00
          4   -1    0    0  501    0  0.00000000000E+00  0.00000000000E+00  0.48983362190E+03  0.48983362190E+03  0.00000000000E+00 0. -1.
         -4   -1    0    0    0  501 -0.00000000000E+00 -0.00000000000E+00 -0.26844662377E+02  0.26844662377E+02  0.00000000000E+00 0.  1.
         25    2    1    2    0    0  0.34319311236E+02  0.17493821337E+02  0.31718434660E+03  0.34312873717E+03  0.12509025395E+03 0.  0.
          5    1    3    3  502    0  0.63720152743E+02  0.18094430091E+02  0.30305319199E+03  0.31023600024E+03  0.41800000000E+01 0. -1.
         -5    1    3    3    0  502 -0.29400841507E+02 -0.60060875349E+00  0.14131154605E+02  0.32892736929E+02  0.41800000000E+01 0. -1.
        -11    1    1    2    0    0 -0.12861853647E+02 -0.51612322187E+02  0.72853436812E+02  0.90204669148E+02  0.00000000000E+00 0. -1.
         11    1    1    2    0    0 -0.21457457589E+02  0.34118500850E+02  0.72951176113E+02  0.83344877963E+02  0.00000000000E+00 0.  1.
</event>
<event>
 7    1  0.2661133E-009  0.1295076E+03  0.7561462E-02  0.1228188E+00
          1   -1    0    0  501    0  0.00000000000E+00  0.00000000000E+00  0.35883134064E+02  0.35883134064E+02  0.00000000000E+00 0. -1.
         -1   -1    0    0    0  501 -0.00000000000E+00 -0.00000000000E+00 -0.64449745087E+03  0.64449745087E+03  0.00000000000E+00 0.  1.
         25    2    1    2    0    0  0.75015253327E+02  0.62044260579E+02 -0.22925700843E+03  0.27871606607E+03  0.12508833306E+03 0.  0.
          5    1    3    3  502    0 -0.28476969170E+02  0.28605934847E+02 -0.26123677648E+02  0.48261332507E+02  0.41800000000E+01 0.  1.
         -5    1    3    3    0  502  0.10349222250E+03  0.33438325732E+02 -0.20313333079E+03  0.23045473356E+03  0.41800000000E+01 0.  1.
        -11    1    1    2    0    0 -0.19676398676E+02 -0.48909328499E+02 -0.29658845455E+03  0.30123743866E+03  0.00000000000E+00 0.  1.
         11    1    1    2    0    0 -0.55338854651E+02 -0.13134932079E+02 -0.82768853818E+02  0.10042708020E+03  0.00000000000E+00 0. -1.
</event>
<event>
 7    1  0.2661133E-009  0.1690530E+03  0.7561462E-02  0.1178839E+00
         -1   -1    0    0    0  501 -0.00000000000E+00  0.00000000000E+00  0.23749055171E+03  0.23749055171E+03  0.00000000000E+00 0.  1.
          1   -1    0    0  501    0  0.00000000000E+00 -0.00000000000E+00 -0.16965695401E+03  0.16965695401E+03  0.00000000000E+00 0. -1.
         25    2    1    2    0    0  0.12164259210E+03 -0.38750574001E+02  0.92096057564E+01  0.17897834468E+03  0.12509957566E+03 0.  0.
          5    1    3    3  502    0 -0.13987848552E+02 -0.16076647525E+02  0.32856729218E+02  0.39384712233E+02  0.41800000000E+01 0. -1.
         -5    1    3    3    0  502  0.13563044065E+03 -0.22673926476E+02 -0.23647123462E+02  0.13959363245E+03  0.41800000000E+01 0. -1.
        -11    1    1    2    0    0 -0.12729020696E+03 -0.11903749413E+02 -0.24971195507E+02  0.13026149332E+03  0.00000000000E+00 0. -1.
         11    1    1    2    0    0  0.56476148640E+01  0.50654323414E+02  0.83595187445E+02  0.97907667719E+02  0.00000000000E+00 0.  1.
</event>
<event>
 7    1  0.2661133E-009  0.8220196E+02  0.7561462E-02  0.1322916E+00
         -1   -1    0    0    0  501 -0.00000000000E+00  0.00000000000E+00  0.62120667342E+03  0.62120667342E+03  0.00000000000E+00 0.  1.
          1   -1    0    0  501    0  0.00000000000E+00 -0.00000000000E+00 -0.26158926437E+02  0.26158926437E+02  0.00000000000E+00 0. -1.
         25    2    1    2    0    0 -0.14406822917E+00 -0.61753429781E+02  0.23538757529E+03  0.27362101146E+03  0.12509052908E+03 0.  0.
          5    1    3    3  502    0 -0.72428342664E+01  0.20089193234E+01 -0.13806882224E+02  0.16266431748E+02  0.41800000000E+01 0. -1.
         -5    1    3    3    0  502  0.70987660372E+01 -0.63762349104E+02  0.24919445752E+03  0.25735457971E+03  0.41800000000E+01 0. -1.
        -11    1    1    2    0    0 -0.30389127451E+02  0.11072666215E+02  0.58674994760E+02  0.66998940398E+02  0.00000000000E+00 0. -1.
         11    1    1    2    0    0  0.30533195680E+02  0.50680763566E+02  0.30098517693E+03  0.30674564800E+03  0.00000000000E+00 0.  1.
</event>
<event>
 7    1  0.2661133E-009  0.1053713E+03  0.7561462E-02  0.1269390E+00
         -3   -1    0    0    0  501 -0.00000000000E+00  0.00000000000E+00  0.51689838041E+02  0.51689838041E+02  0.00000000000E+00 0. -1.
          3   -1    0    0  501    0  0.00000000000E+00 -0.00000000000E+00 -0.26383641397E+03  0.26383641397E+03  0.00000000000E+00 0.  1.
         25    2    1    2    0    0 -0.40867532453E+02 -0.38383738365E+01 -0.15015196691E+03  0.19969408673E+03  0.12508887555E+03 0.  0.
          5    1    3    3  502    0 -0.73355366447E+02 -0.33454704253E+02 -0.12520120241E+03  0.14897328790E+03  0.41800000000E+01 0.  1.
         -5    1    3    3    0  502  0.32487833994E+02  0.29616330417E+02 -0.24950764504E+02  0.50720798833E+02  0.41800000000E+01 0.  1.
        -11    1    1    2    0    0  0.73818253027E+01  0.37589126261E+02 -0.76934875737E+00  0.38314822920E+02  0.00000000000E+00 0. -1.
         11    1    1    2    0    0  0.33485707150E+02 -0.33750752424E+02 -0.61225260264E+02  0.77517342363E+02  0.00000000000E+00 0.  1.
</event>
<event>
 7    1  0.2661133E-009  0.1095328E+03  0.7561462E-02  0.1261437E+00
         -2   -1    0    0    0  501 -0.00000000000E+00  0.00000000000E+00  0.26702696791E+02  0.26702696791E+02  0.00000000000E+00 0.  1.
          2   -1    0    0  501    0  0.00000000000E+00 -0.00000000000E+00 -0.52460585867E+03  0.52460585867E+03  0.00000000000E+00 0. -1.
         25    2    1    2    0    0 -0.43383398496E+02  0.12605070360E+02 -0.26877058138E+03  0.29987731248E+03  0.12509104707E+03 0.  0.
          5    1    3    3  502    0  0.35289147060E+02 -0.22151163822E+02 -0.12983928414E+03  0.13642474140E+03  0.41800000000E+01 0. -1.
         -5    1    3    3    0  502 -0.78672545556E+02  0.34756234182E+02 -0.13893129724E+03  0.16345257108E+03  0.41800000000E+01 0. -1.
        -11    1    1    2    0    0 -0.62848844544E+01 -0.35740977654E+02 -0.15532920057E+03  0.15951199894E+03  0.00000000000E+00 0. -1.
         11    1    1    2    0    0  0.49668282950E+02  0.23135907294E+02 -0.73803379927E+02  0.91919244047E+02  0.00000000000E+00 0.  1.
</event>
<event>
 7    1  0.5846963E-009  0.1223342E+03  0.7561462E-02  0.1239295E+00
         -2   -1    0    0    0  501 -0.00000000000E+00  0.00000000000E+00  0.33620389719E+02  0.33620389719E+02  0.00000000000E+00 0.  1.
          2   -1    0    0  501    0  0.00000000000E+00 -0.00000000000E+00 -0.63514726113E+03  0.63514726113E+03  0.00000000000E+00 0. -1.
         25    2    1    2    0    0  0.73300319817E+02  0.63267077218E+02 -0.36094554794E+03  0.39409002430E+03  0.12509835625E+03 0.  0.
          5    1    3    3  502    0  0.47484736249E+02  0.93373165616E+02 -0.17569725924E+03  0.20459801450E+03  0.41800000000E+01 0. -1.
         -5    1    3    3    0  502  0.25815583568E+02 -0.30106088398E+02 -0.18524828870E+03  0.18949200980E+03  0.41800000000E+01 0. -1.
        -11    1    1    2    0    0 -0.55740289830E+02 -0.32488385834E+02 -0.22819418738E+03  0.23713933094E+03  0.00000000000E+00 0. -1.
         11    1    1    2    0    0 -0.17560029988E+02 -0.30778691384E+02 -0.12387136098E+02  0.37538295608E+02  0.00000000000E+00 0.  1.
</event>
<event>
 7    1  0.3381078E-009  0.2522420E+03  0.7561462E-02  0.1111896E+00
         -2   -1    0    0    0  501 -0.00000000000E+00  0.00000000000E+00  0.71081553846E+02  0.71081553846E+02  0.00000000000E+00 0.  1.
          2   -1    0    0  501    0  0.00000000000E+00 -0.00000000000E+00 -0.10439011295E+04  0.10439011295E+04  0.00000000000E+00 0. -1.
         25    2    1    2    0    0 -0.26334965510E+02 -0.24260263341E+03 -0.60506155885E+03  0.66430144893E+03  0.12508939565E+03 0.  0.
          5    1    3    3  502    0 -0.42387306614E+02 -0.19094934902E+03 -0.56186875665E+03  0.59495572084E+03  0.41800000000E+01 0. -1.
         -5    1    3    3    0  502  0.16052341104E+02 -0.51653284387E+02 -0.43192802196E+02  0.69345728090E+02  0.41800000000E+01 0. -1.
        -11    1    1    2    0    0  0.50471802426E+02  0.13052717014E+03 -0.24888498555E+03  0.28553192644E+03  0.00000000000E+00 0. -1.
         11    1    1    2    0    0 -0.24136836916E+02  0.11207546328E+03 -0.11887303124E+03  0.16514930797E+03  0.00000000000E+00 0.  1.
</event>
<event>
 7    1  0.2661133E-009  0.1715801E+03  0.7561462E-02  0.1176210E+00
         -1   -1    0    0    0  501 -0.00000000000E+00  0.00000000000E+00  0.40991148355E+02  0.40991148355E+02  0.00000000000E+00 0.  1.
          1   -1    0    0  501    0  0.00000000000E+00 -0.00000000000E+00 -0.85385978037E+03  0.85385978037E+03  0.00000000000E+00 0. -1.
         25    2    1    2    0    0 -0.43032215192E+02 -0.14390688158E+03 -0.37339946803E+03  0.42146845936E+03  0.12509011712E+03 0.  0.
          5    1    3    3  502    0 -0.50536341743E+02 -0.39281571143E+02 -0.49620231699E+02  0.81096260469E+02  0.41800000000E+01 0.  1.
         -5    1    3    3    0  502  0.75041265509E+01 -0.10462531044E+03 -0.32377923633E+03  0.34037219889E+03  0.41800000000E+01 0.  1.
        -11    1    1    2    0    0 -0.27294531662E+02  0.46073822755E+02 -0.10488802112E+03  0.11776793102E+03  0.00000000000E+00 0.  1.
         11    1    1    2    0    0  0.70326746854E+02  0.97833058826E+02 -0.33458114286E+03  0.35561453834E+03  0.00000000000E+00 0. -1.
</event>
<event>
 7    1  0.2661133E-009  0.1299756E+03  0.7561462E-02  0.1227492E+00
          2   -1    0    0  501    0  0.00000000000E+00  0.00000000000E+00  0.83292406367E+03  0.83292406367E+03  0.00000000000E+00 0. -1.
         -2   -1    0    0    0  501 -0.00000000000E+00 -0.00000000000E+00 -0.23848430959E+02  0.23848430959E+02  0.00000000000E+00 0.  1.
         25    2    1    2    0    0  0.11893537960E+00  0.78405628139E+02  0.31121335351E+03  0.34445325878E+03  0.12508732712E+03 0.  0.
          5    1    3    3  502    0 -0.51759167718E+02  0.89902727949E+01  0.17666411467E+03  0.18435704017E+03  0.41800000000E+01 0. -1.
         -5    1    3    3    0  502  0.51878103097E+02  0.69415355344E+02  0.13454923884E+03  0.16009621861E+03  0.41800000000E+01 0. -1.
        -11    1    1    2    0    0 -0.37764978913E+02 -0.73357944596E+02  0.32209527777E+03  0.33249503700E+03  0.00000000000E+00 0.  1.
         11    1    1    2    0    0  0.37646043534E+02 -0.50476835433E+01  0.17576700142E+03  0.17982419885E+03  0.00000000000E+00 0. -1.
</event>
<event>
 7    1  0.2661133E-009  0.1100329E+03  0.7561462E-02  0.1260509E+00
         -2   -1    0    0    0  501 -0.00000000000E+00  0.00000000000E+00  0.38793432788E+02  0.38793432788E+02  0.00000000000E+00 0.  1.
          2   -1    0    0  501    0  0.00000000000E+00 -0.00000000000E+00 -0.47226388789E+03  0.47226388789E+03  0.00000000000E+00 0. -1.
         25    2    1    2    0    0  0.12300752429E+02  0.55000221156E+02 -0.12943447857E+03  0.18861927888E+03  0.12509042842E+03 0.  0.
          5    1    3    3  502    0  0.55928964752E+02  0.34868008484E+02 -0.19958910511E+02  0.68990271943E+02  0.41800000000E+01 0. -1.
         -5    1    3    3    0  502 -0.43628212324E+02  0.20132212672E+02 -0.10947556806E+03  0.11962900693E+03  0.41800000000E+01 0. -1.
        -11    1    1    2    0    0  0.12468260942E+02 -0.73707838100E+02 -0.23813598784E+03  0.24959377322E+03  0.00000000000E+00 0. -1.
         11    1    1    2    0    0 -0.24769013370E+02  0.18707616944E+02 -0.65899988690E+02  0.72844268576E+02  0.00000000000E+00 0.  1.
</event>
<event>
 7    1  0.2661133E-009  0.1096521E+03  0.7561462E-02  0.1261216E+00
          1   -1    0    0  501    0  0.00000000000E+00  0.00000000000E+00  0.22678102178E+03  0.22678102178E+03  0.00000000000E+00 0. -1.
         -1   -1    0    0    0  501 -0.00000000000E+00 -0.00000000000E+00 -0.59936925089E+02  0.59936925089E+02  0.00000000000E+00 0.  1.
         25    2    1    2    0    0 -0.33262036742E+02  0.15557310352E+02  0.64231914693E+02  0.14533259753E+03  0.12508969600E+03 0.  0.
          5    1    3    3  502    0 -0.75881061895E+02  0.33791529955E+02  0.48069786748E+02  0.96062374783E+02  0.41800000000E+01 0. -1.
         -5    1    3    3    0  502  0.42619025153E+02 -0.18234219603E+02  0.16162127944E+02  0.49270222744E+02  0.41800000000E+01 0. -1.
        -11    1    1    2    0    0  0.13027410318E+01 -0.45664352430E+02  0.24649011056E+02  0.51908611647E+02  0.00000000000E+00 0.  1.
         11    1    1    2    0    0  0.31959295710E+02  0.30107042078E+02  0.77963170944E+02  0.89476737696E+02  0.00000000000E+00 0. -1.
</event>
<event>
 7    1  0.2661133E-009  0.1459944E+03  0.7561462E-02  0.1205483E+00
         -2   -1    0    0    0  501 -0.00000000000E+00  0.00000000000E+00  0.33972683376E+02  0.33972683376E+02  0.00000000000E+00 0.  1.
          2   -1    0    0  501    0  0.00000000000E+00 -0.00000000000E+00 -0.10290878336E+04  0.10290878336E+04  0.00000000000E+00 0. -1.
         25    2    1    2    0    0 -0.53340444935E+02 -0.13148666660E+03 -0.36547617355E+03  0.41152746910E+03  0.12509227724E+03 0.  0.
          5    1    3    3  502    0 -0.28592035983E+01 -0.40001998248E+02 -0.25960966734E+03  0.26272226150E+03  0.41800000000E+01 0.  1.
         -5    1    3    3    0  502 -0.50481241337E+02 -0.91484668354E+02 -0.10586650621E+03  0.14880520760E+03  0.41800000000E+01 0.  1.
        -11    1    1    2    0    0  0.40709619955E+02  0.49261191973E+02 -0.12825423314E+03  0.14329370716E+03  0.00000000000E+00 0.  1.
         11    1    1    2    0    0  0.12630824980E+02  0.82225474629E+02 -0.50138474356E+03  0.50823934075E+03  0.00000000000E+00 0. -1.
</event>
<event>
 6    1  0.2661133E-009  0.1049793E+03  0.7561462E-02  0.1270161E+00
         -2   -1    0    0    0  501 -0.00000000000E+00  0.00000000000E+00  0.28374800041E+02  0.28374800041E+02  0.00000000000E+00 0.  1.
          2   -1    0    0  501    0  0.00000000000E+00 -0.00000000000E+00 -0.72412880539E+03  0.72412880539E+03  0.00000000000E+00 0. -1.
          5    1    1    2  502    0  0.11534295621E+02  0.19364247239E+02 -0.24329436163E+03  0.24437191502E+03  0.41800000000E+01 0. -1.
         -5    1    1    2    0  502 -0.15400030978E+02  0.68211330498E+02 -0.49116732470E+02  0.85556252670E+02  0.41800000000E+01 0. -1.
        -11    1    1    2    0    0 -0.33825071553E+02 -0.19168831169E+02 -0.68693507158E+02  0.78932740226E+02  0.00000000000E+00 0. -1.
         11    1    1    2    0    0  0.37690806909E+02 -0.68406746567E+02 -0.33464940409E+03  0.34364269752E+03  0.00000000000E+00 0.  1.
</event>
<event>
 7    1  0.2661133E-009  0.1061000E+03  0.7561462E-02  0.1267967E+00
          2   -1    0    0  501    0  0.00000000000E+00  0.00000000000E+00  0.45946076634E+03  0.45946076634E+03  0.00000000000E+00 0. -1.
         -2   -1    0    0    0  501 -0.00000000000E+00 -0.00000000000E+00 -0.38129113405E+02  0.38129113405E+02  0.00000000000E+00 0.  1.
         25    2    1    2    0    0  0.57958809299E+02 -0.39093728860E+02  0.28938721142E+03  0.32292379902E+03  0.12508908277E+03 0.  0.
          5    1    3    3  502    0 -0.16615642466E+02 -0.59411019135E+02  0.91469503836E+02  0.11040784076E+03  0.41800000000E+01 0.  1.
         -5    1    3    3    0  502  0.74574451765E+02  0.20317290275E+02  0.19791770758E+03  0.21251595826E+03  0.41800000000E+01 0.  1.
        -11    1    1    2    0    0 -0.48478196616E+02  0.21616612942E+02  0.13777768097E+02  0.54838311388E+02  0.00000000000E+00 0.  1.
         11    1    1    2    0    0 -0.94806126833E+01  0.17477115918E+02  0.11816667342E+03  0.11982776934E+03  0.00000000000E+00 0. -1.
</event>
<event>
 7    1  0.2661133E-009  0.2139548E+03  0.7561462E-02  0.1138472E+00
          1   -1    0    0  501    0  0.00000000000E+00  0.00000000000E+00  0.52445053244E+02  0.52445053244E+02  0.00000000000E+00 0. -1.
         -1   -1    0    0    0  501 -0.00000000000E+00 -0.00000000000E+00 -0.14191278921E+04  0.14191278921E+04  0.00000000000E+00 0.  1.
         25    2    1    2    0    0 -0.11373582076E+03 -0.16639378987E+03 -0.10965016278E+04  0.11218681109E+04  0.12509799437E+03 0.  0.
          5    1    3    3  502    0 -0.78837536296E+00 -0.69745288383E+02 -0.58586769235E+03  0.59001987435E+03  0.41800000000E+01 0. -1.
         -5    1    3    3    0  502 -0.11294744539E+03 -0.96648501487E+02 -0.51063393547E+03  0.53184823654E+03  0.41800000000E+01 0. -1.
        -11    1    1    2    0    0 -0.30519000887E+01  0.28302945198E+02 -0.90075187380E+02  0.94466450037E+02  0.00000000000E+00 0. -1.
         11    1    1    2    0    0  0.11678772085E+03  0.13809084467E+03 -0.18010602366E+03  0.25523838442E+03  0.00000000000E+00 0.  1.
</event>
<event>
 7    1  0.2661133E-009  0.7423962E+02  0.7561462E-02  0.1346242E+00
          1   -1    0    0  501    0  0.00000000000E+00  0.00000000000E+00  0.13071661435E+03  0.13071661435E+03  0.00000000000E+00 0. -1.
         -1   -1    0    0    0  501 -0.00000000000E+00 -0.00000000000E+00 -0.94583617222E+02  0.94583617222E+02  0.00000000000E+00 0.  1.
         25    2    1    2    0    0  0.72589385075E+01 -0.23371193113E+02  0.23822504133E+02  0.12966922028E+03  0.12509072759E+03 0.  0.
          5    1    3    3  502    0  0.11591037650E+02  0.12380765039E+02 -0.46981040087E+02  0.50123108687E+02  0.41800000000E+01 0. -1.
         -5    1    3    3    0  502 -0.43320991429E+01 -0.35751958152E+02  0.70803544221E+02  0.79546111589E+02  0.41800000000E+01 0. -1.
        -11    1    1    2    0    0 -0.45955576607E+02 -0.57674749672E+01  0.79641503568E+01  0.46995813428E+02  0.00000000000E+00 0. -1.
         11    1    1    2    0    0  0.38696638100E+02  0.29138668080E+02  0.43463426419E+01  0.48635197873E+02  0.00000000000E+00 0.  1.
</event>
<event>
 7    1  0.2661133E-009  0.1716150E+03  0.7561462E-02  0.1176174E+00
          2   -1    0    0  501    0  0.00000000000E+00  0.00000000000E+00  0.53340062595E+03  0.53340062595E+03  0.00000000000E+00 0. -1.
         -2   -1    0    0    0  501 -0.00000000000E+00 -0.00000000000E+00 -0.90310250285E+02  0.90310250285E+02  0.00000000000E+00 0.  1.
         25    2    1    2    0    0 -0.13972842715E+03  0.42986648363E+02  0.12500340877E+03  0.22944587981E+03  0.12509066419E+03 0.  0.
          5    1    3    3  502    0 -0.10168661352E+03  0.86382915951E+02  0.75911194117E+02  0.15356483103E+03  0.41800000000E+01 0. -1.
         -5    1    3    3    0  502 -0.38041813630E+02 -0.43396267587E+02  0.49092214649E+02  0.75881048780E+02  0.41800000000E+01 0. -1.
        -11    1    1    2    0    0  0.34754292296E+02 -0.30360872605E+02 -0.11979480782E+02  0.47677577310E+02  0.00000000000E+00 0.  1.
         11    1    1    2    0    0  0.10497413486E+03 -0.12625775758E+02  0.33006644768E+03  0.34658741911E+03  0.00000000000E+00 0. -1.
</event>
<event>
 7    1  0.2661133E-009  0.1235123E+03  0.7561462E-02  0.1237413E+00
          2   -1    0    0  501    0  0.00000000000E+00  0.00000000000E+00  0.31090739727E+03  0.31090739727E+03  0.00000000000E+00 0. -1.
         -2   -1    0    0    0  501 -0.00000000000E+00 -0.00000000000E+00 -0.72812878432E+02  0.72812878432E+02  0.00000000000E+00 0.  1.
         25    2    1    2    0    0 -0.90726808960E+02 -0.52269665474E+02  0.10948860672E+03  0.19646467193E+03  0.12508853075E+03 0.  0.
          5    1    3    3  502    0 -0.34147392912E+02  0.19966105416E+02 -0.14345543426E+02  0.42284238486E+02  0.41800000000E+01 0. -1.
         -5    1    3    3    0  502 -0.56579416048E+02 -0.72235770890E+02  0.12383415014E+03  0.15418043345E+03  0.41800000000E+01 0. -1.
        -11    1    1    2    0    0  0.34596018819E+02 -0.52909279537E+01 -0.68586621112E+00  0.35004983205E+02  0.00000000000E+00 0.  1.
         11    1    1    2    0    0  0.56130790142E+02  0.57560593428E+02  0.12929177833E+03  0.15225062056E+03  0.00000000000E+00 0. -1.
</event>
<event>
 7    1  0.2661133E-009  0.1062638E+03  0.7561462E-02  0.1267649E+00
          3   -1    0    0  501    0  0.00000000000E+00  0.00000000000E+00  0.13440635235E+03  0.13440635235E+03  0.00000000000E+00 0. -1.
         -3   -1    0    0    0  501 -0.00000000000E+00 -0.00000000000E+00 -0.39988661715E+03  0.39988661715E+03  0.00000000000E+00 0.  1.
         25    2    1    2    0    0 -0.34785427583E+02  0.66310241095E+02 -0.35433674497E+03  0.38315641021E+03  0.12508889559E+03 0.  0.
          5    1    3    3  502    0 -0.40278009217E+02  0.11339178183E+02 -0.24436701879E+02  0.48636609535E+02  0.41800000000E+01 0.  1.
         -5    1    3    3    0  502  0.54925816334E+01  0.54971062912E+02 -0.32990004309E+03  0.33451980067E+03  0.41800000000E+01 0.  1.
        -11    1    1    2    0    0  0.22221874227E+02  0.18758895578E+02  0.47551040147E+02  0.55738759195E+02  0.00000000000E+00 0. -1.
         11    1    1    2    0    0  0.12563553356E+02 -0.85069136673E+02  0.41305440030E+02  0.95397800097E+02  0.00000000000E+00 0.  1.
</event>
<event>
 7    1  0.2661133E-009  0.1366957E+03  0.7561462E-02  0.1217846E+00
         -1   -1    0    0    0  501 -0.00000000000E+00  0.00000000000E+00  0.31329781509E+03  0.31329781509E+03  0.00000000000E+00 0.  1.
          1   -1    0    0  501    0  0.00000000000E+00 -0.00000000000E+00 -0.62901994382E+02  0.62901994382E+02  0.00000000000E+00 0. -1.
         25    2    1    2    0    0 -0.49507505414E+02 -0.73793309750E+02  0.15583439406E+03  0.21869167908E+03  0.12508095966E+03 0.  0.
          5    1    3    3  502    0 -0.89942803541E+02 -0.55243726459E+02  0.12835574803E+03  0.16623551869E+03  0.41800000000E+01 0.  1.
         -5    1    3    3    0  502  0.40435298127E+02 -0.18549583291E+02  0.27478646026E+02  0.52456160384E+02  0.41800000000E+01 0.  1.
        -11    1    1    2    0    0  0.68285826236E+02  0.28415344953E+02  0.72843889145E+02  0.10381049118E+03  0.00000000000E+00 0.  1.
         11    1    1    2    0    0 -0.18778320822E+02  0.45377964797E+02  0.21717537509E+02  0.53697639217E+02  0.00000000000E+00 0. -1.
</event>
<event>
 7    1  0.2661133E-009  0.3995916E+03  0.7561462E-02  0.1043921E+00
          2   -1    0    0  501    0  0.00000000000E+00  0.00000000000E+00  0.27676367576E+04  0.27676367576E+04  0.00000000000E+00 0. -1.
         -2   -1    0    0    0  501 -0.00000000000E+00 -0.00000000000E+00 -0.74892726095E+02  0.74892726095E+02  0.00000000000E+00 0.  1.
         25    2    1    2    0    0 -0.39091372809E+03  0.94205560722E+01  0.20008889200E+04  0.20425736707E+04  0.12509372782E+03 0.  0.
          5    1    3    3  502    0 -0.30013993040E+03 -0.39670502186E+02  0.13496562612E+04  0.13832018010E+04  0.41800000000E+01 0. -1.
         -5    1    3    3    0  502 -0.90773797681E+02  0.49091058258E+02  0.65123265879E+03  0.65937186976E+03  0.41800000000E+01 0. -1.
        -11    1    1    2    0    0  0.15117113721E+03 -0.23401315931E+02  0.19270334849E+03  0.24603844178E+03  0.00000000000E+00 0.  1.
         11    1    1    2    0    0  0.23974259088E+03  0.13980759859E+02  0.49915176309E+03  0.55391737120E+03  0.00000000000E+00 0. -1.
</event>
<event>
 7    1  0.2661133E-009  0.1099982E+03  0.7561462E-02  0.1260573E+00
         -2   -1    0    0    0  501 -0.00000000000E+00  0.00000000000E+00  0.15018368987E+02  0.15018368987E+02  0.00000000000E+00 0. -1.
          2   -1    0    0  501    0  0.00000000000E+00 -0.00000000000E+00 -0.22130313023E+04  0.22130313023E+04  0.00000000000E+00 0.  1.
         25    2    1    2    0    0  0.47534035075E+02 -0.24210902657E+02 -0.19788402173E+04  0.19835080064E+04  0.12509897543E+03 0.  0.
          5    1    3    3  502    0  0.45589680766E+02  0.43501077405E+02 -0.69069002809E+03  0.69357115715E+03  0.41800000000E+01 0. -1.
         -5    1    3    3    0  502  0.19443543089E+01 -0.67711980062E+02 -0.12881501892E+04  0.12899368493E+04  0.41800000000E+01 0. -1.
        -11    1    1    2    0    0 -0.59539376293E+02  0.38046188364E+02 -0.21421162626E+03  0.22556389473E+03  0.00000000000E+00 0.  1.
         11    1    1    2    0    0  0.12005341218E+02 -0.13835285707E+02 -0.49610897718E+01  0.18977770156E+02  0.00000000000E+00 0. -1.
</event>
<event>
 7    1  0.2661133E-009  0.8820536E+02  0.7561462E-02  0.1307257E+00
         -2   -1    0    0    0  501 -0.00000000000E+00  0.00000000000E+00  0.27830036961E+02  0.27830036961E+02  0.00000000000E+00 0.  1.
          2   -1    0    0  501    0  0.00000000000E+00 -0.00000000000E+00 -0.55266776952E+03  0.55266776952E+03  0.00000000000E+00 0. -1.
         25    2    1    2    0    0  0.38450334453E+02 -0.32630517392E+02 -0.21247995666E+03  0.25168266465E+03  0.12511296023E+03 0.  0.
          5    1    3    3  502    0 -0.14196797980E+02 -0.38724097767E+01  0.11901948611E+02  0.19382296332E+02  0.41800000000E+01 0. -1.
         -5    1    3    3    0  502  0.52647132433E+02 -0.28758107616E+02 -0.22438190527E+03  0.23230036832E+03  0.41800000000E+01 0. -1.
        -11    1    1    2    0    0 -0.36808229011E+02 -0.24247049517E+02 -0.10707348574E+03  0.11579074437E+03  0.00000000000E+00 0.  1.
         11    1    1    2    0    0 -0.16421054419E+01  0.56877566910E+02 -0.20528429016E+03  0.21302439746E+03  0.00000000000E+00 0. -1.
</event>
<event>
 7    1  0.2661133E-009  0.1002847E+03  0.7561462E-02  0.1279698E+00
          1   -1    0    0  501    0  0.00000000000E+00  0.00000000000E+00  0.10735164425E+02  0.10735164425E+02  0.00000000000E+00 0. -1.
         -1   -1    0    0    0  501 -0.00000000000E+00 -0.00000000000E+00 -0.12691571659E+04  0.12691571659E+04  0.00000000000E+00 0.  1.
         25    2    1    2    0    0  0.13892547314E+02  0.31042313579E+02 -0.85193887723E+03  0.86174468776E+03  0.12508968080E+03 0.  0.
          5    1    3    3  502    0 -0.52606274325E+01  0.64009845788E+02 -0.23618600811E+03  0.24479836066E+03  0.41800000000E+01 0.  1.
         -5    1    3    3    0  502  0.19153174746E+02 -0.32967532208E+02 -0.61575286912E+03  0.61694632710E+03  0.41800000000E+01 0.  1.
        -11    1    1    2    0    0 -0.40241335177E+02 -0.50880019769E+02 -0.28253344373E+03  0.28988495700E+03  0.00000000000E+00 0.  1.
         11    1    1    2    0    0  0.26348787864E+02  0.19837706190E+02 -0.12394968050E+03  0.12826268555E+03  0.00000000000E+00 0. -1.
</event>
<event>
 7    1  0.2661133E-009  0.1135186E+03  0.7561462E-02  0.1254189E+00
          2   -1    0    0  501    0  0.00000000000E+00  0.00000000000E+00  0.13945277818E+03  0.13945277818E+03  0.00000000000E+00 0. -1.
         -2   -1    0    0    0  501 -0.00000000000E+00 -0.00000000000E+00 -0.10840231156E+03  0.10840231156E+03  0.00000000000E+00 0.  1.
         25    2    1    2    0    0  0.52106291926E+02  0.10659435361E+02  0.41531654679E+02  0.14213165427E+03  0.12509132498E+03 0.  0.
          5    1    3    3  502    0 -0.34067685042E+02 -0.12334797620E+02  0.38152083080E+02  0.52780756339E+02  0.41800000000E+01 0.  1.
         -5    1    3    3    0  502  0.86173976968E+02  0.22994232980E+02  0.33795715990E+01  0.89350897931E+02  0.41800000000E+01 0.  1.
        -11    1    1    2    0    0 -0.22496394488E+02 -0.48361948035E+02 -0.19784421717E+02  0.56889270740E+02  0.00000000000E+00 0.  1.
         11    1    1    2    0    0 -0.29609897438E+02  0.37702512674E+02  0.93032336565E+01  0.48834164728E+02  0.00000000000E+00 0. -1.
</event>
<event>
 7    1  0.2661133E-009  0.4119914E+02  0.7561462E-02  0.1499568E+00
         -2   -1    0    0    0  501 -0.00000000000E+00  0.00000000000E+00  0.77610698110E+02  0.77610698110E+02  0.00000000000E+00 0.  1.
          2   -1    0    0  501    0  0.00000000000E+00 -0.00000000000E+00 -0.20363835456E+03  0.20363835456E+03  0.00000000000E+00 0. -1.
         25    2    1    2    0    0  0.19741774086E+00  0.35267594516E+02 -0.12180103969E+03  0.17812042285E+03  0.12509016577E+03 0.  0.
          5    1    3    3  502    0 -0.14486823722E+00  0.21130234498E+02 -0.14719102074E+03  0.14875878724E+03  0.41800000000E+01 0. -1.
         -5    1    3    3    0  502  0.34228597808E+00  0.14137360018E+02  0.25389981049E+02  0.29361635609E+02  0.41800000000E+01 0. -1.
        -11    1    1    2    0    0  0.13419843351E+02 -0.79749854582E+01  0.43652357426E+02  0.46359690438E+02  0.00000000000E+00 0.  1.
         11    1    1    2    0    0 -0.13617261092E+02 -0.27292609058E+02 -0.47878974187E+02  0.56768939377E+02  0.00000000000E+00 0. -1.
</event>
<event>
 7    1  0.2661133E-009  0.1185060E+03  0.7561462E-02  0.1245582E+00
          2   -1    0    0  501    0  0.00000000000E+00  0.00000000000E+00  0.40106550158E+02  0.40106550158E+02  0.00000000000E+00 0. -1.
         -2   -1    0    0    0  501 -0.00000000000E+00 -0.00000000000E+00 -0.44786865830E+03  0.44786865830E+03  0.00000000000E+00 0.  1.
         25    2    1    2    0    0 -0.44367877204E+02 -0.61376478466E+02 -0.26579800243E+03  0.30336632602E+03  0.12508784525E+03 0.  0.
          5    1    3    3  502    0 -0.72873329240E+02 -0.22836995585E+02 -0.76984077053E+02  0.10851760687E+03  0.41800000000E+01 0.  1.
         -5    1    3    3    0  502  0.28505452036E+02 -0.38539482880E+02 -0.18881392538E+03  0.19484871915E+03  0.41800000000E+01 0.  1.
        -11    1    1    2    0    0 -0.36111135171E+01 -0.18709026312E+02 -0.50236427827E+02  0.53728637497E+02  0.00000000000E+00 0.  1.
         11    1    1    2    0    0  0.47978990721E+02  0.80085504778E+02 -0.91727677885E+02  0.13088024494E+03  0.00000000000E+00 0. -1.
</event>
<event>
 7    1  0.2661133E-009  0.1899463E+03  0.7561462E-02  0.1158510E+00
         -1   -1    0    0    0  501 -0.00000000000E+00  0.00000000000E+00  0.75773531493E+03  0.75773531493E+03  0.00000000000E+00 0.  1.
          1   -1    0    0  501    0  0.00000000000E+00 -0.00000000000E+00 -0.56599889402E+02  0.56599889402E+02  0.00000000000E+00 0. -1.
         25    2    1    2    0    0 -0.80139596549E+01 -0.17119823790E+03  0.28809514743E+03  0.35779718228E+03  0.12508776705E+03 0.  0.
          5    1    3    3  502    0  0.36423599650E+02 -0.12898736910E+02  0.21138378542E+02  0.44242055476E+02  0.41800000000E+01 0. -1.
         -5    1    3    3    0  502 -0.44437559305E+02 -0.15829950099E+03  0.26695676889E+03  0.31355512681E+03  0.41800000000E+01 0. -1.
        -11    1    1    2    0    0  0.25539938769E+02  0.10725621327E+03  0.34214797585E+03  0.35947381147E+03  0.00000000000E+00 0.  1.
         11    1    1    2    0    0 -0.17525979114E+02  0.63942024626E+02  0.70892302251E+02  0.97064210580E+02  0.00000000000E+00 0. -1.
</event>
<event>
 7    1  0.2661133E-009  0.9821291E+02  0.7561462E-02  0.1284099E+00
          1   -1    0    0  501    0  0.00000000000E+00  0.00000000000E+00  0.22383130011E+03  0.22383130011E+03  0.00000000000E+00 0. -1.
         -1   -1    0    0    0  501 -0.00000000000E+00 -0.00000000000E+00 -0.93289414049E+02  0.93289414049E+02  0.00000000000E+00 0.  1.
         25    2    1    2    0    0  0.61976083949E+01  0.70219712456E+02  0.14028063710E+03  0.20073812416E+03  0.12509164233E+03 0.  0.
          5    1    3    3  502    0 -0.41522458093E+02  0.10655234318E+02  0.24614595497E+01  0.43141392277E+02  0.41800000000E+01 0.  1.
         -5    1    3    3    0  502  0.47720066488E+02  0.59564478138E+02  0.13781917755E+03  0.15759673189E+03  0.41800000000E+01 0.  1.
        -11    1    1    2    0    0  0.10578552534E+02 -0.10571681511E+02 -0.43373823808E+02  0.45879786566E+02  0.00000000000E+00 0.  1.
         11    1    1    2    0    0 -0.16776160929E+02 -0.59648030945E+02  0.33635072773E+02  0.70502803431E+02  0.00000000000E+00 0. -1.
</event>
<event>
 7    1  0.2661133E-009  0.1114108E+03  0.7561462E-02  0.1257979E+00
          1   -1    0    0  501    0  0.00000000000E+00  0.00000000000E+00  0.46665102292E+02  0.46665102292E+02  0.00000000000E+00 0. -1.
         -1   -1    0    0    0  501 -0.00000000000E+00 -0.00000000000E+00 -0.39163561223E+03  0.39163561223E+03  0.00000000000E+00 0.  1.
         25    2    1    2    0    0 -0.27543100906E+02 -0.68491300194E+02 -0.23966475184E+03  0.28024168887E+03  0.12508609154E+03 0.  0.
          5    1    3    3  502    0  0.25424331719E+02 -0.30509825258E+02 -0.95801548413E+01  0.41066992188E+02  0.41800000000E+01 0. -1.
         -5    1    3    3    0  502 -0.52967432625E+02 -0.37981474936E+02 -0.23008459700E+03  0.23917469668E+03  0.41800000000E+01 0. -1.
        -11    1    1    2    0    0 -0.33996420919E+02  0.25812293690E+02 -0.32935043888E+02  0.53914267655E+02  0.00000000000E+00 0.  1.
         11    1    1    2    0    0  0.61539521825E+02  0.42679006504E+02 -0.72370714207E+02  0.10414475799E+03  0.00000000000E+00 0. -1.
</event>
<event>
 7    1  0.2661133E-009  0.1015543E+03  0.7561462E-02  0.1277061E+00
         -1   -1    0    0    0  501 -0.00000000000E+00  0.00000000000E+00  0.43508274754E+03  0.43508274754E+03  0.00000000000E+00 0.  1.
          1   -1    0    0  501    0  0.00000000000E+00 -0.00000000000E+00 -0.33063443153E+02  0.33063443153E+02  0.00000000000E+00 0. -1.
         25    2    1    2    0    0 -0.15022485361E+02 -0.27435232467E+02  0.22811719133E+03  0.26203828714E+03  0.12509294106E+03 0.  0.
          5    1    3    3  502    0  0.40682258980E+02  0.17368396473E+02  0.14826983451E+03  0.15478411940E+03  0.41800000000E+01 0. -1.
         -5    1    3    3    0  502 -0.55704744341E+02 -0.44803628940E+02  0.79847356816E+02  0.10725416775E+03  0.41800000000E+01 0. -1.
        -11    1    1    2    0    0 -0.27967960143E+02  0.33512876742E+02  0.15066942327E+03  0.15686489349E+03  0.00000000000E+00 0.  1.
         11    1    1    2    0    0  0.42990445504E+02 -0.60776442750E+01  0.23232689789E+02  0.49243010057E+02  0.00000000000E+00 0. -1.
</event>
<event>
 7    1  0.2661133E-009  0.9659919E+02  0.7561462E-02  0.1287614E+00
          1   -1    0    0  501    0  0.00000000000E+00  0.00000000000E+00  0.72348045780E+02  0.72348045780E+02  0.00000000000E+00 0. -1.
         -1   -1    0    0    0  501 -0.00000000000E+00 -0.00000000000E+00 -0.20015388163E+03  0.20015388163E+03  0.00000000000E+00 0.  1.
         25    2    1    2    0    0 -0.82536282744E+01 -0.43865160790E+02 -0.40380302926E+02  0.13881582973E+03  0.12508793310E+03 0.  0.
          5    1    3    3  502    0  0.38542524431E+02 -0.62040322244E+02  0.17000018603E+01  0.73177115139E+02  0.41800000000E+01 0.  1.
         -5    1    3    3    0  502 -0.46796152705E+02  0.18175161455E+02 -0.42080304787E+02  0.65638714589E+02  0.41800000000E+01 0.  1.
        -11    1    1    2    0    0 -0.22918151975E+02  0.17414377466E+02 -0.88219607358E+02  0.92796558960E+02  0.00000000000E+00 0.  1.
         11    1    1    2    0    0  0.31171780249E+02  0.26450783324E+02  0.79407443947E+00  0.40889538718E+02  0.00000000000E+00 0. -1.
</event>
<event>
 7    1  0.2661133E-009  0.1234822E+03  0.7561462E-02  0.1237461E+00
          2   -1    0    0  501    0  0.00000000000E+00  0.00000000000E+00  0.29472439426E+04  0.29472439426E+04  0.00000000000E+00 0. -1.
         -2   -1    0    0    0  501 -0.00000000000E+00 -0.00000000000E+00 -0.11476110395E+02  0.11476110395E+02  0.00000000000E+00 0.  1.
         25    2    1    2    0    0  0.85918616243E+02  0.32687899107E+02  0.24834342347E+04  0.24882813379E+04  0.12509161117E+03 0.  0.
          5    1    3    3  502    0  0.45294245026E+02 -0.37717197194E+02  0.55638112969E+03  0.55951013348E+03  0.41800000000E+01 0. -1.
         -5    1    3    3    0  502  0.40624371217E+02  0.70405096301E+02  0.19270531050E+04  0.19287712045E+04  0.41800000000E+01 0. -1.
        -11    1    1    2    0    0 -0.36563766179E+02  0.13412210806E+02  0.54920730596E+02  0.67328174230E+02  0.00000000000E+00 0.  1.
         11    1    1    2    0    0 -0.49354850064E+02 -0.46100109913E+02  0.39741286692E+03  0.40311054086E+03  0.00000000000E+00 0. -1.
</event>
<event>
 7    1  0.2661133E-009  0.1263016E+03  0.7561462E-02  0.1233049E+00
         -1   -1    0    0    0  501 -0.00000000000E+00  0.00000000000E+00  0.52716131106E+02  0.52716131106E+02  0.00000000000E+00 0.  1.
          1   -1    0    0  501    0  0.00000000000E+00 -0.00000000000E+00 -0.50818957706E+03  0.50818957706E+03  0.00000000000E+00 0. -1.
         25    2    1    2    0    0  0.63649715093E+02 -0.69773377200E+02 -0.37264021680E+03  0.40426240145E+03  0.12509095752E+03 0.  0.
          5    1    3    3  502    0  0.90656308857E+02 -0.72601502947E+02 -0.34958154482E+03  0.36839418216E+03  0.41800000000E+01 0.  1.
         -5    1    3    3    0  502 -0.27006593764E+02  0.28281257472E+01 -0.23058671973E+02  0.35868219292E+02  0.41800000000E+01 0.  1.
        -11    1    1    2    0    0 -0.46886682666E+02  0.11504956423E+02  0.64627483826E+01  0.48708234934E+02  0.00000000000E+00 0.  1.
         11    1    1    2    0    0 -0.16763032427E+02  0.58268420778E+02 -0.89295977542E+02  0.10793507178E+03  0.00000000000E+00 0. -1.
</event>
<event>
 7    1  0.2661133E-009  0.1077890E+03  0.7561462E-02  0.1264720E+00
         -2   -1    0    0    0  501 -0.00000000000E+00  0.00000000000E+00  0.38134577919E+03  0.38134577919E+03  0.00000000000E+00 0.  1.
          2   -1    0    0  501    0  0.00000000000E+00 -0.00000000000E+00 -0.51526454048E+02  0.51526454048E+02  0.00000000000E+00 0. -1.
         25    2    1    2    0    0 -0.86063230535E+01 -0.24853225524E+02  0.49452820259E+02  0.13705556159E+03  0.12508754501E+03 0.  0.
          5    1    3    3  502    0  0.27629419702E+02  0.40125445839E+02  0.37422719939E+02  0.61574090366E+02  0.41800000000E+01 0.  1.
         -5    1    3    3    0  502 -0.36235742755E+02 -0.64978671363E+02  0.12030100320E+02  0.75481471229E+02  0.41800000000E+01 0.  1.
        -11    1    1    2    0    0 -0.58893728544E+01 -0.32488998815E+02  0.13268342712E+03  0.13673006835E+03  0.00000000000E+00 0.  1.
         11    1    1    2    0    0  0.14495695908E+02  0.57342224339E+02  0.14768307776E+03  0.15908660330E+03  0.00000000000E+00 0. -1.
</event>
<event>
 7    1  0.2661133E-009  0.1632213E+03  0.7561462E-02  0.1185107E+00
          2   -1    0    0  501    0  0.00000000000E+00  0.00000000000E+00  0.67035871205E+03  0.67035871205E+03  0.00000000000E+00 0.  1.
         -2   -1    0    0    0  501 -0.00000000000E+00 -0.00000000000E+00 -0.49637012373E+02  0.49637012373E+02  0.00000000000E+00 0. -1.
         25    2    1    2    0    0 -0.12979367072E+03  0.32008551706E+02  0.21099939011E+03  0.27935750502E+03  0.12509567797E+03 0.  0.
          5    1    3    3  502    0 -0.14329305024E+03 -0.49082853673E+01  0.16945012304E+03  0.22200857216E+03  0.41800000000E+01 0. -1.
         -5    1    3    3    0  502  0.13499379523E+02  0.36916837074E+02  0.41549267069E+02  0.57348932867E+02  0.41800000000E+01 0. -1.
        -11    1    1    2    0    0  0.12908809720E+03 -0.19036597559E+02  0.40694607167E+03  0.42735375760E+03  0.00000000000E+00 0.  1.
         11    1    1    2    0    0  0.70557352505E+00 -0.12971954147E+02  0.27762378961E+01  0.13284461798E+02  0.00000000000E+00 0. -1.
</event>
<event>
 7    1  0.2661133E-009  0.1690631E+03  0.7561462E-02  0.1178828E+00
         -2   -1    0    0    0  501 -0.00000000000E+00  0.00000000000E+00  0.30482403884E+02  0.30482403884E+02  0.00000000000E+00 0. -1.
          2   -1    0    0  501    0  0.00000000000E+00 -0.00000000000E+00 -0.10416728368E+04  0.10416728368E+04  0.00000000000E+00 0.  1.
         25    2    1    2    0    0  0.21876286167E+02 -0.13880844964E+03 -0.57884663243E+03  0.60865143207E+03  0.12508710688E+03 0.  0.
          5    1    3    3  502    0  0.61905424832E+02 -0.36286832424E+02 -0.15713133468E+03  0.17279104308E+03  0.41800000000E+01 0.  1.
         -5    1    3    3    0  502 -0.40029138665E+02 -0.10252161722E+03 -0.42171529775E+03  0.43586038899E+03  0.41800000000E+01 0.  1.
        -11    1    1    2    0    0  0.22067204617E+01  0.13066970877E+03 -0.40756021649E+03  0.42800090242E+03  0.00000000000E+00 0.  1.
         11    1    1    2    0    0 -0.24083006628E+02  0.81387408700E+01 -0.24783583960E+02  0.35502906150E+02  0.00000000000E+00 0. -1.
</event>
<event>
 7    1  0.2661133E-009  0.1159079E+03  0.7561462E-02  0.1250005E+00
          1   -1    0    0  501    0  0.00000000000E+00  0.00000000000E+00  0.81024884459E+03  0.81024884459E+03  0.00000000000E+00 0.  1.
         -1   -1    0    0    0  501 -0.00000000000E+00 -0.00000000000E+00 -0.18488130924E+02  0.18488130924E+02  0.00000000000E+00 0. -1.
         25    2    1    2    0    0  0.11799234604E+02  0.55397189449E+02  0.44591384895E+03  0.46657772386E+03  0.12509013223E+03 0.  0.
          5    1    3    3  502    0 -0.48630760928E+02  0.13304430330E+02  0.28640538985E+03  0.29083926576E+03  0.41800000000E+01 0. -1.
         -5    1    3    3    0  502  0.60429995532E+02  0.42092759119E+02  0.15950845910E+03  0.17573845809E+03  0.41800000000E+01 0. -1.
        -11    1    1    2    0    0 -0.35740098846E+02 -0.70579305808E+02  0.25290529812E+03  0.26499034490E+03  0.00000000000E+00 0.  1.
         11    1    1    2    0    0  0.23940864242E+02  0.15182116359E+02  0.92941566597E+02  0.97168906752E+02  0.00000000000E+00 0. -1.
</event>
<event>
 7    1  0.2661133E-009  0.8021301E+02  0.7561462E-02  0.1328448E+00
         -2   -1    0    0    0  501 -0.00000000000E+00  0.00000000000E+00  0.30681721744E+02  0.30681721744E+02  0.00000000000E+00 0.  1.
          2   -1    0    0  501    0  0.00000000000E+00 -0.00000000000E+00 -0.55645071993E+03  0.55645071993E+03  0.00000000000E+00 0. -1.
         25    2    1    2    0    0  0.24880221829E+02 -0.59294308269E+02 -0.37068010169E+03  0.39646631268E+03  0.12508780466E+03 0.  0.
          5    1    3    3  502    0  0.21079758518E+02 -0.70102640316E+02 -0.37605658772E+03  0.38313805079E+03  0.41800000000E+01 0.  1.
         -5    1    3    3    0  502  0.38004633109E+01  0.10808332047E+02  0.53764860319E+01  0.13328261892E+02  0.41800000000E+01 0.  1.
        -11    1    1    2    0    0 -0.32241389685E+02  0.27822290723E+02 -0.15239407568E+03  0.15823255472E+03  0.00000000000E+00 0. -1.
         11    1    1    2    0    0  0.73611678560E+01  0.31472017546E+02 -0.26948208161E+01  0.32433574269E+02  0.00000000000E+00 0.  1.
</event>
<event>
 7    1  0.2661133E-009  0.1689457E+03  0.7561462E-02  0.1178952E+00
         -2   -1    0    0    0  501 -0.00000000000E+00  0.00000000000E+00  0.66839974273E+02  0.66839974273E+02  0.00000000000E+00 0.  1.
          2   -1    0    0  501    0  0.00000000000E+00 -0.00000000000E+00 -0.47596631444E+03  0.47596631444E+03  0.00000000000E+00 0. -1.
         25    2    1    2    0    0  0.13297715773E+03 -0.38586510115E+02 -0.17661165898E+03  0.25693852142E+03  0.12511547649E+03 0.  0.
          5    1    3    3  502    0 -0.16703998844E+02 -0.28281404584E+02 -0.53014896063E+02  0.62505303992E+02  0.41800000000E+01 0. -1.
         -5    1    3    3    0  502  0.14968115658E+03 -0.10305105531E+02 -0.12359676292E+03  0.19443321742E+03  0.41800000000E+01 0. -1.
        -11    1    1    2    0    0 -0.64164991793E+02  0.54352816586E+02 -0.17734598942E+03  0.19627270520E+03  0.00000000000E+00 0.  1.
         11    1    1    2    0    0 -0.68812165940E+02 -0.15766306471E+02 -0.55168691766E+02  0.89595062097E+02  0.00000000000E+00 0. -1.
</event>
<event>
 7    1  0.2661133E-009  0.9149094E+02  0.7561462E-02  0.1299281E+00
          2   -1    0    0  501    0  0.00000000000E+00  0.00000000000E+00  0.11844495023E+04  0.11844495023E+04  0.00000000000E+00 0. -1.
         -2   -1    0    0    0  501 -0.00000000000E+00 -0.00000000000E+00 -0.16463557912E+02  0.16463557912E+02  0.00000000000E+00 0.  1.
         25    2    1    2    0    0 -0.45448593690E+02  0.15926560395E+02  0.95905958530E+03  0.96838118439E+03  0.12509036787E+03 0.  0.
          5    1    3    3  502    0 -0.14237011182E+02 -0.33801129064E+02  0.75761034816E+03  0.75850914356E+03  0.41800000000E+01 0.  1.
         -5    1    3    3    0  502 -0.31211582508E+02  0.49727689459E+02  0.20144923714E+03  0.20987204084E+03  0.41800000000E+01 0.  1.
        -11    1    1    2    0    0 -0.13731510862E+02 -0.23828871424E+02  0.18961172006E+02  0.33405022792E+02  0.00000000000E+00 0.  1.
         11    1    1    2    0    0  0.59180104552E+02  0.79023110289E+01  0.18996518710E+03  0.19912685304E+03  0.00000000000E+00 0. -1.
</event>
<event>
 7    1  0.2661133E-009  0.1408715E+03  0.7561462E-02  0.1212161E+00
          1   -1    0    0  501    0  0.00000000000E+00  0.00000000000E+00  0.14156519839E+03  0.14156519839E+03  0.00000000000E+00 0. -1.
         -1   -1    0    0    0  501 -0.00000000000E+00 -0.00000000000E+00 -0.15134279338E+03  0.15134279338E+03  0.00000000000E+00 0.  1.
         25    2    1    2    0    0  0.67071730044E+02 -0.68653076419E+02  0.11143041011E+02  0.15806054133E+03  0.12508839071E+03 0.  0.
          5    1    3    3  502    0  0.98760893675E+02 -0.74518370226E+02  0.26576319034E+00  0.12379113317E+03  0.41800000000E+01 0. -1.
         -5    1    3    3    0  502 -0.31689163631E+02  0.58652938072E+01  0.10877277821E+02  0.34269408163E+02  0.41800000000E+01 0. -1.
        -11    1    1    2    0    0 -0.62155430055E+02  0.58173672691E+01 -0.33091406326E+02  0.70655363703E+02  0.00000000000E+00 0.  1.
         11    1    1    2    0    0 -0.49162999885E+01  0.62835709150E+02  0.12170770325E+02  0.64192086742E+02  0.00000000000E+00 0. -1.
</event>
<event>
 7    1  0.2661133E-009  0.1191013E+03  0.7561462E-02  0.1244587E+00
          1   -1    0    0  501    0  0.00000000000E+00  0.00000000000E+00  0.13533449994E+03  0.13533449994E+03  0.00000000000E+00 0. -1.
         -1   -1    0    0    0  501 -0.00000000000E+00 -0.00000000000E+00 -0.14420468871E+03  0.14420468871E+03  0.00000000000E+00 0.  1.
         25    2    1    2    0    0  0.83437735036E+02  0.10726832413E+02 -0.28861866234E+02  0.15348918856E+03  0.12509597564E+03 0.  0.
          5    1    3    3  502    0  0.35766599833E+02  0.57075227711E+02  0.20550080508E+02  0.70545088353E+02  0.41800000000E+01 0.  1.
         -5    1    3    3    0  502  0.47671135203E+02 -0.46348395298E+02 -0.49411946742E+02  0.82944100207E+02  0.41800000000E+01 0.  1.
        -11    1    1    2    0    0  0.30819471546E+01 -0.17069542859E+02  0.34005216598E+02  0.38173583111E+02  0.00000000000E+00 0. -1.
         11    1    1    2    0    0 -0.86519682191E+02  0.63427104463E+01 -0.14013539133E+02  0.87876416980E+02  0.00000000000E+00 0.  1.
</event>
<event>
 7    1  0.2661133E-009  0.1105992E+03  0.7561462E-02  0.1259464E+00
          2   -1    0    0  501    0  0.00000000000E+00  0.00000000000E+00  0.54003372515E+03  0.54003372515E+03  0.00000000000E+00 0.  1.
         -2   -1    0    0    0  501 -0.00000000000E+00 -0.00000000000E+00 -0.44513722560E+02  0.44513722560E+02  0.00000000000E+00 0. -1.
         25    2    1    2    0    0 -0.40330540580E+02  0.63793488041E+02  0.41819214503E+03  0.44297518463E+03  0.12508470095E+03 0.  0.
          5    1    3    3  502    0 -0.13802331030E+02 -0.14894429671E+02  0.28638936419E+03  0.28713879692E+03  0.41800000000E+01 0.  1.
         -5    1    3    3    0  502 -0.26528209550E+02  0.78687917712E+02  0.13180278084E+03  0.15583638771E+03  0.41800000000E+01 0.  1.
        -11    1    1    2    0    0  0.47297744844E+02  0.55562816306E+01  0.21407417201E+02  0.52213278427E+02  0.00000000000E+00 0.  1.
         11    1    1    2    0    0 -0.69672042643E+01 -0.69349769672E+02  0.55920440357E+02  0.89358984654E+02  0.00000000000E+00 0. -1.
</event>
<event>
 7    1  0.2661133E-009  0.1495014E+03  0.7561462E-02  0.1201087E+00
          3   -1    0    0  501    0  0.00000000000E+00  0.00000000000E+00  0.10932991708E+03  0.10932991708E+03  0.00000000000E+00 0. -1.
         -3   -1    0    0    0  501 -0.00000000000E+00 -0.00000000000E+00 -0.26284254682E+03  0.26284254682E+03  0.00000000000E+00 0.  1.
         25    2    1    2    0    0 -0.19501623489E+02  0.12227757473E+03 -0.39718515596E+02  0.18043690038E+03  0.12509115052E+03 0.  0.
          5    1    3    3  502    0  0.35953408443E+02  0.11776162084E+02 -0.42036628258E+02  0.56708694989E+02  0.41800000000E+01 0.  1.
         -5    1    3    3    0  502 -0.55455031932E+02  0.11050141265E+03  0.23181126621E+01  0.12372820540E+03  0.41800000000E+01 0.  1.
        -11    1    1    2    0    0 -0.17565832873E+02 -0.75673535157E+02 -0.10638295103E+03  0.13172841257E+03  0.00000000000E+00 0.  1.
         11    1    1    2    0    0  0.37067456362E+02 -0.46604039576E+02 -0.74111631028E+01  0.60007150945E+02  0.00000000000E+00 0. -1.
</event>
<event>
 7    1  0.2661133E-009  0.1013019E+03  0.7561462E-02  0.1277582E+00
          3   -1    0    0  501    0  0.00000000000E+00  0.00000000000E+00  0.41512139799E+03  0.41512139799E+03  0.00000000000E+00 0. -1.
         -3   -1    0    0    0  501 -0.00000000000E+00 -0.00000000000E+00 -0.57256203386E+02  0.57256203386E+02  0.00000000000E+00 0.  1.
         25    2    1    2    0    0 -0.53508100271E+02  0.80960031849E+02  0.11573649605E+03  0.19611349735E+03  0.12509166149E+03 0.  0.
          5    1    3    3  502    0 -0.12631731263E+02  0.63889909824E+01  0.10977505195E+03  0.11076287406E+03  0.41800000000E+01 0. -1.
         -5    1    3    3    0  502 -0.40876369008E+02  0.74571040867E+02  0.59614440963E+01  0.85350623284E+02  0.41800000000E+01 0. -1.
        -11    1    1    2    0    0  0.32540872851E+02 -0.19903139061E+02  0.16463031235E+02  0.41546055743E+02  0.00000000000E+00 0.  1.
         11    1    1    2    0    0  0.20967227420E+02 -0.61056892787E+02  0.22566566733E+03  0.23471804829E+03  0.00000000000E+00 0. -1.
</event>
<event>
 7    1  0.2661133E-009  0.1573549E+03  0.7561462E-02  0.1191716E+00
         -1   -1    0    0    0  501 -0.00000000000E+00  0.00000000000E+00  0.36818085295E+02  0.36818085295E+02  0.00000000000E+00 0.  1.
          1   -1    0    0  501    0  0.00000000000E+00 -0.00000000000E+00 -0.12925196857E+04  0.12925196857E+04  0.00000000000E+00 0. -1.
         25    2    1    2    0    0 -0.46811944972E+02  0.11521951942E+03 -0.10817395113E+04  0.10960265760E+04  0.12508792592E+03 0.  0.
          5    1    3    3  502    0 -0.76709677257E+02  0.10840989833E+03 -0.66527748264E+03  0.67841630430E+03  0.41800000000E+01 0.  1.
         -5    1    3    3    0  502  0.29897732285E+02  0.68096210937E+01 -0.41646202863E+03  0.41761027169E+03  0.41800000000E+01 0.  1.
        -11    1    1    2    0    0  0.63402817548E+02 -0.11810967224E+03 -0.13216188094E+03  0.18824604836E+03  0.00000000000E+00 0.  1.
         11    1    1    2    0    0 -0.16590872576E+02  0.28901528148E+01 -0.41800208234E+02  0.45065146672E+02  0.00000000000E+00 0. -1.
</event>
<event>
 7    1  0.2661133E-009  0.2393874E+03  0.7561462E-02  0.1120202E+00
         -2   -1    0    0    0  501 -0.00000000000E+00  0.00000000000E+00  0.14750661727E+03  0.14750661727E+03  0.00000000000E+00 0.  1.
          2   -1    0    0  501    0  0.00000000000E+00 -0.00000000000E+00 -0.41550168280E+03  0.41550168280E+03  0.00000000000E+00 0. -1.
         25    2    1    2    0    0 -0.16107638710E+03 -0.13948173907E+03 -0.20803227070E+03  0.32299519647E+03  0.12509082010E+03 0.  0.
          5    1    3    3  502    0 -0.82898491855E+02  0.45634003382E+01 -0.70948754266E+02  0.10928944462E+03  0.41800000000E+01 0. -1.
         -5    1    3    3    0  502 -0.78177895248E+02 -0.14404513941E+03 -0.13708351644E+03  0.21370575185E+03  0.41800000000E+01 0. -1.
        -11    1    1    2    0    0  0.16714075243E+03  0.10655015285E+03 -0.57744782634E+02  0.20645441656E+03  0.00000000000E+00 0. -1.
         11    1    1    2    0    0 -0.60643653272E+01  0.32931586226E+02 -0.22180121959E+01  0.33558687046E+02  0.00000000000E+00 0.  1.
</event>
<event>
 7    1  0.2661133E-009  0.9400751E+02  0.7561462E-02  0.1293427E+00
          3   -1    0    0  501    0  0.00000000000E+00  0.00000000000E+00  0.11264783699E+04  0.11264783699E+04  0.00000000000E+00 0. -1.
         -3   -1    0    0    0  501 -0.00000000000E+00 -0.00000000000E+00 -0.11644409176E+02  0.11644409176E+02  0.00000000000E+00 0.  1.
         25    2    1    2    0    0  0.19867134582E+02 -0.31451755494E+02  0.65483960327E+03  0.66771690687E+03  0.12508815192E+03 0.  0.
          5    1    3    3  502    0  0.30922494370E+02 -0.56686316396E+02  0.61873676864E+03  0.62211108365E+03  0.41800000000E+01 0.  1.
         -5    1    3    3    0  502 -0.11055359788E+02  0.25234560902E+02  0.36102834629E+02  0.45605823227E+02  0.41800000000E+01 0.  1.
        -11    1    1    2    0    0  0.27948940280E+02  0.38009322188E+02  0.28496859061E+03  0.28884762327E+03  0.00000000000E+00 0. -1.
         11    1    1    2    0    0 -0.47816074862E+02 -0.65575666942E+01  0.17502576687E+03  0.18155824896E+03  0.00000000000E+00 0.  1.
</event>
<event>
 7    1  0.2661133E-009  0.9092937E+02  0.7561462E-02  0.1300617E+00
         -3   -1    0    0    0  501 -0.00000000000E+00  0.00000000000E+00  0.37010981695E+03  0.37010981695E+03  0.00000000000E+00 0.  1.
          3   -1    0    0  501    0  0.00000000000E+00 -0.00000000000E+00 -0.36913328262E+02  0.36913328262E+02  0.00000000000E+00 0. -1.
         25    2    1    2    0    0 -0.30667398609E+02  0.20069930584E+02  0.14539137971E+03  0.19526207334E+03  0.12508130372E+03 0.  0.
          5    1    3    3  502    0 -0.89995147262E+00  0.53986306756E+02  0.13515756683E+02  0.55816478826E+02  0.41800000000E+01 0.  1.
         -5    1    3    3    0  502 -0.29767447136E+02 -0.33916376172E+02  0.13187562303E+03  0.13944559452E+03  0.41800000000E+01 0.  1.
        -11    1    1    2    0    0  0.23686402353E+02  0.26355983516E+02  0.14131329161E+03  0.14568846869E+03  0.00000000000E+00 0.  1.
         11    1    1    2    0    0  0.69809962554E+01 -0.46425914099E+02  0.46491817371E+02  0.66072603181E+02  0.00000000000E+00 0. -1.
</event>
<event>
 7    1  0.2661133E-009  0.2116457E+03  0.7561462E-02  0.1140269E+00
          2   -1    0    0  501    0  0.00000000000E+00  0.00000000000E+00  0.71318913742E+03  0.71318913742E+03  0.00000000000E+00 0. -1.
         -2   -1    0    0    0  501 -0.00000000000E+00 -0.00000000000E+00 -0.70058571306E+02  0.70058571306E+02  0.00000000000E+00 0.  1.
         25    2    1    2    0    0  0.18523360484E+03 -0.59597422986E+02  0.30874193549E+03  0.38578856473E+03  0.12509153752E+03 0.  0.
          5    1    3    3  502    0 -0.44196701976E+01  0.72325553296E+01  0.82630617671E+02  0.83169313559E+02  0.41800000000E+01 0. -1.
         -5    1    3    3    0  502  0.18965327504E+03 -0.66829978316E+02  0.22611131782E+03  0.30261925118E+03  0.41800000000E+01 0. -1.
        -11    1    1    2    0    0 -0.11256115777E+03  0.78973954153E+02  0.18847068808E+03  0.23329830676E+03  0.00000000000E+00 0. -1.
         11    1    1    2    0    0 -0.72672447076E+02 -0.19376531167E+02  0.14591794254E+03  0.16416083723E+03  0.00000000000E+00 0.  1.
</event>
<event>
 7    1  0.2661133E-009  0.1152634E+03  0.7561462E-02  0.1251122E+00
         -1   -1    0    0    0  501 -0.00000000000E+00  0.00000000000E+00  0.19337426086E+03  0.19337426086E+03  0.00000000000E+00 0.  1.
          1   -1    0    0  501    0  0.00000000000E+00 -0.00000000000E+00 -0.11201997556E+03  0.11201997556E+03  0.00000000000E+00 0. -1.
         25    2    1    2    0    0 -0.10848553502E+02 -0.98675786477E+02  0.32689907833E+02  0.16299906858E+03  0.12508183055E+03 0.  0.
          5    1    3    3  502    0  0.31764174718E+02 -0.23265229276E+02 -0.35112590896E+02  0.52920696596E+02  0.41800000000E+01 0.  1.
         -5    1    3    3    0  502 -0.42612728220E+02 -0.75410557201E+02  0.67802498730E+02  0.11007837198E+03  0.41800000000E+01 0.  1.
        -11    1    1    2    0    0 -0.11024474110E+02  0.24200381817E+02  0.58396401495E+02  0.64166480479E+02  0.00000000000E+00 0.  1.
         11    1    1    2    0    0  0.21873027613E+02  0.74475404660E+02 -0.97320240260E+01  0.78228687371E+02  0.00000000000E+00 0. -1.
</event>
<event>
 7    1  0.2661133E-009  0.1981142E+03  0.7561462E-02  0.1151340E+00
         -1   -1    0    0    0  501 -0.00000000000E+00  0.00000000000E+00  0.16024540559E+03  0.16024540559E+03  0.00000000000E+00 0.  1.
          1   -1    0    0  501    0  0.00000000000E+00 -0.00000000000E+00 -0.47519166831E+03  0.47519166831E+03  0.00000000000E+00 0. -1.
         25    2    1    2    0    0 -0.94492776004E+02  0.17262164211E+03  0.22268142180E+02  0.23424315544E+03  0.12508744810E+03 0.  0.
          5    1    3    3  502    0 -0.61818280039E+02  0.10233282395E+03  0.74271199679E+02  0.14080905549E+03  0.41800000000E+01 0.  1.
         -5    1    3    3    0  502 -0.32674495964E+02  0.70288818160E+02 -0.52003057500E+02  0.93434099954E+02  0.41800000000E+01 0.  1.
        -11    1    1    2    0    0  0.63742000088E+02 -0.14164685525E+03 -0.31717434435E+03  0.35316630486E+03  0.00000000000E+00 0. -1.
         11    1    1    2    0    0  0.30750775916E+02 -0.30974786866E+02 -0.20040060555E+02  0.48027613598E+02  0.00000000000E+00 0.  1.
</event>
<event>
 7    1  0.2661133E-009  0.1328708E+03  0.7561462E-02  0.1223257E+00
         -1   -1    0    0    0  501 -0.00000000000E+00  0.00000000000E+00  0.56869277311E+03  0.56869277311E+03  0.00000000000E+00 0.  1.
          1   -1    0    0  501    0  0.00000000000E+00 -0.00000000000E+00 -0.44920631158E+02  0.44920631158E+02  0.00000000000E+00 0. -1.
         25    2    1    2    0    0  0.92941318173E+02 -0.94352266345E+01  0.41720400072E+03  0.44546023736E+03  0.12509409551E+03 0.  0.
          5    1    3    3  502    0  0.95339874610E+02  0.28486264510E+02  0.37720992438E+03  0.39013582046E+03  0.41800000000E+01 0. -1.
         -5    1    3    3    0  502 -0.23985564372E+01 -0.37921491144E+02  0.39994076342E+02  0.55324416907E+02  0.41800000000E+01 0. -1.
        -11    1    1    2    0    0 -0.10827012156E+03 -0.28051909711E+01  0.77881952350E+02  0.13340122496E+03  0.00000000000E+00 0. -1.
         11    1    1    2    0    0  0.15328803384E+02  0.12240417606E+02  0.28686188884E+02  0.34751941946E+02  0.00000000000E+00 0.  1.
</event>
<event>
 7    1  0.2661133E-009  0.1085474E+03  0.7561462E-02  0.1263284E+00
          1   -1    0    0  501    0  0.00000000000E+00  0.00000000000E+00  0.39362971821E+03  0.39362971821E+03  0.00000000000E+00 0. -1.
         -1   -1    0    0    0  501 -0.00000000000E+00 -0.00000000000E+00 -0.32720711398E+02  0.32720711398E+02  0.00000000000E+00 0.  1.
         25    2    1    2    0    0  0.26951529970E+02 -0.11168837521E+02  0.17307315506E+03  0.21552150678E+03  0.12507627666E+03 0.  0.
          5    1    3    3  502    0 -0.21198745499E+02  0.47420444605E+02  0.62475257726E+02  0.81355489091E+02  0.41800000000E+01 0.  1.
         -5    1    3    3    0  502  0.48150275470E+02 -0.58589282126E+02  0.11059789733E+03  0.13416601769E+03  0.41800000000E+01 0.  1.
        -11    1    1    2    0    0 -0.34098817298E+02  0.43867559335E+02  0.76347804197E+02  0.94424993030E+02  0.00000000000E+00 0.  1.
         11    1    1    2    0    0  0.71472873275E+01 -0.32698721814E+02  0.11148804756E+03  0.11640392980E+03  0.00000000000E+00 0. -1.
</event>
<event>
 6    1  0.2661133E-009  0.1915606E+03  0.7561462E-02  0.1157061E+00
          1   -1    0    0  501    0  0.00000000000E+00  0.00000000000E+00  0.61530493270E+03  0.61530493270E+03  0.00000000000E+00 0. -1.
         -1   -1    0    0    0  501 -0.00000000000E+00 -0.00000000000E+00 -0.69767631364E+02  0.69767631364E+02  0.00000000000E+00 0.  1.
          5    1    1    2  502    0 -0.18766545466E+02  0.13356051152E+02  0.45547104452E+02  0.51211116518E+02  0.41800000000E+01 0. -1.
         -5    1    1    2    0  502  0.18336814835E+03  0.21055116566E+01  0.33826303624E+03  0.38479561470E+03  0.41800000000E+01 0. -1.
        -11    1    1    2    0    0 -0.38757626947E+02  0.22528918477E+02  0.86964697975E+02  0.97839483380E+02  0.00000000000E+00 0. -1.
         11    1    1    2    0    0 -0.12584397594E+03 -0.37990481286E+02  0.74762462672E+02  0.15122634947E+03  0.00000000000E+00 0.  1.
</event>
<event>
 7    1  0.2661133E-009  0.1157423E+03  0.7561462E-02  0.1250291E+00
          2   -1    0    0  501    0  0.00000000000E+00  0.00000000000E+00  0.50227124312E+03  0.50227124312E+03  0.00000000000E+00 0.  1.
         -2   -1    0    0    0  501 -0.00000000000E+00 -0.00000000000E+00 -0.70455032392E+02  0.70455032392E+02  0.00000000000E+00 0. -1.
         25    2    1    2    0    0 -0.23153724410E+02  0.92414041430E+02  0.40804311113E+03  0.43729076796E+03  0.12509030815E+03 0.  0.
          5    1    3    3  502    0 -0.46262620499E+02  0.76668505609E+02  0.13056617914E+03  0.15837704803E+03  0.41800000000E+01 0.  1.
         -5    1    3    3    0  502  0.23108896089E+02  0.15745535821E+02  0.27747693199E+03  0.27891371993E+03  0.41800000000E+01 0.  1.
        -11    1    1    2    0    0  0.35920456516E+02 -0.22252468174E+02 -0.24946047586E+02  0.49068898768E+02  0.00000000000E+00 0. -1.
         11    1    1    2    0    0 -0.12766732105E+02 -0.70161573256E+02  0.48719147178E+02  0.86366608780E+02  0.00000000000E+00 0.  1.
</event>
<event>
 7    1  0.2661133E-009  0.1565673E+03  0.7561462E-02  0.1192628E+00
         -2   -1    0    0    0  501 -0.00000000000E+00  0.00000000000E+00  0.13665529941E+03  0.13665529941E+03  0.00000000000E+00 0.  1.
          2   -1    0    0  501    0  0.00000000000E+00 -0.00000000000E+00 -0.24600855854E+03  0.24600855854E+03  0.00000000000E+00 0. -1.
         25    2    1    2    0    0 -0.69489165483E+02  0.96690351569E+02 -0.13686809007E+03  0.22035886702E+03  0.12508951991E+03 0.  0.
          5    1    3    3  502    0 -0.10143970363E+03  0.64798039618E+02 -0.12480795978E+03  0.17344537651E+03  0.41800000000E+01 0. -1.
         -5    1    3    3    0  502  0.31950538144E+02  0.31892311951E+02 -0.12060130289E+02  0.46913490511E+02  0.41800000000E+01 0. -1.
        -11    1    1    2    0    0  0.59895097150E+02 -0.10714048072E+02 -0.19437167344E+02  0.63875010474E+02  0.00000000000E+00 0. -1.
         11    1    1    2    0    0  0.95940683329E+01 -0.85976303497E+02  0.46951998282E+02  0.98429980457E+02  0.00000000000E+00 0.  1.
</event>
<event>
 7    1  0.2661133E-009  0.1250030E+03  0.7561462E-02  0.1235065E+00
         -2   -1    0    0    0  501 -0.00000000000E+00  0.00000000000E+00  0.18405881545E+03  0.18405881545E+03  0.00000000000E+00 0.  1.
          2   -1    0    0  501    0  0.00000000000E+00 -0.00000000000E+00 -0.11155150289E+03  0.11155150289E+03  0.00000000000E+00 0. -1.
         25    2    1    2    0    0  0.87192529856E+02 -0.25906866957E+02  0.30328143011E+02  0.15760887513E+03  0.12508820185E+03 0.  0.
          5    1    3    3  502    0 -0.13563948172E+02 -0.41103934221E+02  0.34549592833E+02  0.55539723292E+02  0.41800000000E+01 0.  1.
         -5    1    3    3    0  502  0.10075647803E+03  0.15197067263E+02 -0.42214498214E+01  0.10206915184E+03  0.41800000000E+01 0.  1.
        -11    1    1    2    0    0 -0.51967424048E+02 -0.11428291400E+02 -0.20469081581E+02  0.57010545580E+02  0.00000000000E+00 0. -1.
         11    1    1    2    0    0 -0.35225105808E+02  0.37335158357E+02  0.62648251137E+02  0.80990897633E+02  0.00000000000E+00 0.  1.
</event>
<event>
 7    1  0.2661133E-009  0.1185954E+03  0.7561462E-02  0.1245432E+00
          1   -1    0    0  501    0  0.00000000000E+00  0.00000000000E+00  0.50752715947E+03  0.50752715947E+03  0.00000000000E+00 0. -1.
         -1   -1    0    0    0  501 -0.00000000000E+00 -0.00000000000E+00 -0.30884608316E+02  0.30884608316E+02  0.00000000000E+00 0.  1.
         25    2    1    2    0    0 -0.46052123151E+01  0.43738035325E+02  0.18172064571E+03  0.22495301866E+03  0.12508894360E+03 0.  0.
          5    1    3    3  502    0  0.10477605525E+02 -0.42888792956E+02  0.54886153282E+02  0.70563382861E+02  0.41800000000E+01 0.  1.
         -5    1    3    3    0  502 -0.15082817840E+02  0.86626828281E+02  0.12683449242E+03  0.15438963579E+03  0.41800000000E+01 0.  1.
        -11    1    1    2    0    0 -0.27754936517E+02 -0.61805587552E+02  0.21364450393E+03  0.22412996500E+03  0.00000000000E+00 0. -1.
         11    1    1    2    0    0  0.32360148832E+02  0.18067552227E+02  0.81277401520E+02  0.89328784127E+02  0.00000000000E+00 0.  1.
</event>
<event>
 7    1  0.2661133E-009  0.6952821E+02  0.7561462E-02  0.1361705E+00
          1   -1    0    0  501    0  0.00000000000E+00  0.00000000000E+00  0.43814635847E+03  0.43814635847E+03  0.00000000000E+00 0. -1.
         -1   -1    0    0    0  501 -0.00000000000E+00 -0.00000000000E+00 -0.33872706305E+02  0.33872706305E+02  0.00000000000E+00 0.  1.
         25    2    1    2    0    0  0.45070587228E+02 -0.15134898613E+01  0.29772621502E+03  0.32607035493E+03  0.12508928319E+03 0.  0.
          5    1    3    3  502    0  0.10208803254E+01 -0.17360237569E+02 -0.58957607989E+01  0.18832218151E+02  0.41800000000E+01 0.  1.
         -5    1    3    3    0  502  0.44049706903E+02  0.15846747708E+02  0.30362197582E+03  0.30723813678E+03  0.41800000000E+01 0.  1.
        -11    1    1    2    0    0 -0.36612689066E+02  0.28176025368E+02  0.10848219656E+03  0.11790998421E+03  0.00000000000E+00 0. -1.
         11    1    1    2    0    0 -0.84578981621E+01 -0.26662535507E+02 -0.19347594184E+01  0.28038725631E+02  0.00000000000E+00 0.  1.
</event>
<event>
 7    1  0.2661133E-009  0.1018903E+03  0.7561462E-02  0.1276370E+00
         -2   -1    0    0    0  501 -0.00000000000E+00  0.00000000000E+00  0.28175884216E+03  0.28175884216E+03  0.00000000000E+00 0.  1.
          2   -1    0    0  501    0  0.00000000000E+00 -0.00000000000E+00 -0.60097622791E+02  0.60097622791E+02  0.00000000000E+00 0. -1.
         25    2    1    2    0    0  0.20828982487E+02  0.58372284335E+02  0.76983578753E+02  0.15942098130E+03  0.12508959905E+03 0.  0.
          5    1    3    3  502    0  0.10673748297E+02 -0.25265009038E+02 -0.17467337436E+02  0.32784597931E+02  0.41800000000E+01 0. -1.
         -5    1    3    3    0  502  0.10155234190E+02  0.83637293373E+02  0.94450916189E+02  0.12663638337E+03  0.41800000000E+01 0. -1.
        -11    1    1    2    0    0  0.38699964234E+01 -0.65781472494E+02  0.45794333291E+02  0.80245248815E+02  0.00000000000E+00 0. -1.
         11    1    1    2    0    0 -0.24698978910E+02  0.74091881589E+01  0.98883307324E+02  0.10219023484E+03  0.00000000000E+00 0.  1.
</event>
<event>
 7    1  0.2661133E-009  0.1232060E+03  0.7561462E-02  0.1237900E+00
         -2   -1    0    0    0  501 -0.00000000000E+00  0.00000000000E+00  0.22921749518E+02  0.22921749518E+02  0.00000000000E+00 0.  1.
          2   -1    0    0  501    0  0.00000000000E+00 -0.00000000000E+00 -0.11486422197E+04  0.11486422197E+04  0.00000000000E+00 0. -1.
         25    2    1    2    0    0  0.80636202239E+02 -0.15583401770E+01 -0.93050606997E+03  0.94233388051E+03  0.12508785135E+03 0.  0.
          5    1    3    3  502    0  0.41348176502E+02 -0.52150533303E+02 -0.69643741087E+03  0.69962267651E+03  0.41800000000E+01 0. -1.
         -5    1    3    3    0  502  0.39288025736E+02  0.50592193126E+02 -0.23406865910E+03  0.24271120400E+03  0.41800000000E+01 0. -1.
        -11    1    1    2    0    0 -0.34755162806E+02  0.41902078607E+02 -0.60974787577E+02  0.81741239612E+02  0.00000000000E+00 0.  1.
         11    1    1    2    0    0 -0.45881039433E+02 -0.40343738430E+02 -0.13423961264E+03  0.14748884911E+03  0.00000000000E+00 0. -1.
</event>
<event>
 7    1  0.2661133E-009  0.1035263E+03  0.7561462E-02  0.1273051E+00
          3   -1    0    0  501    0  0.00000000000E+00  0.00000000000E+00  0.20341390926E+03  0.20341390926E+03  0.00000000000E+00 0. -1.
         -3   -1    0    0    0  501 -0.00000000000E+00 -0.00000000000E+00 -0.79126582563E+02  0.79126582563E+02  0.00000000000E+00 0.  1.
         25    2    1    2    0    0 -0.29504641804E+02 -0.40609574992E+02  0.44598367737E+02  0.14197221879E+03  0.12508970794E+03 0.  0.
          5    1    3    3  502    0  0.68399422007E+01 -0.52366315441E+02  0.75796807038E+02  0.92475100213E+02  0.41800000000E+01 0.  1.
         -5    1    3    3    0  502 -0.36344584004E+02  0.11756740449E+02 -0.31198439301E+02  0.49497118575E+02  0.41800000000E+01 0.  1.
        -11    1    1    2    0    0  0.55426121540E+02 -0.12261235171E+02  0.42671791127E+02  0.71016016468E+02  0.00000000000E+00 0.  1.
         11    1    1    2    0    0 -0.25921479737E+02  0.52870810164E+02  0.37017167829E+02  0.69552256564E+02  0.00000000000E+00 0. -1.
</event>
<event>
 7    1  0.2661133E-009  0.9867153E+02  0.7561462E-02  0.1283115E+00
          2   -1    0    0  501    0  0.00000000000E+00  0.00000000000E+00  0.85838629383E+02  0.85838629383E+02  0.00000000000E+00 0. -1.
         -2   -1    0    0    0  501 -0.00000000000E+00 -0.00000000000E+00 -0.18047535930E+03  0.18047535930E+03  0.00000000000E+00 0.  1.
         25    2    1    2    0    0 -0.57383388863E+02 -0.71315212007E+01 -0.65601353863E+02  0.15262883469E+03  0.12509321180E+03 0.  0.
          5    1    3    3  502    0 -0.76952020697E+02 -0.44023239264E+02 -0.66089517468E+02  0.11065692840E+03  0.41800000000E+01 0.  1.
         -5    1    3    3    0  502  0.19568631833E+02  0.36891718063E+02  0.48816360533E+00  0.41971906285E+02  0.41800000000E+01 0.  1.
        -11    1    1    2    0    0  0.17090515975E+02  0.18067629971E+02 -0.57841309272E+02  0.62961433016E+02  0.00000000000E+00 0.  1.
         11    1    1    2    0    0  0.40292872888E+02 -0.10936108770E+02  0.28805933223E+02  0.50723720974E+02  0.00000000000E+00 0. -1.
</event>
<event>
 7    1  0.3277653E-009  0.1315552E+03  0.7561462E-02  0.1225166E+00
          1   -1    0    0  501    0  0.00000000000E+00  0.00000000000E+00  0.60800536519E+03  0.60800536519E+03  0.00000000000E+00 0. -1.
         -1   -1    0    0    0  501 -0.00000000000E+00 -0.00000000000E+00 -0.37010546416E+02  0.37010546416E+02  0.00000000000E+00 0.  1.
         25    2    1    2    0    0  0.14059321561E+02 -0.92394954160E+02  0.21607227675E+03  0.26659259882E+03  0.12509953193E+03 0.  0.
          5    1    3    3  502    0  0.50084159883E+02 -0.97285215735E+02  0.19685144217E+03  0.22525718402E+03  0.41800000000E+01 0.  1.
         -5    1    3    3    0  502 -0.36024838321E+02  0.48902615755E+01  0.19220834583E+02  0.41335414797E+02  0.41800000000E+01 0.  1.
        -11    1    1    2    0    0  0.24449479558E+02  0.65854296295E+02  0.12135924909E+03  0.14022350991E+03  0.00000000000E+00 0.  1.
         11    1    1    2    0    0 -0.38508801119E+02  0.26540657865E+02  0.23356329294E+03  0.23819980288E+03  0.00000000000E+00 0. -1.
</event>
<event>
 7    1  0.2661133E-009  0.6716430E+02  0.7561462E-02  0.1370010E+00
          1   -1    0    0  501    0  0.00000000000E+00  0.00000000000E+00  0.86255796683E+02  0.86255796683E+02  0.00000000000E+00 0. -1.
         -1   -1    0    0    0  501 -0.00000000000E+00 -0.00000000000E+00 -0.16646784964E+03  0.16646784964E+03  0.00000000000E+00 0.  1.
         25    2    1    2    0    0  0.44345174228E+02  0.24025746710E+02 -0.59088560445E+02  0.14725231988E+03  0.12509219302E+03 0.  0.
          5    1    3    3  502    0  0.25936288994E+01 -0.39768792953E+01  0.37635587471E+02  0.38163494652E+02  0.41800000000E+01 0.  1.
         -5    1    3    3    0  502  0.41751545329E+02  0.28002626005E+02 -0.96724147915E+02  0.10908882523E+03  0.41800000000E+01 0.  1.
        -11    1    1    2    0    0 -0.47251111829E+02 -0.39638663202E+02  0.17165170840E+02  0.64019795997E+02  0.00000000000E+00 0. -1.
         11    1    1    2    0    0  0.29059376009E+01  0.15612916492E+02 -0.38288663354E+02  0.41451530444E+02  0.00000000000E+00 0.  1.
</event>
<event>
 7    1  0.2661133E-009  0.1363799E+03  0.7561462E-02  0.1218285E+00
         -2   -1    0    0    0  501 -0.00000000000E+00  0.00000000000E+00  0.18290286046E+03  0.18290286046E+03  0.00000000000E+00 0.  1.
          2   -1    0    0  501    0  0.00000000000E+00 -0.00000000000E+00 -0.13668190665E+03  0.13668190665E+03  0.00000000000E+00 0. -1.
         25    2    1    2    0    0 -0.11548480966E+02 -0.11286813053E+03  0.21856575975E+02  0.17031225006E+03  0.12512381989E+03 0.  0.
          5    1    3    3  502    0 -0.30498227136E+02 -0.38697515781E+02 -0.46291896804E+02  0.67735158491E+02  0.41800000000E+01 0. -1.
         -5    1    3    3    0  502  0.18949746170E+02 -0.74170614753E+02  0.68148472779E+02  0.10257709157E+03  0.41800000000E+01 0. -1.
        -11    1    1    2    0    0  0.19004263528E+02 -0.11394501685E+02 -0.11908311021E+01  0.22190420897E+02  0.00000000000E+00 0. -1.
         11    1    1    2    0    0 -0.74557825618E+01  0.12426263222E+03  0.25555208940E+02  0.12708209616E+03  0.00000000000E+00 0.  1.
</event>
<event>
 7    1  0.2661133E-009  0.1298416E+03  0.7561462E-02  0.1227691E+00
          2   -1    0    0  501    0  0.00000000000E+00  0.00000000000E+00  0.51220317941E+03  0.51220317941E+03  0.00000000000E+00 0.  1.
         -2   -1    0    0    0  501 -0.00000000000E+00 -0.00000000000E+00 -0.35162092991E+02  0.35162092991E+02  0.00000000000E+00 0. -1.
         25    2    1    2    0    0 -0.76552181170E+01  0.77107288011E+02  0.28786681832E+03  0.32329409461E+03  0.12509048841E+03 0.  0.
          5    1    3    3  502    0 -0.56846141787E+02  0.86055895430E+01  0.77295272284E+02  0.96423915731E+02  0.41800000000E+01 0. -1.
         -5    1    3    3    0  502  0.49190923670E+02  0.68501698468E+02  0.21057154604E+03  0.22687017888E+03  0.41800000000E+01 0. -1.
        -11    1    1    2    0    0  0.36840425016E+02 -0.18556613647E+01  0.81902411131E+02  0.89825749891E+02  0.00000000000E+00 0.  1.
         11    1    1    2    0    0 -0.29185206899E+02 -0.75251626646E+02  0.10727185697E+03  0.13424542790E+03  0.00000000000E+00 0. -1.
</event>
<event>
 6    1  0.2661133E-009  0.2765339E+03  0.7561462E-02  0.1097597E+00
         -1   -1    0    0    0  501 -0.00000000000E+00  0.00000000000E+00  0.20453568563E+03  0.20453568563E+03  0.00000000000E+00 0.  1.
          1   -1    0    0  501    0  0.00000000000E+00 -0.00000000000E+00 -0.43868527804E+03  0.43868527804E+03  0.00000000000E+00 0. -1.
          5    1    1    2  502    0 -0.12310643544E+03 -0.79028447466E+02  0.29972745318E+02  0.14938717421E+03  0.41800000000E+01 0. -1.
         -5    1    1    2    0  502 -0.13307106087E+03  0.13857957180E+02 -0.53126864273E+02  0.14401349356E+03  0.41800000000E+01 0. -1.
        -11    1    1    2    0    0  0.13753939858E+03  0.75760837794E-01 -0.14287468129E+03  0.19831859836E+03  0.00000000000E+00 0. -1.
         11    1    1    2    0    0  0.11863809774E+03  0.65094729448E+02 -0.68120792163E+02  0.15150169755E+03  0.00000000000E+00 0.  1.
</event>
<event>
 7    1  0.2661133E-009  0.1366941E+03  0.7561462E-02  0.1217848E+00
         -1   -1    0    0    0  501 -0.00000000000E+00  0.00000000000E+00  0.62030344776E+02  0.62030344776E+02  0.00000000000E+00 0.  1.
          1   -1    0    0  501    0  0.00000000000E+00 -0.00000000000E+00 -0.47852259455E+03  0.47852259455E+03  0.00000000000E+00 0. -1.
         25    2    1    2    0    0 -0.56124720710E+02  0.12236368135E+03 -0.27350840459E+03  0.32951029705E+03  0.12508930288E+03 0.  0.
          5    1    3    3  502    0 -0.59665134984E+01  0.24501518591E+02 -0.18909949908E+03  0.19081932987E+03  0.41800000000E+01 0. -1.
         -5    1    3    3    0  502 -0.50158207211E+02  0.97862162758E+02 -0.84408905505E+02  0.13869096719E+03  0.41800000000E+01 0. -1.
        -11    1    1    2    0    0  0.51528981567E+01 -0.43977049692E+02 -0.52757351819E+01  0.44591104951E+02  0.00000000000E+00 0.  1.
         11    1    1    2    0    0  0.50971822553E+02 -0.78386631658E+02 -0.13770811001E+03  0.16645153733E+03  0.00000000000E+00 0. -1.
</event>
<event>
 7    1  0.2661133E-009  0.8593738E+02  0.7561462E-02  0.1312999E+00
          1   -1    0    0  501    0  0.00000000000E+00  0.00000000000E+00  0.21919749190E+02  0.21919749190E+02  0.00000000000E+00 0. -1.
         -1   -1    0    0    0  501 -0.00000000000E+00 -0.00000000000E+00 -0.63825765937E+03  0.63825765937E+03  0.00000000000E+00 0.  1.
         25    2    1    2    0    0  0.17821394786E+02  0.29887720721E+02 -0.24940829433E+03  0.28118044098E+03  0.12508822945E+03 0.  0.
          5    1    3    3  502    0  0.36562403165E+02 -0.85241209155E+01 -0.23165001961E+03  0.23470976535E+03  0.41800000000E+01 0.  1.
         -5    1    3    3    0  502 -0.18741008379E+02  0.38411841636E+02 -0.17758274719E+02  0.46470675635E+02  0.41800000000E+01 0.  1.
        -11    1    1    2    0    0  0.29972592263E+02 -0.31306413606E+02 -0.22763287925E+03  0.23172219474E+03  0.00000000000E+00 0. -1.
         11    1    1    2    0    0 -0.47793987049E+02  0.14186928853E+01 -0.13929673660E+03  0.14727477284E+03  0.00000000000E+00 0.  1.
</event>
<event>
 7    1  0.2661133E-009  0.1357533E+03  0.7561462E-02  0.1219160E+00
         -2   -1    0    0    0  501 -0.00000000000E+00  0.00000000000E+00  0.49218494996E+02  0.49218494996E+02  0.00000000000E+00 0.  1.
          2   -1    0    0  501    0  0.00000000000E+00 -0.00000000000E+00 -0.56452038651E+03  0.56452038651E+03  0.00000000000E+00 0. -1.
         25    2    1    2    0    0 -0.93434903855E+02  0.34563928284E+02 -0.13158225044E+03  0.20708954672E+03  0.12508974911E+03 0.  0.
          5    1    3    3  502    0 -0.27018169557E+02  0.62782499995E+02 -0.11353494272E+03  0.13258687495E+03  0.41800000000E+01 0. -1.
         -5    1    3    3    0  502 -0.66416734298E+02 -0.28218571711E+02 -0.18047307721E+02  0.74502671765E+02  0.41800000000E+01 0. -1.
        -11    1    1    2    0    0  0.79665512618E+02  0.13453292753E+02 -0.28169544469E+03  0.29305274021E+03  0.00000000000E+00 0.  1.
         11    1    1    2    0    0  0.13769391237E+02 -0.48017221038E+02 -0.10202419639E+03  0.11359659458E+03  0.00000000000E+00 0. -1.
</event>
<event>
 7    1  0.2661133E-009  0.1037708E+03  0.7561462E-02  0.1272561E+00
          1   -1    0    0  501    0  0.00000000000E+00  0.00000000000E+00  0.41992429795E+03  0.41992429795E+03  0.00000000000E+00 0. -1.
         -1   -1    0    0    0  501 -0.00000000000E+00 -0.00000000000E+00 -0.46493779613E+02  0.46493779613E+02  0.00000000000E+00 0.  1.
         25    2    1    2    0    0  0.73115107197E+02 -0.55491830509E+01  0.29216946998E+03  0.32617024838E+03  0.12508964548E+03 0.  0.
          5    1    3    3  502    0  0.92533058565E+02 -0.34625920037E+02  0.26113940352E+03  0.27923570999E+03  0.41800000000E+01 0. -1.
         -5    1    3    3    0  502 -0.19417951368E+02  0.29076736986E+02  0.31030066466E+02  0.46934538391E+02  0.41800000000E+01 0. -1.
        -11    1    1    2    0    0 -0.14016225088E+02  0.26925720560E+01  0.79795430973E+02  0.81061799352E+02  0.00000000000E+00 0. -1.
         11    1    1    2    0    0 -0.59098882108E+02  0.28566109949E+01  0.14656173835E+01  0.59186029831E+02  0.00000000000E+00 0.  1.
</event>
<event>
 7    1  0.2661133E-009  0.1849244E+03  0.7561462E-02  0.1163121E+00
          3   -1    0    0  501    0  0.00000000000E+00  0.00000000000E+00  0.37436227086E+03  0.37436227086E+03  0.00000000000E+00 0. -1.
         -3   -1    0    0    0  501 -0.00000000000E+00 -0.00000000000E+00 -0.16544814034E+03  0.16544814034E+03  0.00000000000E+00 0.  1.
         25    2    1    2    0    0  0.90190221190E+02 -0.12676726353E+03  0.28185343314E+03  0.34539057452E+03  0.12509626731E+03 0.  0.
          5    1    3    3  502    0 -0.22919673202E+02  0.45531680913E+00  0.11767370655E+02  0.26104829921E+02  0.41800000000E+01 0. -1.
         -5    1    3    3    0  502  0.11310989439E+03 -0.12722258034E+03  0.27008606248E+03  0.31928574460E+03  0.41800000000E+01 0. -1.
        -11    1    1    2    0    0 -0.43624193294E+02  0.12186572546E+03 -0.70826202677E+02  0.14754889450E+03  0.00000000000E+00 0.  1.
         11    1    1    2    0    0 -0.46566027896E+02  0.49015380699E+01 -0.21130999380E+01  0.46870942180E+02  0.00000000000E+00 0. -1.
</event>
<event>
 7    1  0.2661133E-009  0.8869978E+02  0.7561462E-02  0.1306031E+00
          1   -1    0    0  501    0  0.00000000000E+00  0.00000000000E+00  0.32813446502E+03  0.32813446502E+03  0.00000000000E+00 0. -1.
         -1   -1    0    0    0  501 -0.00000000000E+00 -0.00000000000E+00 -0.36804670913E+02  0.36804670913E+02  0.00000000000E+00 0.  1.
         25    2    1    2    0    0 -0.10280496028E+02 -0.59238080645E+01  0.14258799578E+03  0.19005448834E+03  0.12509433200E+03 0.  0.
          5    1    3    3  502    0  0.44193378598E+02 -0.16342803993E+02  0.13033961438E+02  0.49066266467E+02  0.41800000000E+01 0.  1.
         -5    1    3    3    0  502 -0.54473874626E+02  0.10418995929E+02  0.12955403434E+03  0.14098822187E+03  0.41800000000E+01 0.  1.
        -11    1    1    2    0    0  0.18833276874E+02 -0.31165951246E+02  0.21985335967E+02  0.42536617549E+02  0.00000000000E+00 0. -1.
         11    1    1    2    0    0 -0.85527808460E+01  0.37089759311E+02  0.12675646237E+03  0.13234803005E+03  0.00000000000E+00 0.  1.
</event>
<event>
 7    1  0.2661133E-009  0.1105558E+03  0.7561462E-02  0.1259544E+00
         -1   -1    0    0    0  501 -0.00000000000E+00  0.00000000000E+00  0.75481090164E+02  0.75481090164E+02  0.00000000000E+00 0.  1.
          1   -1    0    0  501    0  0.00000000000E+00 -0.00000000000E+00 -0.28661241242E+03  0.28661241242E+03  0.00000000000E+00 0. -1.
         25    2    1    2    0    0 -0.62326515383E+02  0.18860418350E+01 -0.20808484071E+03  0.25066939884E+03  0.12509074668E+03 0.  0.
          5    1    3    3  502    0 -0.53741386192E+02 -0.56494482848E+02 -0.14139617771E+03  0.16152434693E+03  0.41800000000E+01 0.  1.
         -5    1    3    3    0  502 -0.85851291911E+01  0.58380524683E+02 -0.66688663007E+02  0.89145051905E+02  0.41800000000E+01 0.  1.
        -11    1    1    2    0    0  0.69056632179E+02 -0.13579115357E+02 -0.33626846440E+02  0.77999843739E+02  0.00000000000E+00 0. -1.
         11    1    1    2    0    0 -0.67301167958E+01  0.11693073522E+02  0.30580364892E+02  0.33424260013E+02  0.00000000000E+00 0.  1.
</event>
<event>
 7    1  0.2661133E-009  0.1752403E+03  0.7561462E-02  0.1172491E+00
          2   -1    0    0  501    0  0.00000000000E+00  0.00000000000E+00  0.32383471773E+02  0.32383471773E+02  0.00000000000E+00 0. -1.
         -2   -1    0    0    0  501 -0.00000000000E+00 -0.00000000000E+00 -0.97076424607E+03  0.97076424607E+03  0.00000000000E+00 0.  1.
         25    2    1    2    0    0 -0.53702690650E+02 -0.12879530278E+03 -0.46683078557E+03  0.50304155625E+03  0.12509043111E+03 0.  0.
          5    1    3    3  502    0  0.34533868472E+02 -0.70593882976E+02 -0.15645406400E+03  0.17513260955E+03  0.41800000000E+01 0. -1.
         -5    1    3    3    0  502 -0.88236559121E+02 -0.58201419800E+02 -0.31037672157E+03  0.32790894670E+03  0.41800000000E+01 0. -1.
        -11    1    1    2    0    0 -0.21348322187E+02  0.61833337383E+02 -0.20650896746E+03  0.21662194283E+03  0.00000000000E+00 0. -1.
         11    1    1    2    0    0  0.75051012837E+02  0.66961965393E+02 -0.26504102126E+03  0.28348421876E+03  0.00000000000E+00 0.  1.
</event>
<event>
 7    1  0.2661133E-009  0.2019757E+03  0.7561462E-02  0.1148083E+00
         -1   -1    0    0    0  501 -0.00000000000E+00  0.00000000000E+00  0.13078536009E+03  0.13078536009E+03  0.00000000000E+00 0.  1.
          1   -1    0    0  501    0  0.00000000000E+00 -0.00000000000E+00 -0.41065874378E+03  0.41065874378E+03  0.00000000000E+00 0. -1.
         25    2    1    2    0    0  0.54146403220E+02 -0.18364326620E+03 -0.22809126102E+03  0.32300172843E+03  0.12509121077E+03 0.  0.
          5    1    3    3  502    0  0.10144887064E+02 -0.11250699822E+03 -0.20822217252E+03  0.23692760268E+03  0.41800000000E+01 0.  1.
         -5    1    3    3    0  502  0.44001516156E+02 -0.71136267978E+02 -0.19869088506E+02  0.86074125752E+02  0.41800000000E+01 0.  1.
        -11    1    1    2    0    0 -0.54340503183E+02  0.51021036142E+02  0.38183990736E+01  0.74636563337E+02  0.00000000000E+00 0.  1.
         11    1    1    2    0    0  0.19409996363E+00  0.13262223005E+03 -0.55600521737E+02  0.14380581211E+03  0.00000000000E+00 0. -1.
</event>
<event>
 7    1  0.2661133E-009  0.1023973E+03  0.7561462E-02  0.1275334E+00
          1   -1    0    0  501    0  0.00000000000E+00  0.00000000000E+00  0.10895304361E+03  0.10895304361E+03  0.00000000000E+00 0. -1.
         -1   -1    0    0    0  501 -0.00000000000E+00 -0.00000000000E+00 -0.14321410241E+03  0.14321410241E+03  0.00000000000E+00 0.  1.
         25    2    1    2    0    0  0.27560503704E+02 -0.38114809635E+02  0.23713968625E+02  0.13572905478E+03  0.12509078273E+03 0.  0.
          5    1    3    3  502    0  0.69125934050E+02 -0.25536452644E+02 -0.17342823653E+02  0.75820519018E+02  0.41800000000E+01 0.  1.
         -5    1    3    3    0  502 -0.41565430346E+02 -0.12578356991E+02  0.41056792279E+02  0.59908535758E+02  0.41800000000E+01 0.  1.
        -11    1    1    2    0    0 -0.39922814333E+02 -0.70411233347E+01  0.17180880233E+01  0.40575366277E+02  0.00000000000E+00 0. -1.
         11    1    1    2    0    0  0.12362310629E+02  0.45155932970E+02 -0.59693115449E+02  0.75862724961E+02  0.00000000000E+00 0.  1.
</event>
<event>
 7    1  0.3976603E-009  0.9714756E+02  0.7561462E-02  0.1286411E+00
         -1   -1    0    0    0  501 -0.00000000000E+00  0.00000000000E+00  0.23959221887E+02  0.23959221887E+02  0.00000000000E+00 0.  1.
          1   -1    0    0  501    0  0.00000000000E+00 -0.00000000000E+00 -0.74570708565E+03  0.74570708565E+03  0.00000000000E+00 0. -1.
         25    2    1    2    0    0  0.69524068177E+02 -0.23826467732E+02 -0.46709510005E+03  0.48910893816E+03  0.12509366201E+03 0.  0.
          5    1    3    3  502    0  0.78332602078E+00 -0.15254297845E+02 -0.36681527717E+03  0.36715695168E+03  0.41800000000E+01 0. -1.
         -5    1    3    3    0  502  0.68740742156E+02 -0.85721698870E+01 -0.10027982287E+03  0.12195198647E+03  0.41800000000E+01 0. -1.
        -11    1    1    2    0    0 -0.43474347825E+02  0.53916520576E+02 -0.10563329065E+03  0.12631469512E+03  0.00000000000E+00 0.  1.
         11    1    1    2    0    0 -0.26049720351E+02 -0.30090052845E+02 -0.14901947306E+03  0.15424267426E+03  0.00000000000E+00 0. -1.
</event>
<event>
 7    1  0.2661133E-009  0.1126338E+03  0.7561462E-02  0.1255769E+00
         -2   -1    0    0    0  501 -0.00000000000E+00  0.00000000000E+00  0.43803014398E+03  0.43803014398E+03  0.00000000000E+00 0.  1.
          2   -1    0    0  501    0  0.00000000000E+00 -0.00000000000E+00 -0.43916470437E+02  0.43916470437E+02  0.00000000000E+00 0. -1.
         25    2    1    2    0    0  0.74429582314E+01  0.63408397808E+02  0.31801494856E+03  0.34764544646E+03  0.12509127227E+03 0.  0.
          5    1    3    3  502    0 -0.46021302128E+02  0.48377236578E+02  0.85555136419E+02  0.10860695667E+03  0.41800000000E+01 0.  1.
         -5    1    3    3    0  502  0.53464260359E+02  0.15031161230E+02  0.23245981214E+03  0.23903848980E+03  0.41800000000E+01 0.  1.
        -11    1    1    2    0    0  0.35054154874E+02 -0.43147510463E+02  0.65741498126E+02  0.86095563236E+02  0.00000000000E+00 0.  1.
         11    1    1    2    0    0 -0.42497113105E+02 -0.20260887345E+02  0.10357226859E+02  0.48205604721E+02  0.00000000000E+00 0. -1.
</event>
<event>
 7    1  0.2661133E-009  0.1449224E+03  0.7561462E-02  0.1206855E+00
         -1   -1    0    0    0  501 -0.00000000000E+00  0.00000000000E+00  0.45655536681E+02  0.45655536681E+02  0.00000000000E+00 0.  1.
          1   -1    0    0  501    0  0.00000000000E+00 -0.00000000000E+00 -0.86262283710E+03  0.86262283710E+03  0.00000000000E+00 0. -1.
         25    2    1    2    0    0 -0.11480907965E+03  0.55417932907E+02 -0.18585027035E+03  0.25776047704E+03  0.12509144047E+03 0.  0.
          5    1    3    3  502    0 -0.99534060342E+02  0.28584502940E+02 -0.44113156644E+02  0.11263900730E+03  0.41800000000E+01 0. -1.
         -5    1    3    3    0  502 -0.15275019307E+02  0.26833429967E+02 -0.14173711371E+03  0.14512146974E+03  0.41800000000E+01 0. -1.
        -11    1    1    2    0    0  0.31743257149E+01 -0.42553305407E+02 -0.12523643058E+03  0.13230655196E+03  0.00000000000E+00 0.  1.
         11    1    1    2    0    0  0.11163475393E+03 -0.12864627500E+02 -0.50588059948E+03  0.51821134478E+03  0.00000000000E+00 0. -1.
</event>
<event>
 7    1  0.2661133E-009  0.7907942E+02  0.7561462E-02  0.1331684E+00
          1   -1    0    0  501    0  0.00000000000E+00  0.00000000000E+00  0.51200999206E+02  0.51200999206E+02  0.00000000000E+00 0. -1.
         -1   -1    0    0    0  501 -0.00000000000E+00 -0.00000000000E+00 -0.28134335028E+03  0.28134335028E+03  0.00000000000E+00 0.  1.
         25    2    1    2    0    0 -0.22408137144E+02  0.43483387420E+02 -0.10156884101E+03  0.16838804950E+03  0.12508147807E+03 0.  0.
          5    1    3    3  502    0 -0.88649630251E+01  0.41980741313E+02 -0.12979528508E+03  0.13676716945E+03  0.41800000000E+01 0. -1.
         -5    1    3    3    0  502 -0.13543174119E+02  0.15026461078E+01  0.28226444065E+02  0.31620880050E+02  0.41800000000E+01 0. -1.
        -11    1    1    2    0    0  0.12536520796E+02  0.26924276560E+02 -0.50301869668E+02  0.58415401343E+02  0.00000000000E+00 0.  1.
         11    1    1    2    0    0  0.98716163482E+01 -0.70407663981E+02 -0.78271640400E+02  0.10574089865E+03  0.00000000000E+00 0. -1.
</event>
<event>
 7    1  0.2661133E-009  0.1624051E+03  0.7561462E-02  0.1186008E+00
         -2   -1    0    0    0  501 -0.00000000000E+00  0.00000000000E+00  0.19547630452E+02  0.19547630452E+02  0.00000000000E+00 0.  1.
          2   -1    0    0  501    0  0.00000000000E+00 -0.00000000000E+00 -0.14020206516E+04  0.14020206516E+04  0.00000000000E+00 0. -1.
         25    2    1    2    0    0 -0.16182827174E+02 -0.12284993178E+03 -0.76056939939E+03  0.78068399343E+03  0.12509075375E+03 0.  0.
          5    1    3    3  502    0  0.31502880822E+02 -0.11762194599E+03 -0.62629796682E+03  0.63803915971E+03  0.41800000000E+01 0.  1.
         -5    1    3    3    0  502 -0.47685707996E+02 -0.52279857844E+01 -0.13427143257E+03  0.14264483372E+03  0.41800000000E+01 0.  1.
        -11    1    1    2    0    0 -0.37860697689E+02  0.67917016686E+02 -0.31176866203E+03  0.32131892601E+03  0.00000000000E+00 0. -1.
         11    1    1    2    0    0  0.54043524863E+02  0.54932915092E+02 -0.31013495976E+03  0.31956536265E+03  0.00000000000E+00 0.  1.
</event>
<event>
 7    1  0.2661133E-009  0.1167256E+03  0.7561462E-02  0.1248599E+00
          2   -1    0    0  501    0  0.00000000000E+00  0.00000000000E+00  0.87816597828E+03  0.87816597828E+03  0.00000000000E+00 0. -1.
         -2   -1    0    0    0  501 -0.00000000000E+00 -0.00000000000E+00 -0.25491663090E+02  0.25491663090E+02  0.00000000000E+00 0.  1.
         25    2    1    2    0    0 -0.89708575600E+02  0.45180130983E+02  0.58148500416E+03  0.60320909237E+03  0.12509007270E+03 0.  0.
          5    1    3    3  502    0 -0.14487572148E+02 -0.25509298418E+02  0.33005393907E+03  0.33138148583E+03  0.41800000000E+01 0. -1.
         -5    1    3    3    0  502 -0.75221003452E+02  0.70689429401E+02  0.25143106508E+03  0.27182760654E+03  0.41800000000E+01 0. -1.
        -11    1    1    2    0    0  0.32974333126E+02 -0.18593889580E+02  0.22607656015E+02  0.44092465176E+02  0.00000000000E+00 0. -1.
         11    1    1    2    0    0  0.56734242474E+02 -0.26586241403E+02  0.24858165502E+03  0.25635608382E+03  0.00000000000E+00 0.  1.
</event>
<event>
 7    1  0.2661133E-009  0.1093675E+03  0.7561462E-02  0.1261746E+00
          2   -1    0    0  501    0  0.00000000000E+00  0.00000000000E+00  0.73754014148E+03  0.73754014148E+03  0.00000000000E+00 0. -1.
         -2   -1    0    0    0  501 -0.00000000000E+00 -0.00000000000E+00 -0.19037432416E+02  0.19037432416E+02  0.00000000000E+00 0.  1.
         25    2    1    2    0    0 -0.10212428671E+02 -0.17977616731E+02  0.53324617275E+03  0.54811107391E+03  0.12508709042E+03 0.  0.
          5    1    3    3  502    0 -0.57291727827E+02  0.21857845039E+02  0.32994296428E+03  0.33561874135E+03  0.41800000000E+01 0.  1.
         -5    1    3    3    0  502  0.47079299156E+02 -0.39835461770E+02  0.20330320846E+03  0.21249233255E+03  0.41800000000E+01 0.  1.
        -11    1    1    2    0    0  0.29137042331E+02 -0.31246528848E+02  0.77451217533E+02  0.88453399585E+02  0.00000000000E+00 0.  1.
         11    1    1    2    0    0 -0.18924613660E+02  0.49224145579E+02  0.10780531879E+03  0.12001310041E+03  0.00000000000E+00 0. -1.
</event>
<event>
 7    1  0.2661133E-009  0.6908839E+02  0.7561462E-02  0.1363221E+00
         -4   -1    0    0    0  501 -0.00000000000E+00  0.00000000000E+00  0.85005245563E+02  0.85005245563E+02  0.00000000000E+00 0.  1.
          4   -1    0    0  501    0  0.00000000000E+00 -0.00000000000E+00 -0.19638965534E+03  0.19638965534E+03  0.00000000000E+00 0. -1.
         25    2    1    2    0    0  0.63175500467E+00  0.94783641085E+01  0.19052157056E+02  0.12688732471E+03  0.12508864850E+03 0.  0.
          5    1    3    3  502    0 -0.10959256444E+02  0.47282251656E+02  0.54867903339E+02  0.73373536376E+02  0.41800000000E+01 0. -1.
         -5    1    3    3    0  502  0.11591011448E+02 -0.37803887548E+02 -0.35815746283E+02  0.53513788335E+02  0.41800000000E+01 0. -1.
        -11    1    1    2    0    0 -0.19897746721E+02 -0.19606226636E+02 -0.12975838481E+03  0.13273116769E+03  0.00000000000E+00 0. -1.
         11    1    1    2    0    0  0.19265991716E+02  0.10127862528E+02 -0.67818201616E+00  0.21776408497E+02  0.00000000000E+00 0.  1.
</event>
<event>
 7    1  0.2661133E-009  0.1071855E+03  0.7561462E-02  0.1265873E+00
         -3   -1    0    0    0  501 -0.00000000000E+00  0.00000000000E+00  0.16935342225E+03  0.16935342225E+03  0.00000000000E+00 0.  1.
          3   -1    0    0  501    0  0.00000000000E+00 -0.00000000000E+00 -0.80332110916E+02  0.80332110916E+02  0.00000000000E+00 0. -1.
         25    2    1    2    0    0  0.31100680592E+02  0.41057901570E+01  0.31767485741E+02  0.13281824265E+03  0.12508957824E+03 0.  0.
          5    1    3    3  502    0  0.79879183367E+01 -0.52606860718E+02  0.45246831630E+02  0.69971685749E+02  0.41800000000E+01 0.  1.
         -5    1    3    3    0  502  0.23112762255E+02  0.56712650875E+02 -0.13479345889E+02  0.62846556898E+02  0.41800000000E+01 0.  1.
        -11    1    1    2    0    0 -0.34452134390E+02 -0.46063293993E+02  0.20744101139E+02  0.61148134473E+02  0.00000000000E+00 0. -1.
         11    1    1    2    0    0  0.33514537981E+01  0.41957503836E+02  0.36509724454E+02  0.55719156046E+02  0.00000000000E+00 0.  1.
</event>
<event>
 7    1  0.2661133E-009  0.2611484E+03  0.7561462E-02  0.1106455E+00
         -2   -1    0    0    0  501 -0.00000000000E+00  0.00000000000E+00  0.16195200910E+03  0.16195200910E+03  0.00000000000E+00 0.  1.
          2   -1    0    0  501    0  0.00000000000E+00 -0.00000000000E+00 -0.65905458189E+03  0.65905458189E+03  0.00000000000E+00 0. -1.
         25    2    1    2    0    0  0.11923174070E+03 -0.21934190467E+03 -0.26726492818E+02  0.28051642443E+03  0.12509228522E+03 0.  0.
          5    1    3    3  502    0  0.98986438724E+02 -0.21266879035E+03  0.13283379919E+02  0.23498989345E+03  0.41800000000E+01 0. -1.
         -5    1    3    3    0  502  0.20245301973E+02 -0.66731143180E+01 -0.40009872738E+02  0.45526530981E+02  0.41800000000E+01 0. -1.
        -11    1    1    2    0    0 -0.24799573928E+02  0.14128048689E+03 -0.24162560203E+03  0.28099488679E+03  0.00000000000E+00 0.  1.
         11    1    1    2    0    0 -0.94432166769E+02  0.78061417777E+02 -0.22875047795E+03  0.25949527978E+03  0.00000000000E+00 0. -1.
</event>
<event>
 7    1  0.2661133E-009  0.1064373E+03  0.7561462E-02  0.1267313E+00
         -1   -1    0    0    0  501 -0.00000000000E+00  0.00000000000E+00  0.22715615843E+03  0.22715615843E+03  0.00000000000E+00 0.  1.
          1   -1    0    0  501    0  0.00000000000E+00 -0.00000000000E+00 -0.10365350879E+03  0.10365350879E+03  0.00000000000E+00 0. -1.
         25    2    1    2    0    0 -0.60587275707E+02 -0.56681493745E+02  0.99432268534E+00  0.15010586457E+03  0.12508865732E+03 0.  0.
          5    1    3    3  502    0  0.19267411757E+02 -0.32340324902E+02  0.42376423291E+02  0.56836286134E+02  0.41800000000E+01 0. -1.
         -5    1    3    3    0  502 -0.79854687463E+02 -0.24341168843E+02 -0.41382100606E+02  0.93269578433E+02  0.41800000000E+01 0. -1.
        -11    1    1    2    0    0  0.14274848168E+02  0.39524794337E+02 -0.65383159665E+01  0.42529169205E+02  0.00000000000E+00 0. -1.
         11    1    1    2    0    0  0.46312427539E+02  0.17156699409E+02  0.12904664292E+03  0.13817463345E+03  0.00000000000E+00 0.  1.
</event>
<event>
 7    1  0.2661133E-009  0.1022924E+03  0.7561462E-02  0.1275548E+00
         -2   -1    0    0    0  501 -0.00000000000E+00  0.00000000000E+00  0.65416585707E+02  0.65416585707E+02  0.00000000000E+00 0.  1.
          2   -1    0    0  501    0  0.00000000000E+00 -0.00000000000E+00 -0.41358654495E+03  0.41358654495E+03  0.00000000000E+00 0. -1.
         25    2    1    2    0    0 -0.69873327774E+02 -0.39971124113E+02 -0.31756603663E+03  0.35068222793E+03  0.12509941914E+03 0.  0.
          5    1    3    3  502    0 -0.34497817371E+02 -0.89031019515E+01 -0.70115137348E+01  0.36551311230E+02  0.41800000000E+01 0. -1.
         -5    1    3    3    0  502 -0.35375510402E+02 -0.31068022162E+02 -0.31055452289E+03  0.31413091670E+03  0.41800000000E+01 0. -1.
        -11    1    1    2    0    0  0.53720533622E+02  0.69467742306E+02 -0.88328758502E+01  0.88259178840E+02  0.00000000000E+00 0. -1.
         11    1    1    2    0    0  0.16152794152E+02 -0.29496618192E+02 -0.21771046765E+02  0.40061723889E+02  0.00000000000E+00 0.  1.
</event>
<event>
 7    1  0.2661133E-009  0.7655824E+02  0.7561462E-02  0.1339112E+00
         -3   -1    0    0    0  501 -0.00000000000E+00  0.00000000000E+00  0.47817141084E+02  0.47817141084E+02  0.00000000000E+00 0.  1.
          3   -1    0    0  501    0  0.00000000000E+00 -0.00000000000E+00 -0.24930050429E+03  0.24930050429E+03  0.00000000000E+00 0. -1.
         25    2    1    2    0    0 -0.12144345479E+02 -0.34023161400E+01 -0.85634213491E+02  0.15211390488E+03  0.12508541344E+03 0.  0.
          5    1    3    3  502    0 -0.22671389307E+01 -0.43971639992E+02  0.12014171534E+02  0.45830751250E+02  0.41800000000E+01 0.  1.
         -5    1    3    3    0  502 -0.98772065481E+01  0.40569323852E+02 -0.97648385025E+02  0.10628315363E+03  0.41800000000E+01 0.  1.
        -11    1    1    2    0    0  0.34482999444E+02 -0.15363353982E+02 -0.16038164944E+02  0.41016248378E+02  0.00000000000E+00 0.  1.
         11    1    1    2    0    0 -0.22338653966E+02  0.18765670122E+02 -0.99810984773E+02  0.10398749212E+03  0.00000000000E+00 0. -1.
</event>
<event>
 7    1  0.2661133E-009  0.1091269E+03  0.7561462E-02  0.1262195E+00
          1   -1    0    0  501    0  0.00000000000E+00  0.00000000000E+00  0.28853339436E+02  0.28853339436E+02  0.00000000000E+00 0. -1.
         -1   -1    0    0    0  501 -0.00000000000E+00 -0.00000000000E+00 -0.48089167450E+03  0.48089167450E+03  0.00000000000E+00 0.  1.
         25    2    1    2    0    0  0.10506300366E+02 -0.38560799578E+02 -0.20178680723E+03  0.24075303654E+03  0.12508713531E+03 0.  0.
          5    1    3    3  502    0  0.25569656628E+02  0.36306249455E+02 -0.12350076135E+03  0.13130826913E+03  0.41800000000E+01 0. -1.
         -5    1    3    3    0  502 -0.15063356263E+02 -0.74867049033E+02 -0.78286045880E+02  0.10944476740E+03  0.41800000000E+01 0. -1.
        -11    1    1    2    0    0  0.97155556275E+01 -0.26929149905E+02 -0.54058776900E+02  0.61171255469E+02  0.00000000000E+00 0. -1.
         11    1    1    2    0    0 -0.20221855993E+02  0.65489949483E+02 -0.19619275094E+03  0.20782072193E+03  0.00000000000E+00 0.  1.
</event>
<event>
 7    1  0.2661133E-009  0.1093565E+03  0.7561462E-02  0.1261766E+00
         -1   -1    0    0    0  501 -0.00000000000E+00  0.00000000000E+00  0.22800853845E+02  0.22800853845E+02  0.00000000000E+00 0.  1.
          1   -1    0    0  501    0  0.00000000000E+00 -0.00000000000E+00 -0.58931187308E+03  0.58931187308E+03  0.00000000000E+00 0. -1.
         25    2    1    2    0    0  0.21242170591E+02  0.14976625594E+02 -0.27854190858E+03  0.30644557643E+03  0.12509103625E+03 0.  0.
          5    1    3    3  502    0 -0.17679679355E+00 -0.51834148014E+02 -0.16411475989E+03  0.17215672212E+03  0.41800000000E+01 0. -1.
         -5    1    3    3    0  502  0.21418967385E+02  0.66810773607E+02 -0.11442714869E+03  0.13428885431E+03  0.41800000000E+01 0. -1.
        -11    1    1    2    0    0 -0.88175545348E+01 -0.54390081899E+02 -0.21354775356E+03  0.22054177229E+03  0.00000000000E+00 0. -1.
         11    1    1    2    0    0 -0.12424616056E+02  0.39413456305E+02 -0.74421357095E+02  0.85125378201E+02  0.00000000000E+00 0.  1.
</event>
<event>
 7    1  0.2661133E-009  0.1061166E+03  0.7561462E-02  0.1267935E+00
          2   -1    0    0  501    0  0.00000000000E+00  0.00000000000E+00  0.25251910065E+03  0.25251910065E+03  0.00000000000E+00 0. -1.
         -2   -1    0    0    0  501 -0.00000000000E+00 -0.00000000000E+00 -0.73808106365E+02  0.73808106365E+02  0.00000000000E+00 0.  1.
         25    2    1    2    0    0 -0.28209753684E+01  0.80017360918E+02  0.68428776549E+02  0.16352017981E+03  0.12508243600E+03 0.  0.
          5    1    3    3  502    0 -0.37034107913E+02  0.56268481369E+01  0.72199615903E+02  0.81445954506E+02  0.41800000000E+01 0.  1.
         -5    1    3    3    0  502  0.34213132545E+02  0.74390512781E+02 -0.37708393538E+01  0.82074225307E+02  0.41800000000E+01 0.  1.
        -11    1    1    2    0    0  0.22502270974E+02 -0.61669869470E+02  0.11781115648E+03  0.13486657700E+03  0.00000000000E+00 0. -1.
         11    1    1    2    0    0 -0.19681295605E+02 -0.18347491448E+02 -0.75289387439E+01  0.27940450207E+02  0.00000000000E+00 0.  1.
</event>
<event>
 7    1  0.2661133E-009  0.1336353E+03  0.7561462E-02  0.1222159E+00
         -2   -1    0    0    0  501 -0.00000000000E+00  0.00000000000E+00  0.21888927676E+02  0.21888927676E+02  0.00000000000E+00 0.  1.
          2   -1    0    0  501    0  0.00000000000E+00 -0.00000000000E+00 -0.15034608438E+04  0.15034608438E+04  0.00000000000E+00 0. -1.
         25    2    1    2    0    0 -0.47792572828E+02  0.79558229997E+02 -0.12319585666E+04  0.12417623277E+04  0.12505249560E+03 0.  0.
          5    1    3    3  502    0  0.33205986148E+02  0.28826094340E+01 -0.13404043062E+03  0.13818558679E+03  0.41800000000E+01 0.  1.
         -5    1    3    3    0  502 -0.80998558977E+02  0.76675620563E+02 -0.10979181360E+04  0.11035767409E+04  0.41800000000E+01 0.  1.
        -11    1    1    2    0    0  0.45639090824E+02 -0.32794867716E+01 -0.15728715351E+03  0.16380760149E+03  0.00000000000E+00 0. -1.
         11    1    1    2    0    0  0.21534820043E+01 -0.76278743225E+02 -0.92326196001E+02  0.11977984230E+03  0.00000000000E+00 0.  1.
</event>
<event>
 6    1  0.2661133E-009  0.8495257E+02  0.7561462E-02  0.1315557E+00
         -2   -1    0    0    0  501 -0.00000000000E+00  0.00000000000E+00  0.13659788204E+02  0.13659788204E+02  0.00000000000E+00 0.  1.
          2   -1    0    0  501    0  0.00000000000E+00 -0.00000000000E+00 -0.64924777616E+03  0.64924777616E+03  0.00000000000E+00 0. -1.
          5    1    1    2  502    0 -0.59096434671E+02  0.48152656965E+00 -0.18305990594E+03  0.19240847700E+03  0.41800000000E+01 0. -1.
         -5    1    1    2    0  502  0.62668764354E+02 -0.63340589834E+01 -0.30732761126E+03  0.31374388818E+03  0.41800000000E+01 0. -1.
        -11    1    1    2    0    0  0.21307962028E+02 -0.21024352683E+01 -0.21559913945E+02  0.30385512488E+02  0.00000000000E+00 0.  1.
         11    1    1    2    0    0 -0.24880291711E+02  0.79549676821E+01 -0.12364055681E+03  0.12636968670E+03  0.00000000000E+00 0. -1.
</event>
<event>
 7    1  0.2661133E-009  0.1122607E+03  0.7561462E-02  0.1256440E+00
          2   -1    0    0  501    0  0.00000000000E+00  0.00000000000E+00  0.12506234064E+03  0.12506234064E+03  0.00000000000E+00 0. -1.
         -2   -1    0    0    0  501 -0.00000000000E+00 -0.00000000000E+00 -0.11709586433E+03  0.11709586433E+03  0.00000000000E+00 0.  1.
         25    2    1    2    0    0  0.97328114528E+01 -0.42334160836E+02  0.39805550341E+02  0.13826950796E+03  0.12508823366E+03 0.  0.
          5    1    3    3  502    0 -0.37202035439E+02 -0.68628769059E+02  0.19117338687E+02  0.80478844561E+02  0.41800000000E+01 0.  1.
         -5    1    3    3    0  502  0.46934846892E+02  0.26294608223E+02  0.20688211655E+02  0.57790663397E+02  0.41800000000E+01 0.  1.
        -11    1    1    2    0    0  0.14628162659E+02  0.60342933303E+02 -0.31581064114E+01  0.62170944810E+02  0.00000000000E+00 0. -1.
         11    1    1    2    0    0 -0.24360974112E+02 -0.18008772468E+02 -0.28680967619E+02  0.41717752205E+02  0.00000000000E+00 0.  1.
</event>
<event>
 7    1  0.2661133E-009  0.9352602E+02  0.7561462E-02  0.1294531E+00
          2   -1    0    0  501    0  0.00000000000E+00  0.00000000000E+00  0.17997172833E+03  0.17997172833E+03  0.00000000000E+00 0. -1.
         -2   -1    0    0    0  501 -0.00000000000E+00 -0.00000000000E+00 -0.53889483215E+02  0.53889483215E+02  0.00000000000E+00 0.  1.
         25    2    1    2    0    0 -0.32876244171E+01  0.98219556203E+01  0.74116598525E+02  0.14576843266E+03  0.12509151249E+03 0.  0.
          5    1    3    3  502    0 -0.41382056683E+02 -0.37395315351E+02  0.62471367782E+02  0.83851227886E+02  0.41800000000E+01 0. -1.
         -5    1    3    3    0  502  0.38094432266E+02  0.47217270972E+02  0.11645230743E+02  0.61917204771E+02  0.41800000000E+01 0. -1.
        -11    1    1    2    0    0 -0.22982065623E+02  0.20070941314E+02  0.29262853551E+02  0.42276856831E+02  0.00000000000E+00 0.  1.
         11    1    1    2    0    0  0.26269690040E+02 -0.29892896935E+02  0.22702793035E+02  0.45815922053E+02  0.00000000000E+00 0. -1.
</event>
<event>
 7    1  0.2661133E-009  0.9901172E+02  0.7561462E-02  0.1282388E+00
          1   -1    0    0  501    0  0.00000000000E+00  0.00000000000E+00  0.16266254680E+03  0.16266254680E+03  0.00000000000E+00 0. -1.
         -1   -1    0    0    0  501 -0.00000000000E+00 -0.00000000000E+00 -0.74099894669E+02  0.74099894669E+02  0.00000000000E+00 0.  1.
         25    2    1    2    0    0  0.19757797080E+02  0.96512853974E-02  0.51355163397E+02  0.13665640128E+03  0.12508896260E+03 0.  0.
          5    1    3    3  502    0  0.66657406130E+02 -0.25843171678E+02  0.19565735029E+02  0.74238599809E+02  0.41800000000E+01 0.  1.
         -5    1    3    3    0  502 -0.46899609050E+02  0.25852822964E+02  0.31789428367E+02  0.62417801469E+02  0.41800000000E+01 0.  1.
        -11    1    1    2    0    0 -0.40607944041E+02  0.18674933845E+02 -0.94582491617E+01  0.45686067357E+02  0.00000000000E+00 0.  1.
         11    1    1    2    0    0  0.20850146960E+02 -0.18684585131E+02  0.46665737894E+02  0.54419972831E+02  0.00000000000E+00 0. -1.
</event>
<event>
 7    1  0.2661133E-009  0.9539165E+02  0.7561462E-02  0.1290296E+00
         -2   -1    0    0    0  501 -0.00000000000E+00  0.00000000000E+00  0.26541505564E+02  0.26541505564E+02  0.00000000000E+00 0.  1.
          2   -1    0    0  501    0  0.00000000000E+00 -0.00000000000E+00 -0.60771322272E+03  0.60771322272E+03  0.00000000000E+00 0. -1.
         25    2    1    2    0    0 -0.10872096076E+02 -0.58090995536E+02 -0.25646741345E+03  0.29140079649E+03  0.12508446665E+03 0.  0.
          5    1    3    3  502    0 -0.29740728208E+01  0.10467347229E+02  0.10461783223E+02  0.15663070432E+02  0.41800000000E+01 0.  1.
         -5    1    3    3    0  502 -0.78980232556E+01 -0.68558342765E+02 -0.26692919668E+03  0.27573772606E+03  0.41800000000E+01 0.  1.
        -11    1    1    2    0    0  0.52129552749E+02  0.33189300838E+02 -0.18906181116E+03  0.19890547604E+03  0.00000000000E+00 0.  1.
         11    1    1    2    0    0 -0.41257456672E+02  0.24901694698E+02 -0.13564249255E+03  0.14394845575E+03  0.00000000000E+00 0. -1.
</event>
<event>
 7    1  0.2661133E-009  0.1106684E+03  0.7561462E-02  0.1259337E+00
          2   -1    0    0  501    0  0.00000000000E+00  0.00000000000E+00  0.72740622069E+03  0.72740622069E+03  0.00000000000E+00 0. -1.
         -2   -1    0    0    0  501 -0.00000000000E+00 -0.00000000000E+00 -0.17321278481E+02  0.17321278481E+02  0.00000000000E+00 0.  1.
         25    2    1    2    0    0 -0.61658607030E+01 -0.20614381913E+02  0.44278452820E+03  0.46061964753E+03  0.12509736490E+03 0.  0.
          5    1    3    3  502    0 -0.23099955562E+02 -0.70006842898E+02  0.28265716651E+03  0.29214228071E+03  0.41800000000E+01 0. -1.
         -5    1    3    3    0  502  0.16934094859E+02  0.49392460985E+02  0.16012736169E+03  0.16847736682E+03  0.41800000000E+01 0. -1.
        -11    1    1    2    0    0 -0.22058664772E+02 -0.29957177249E+02  0.12663837026E+03  0.13198974953E+03  0.00000000000E+00 0.  1.
         11    1    1    2    0    0  0.28224525475E+02  0.50571559162E+02  0.14066204376E+03  0.15211810211E+03  0.00000000000E+00 0. -1.
</event>
<event>
 7    1  0.2661133E-009  0.1172149E+03  0.7561462E-02  0.1247764E+00
         -2   -1    0    0    0  501 -0.00000000000E+00  0.00000000000E+00  0.18533780744E+02  0.18533780744E+02  0.00000000000E+00 0.  1.
          2   -1    0    0  501    0  0.00000000000E+00 -0.00000000000E+00 -0.78969579767E+03  0.78969579767E+03  0.00000000000E+00 0. -1.
         25    2    1    2    0    0  0.59935119386E+02 -0.11408464339E+02 -0.46023827608E+03  0.48081137160E+03  0.12505172009E+03 0.  0.
          5    1    3    3  502    0  0.33843291889E+02  0.54928857096E+02 -0.26945410340E+03  0.27710202812E+03  0.41800000000E+01 0.  1.
         -5    1    3    3    0  502  0.26091827497E+02 -0.66337321436E+02 -0.19078417268E+03  0.20370934349E+03  0.41800000000E+01 0.  1.
        -11    1    1    2    0    0 -0.28033357452E+02  0.44379476247E+02 -0.21155144104E+03  0.21796655535E+03  0.00000000000E+00 0. -1.
         11    1    1    2    0    0 -0.31901761933E+02 -0.32971011908E+02 -0.99372299802E+02  0.10945165147E+03  0.00000000000E+00 0.  1.
</event>
<event>
 7    1  0.2661133E-009  0.3074385E+03  0.7561462E-02  0.1081580E+00
         -1   -1    0    0    0  501 -0.00000000000E+00  0.00000000000E+00  0.11255657771E+03  0.11255657771E+03  0.00000000000E+00 0.  1.
          1   -1    0    0  501    0  0.00000000000E+00 -0.00000000000E+00 -0.96201565900E+03  0.96201565900E+03  0.00000000000E+00 0. -1.
         25    2    1    2    0    0 -0.14444118698E+03  0.25802744182E+03 -0.58700715068E+03  0.66907873111E+03  0.12509011250E+03 0.  0.
          5    1    3    3  502    0 -0.12568537680E+03  0.26869684966E+03 -0.56396261323E+03  0.63723316963E+03  0.41800000000E+01 0. -1.
         -5    1    3    3    0  502 -0.18755810180E+02 -0.10669407847E+02 -0.23044537452E+02  0.31845561476E+02  0.41800000000E+01 0. -1.
        -11    1    1    2    0    0  0.11505055313E+03 -0.18991053427E+03 -0.24222931031E+03  0.32859957330E+03  0.00000000000E+00 0. -1.
         11    1    1    2    0    0  0.29390633847E+02 -0.68116907545E+02 -0.20222620299E+02  0.76893932291E+02  0.00000000000E+00 0.  1.
</event>
<event>
 7    1  0.2661133E-009  0.1835229E+03  0.7561462E-02  0.1164437E+00
          2   -1    0    0  501    0  0.00000000000E+00  0.00000000000E+00  0.52713295076E+03  0.52713295076E+03  0.00000000000E+00 0. -1.
         -2   -1    0    0    0  501 -0.00000000000E+00 -0.00000000000E+00 -0.77419778069E+02  0.77419778069E+02  0.00000000000E+00 0.  1.
         25    2    1    2    0    0 -0.95509743769E+02  0.13630483666E+03  0.24139410129E+03  0.31877962122E+03  0.12509282600E+03 0.  0.
          5    1    3    3  502    0 -0.10234104543E+03  0.64306104147E+02  0.20424835237E+03  0.23736854563E+03  0.41800000000E+01 0.  1.
         -5    1    3    3    0  502  0.68313016600E+01  0.71998732509E+02  0.37145748923E+02  0.81411075588E+02  0.41800000000E+01 0.  1.
        -11    1    1    2    0    0  0.18947247556E+02 -0.19795176045E+01 -0.73411610855E+01  0.20415908649E+02  0.00000000000E+00 0.  1.
         11    1    1    2    0    0  0.76562496213E+02 -0.13432531905E+03  0.21566023248E+03  0.26535719896E+03  0.00000000000E+00 0. -1.
</event>
<event>
 7    1  0.2661133E-009  0.7995102E+02  0.7561462E-02  0.1329190E+00
          1   -1    0    0  501    0  0.00000000000E+00  0.00000000000E+00  0.14522079600E+04  0.14522079600E+04  0.00000000000E+00 0. -1.
         -1   -1    0    0    0  501 -0.00000000000E+00 -0.00000000000E+00 -0.90261100106E+01  0.90261100106E+01  0.00000000000E+00 0.  1.
         25    2    1    2    0    0  0.10323683375E+02 -0.70784448941E+00  0.10471426780E+04  0.10546391881E+04  0.12509576072E+03 0.  0.
          5    1    3    3  502    0 -0.80484171821E+01 -0.30937832661E+02  0.72492213122E+02  0.79338010261E+02  0.41800000000E+01 0.  1.
         -5    1    3    3    0  502  0.18372100557E+02  0.30229988171E+02  0.97465046492E+03  0.97530117781E+03  0.41800000000E+01 0.  1.
        -11    1    1    2    0    0  0.64075120231E+01  0.44605436403E+02  0.19584216902E+03  0.20095983762E+03  0.00000000000E+00 0.  1.
         11    1    1    2    0    0 -0.16731195398E+02 -0.43897591914E+02  0.20019700295E+03  0.20563504435E+03  0.00000000000E+00 0. -1.
</event>
<event>
 7    1  0.2661133E-009  0.1125776E+03  0.7561462E-02  0.1255870E+00
         -1   -1    0    0    0  501 -0.00000000000E+00  0.00000000000E+00  0.11263117349E+03  0.11263117349E+03  0.00000000000E+00 0.  1.
          1   -1    0    0  501    0  0.00000000000E+00 -0.00000000000E+00 -0.11810822065E+03  0.11810822065E+03  0.00000000000E+00 0. -1.
         25    2    1    2    0    0  0.70728049740E+01 -0.27427616124E+02 -0.25402802001E+02  0.13074844671E+03  0.12509018855E+03 0.  0.
          5    1    3    3  502    0  0.27348110569E+02 -0.72488442820E+02 -0.71896935168E+01  0.77920841802E+02  0.41800000000E+01 0.  1.
         -5    1    3    3    0  502 -0.20275305595E+02  0.45060826696E+02 -0.18213108484E+02  0.52827604907E+02  0.41800000000E+01 0.  1.
        -11    1    1    2    0    0 -0.22472372866E+02  0.58844724441E+02  0.12220164095E+02  0.64164176511E+02  0.00000000000E+00 0. -1.
         11    1    1    2    0    0  0.15399567892E+02 -0.31417108317E+02  0.77055907419E+01  0.35826770926E+02  0.00000000000E+00 0.  1.
</event>
<event>
 7    1  0.2661133E-009  0.9681393E+02  0.7561462E-02  0.1287142E+00
          1   -1    0    0  501    0  0.00000000000E+00  0.00000000000E+00  0.34291451338E+02  0.34291451338E+02  0.00000000000E+00 0. -1.
         -1   -1    0    0    0  501 -0.00000000000E+00 -0.00000000000E+00 -0.41948961249E+03  0.41948961249E+03  0.00000000000E+00 0.  1.
         25    2    1    2    0    0  0.42307263276E+02  0.82841672365E+00 -0.16342177798E+03  0.21010678740E+03  0.12509034253E+03 0.  0.
          5    1    3    3  502    0 -0.20714143524E+02  0.23559103612E+02 -0.13245351082E+03  0.13618190788E+03  0.41800000000E+01 0. -1.
         -5    1    3    3    0  502  0.63021406800E+02 -0.22730686889E+02 -0.30968267157E+02  0.73924879521E+02  0.41800000000E+01 0. -1.
        -11    1    1    2    0    0  0.23206680797E+02 -0.15254013310E+02 -0.10874492389E+03  0.11223499199E+03  0.00000000000E+00 0.  1.
         11    1    1    2    0    0 -0.65513944073E+02  0.14425596587E+02 -0.11303145928E+03  0.13143928444E+03  0.00000000000E+00 0. -1.
</event>
<event>
 7    1  0.2661133E-009  0.1314054E+03  0.7561462E-02  0.1225385E+00
         -1   -1    0    0    0  501 -0.00000000000E+00  0.00000000000E+00  0.58017990940E+02  0.58017990940E+02  0.00000000000E+00 0.  1.
          1   -1    0    0  501    0  0.00000000000E+00 -0.00000000000E+00 -0.43573858490E+03  0.43573858490E+03  0.00000000000E+00 0. -1.
         25    2    1    2    0    0  0.19802209409E+02  0.10703702938E+03 -0.26403730985E+03  0.31178909931E+03  0.12509072029E+03 0.  0.
          5    1    3    3  502    0  0.27805551724E+02  0.11633951143E+03 -0.27158412908E+03  0.29678854795E+03  0.41800000000E+01 0.  1.
         -5    1    3    3    0  502 -0.80033423151E+01 -0.93024820504E+01  0.75468192366E+01  0.15000551360E+02  0.41800000000E+01 0.  1.
        -11    1    1    2    0    0  0.26938616281E+02 -0.32975664593E+02 -0.74963354117E+02  0.86212458282E+02  0.00000000000E+00 0. -1.
         11    1    1    2    0    0 -0.46740825690E+02 -0.74061364784E+02 -0.38719929991E+02  0.95755018242E+02  0.00000000000E+00 0.  1.
</event>
<event>
 7    1  0.2661133E-009  0.8608077E+02  0.7561462E-02  0.1312630E+00
          3   -1    0    0  501    0  0.00000000000E+00  0.00000000000E+00  0.29638164609E+03  0.29638164609E+03  0.00000000000E+00 0. -1.
         -3   -1    0    0    0  501 -0.00000000000E+00 -0.00000000000E+00 -0.10510230130E+03  0.10510230130E+03  0.00000000000E+00 0.  1.
         25    2    1    2    0    0 -0.71639803765E+02 -0.45682866988E+02  0.22815306289E+03  0.27371685327E+03  0.12509160579E+03 0.  0.
          5    1    3    3  502    0 -0.46374043036E+02 -0.34064226965E+02  0.23724742395E+03  0.24416129095E+03  0.41800000000E+01 0. -1.
         -5    1    3    3    0  502 -0.25265760729E+02 -0.11618640022E+02 -0.90943610590E+01  0.29555562323E+02  0.41800000000E+01 0. -1.
        -11    1    1    2    0    0  0.39742125442E+02  0.34246023753E+02 -0.65140492931E+02  0.83639168437E+02  0.00000000000E+00 0.  1.
         11    1    1    2    0    0  0.31897678323E+02  0.11436843235E+02  0.28266774828E+02  0.44127925679E+02  0.00000000000E+00 0. -1.
</event>
<event>
 7    1  0.2661133E-009  0.2079978E+03  0.7561462E-02  0.1143161E+00
          2   -1    0    0  501    0  0.00000000000E+00  0.00000000000E+00  0.15223516338E+03  0.15223516338E+03  0.00000000000E+00 0. -1.
         -2   -1    0    0    0  501 -0.00000000000E+00 -0.00000000000E+00 -0.46012670016E+03  0.46012670016E+03  0.00000000000E+00 0.  1.
         25    2    1    2    0    0  0.92184163429E+02 -0.15957605596E+03 -0.33690603205E+03  0.40387586113E+03  0.12509036392E+03 0.  0.
          5    1    3    3  502    0  0.47273197997E+02  0.84254239686E+01 -0.85640505242E+02  0.98272638898E+02  0.41800000000E+01 0.  1.
         -5    1    3    3    0  502  0.44910965432E+02 -0.16800147993E+03 -0.25126552681E+03  0.30560322223E+03  0.41800000000E+01 0.  1.
        -11    1    1    2    0    0 -0.87973222676E+02  0.96319139109E+02  0.52862565392E+02  0.14075196370E+03  0.00000000000E+00 0. -1.
         11    1    1    2    0    0 -0.42109407534E+01  0.63256916854E+02 -0.23848070125E+02  0.67734038714E+02  0.00000000000E+00 0.  1.
</event>
<event>
 7    1  0.2661133E-009  0.1158885E+03  0.7561462E-02  0.1250038E+00
         -1   -1    0    0    0  501 -0.00000000000E+00  0.00000000000E+00  0.15578360258E+03  0.15578360258E+03  0.00000000000E+00 0.  1.
          1   -1    0    0  501    0  0.00000000000E+00 -0.00000000000E+00 -0.15712592455E+03  0.15712592455E+03  0.00000000000E+00 0. -1.
         25    2    1    2    0    0  0.48919873137E+02  0.61672821655E+02 -0.82369015580E+02  0.16920112739E+03  0.12509067057E+03 0.  0.
          5    1    3    3  502    0  0.42932280908E+02 -0.13807629009E+02 -0.81643630838E+02  0.93364801822E+02  0.41800000000E+01 0.  1.
         -5    1    3    3    0  502  0.59875922292E+01  0.75480450664E+02 -0.72538474232E+00  0.75836325571E+02  0.41800000000E+01 0.  1.
        -11    1    1    2    0    0  0.20542886072E+02 -0.24142413607E+02  0.16358132919E+01  0.31741805054E+02  0.00000000000E+00 0. -1.
         11    1    1    2    0    0 -0.69462759209E+02 -0.37530408048E+02  0.79390880320E+02  0.11196659468E+03  0.00000000000E+00 0.  1.
</event>
<event>
 7    1  0.2661133E-009  0.1018896E+03  0.7561462E-02  0.1276372E+00
          2   -1    0    0  501    0  0.00000000000E+00  0.00000000000E+00  0.89625813183E+03  0.89625813183E+03  0.00000000000E+00 0. -1.
         -2   -1    0    0    0  501 -0.00000000000E+00 -0.00000000000E+00 -0.15083149404E+02  0.15083149404E+02  0.00000000000E+00 0.  1.
         25    2    1    2    0    0  0.52752295822E+01  0.42586145777E+02  0.49221642463E+03  0.50967151840E+03  0.12508653058E+03 0.  0.
          5    1    3    3  502    0 -0.43159718256E+02  0.31723120884E+02  0.93354234305E+02  0.10771073828E+03  0.41800000000E+01 0.  1.
         -5    1    3    3    0  502  0.48434947838E+02  0.10863024893E+02  0.39886219032E+03  0.40196078012E+03  0.41800000000E+01 0.  1.
        -11    1    1    2    0    0 -0.47595396503E+02 -0.15781092131E+02  0.19747428303E+03  0.20374115219E+03  0.00000000000E+00 0. -1.
         11    1    1    2    0    0  0.42320166920E+02 -0.26805053646E+02  0.19148427477E+03  0.19792861064E+03  0.00000000000E+00 0.  1.
</event>
<event>
 7    1  0.2661133E-009  0.4770591E+03  0.7561462E-02  0.1019947E+00
         -2   -1    0    0    0  501 -0.00000000000E+00  0.00000000000E+00  0.14033130525E+03  0.14033130525E+03  0.00000000000E+00 0. -1.
          2   -1    0    0  501    0  0.00000000000E+00 -0.00000000000E+00 -0.16917678802E+04  0.16917678802E+04  0.00000000000E+00 0.  1.
         25    2    1    2    0    0 -0.34684570947E+03 -0.31530110300E+03 -0.63971819767E+03  0.80287225094E+03  0.12509095556E+03 0.  0.
          5    1    3    3  502    0 -0.33156688912E+03 -0.25937124332E+03 -0.59800002452E+03  0.73132177976E+03  0.41800000000E+01 0. -1.
         -5    1    3    3    0  502 -0.15278820351E+02 -0.55929859679E+02 -0.41718173151E+02  0.71550471180E+02  0.41800000000E+01 0. -1.
        -11    1    1    2    0    0  0.23558386487E+03  0.25966504119E+03 -0.71758084070E+03  0.79865383862E+03  0.00000000000E+00 0.  1.
         11    1    1    2    0    0  0.11126184461E+03  0.55636061806E+02 -0.19413753654E+03  0.23057309586E+03  0.00000000000E+00 0. -1.
</event>
<event>
 7    1  0.2661133E-009  0.1318054E+03  0.7561462E-02  0.1224801E+00
          2   -1    0    0  501    0  0.00000000000E+00  0.00000000000E+00  0.41126049764E+03  0.41126049764E+03  0.00000000000E+00 0. -1.
         -2   -1    0    0    0  501 -0.00000000000E+00 -0.00000000000E+00 -0.54949339542E+02  0.54949339542E+02  0.00000000000E+00 0.  1.
         25    2    1    2    0    0  0.44724329293E+02  0.91801604388E+02  0.21899434603E+03  0.27209119169E+03  0.12508913943E+03 0.  0.
          5    1    3    3  502    0 -0.26693254551E+02 -0.16196856985E+02  0.35286350866E+02  0.47301870705E+02  0.41800000000E+01 0. -1.
         -5    1    3    3    0  502  0.71417583845E+02  0.10799846137E+03  0.18370799517E+03  0.22478932098E+03  0.41800000000E+01 0. -1.
        -11    1    1    2    0    0 -0.14345064960E+02 -0.40233544298E+02 -0.17178246553E+01  0.42748916911E+02  0.00000000000E+00 0.  1.
         11    1    1    2    0    0 -0.30379264333E+02 -0.51568060090E+02  0.13903463673E+03  0.15136972859E+03  0.00000000000E+00 0. -1.
</event>
<event>
 7    1  0.2661133E-009  0.1382237E+03  0.7561462E-02  0.1215739E+00
         -2   -1    0    0    0  501 -0.00000000000E+00  0.00000000000E+00  0.15795565555E+03  0.15795565555E+03  0.00000000000E+00 0.  1.
          2   -1    0    0  501    0  0.00000000000E+00 -0.00000000000E+00 -0.17750143776E+03  0.17750143776E+03  0.00000000000E+00 0. -1.
         25    2    1    2    0    0  0.78881696883E+02 -0.92010097945E+02  0.29860526057E+02  0.17672420870E+03  0.12510641350E+03 0.  0.
          5    1    3    3  502    0  0.57344358260E+02 -0.35315586649E+02  0.75089729233E+02  0.10095298867E+03  0.41800000000E+01 0.  1.
         -5    1    3    3    0  502  0.21537338624E+02 -0.56694511296E+02 -0.45229203176E+02  0.75771220038E+02  0.41800000000E+01 0.  1.
        -11    1    1    2    0    0 -0.65493333071E+01  0.73131828275E+02 -0.96280325276E+01  0.74053069376E+02  0.00000000000E+00 0.  1.
         11    1    1    2    0    0 -0.72332363576E+02  0.18878269670E+02 -0.39778275743E+02  0.84679815229E+02  0.00000000000E+00 0. -1.
</event>
<event>
 7    1  0.2661133E-009  0.2252312E+03  0.7561462E-02  0.1130042E+00
         -2   -1    0    0    0  501 -0.00000000000E+00  0.00000000000E+00  0.38065207492E+02  0.38065207492E+02  0.00000000000E+00 0.  1.
          2   -1    0    0  501    0  0.00000000000E+00 -0.00000000000E+00 -0.14884253364E+04  0.14884253364E+04  0.00000000000E+00 0. -1.
         25    2    1    2    0    0 -0.11246801517E+03 -0.17886929453E+03 -0.80470392702E+03  0.84133053287E+03  0.12508147910E+03 0.  0.
          5    1    3    3  502    0 -0.12004022604E+03 -0.10088825349E+03 -0.63927748561E+03  0.65824104366E+03  0.41800000000E+01 0.  1.
         -5    1    3    3    0  502  0.75722108665E+01 -0.77981041039E+02 -0.16542644142E+03  0.18308948921E+03  0.41800000000E+01 0.  1.
        -11    1    1    2    0    0  0.23044831686E+02  0.73047566150E+02 -0.12692902768E+03  0.14824975297E+03  0.00000000000E+00 0.  1.
         11    1    1    2    0    0  0.89423183485E+02  0.10582172838E+03 -0.51872717417E+03  0.53691025802E+03  0.00000000000E+00 0. -1.
</event>
<event>
 7    1  0.2661133E-009  0.9604992E+02  0.7561462E-02  0.1288829E+00
         -2   -1    0    0    0  501 -0.00000000000E+00  0.00000000000E+00  0.68713086009E+02  0.68713086009E+02  0.00000000000E+00 0.  1.
          2   -1    0    0  501    0  0.00000000000E+00 -0.00000000000E+00 -0.31767713852E+03  0.31767713852E+03  0.00000000000E+00 0. -1.
         25    2    1    2    0    0  0.86289327096E+01 -0.30949207780E+02 -0.11228559972E+02  0.12963816128E+03  0.12509060860E+03 0.  0.
          5    1    3    3  502    0  0.11473082527E+01  0.32683931497E+02 -0.46019028068E+02  0.56610767868E+02  0.41800000000E+01 0.  1.
         -5    1    3    3    0  502  0.74816244570E+01 -0.63633139277E+02  0.34790468096E+02  0.73027393416E+02  0.41800000000E+01 0.  1.
        -11    1    1    2    0    0  0.28885575292E+02 -0.17403321391E+02 -0.11107689105E+03  0.11608327950E+03  0.00000000000E+00 0. -1.
         11    1    1    2    0    0 -0.37514508002E+02  0.48352529171E+02 -0.12665860149E+03  0.14066878374E+03  0.00000000000E+00 0.  1.
</event>
<event>
 7    1  0.2661133E-009  0.1204629E+03  0.7561462E-02  0.1242335E+00
         -3   -1    0    0    0  501 -0.00000000000E+00  0.00000000000E+00  0.41263465277E+02  0.41263465277E+02  0.00000000000E+00 0.  1.
          3   -1    0    0  501    0  0.00000000000E+00 -0.00000000000E+00 -0.40554506604E+03  0.40554506604E+03  0.00000000000E+00 0. -1.
         25    2    1    2    0    0 -0.55445975557E+02  0.29653146296E+02 -0.24477146195E+03  0.28198470992E+03  0.12509493495E+03 0.  0.
          5    1    3    3  502    0  0.21828905960E+02  0.53628829626E+02 -0.86360115651E+02  0.10405813028E+03  0.41800000000E+01 0.  1.
         -5    1    3    3    0  502 -0.77274881517E+02 -0.23975683329E+02 -0.15841134630E+03  0.17792657964E+03  0.41800000000E+01 0.  1.
        -11    1    1    2    0    0  0.65767718781E+02 -0.47577857187E+02 -0.57554437103E+02  0.99506575453E+02  0.00000000000E+00 0. -1.
         11    1    1    2    0    0 -0.10321743224E+02  0.17924710891E+02 -0.61955701706E+02  0.65317245943E+02  0.00000000000E+00 0.  1.
</event>
<event>
 7    1  0.2852249E-009  0.1004526E+03  0.7561462E-02  0.1279347E+00
          1   -1    0    0  501    0  0.00000000000E+00  0.00000000000E+00  0.56117671430E+03  0.56117671430E+03  0.00000000000E+00 0. -1.
         -1   -1    0    0    0  501 -0.00000000000E+00 -0.00000000000E+00 -0.30646800371E+02  0.30646800371E+02  0.00000000000E+00 0.  1.
         25    2    1    2    0    0  0.57686913647E+02  0.32853921924E+02  0.22322570542E+03  0.26436724317E+03  0.12511260332E+03 0.  0.
          5    1    3    3  502    0  0.47543293965E+02  0.68568631460E+02  0.20776555805E+03  0.22393307378E+03  0.41800000000E+01 0. -1.
         -5    1    3    3    0  502  0.10143619683E+02 -0.35714709536E+02  0.15460147372E+02  0.40434169390E+02  0.41800000000E+01 0. -1.
        -11    1    1    2    0    0 -0.10932322228E+02 -0.31371598517E+02  0.25723760275E+02  0.42016719357E+02  0.00000000000E+00 0.  1.
         11    1    1    2    0    0 -0.46754591420E+02 -0.14823234071E+01  0.28158044823E+03  0.28543955214E+03  0.00000000000E+00 0. -1.
</event>
<event>
 7    1  0.2661133E-009  0.4946508E+03  0.7561462E-02  0.1015185E+00
          4   -1    0    0  501    0  0.00000000000E+00  0.00000000000E+00  0.10078606738E+04  0.10078606738E+04  0.00000000000E+00 0. -1.
         -4   -1    0    0    0  501 -0.00000000000E+00 -0.00000000000E+00 -0.25063351594E+03  0.25063351594E+03  0.00000000000E+00 0.  1.
         25    2    1    2    0    0  0.49014376368E+03  0.16151368663E+02  0.40026821790E+03  0.64526151865E+03  0.12508399339E+03 0.  0.
          5    1    3    3  502    0  0.25920357774E+03 -0.16586628670E+02  0.13762487805E+03  0.29397226131E+03  0.41800000000E+01 0. -1.
         -5    1    3    3    0  502  0.23094018595E+03  0.32737997333E+02  0.26264333985E+03  0.35128925734E+03  0.41800000000E+01 0. -1.
        -11    1    1    2    0    0 -0.11473062001E+03  0.28419342918E+02  0.11147822407E+03  0.16247513244E+03  0.00000000000E+00 0. -1.
         11    1    1    2    0    0 -0.37541314368E+03 -0.44570711581E+02  0.24548071591E+03  0.45075753866E+03  0.00000000000E+00 0.  1.
</event>
<event>
 7    1  0.2661133E-009  0.9616485E+02  0.7561462E-02  0.1288574E+00
         -1   -1    0    0    0  501 -0.00000000000E+00  0.00000000000E+00  0.23442149085E+03  0.23442149085E+03  0.00000000000E+00 0.  1.
          1   -1    0    0  501    0  0.00000000000E+00 -0.00000000000E+00 -0.60460280927E+02  0.60460280927E+02  0.00000000000E+00 0. -1.
         25    2    1    2    0    0 -0.35259996738E+02 -0.31748494522E+02  0.11604789440E+03  0.17710420953E+03  0.12509017933E+03 0.  0.
          5    1    3    3  502    0 -0.21936423599E+02 -0.61846254784E+02  0.12628786600E+03  0.14238069887E+03  0.41800000000E+01 0.  1.
         -5    1    3    3    0  502 -0.13323573139E+02  0.30097760262E+02 -0.10239971606E+02  0.34723510659E+02  0.41800000000E+01 0.  1.
        -11    1    1    2    0    0 -0.24755654285E+02  0.20920179262E+02  0.44972750677E+02  0.55435048687E+02  0.00000000000E+00 0.  1.
         11    1    1    2    0    0  0.60015651023E+02  0.10828315261E+02  0.12940564854E+02  0.62342513567E+02  0.00000000000E+00 0. -1.
</event>
<event>
 7    1  0.2661133E-009  0.1008382E+03  0.7561462E-02  0.1278543E+00
         -2   -1    0    0    0  501 -0.00000000000E+00  0.00000000000E+00  0.16681608047E+03  0.16681608047E+03  0.00000000000E+00 0.  1.
          2   -1    0    0  501    0  0.00000000000E+00 -0.00000000000E+00 -0.10485780885E+03  0.10485780885E+03  0.00000000000E+00 0. -1.
         25    2    1    2    0    0  0.23579601510E-01 -0.44793747671E+02  0.92127459607E+02  0.16168466296E+03  0.12509189037E+03 0.  0.
          5    1    3    3  502    0 -0.34187038295E+02  0.16265480720E+02  0.82556751290E+02  0.90919794511E+02  0.41800000000E+01 0. -1.
         -5    1    3    3    0  502  0.34210617897E+02 -0.61059228390E+02  0.95707083168E+01  0.70764868446E+02  0.41800000000E+01 0. -1.
        -11    1    1    2    0    0 -0.35419268590E+02 -0.11951433468E+01 -0.37380628861E+02  0.51509847302E+02  0.00000000000E+00 0. -1.
         11    1    1    2    0    0  0.35395688989E+02  0.45988891017E+02  0.72114408661E+01  0.58479379061E+02  0.00000000000E+00 0.  1.
</event>
<event>
 7    1  0.2661133E-009  0.8896091E+02  0.7561462E-02  0.1305388E+00
          1   -1    0    0  501    0  0.00000000000E+00  0.00000000000E+00  0.13998658759E+04  0.13998658759E+04  0.00000000000E+00 0. -1.
         -1   -1    0    0    0  501 -0.00000000000E+00 -0.00000000000E+00 -0.13870990938E+02  0.13870990938E+02  0.00000000000E+00 0.  1.
         25    2    1    2    0    0 -0.10279307117E+02  0.11140367484E+02  0.11604850479E+04  0.11673057668E+04  0.12508970710E+03 0.  0.
          5    1    3    3  502    0 -0.45072122391E+02  0.42985294858E+01  0.16414684729E+03  0.17032801721E+03  0.41800000000E+01 0.  1.
         -5    1    3    3    0  502  0.34792815274E+02  0.68418379979E+01  0.99633820066E+03  0.99697774962E+03  0.41800000000E+01 0.  1.
        -11    1    1    2    0    0 -0.17789624043E+02  0.36981726591E+02  0.68755172646E+02  0.80071172034E+02  0.00000000000E+00 0.  1.
         11    1    1    2    0    0  0.28068931160E+02 -0.48122094075E+02  0.15675466439E+03  0.16635992799E+03  0.00000000000E+00 0. -1.
</event>
<event>
 7    1  0.2661133E-009  0.9785273E+02  0.7561462E-02  0.1284877E+00
         -2   -1    0    0    0  501 -0.00000000000E+00  0.00000000000E+00  0.16540614058E+03  0.16540614058E+03  0.00000000000E+00 0.  1.
          2   -1    0    0  501    0  0.00000000000E+00 -0.00000000000E+00 -0.10824418287E+03  0.10824418287E+03  0.00000000000E+00 0. -1.
         25    2    1    2    0    0 -0.19978386668E+02  0.70797372572E+01  0.10783251617E+03  0.16650537072E+03  0.12508768254E+03 0.  0.
          5    1    3    3  502    0  0.35938578783E+02  0.24954316588E+02  0.33669853366E+00  0.43953215209E+02  0.41800000000E+01 0. -1.
         -5    1    3    3    0  502 -0.55916965451E+02 -0.17874579331E+02  0.10749581764E+03  0.12255215552E+03  0.41800000000E+01 0. -1.
        -11    1    1    2    0    0 -0.25816202926E+02  0.25820625175E+02 -0.10770240713E+02  0.38068085097E+02  0.00000000000E+00 0.  1.
         11    1    1    2    0    0  0.45794589595E+02 -0.32900362432E+02 -0.39900317756E+02  0.69076867628E+02  0.00000000000E+00 0. -1.
</event>
<event>
 7    1  0.2661133E-009  0.9235075E+02  0.7561462E-02  0.1297257E+00
          1   -1    0    0  501    0  0.00000000000E+00  0.00000000000E+00  0.10324537700E+03  0.10324537700E+03  0.00000000000E+00 0. -1.
         -1   -1    0    0    0  501 -0.00000000000E+00 -0.00000000000E+00 -0.15897833044E+03  0.15897833044E+03  0.00000000000E+00 0.  1.
         25    2    1    2    0    0  0.24576894173E+02  0.62031144982E+02 -0.25464404573E+02  0.14406470478E+03  0.12511721140E+03 0.  0.
          5    1    3    3  502    0  0.56258634625E+02  0.64771448244E+02  0.20223137258E+02  0.88242972287E+02  0.41800000000E+01 0.  1.
         -5    1    3    3    0  502 -0.31681740451E+02 -0.27403032615E+01 -0.45687541831E+02  0.55821732493E+02  0.41800000000E+01 0.  1.
        -11    1    1    2    0    0 -0.16244755914E+02 -0.39415912654E+02  0.30742200360E+02  0.52560338165E+02  0.00000000000E+00 0. -1.
         11    1    1    2    0    0 -0.83321382593E+01 -0.22615232328E+02 -0.61010749229E+02  0.65598664489E+02  0.00000000000E+00 0.  1.
</event>
<event>
 7    1  0.2661133E-009  0.1189194E+03  0.7561462E-02  0.1244890E+00
          2   -1    0    0  501    0  0.00000000000E+00  0.00000000000E+00  0.75163155472E+03  0.75163155472E+03  0.00000000000E+00 0. -1.
         -2   -1    0    0    0  501 -0.00000000000E+00 -0.00000000000E+00 -0.23928698960E+02  0.23928698960E+02  0.00000000000E+00 0.  1.
         25    2    1    2    0    0  0.16662030171E+02 -0.75517165554E+02  0.37548555482E+03  0.40325332796E+03  0.12507349474E+03 0.  0.
          5    1    3    3  502    0  0.46198023497E+02 -0.79057852812E+02  0.15009932527E+03  0.17587404957E+03  0.41800000000E+01 0. -1.
         -5    1    3    3    0  502 -0.29535993326E+02  0.35406872576E+01  0.22538622955E+03  0.22737927839E+03  0.41800000000E+01 0. -1.
        -11    1    1    2    0    0  0.32426533122E+02  0.52995605614E+02  0.13722030279E+03  0.15063009581E+03  0.00000000000E+00 0.  1.
         11    1    1    2    0    0 -0.49088563293E+02  0.22521559940E+02  0.21499699814E+03  0.22167682991E+03  0.00000000000E+00 0. -1.
</event>
<event>
 7    1  0.2661133E-009  0.1011442E+03  0.7561462E-02  0.1277908E+00
         -1   -1    0    0    0  501 -0.00000000000E+00  0.00000000000E+00  0.28321412015E+02  0.28321412015E+02  0.00000000000E+00 0.  1.
          1   -1    0    0  501    0  0.00000000000E+00 -0.00000000000E+00 -0.46098535333E+03  0.46098535333E+03  0.00000000000E+00 0. -1.
         25    2    1    2    0    0 -0.19680534152E+02  0.43397465016E+02 -0.20309570347E+03  0.24323754658E+03  0.12508387548E+03 0.  0.
          5    1    3    3  502    0  0.37427613921E+02 -0.17816122041E+02 -0.11174229946E+03  0.11925625509E+03  0.41800000000E+01 0.  1.
         -5    1    3    3    0  502 -0.57108148073E+02  0.61213587056E+02 -0.91353404014E+02  0.12398129150E+03  0.41800000000E+01 0.  1.
        -11    1    1    2    0    0 -0.11715897610E+01  0.14871731802E+02 -0.10033792423E+02  0.17978265204E+02  0.00000000000E+00 0.  1.
         11    1    1    2    0    0  0.20852123913E+02 -0.58269196818E+02 -0.21953444542E+03  0.22809095356E+03  0.00000000000E+00 0. -1.
</event>
<event>
 7    1  0.2661133E-009  0.2719540E+03  0.7561462E-02  0.1100166E+00
         -1   -1    0    0    0  501 -0.00000000000E+00  0.00000000000E+00  0.12067551742E+03  0.12067551742E+03  0.00000000000E+00 0.  1.
          1   -1    0    0  501    0  0.00000000000E+00 -0.00000000000E+00 -0.62880795805E+03  0.62880795805E+03  0.00000000000E+00 0. -1.
         25    2    1    2    0    0  0.19709763284E+03  0.15476739101E+03 -0.21431778067E+03  0.35267416842E+03  0.12508611342E+03 0.  0.
          5    1    3    3  502    0  0.24635264490E+01  0.60998827229E+02 -0.69243311877E+02  0.92406896527E+02  0.41800000000E+01 0.  1.
         -5    1    3    3    0  502  0.19463410639E+03  0.93768563777E+02 -0.14507446880E+03  0.26026727190E+03  0.41800000000E+01 0.  1.
        -11    1    1    2    0    0 -0.46160045293E+02  0.54899308966E+01 -0.47798706531E+02  0.66675373781E+02  0.00000000000E+00 0.  1.
         11    1    1    2    0    0 -0.15093758755E+03 -0.16025732190E+03 -0.24601595342E+03  0.33013393327E+03  0.00000000000E+00 0. -1.
</event>
<event>
 7    1  0.2661133E-009  0.1124230E+03  0.7561462E-02  0.1256147E+00
         -2   -1    0    0    0  501 -0.00000000000E+00  0.00000000000E+00  0.23813024164E+03  0.23813024164E+03  0.00000000000E+00 0. -1.
          2   -1    0    0  501    0  0.00000000000E+00 -0.00000000000E+00 -0.89469748658E+02  0.89469748658E+02  0.00000000000E+00 0.  1.
         25    2    1    2    0    0 -0.73829750360E+02  0.54309676708E+02  0.62600640744E+02  0.16723011509E+03  0.12508676248E+03 0.  0.
          5    1    3    3  502    0 -0.39881262743E+02 -0.11255937811E+02 -0.28070239948E+02  0.50225710793E+02  0.41800000000E+01 0. -1.
         -5    1    3    3    0  502 -0.33948487618E+02  0.65565614519E+02  0.90670880692E+02  0.11700440429E+03  0.41800000000E+01 0. -1.
        -11    1    1    2    0    0  0.46157488365E+02  0.23201260896E+01 -0.82406350533E+01  0.46944699203E+02  0.00000000000E+00 0.  1.
         11    1    1    2    0    0  0.27672261996E+02 -0.56629802797E+02  0.94300487296E+02  0.11342517601E+03  0.00000000000E+00 0. -1.
</event>
<event>
 7    1  0.2661133E-009  0.1435418E+03  0.7561462E-02  0.1208641E+00
          1   -1    0    0  501    0  0.00000000000E+00  0.00000000000E+00  0.12174225761E+03  0.12174225761E+03  0.00000000000E+00 0. -1.
         -1   -1    0    0    0  501 -0.00000000000E+00 -0.00000000000E+00 -0.39081131054E+03  0.39081131054E+03  0.00000000000E+00 0.  1.
         25    2    1    2    0    0 -0.95489820558E+02  0.10355704025E+03 -0.28685720071E+03  0.34318666143E+03  0.12509062544E+03 0.  0.
          5    1    3    3  502    0 -0.14854238599E+02  0.67933210114E+01 -0.17152768298E+03  0.17235433283E+03  0.41800000000E+01 0.  1.
         -5    1    3    3    0  502 -0.80635581959E+02  0.96763719235E+02 -0.11532951773E+03  0.17083232861E+03  0.41800000000E+01 0.  1.
        -11    1    1    2    0    0  0.50664562161E+02 -0.32534531943E+02  0.51143713600E+02  0.79000462458E+02  0.00000000000E+00 0. -1.
         11    1    1    2    0    0  0.44825258397E+02 -0.71022508303E+02 -0.33355565818E+02  0.90366444254E+02  0.00000000000E+00 0.  1.
</event>
<event>
 7    1  0.2661133E-009  0.1109614E+03  0.7561462E-02  0.1258800E+00
          1   -1    0    0  501    0  0.00000000000E+00  0.00000000000E+00  0.62584928927E+02  0.62584928927E+02  0.00000000000E+00 0. -1.
         -1   -1    0    0    0  501 -0.00000000000E+00 -0.00000000000E+00 -0.34686727010E+03  0.34686727010E+03  0.00000000000E+00 0.  1.
         25    2    1    2    0    0  0.18605079326E+02 -0.53004071768E+02 -0.26692415632E+03  0.30008593141E+03  0.12508988929E+03 0.  0.
          5    1    3    3  502    0 -0.59947631347E+01 -0.90593371424E+02 -0.19568009222E+03  0.21575742634E+03  0.41800000000E+01 0.  1.
         -5    1    3    3    0  502  0.24599842461E+02  0.37589299656E+02 -0.71244064097E+02  0.84328505066E+02  0.41800000000E+01 0.  1.
        -11    1    1    2    0    0  0.24236731362E+02  0.14053820871E+02 -0.38596412352E+02  0.47692893334E+02  0.00000000000E+00 0.  1.
         11    1    1    2    0    0 -0.42841810687E+02  0.38950250898E+02  0.21238227498E+02  0.61673374281E+02  0.00000000000E+00 0. -1.
</event>
<event>
 7    1  0.2661133E-009  0.7446027E+02  0.7561462E-02  0.1345551E+00
         -2   -1    0    0    0  501 -0.00000000000E+00  0.00000000000E+00  0.24877082972E+03  0.24877082972E+03  0.00000000000E+00 0.  1.
          2   -1    0    0  501    0  0.00000000000E+00 -0.00000000000E+00 -0.58862256158E+02  0.58862256158E+02  0.00000000000E+00 0. -1.
         25    2    1    2    0    0  0.21166140748E+02 -0.47109905260E+02  0.12221011392E+03  0.18234640882E+03  0.12509017618E+03 0.  0.
          5    1    3    3  502    0  0.28680662527E+02  0.16204371321E+02 -0.10690032022E+02  0.34884254866E+02  0.41800000000E+01 0. -1.
         -5    1    3    3    0  502 -0.75145217794E+01 -0.63314276581E+02  0.13290014594E+03  0.14746215395E+03  0.41800000000E+01 0. -1.
        -11    1    1    2    0    0 -0.17322951023E+02  0.34017885041E+02  0.90776542977E+02  0.98476808893E+02  0.00000000000E+00 0.  1.
         11    1    1    2    0    0 -0.38431897249E+01  0.13092020219E+02 -0.23078083336E+02  0.26809868167E+02  0.00000000000E+00 0. -1.
</event>
<event>
 7    1  0.2661133E-009  0.1474446E+03  0.7561462E-02  0.1203649E+00
         -2   -1    0    0    0  501 -0.00000000000E+00  0.00000000000E+00  0.16474266778E+03  0.16474266778E+03  0.00000000000E+00 0.  1.
          2   -1    0    0  501    0  0.00000000000E+00 -0.00000000000E+00 -0.13768671078E+03  0.13768671078E+03  0.00000000000E+00 0. -1.
         25    2    1    2    0    0  0.41928767606E+02  0.95515863688E+02  0.22470454553E+02  0.16442376702E+03  0.12509577156E+03 0.  0.
          5    1    3    3  502    0 -0.13770770721E+02  0.10521021625E+03  0.14632841353E+02  0.10719335882E+03  0.41800000000E+01 0. -1.
         -5    1    3    3    0  502  0.55699538327E+02 -0.96943525601E+01  0.78376132005E+01  0.57230408194E+02  0.41800000000E+01 0. -1.
        -11    1    1    2    0    0  0.68964907578E+00 -0.88872292791E+02  0.21889529442E+02  0.91530932154E+02  0.00000000000E+00 0.  1.
         11    1    1    2    0    0 -0.42618416682E+02 -0.66435708974E+01 -0.17304026998E+02  0.46474679397E+02  0.00000000000E+00 0. -1.
</event>
<event>
 7    1  0.2661133E-009  0.8110023E+02  0.7561462E-02  0.1325958E+00
         -4   -1    0    0    0  501 -0.00000000000E+00  0.00000000000E+00  0.12801498507E+03  0.12801498507E+03  0.00000000000E+00 0. -1.
          4   -1    0    0  501    0  0.00000000000E+00 -0.00000000000E+00 -0.21374844486E+03  0.21374844486E+03  0.00000000000E+00 0.  1.
         25    2    1    2    0    0 -0.20100158728E+02 -0.39744716070E+01 -0.13761179213E+03  0.18709069585E+03  0.12508441285E+03 0.  0.
          5    1    3    3  502    0  0.26743678593E+02 -0.25988469445E+02  0.25578779204E+01  0.37611700683E+02  0.41800000000E+01 0.  1.
         -5    1    3    3    0  502 -0.46843837322E+02  0.22013997838E+02 -0.14016967005E+03  0.14947899517E+03  0.41800000000E+01 0.  1.
        -11    1    1    2    0    0  0.28404855195E+02  0.32427215209E+02  0.93857624145E+02  0.10328414058E+03  0.00000000000E+00 0. -1.
         11    1    1    2    0    0 -0.83046964667E+01 -0.28452743602E+02 -0.41979291806E+02  0.51388593505E+02  0.00000000000E+00 0.  1.
</event>
<event>
 7    1  0.2661133E-009  0.2086586E+03  0.7561462E-02  0.1142633E+00
          1   -1    0    0  501    0  0.00000000000E+00  0.00000000000E+00  0.14296972736E+04  0.14296972736E+04  0.00000000000E+00 0. -1.
         -1   -1    0    0    0  501 -0.00000000000E+00 -0.00000000000E+00 -0.35249933045E+02  0.35249933045E+02  0.00000000000E+00 0.  1.
         25    2    1    2    0    0  0.13708365345E+03 -0.13946320946E+03  0.70017159530E+03  0.73765979465E+03  0.12513910237E+03 0.  0.
          5    1    3    3  502    0  0.66857089596E+02 -0.99217047111E+02  0.58315234521E+03  0.59531338217E+03  0.41800000000E+01 0.  1.
         -5    1    3    3    0  502  0.70226563850E+02 -0.40246162345E+02  0.11701925009E+03  0.14234641248E+03  0.41800000000E+01 0.  1.
        -11    1    1    2    0    0 -0.67285094077E+02  0.12964906684E+03  0.47717736530E+03  0.49903346819E+03  0.00000000000E+00 0.  1.
         11    1    1    2    0    0 -0.69798559368E+02  0.98141426158E+01  0.21709837994E+03  0.22825394379E+03  0.00000000000E+00 0. -1.
</event>
<event>
 6    1  0.2661133E-009  0.1120056E+03  0.7561462E-02  0.1256900E+00
         -2   -1    0    0    0  501 -0.00000000000E+00  0.00000000000E+00  0.30931461405E+02  0.30931461405E+02  0.00000000000E+00 0.  1.
          2   -1    0    0  501    0  0.00000000000E+00 -0.00000000000E+00 -0.68057969387E+03  0.68057969387E+03  0.00000000000E+00 0. -1.
          5    1    1    2  502    0 -0.41915954038E+02  0.11562515860E+02 -0.30360620379E+03  0.30673251924E+03  0.41800000000E+01 0. -1.
         -5    1    1    2    0  502  0.79402788481E+02  0.13623164798E+02 -0.25776259911E+03  0.27009150919E+03  0.41800000000E+01 0. -1.
        -11    1    1    2    0    0  0.89105765993E+01  0.27821148281E+02 -0.38950536990E+02  0.48688386694E+02  0.00000000000E+00 0. -1.
         11    1    1    2    0    0 -0.46397411043E+02 -0.53006828939E+02 -0.49328892573E+02  0.85998740155E+02  0.00000000000E+00 0.  1.
</event>
<event>
 7    1  0.2661133E-009  0.1184622E+03  0.7561462E-02  0.1245656E+00
         -1   -1    0    0    0  501 -0.00000000000E+00  0.00000000000E+00  0.18205299105E+02  0.18205299105E+02  0.00000000000E+00 0.  1.
          1   -1    0    0  501    0  0.00000000000E+00 -0.00000000000E+00 -0.95743749888E+03  0.95743749888E+03  0.00000000000E+00 0. -1.
         25    2    1    2    0    0  0.13946601142E+02  0.70178765249E+02 -0.59658138418E+03  0.61373893441E+03  0.12508622982E+03 0.  0.
          5    1    3    3  502    0 -0.32545590289E+02  0.86386900028E+02 -0.33395915365E+03  0.34650844239E+03  0.41800000000E+01 0. -1.
         -5    1    3    3    0  502  0.46492191431E+02 -0.16208134779E+02 -0.26262223053E+03  0.26723049202E+03  0.41800000000E+01 0. -1.
        -11    1    1    2    0    0  0.25087201353E+02 -0.25447518000E+02 -0.40652379335E+02  0.54125407987E+02  0.00000000000E+00 0.  1.
         11    1    1    2    0    0 -0.39033802496E+02 -0.44731247249E+02 -0.30199843627E+03  0.30777845559E+03  0.00000000000E+00 0. -1.
</event>
<event>
 7    1  0.2661133E-009  0.9779173E+02  0.7561462E-02  0.1285009E+00
          1   -1    0    0  501    0  0.00000000000E+00  0.00000000000E+00  0.47805338184E+03  0.47805338184E+03  0.00000000000E+00 0. -1.
         -1   -1    0    0    0  501 -0.00000000000E+00 -0.00000000000E+00 -0.27034634487E+02  0.27034634487E+02  0.00000000000E+00 0.  1.
         25    2    1    2    0    0 -0.29273426491E+02 -0.22126683511E+02  0.25052558387E+03  0.28241337322E+03  0.12509085329E+03 0.  0.
          5    1    3    3  502    0 -0.43191497343E+02  0.29836147297E+02  0.42995371795E+02  0.67983641591E+02  0.41800000000E+01 0. -1.
         -5    1    3    3    0  502  0.13918070852E+02 -0.51962830808E+02  0.20753021208E+03  0.21442973163E+03  0.41800000000E+01 0. -1.
        -11    1    1    2    0    0  0.10830495509E+02 -0.30942565664E+02  0.12079245693E+03  0.12516213347E+03  0.00000000000E+00 0. -1.
         11    1    1    2    0    0  0.18442930981E+02  0.53069249175E+02  0.79700706545E+02  0.97512509633E+02  0.00000000000E+00 0.  1.
</event>
<event>
 7    1  0.2661133E-009  0.1131131E+03  0.7561462E-02  0.1254911E+00
         -2   -1    0    0    0  501 -0.00000000000E+00  0.00000000000E+00  0.61129922481E+02  0.61129922481E+02  0.00000000000E+00 0.  1.
          2   -1    0    0  501    0  0.00000000000E+00 -0.00000000000E+00 -0.28290801552E+03  0.28290801552E+03  0.00000000000E+00 0. -1.
         25    2    1    2    0    0  0.67130425095E+02 -0.20289375645E+02 -0.14312415061E+03  0.20260380142E+03  0.12508247329E+03 0.  0.
          5    1    3    3  502    0 -0.20002141421E+02  0.25173840878E+02 -0.46631296678E+01  0.32757061899E+02  0.41800000000E+01 0.  1.
         -5    1    3    3    0  502  0.87132566516E+02 -0.45463216523E+02 -0.13846102094E+03  0.16984673952E+03  0.41800000000E+01 0.  1.
        -11    1    1    2    0    0 -0.33949264665E+02 -0.22914234618E+02 -0.76667843650E+02  0.86922798904E+02  0.00000000000E+00 0. -1.
         11    1    1    2    0    0 -0.33181160430E+02  0.43203610263E+02 -0.19860987777E+01  0.54511337679E+02  0.00000000000E+00 0.  1.
</event>
<event>
 7    1  0.2661133E-009  0.2085917E+03  0.7561462E-02  0.1142686E+00
          1   -1    0    0  501    0  0.00000000000E+00  0.00000000000E+00  0.11527799228E+04  0.11527799228E+04  0.00000000000E+00 0. -1.
         -1   -1    0    0    0  501 -0.00000000000E+00 -0.00000000000E+00 -0.42605506526E+02  0.42605506526E+02  0.00000000000E+00 0.  1.
         25    2    1    2    0    0  0.14457490719E+03 -0.12773086112E+03  0.60398117023E+03  0.64626525227E+03  0.12509374734E+03 0.  0.
          5    1    3    3  502    0  0.15482926911E+03 -0.82393245152E+02  0.39615382006E+03  0.43326212731E+03  0.41800000000E+01 0. -1.
         -5    1    3    3    0  502 -0.10254361915E+02 -0.45337615973E+02  0.20782735017E+03  0.21300312496E+03  0.41800000000E+01 0. -1.
        -11    1    1    2    0    0 -0.98243053183E+02  0.67994786636E+02  0.19346662216E+03  0.22738584476E+03  0.00000000000E+00 0.  1.
         11    1    1    2    0    0 -0.46331854012E+02  0.59736074489E+02  0.31272662392E+03  0.32173433233E+03  0.00000000000E+00 0. -1.
</event>
<event>
 7    1  0.2661133E-009  0.1934105E+03  0.7561462E-02  0.1155421E+00
          2   -1    0    0  501    0  0.00000000000E+00  0.00000000000E+00  0.12382154462E+04  0.12382154462E+04  0.00000000000E+00 0. -1.
         -2   -1    0    0    0  501 -0.00000000000E+00 -0.00000000000E+00 -0.38130029670E+02  0.38130029670E+02  0.00000000000E+00 0.  1.
         25    2    1    2    0    0 -0.74531401913E+02  0.16370011598E+03  0.77384190421E+03  0.80425835540E+03  0.12509017416E+03 0.  0.
          5    1    3    3  502    0 -0.17219862299E+02  0.94573678045E+01  0.33437908519E+03  0.33498180618E+03  0.41800000000E+01 0.  1.
         -5    1    3    3    0  502 -0.57311539614E+02  0.15424274818E+03  0.43946281903E+03  0.46927654922E+03  0.41800000000E+01 0.  1.
        -11    1    1    2    0    0  0.96422858263E+02 -0.12792086840E+03  0.35382313420E+03  0.38839660975E+03  0.00000000000E+00 0.  1.
         11    1    1    2    0    0 -0.21891456350E+02 -0.35779247580E+02  0.72420378131E+02  0.83690510735E+02  0.00000000000E+00 0. -1.
</event>
<event>
 7    1  0.2661133E-009  0.1226851E+03  0.7561462E-02  0.1238732E+00
         -2   -1    0    0    0  501 -0.00000000000E+00  0.00000000000E+00  0.20679260271E+03  0.20679260271E+03  0.00000000000E+00 0.  1.
          2   -1    0    0  501    0  0.00000000000E+00 -0.00000000000E+00 -0.11247094806E+03  0.11247094806E+03  0.00000000000E+00 0. -1.
         25    2    1    2    0    0 -0.40265145455E+02  0.76326403085E+02 -0.63233511075E+01  0.15210055332E+03  0.12509033458E+03 0.  0.
          5    1    3    3  502    0  0.26944706664E+02 -0.13568989683E+02  0.20384381883E+02  0.36648739718E+02  0.41800000000E+01 0. -1.
         -5    1    3    3    0  502 -0.67209852118E+02  0.89895392768E+02 -0.26707732991E+02  0.11545181360E+03  0.41800000000E+01 0. -1.
        -11    1    1    2    0    0  0.54215967898E+02 -0.56043853947E+02  0.11479121432E+03  0.13877070161E+03  0.00000000000E+00 0.  1.
         11    1    1    2    0    0 -0.13950822443E+02 -0.20282549138E+02 -0.14146208559E+02  0.28392295838E+02  0.00000000000E+00 0. -1.
</event>
<event>
 7    1  0.2661133E-009  0.1394328E+03  0.7561462E-02  0.1214094E+00
          1   -1    0    0  501    0  0.00000000000E+00  0.00000000000E+00  0.41978080064E+03  0.41978080064E+03  0.00000000000E+00 0. -1.
         -1   -1    0    0    0  501 -0.00000000000E+00 -0.00000000000E+00 -0.56421755970E+02  0.56421755970E+02  0.00000000000E+00 0.  1.
         25    2    1    2    0    0 -0.98232685794E+02  0.19939981290E+02  0.13438908411E+03  0.20917979077E+03  0.12509394680E+03 0.  0.
          5    1    3    3  502    0  0.18253507524E+02  0.16414792836E+02 -0.70359081510E+01  0.25876869290E+02  0.41800000000E+01 0.  1.
         -5    1    3    3    0  502 -0.11648619332E+03  0.35251884541E+01  0.14142499226E+03  0.18330292148E+03  0.41800000000E+01 0.  1.
        -11    1    1    2    0    0 -0.59098709677E+01  0.23705223877E+02  0.43005445201E+02  0.49460413775E+02  0.00000000000E+00 0.  1.
         11    1    1    2    0    0  0.10414255676E+03 -0.43645205167E+02  0.18596451536E+03  0.21756235207E+03  0.00000000000E+00 0. -1.
</event>
<event>
 7    1  0.2661133E-009  0.1517365E+03  0.7561462E-02  0.1198355E+00
          1   -1    0    0  501    0  0.00000000000E+00  0.00000000000E+00  0.28213145502E+02  0.28213145502E+02  0.00000000000E+00 0. -1.
         -1   -1    0    0    0  501 -0.00000000000E+00 -0.00000000000E+00 -0.85231575768E+03  0.85231575768E+03  0.00000000000E+00 0.  1.
         25    2    1    2    0    0 -0.40547337170E+02  0.90215727460E+02 -0.34493833320E+03  0.38001523674E+03  0.12508462102E+03 0.  0.
          5    1    3    3  502    0 -0.77317231149E+02  0.19807199546E+02 -0.17261024622E+03  0.19021579557E+03  0.41800000000E+01 0.  1.
         -5    1    3    3    0  502  0.36769893979E+02  0.70408527914E+02 -0.17232808698E+03  0.18979944117E+03  0.41800000000E+01 0.  1.
        -11    1    1    2    0    0  0.68477148652E+02 -0.24714194031E+02 -0.26524228282E+03  0.27505159492E+03  0.00000000000E+00 0. -1.
         11    1    1    2    0    0 -0.27929811482E+02 -0.65501533429E+02 -0.21392199616E+03  0.22546207152E+03  0.00000000000E+00 0.  1.
</event>
<event>
 7    1  0.2661133E-009  0.1091967E+03  0.7561462E-02  0.1262065E+00
          2   -1    0    0  501    0  0.00000000000E+00  0.00000000000E+00  0.13857214884E+03  0.13857214884E+03  0.00000000000E+00 0. -1.
         -2   -1    0    0    0  501 -0.00000000000E+00 -0.00000000000E+00 -0.90474288404E+02  0.90474288404E+02  0.00000000000E+00 0.  1.
         25    2    1    2    0    0  0.16597325556E+02 -0.98919347033E+00  0.26506446866E+01  0.12622142251E+03  0.12509345252E+03 0.  0.
          5    1    3    3  502    0 -0.18713982418E+02 -0.56837954908E+02  0.10535009056E+01  0.59994570756E+02  0.41800000000E+01 0.  1.
         -5    1    3    3    0  502  0.35311307974E+02  0.55848761438E+02  0.15971437811E+01  0.66226851754E+02  0.41800000000E+01 0.  1.
        -11    1    1    2    0    0 -0.48477346446E+02 -0.21657618251E+02  0.24751555701E+02  0.58581098115E+02  0.00000000000E+00 0. -1.
         11    1    1    2    0    0  0.31880020889E+02  0.22646811722E+02  0.20695660048E+02  0.44243916620E+02  0.00000000000E+00 0.  1.
</event>
<event>
 7    1  0.2661133E-009  0.1748779E+03  0.7561462E-02  0.1172854E+00
         -1   -1    0    0    0  501 -0.00000000000E+00  0.00000000000E+00  0.23086029495E+02  0.23086029495E+02  0.00000000000E+00 0.  1.
          1   -1    0    0  501    0  0.00000000000E+00 -0.00000000000E+00 -0.15063423367E+04  0.15063423367E+04  0.00000000000E+00 0. -1.
         25    2    1    2    0    0 -0.26614920313E+02 -0.13554389843E+03 -0.52930423771E+03  0.56115116704E+03  0.12508858392E+03 0.  0.
          5    1    3    3  502    0 -0.36962881676E+02  0.95706946235E+01 -0.15119548498E+03  0.15599807658E+03  0.41800000000E+01 0.  1.
         -5    1    3    3    0  502  0.10347961363E+02 -0.14511459305E+03 -0.37810875273E+03  0.40515309046E+03  0.41800000000E+01 0.  1.
        -11    1    1    2    0    0  0.53585677999E+02  0.40956809048E+02 -0.40756961290E+03  0.41311242350E+03  0.00000000000E+00 0. -1.
         11    1    1    2    0    0 -0.26970757686E+02  0.94587089380E+02 -0.54638245658E+03  0.55516477564E+03  0.00000000000E+00 0.  1.
</event>
<event>
 7    1  0.2661133E-009  0.1088537E+03  0.7561462E-02  0.1262708E+00
         -2   -1    0    0    0  501 -0.00000000000E+00  0.00000000000E+00  0.17981172160E+03  0.17981172160E+03  0.00000000000E+00 0.  1.
          2   -1    0    0  501    0  0.00000000000E+00 -0.00000000000E+00 -0.15189237820E+03  0.15189237820E+03  0.00000000000E+00 0. -1.
         25    2    1    2    0    0 -0.23487261231E+02  0.47302703726E+02  0.12837060735E+03  0.18685951222E+03  0.12509303439E+03 0.  0.
          5    1    3    3  502    0  0.11721862412E+02 -0.30054337481E+02 -0.37704241200E+00  0.32531213024E+02  0.41800000000E+01 0.  1.
         -5    1    3    3    0  502 -0.35209123643E+02  0.77357041207E+02  0.12874764976E+03  0.15432829919E+03  0.41800000000E+01 0.  1.
        -11    1    1    2    0    0 -0.24158509796E+02 -0.46533231748E+02 -0.31947764479E+02  0.61397352611E+02  0.00000000000E+00 0.  1.
         11    1    1    2    0    0  0.47645771027E+02 -0.76947197754E+00 -0.68503499470E+02  0.83447234966E+02  0.00000000000E+00 0. -1.
</event>
<event>
 7    1  0.2661133E-009  0.1027254E+03  0.7561462E-02  0.1274667E+00
          2   -1    0    0  501    0  0.00000000000E+00  0.00000000000E+00  0.27750661401E+03  0.27750661401E+03  0.00000000000E+00 0.  1.
         -2   -1    0    0    0  501 -0.00000000000E+00 -0.00000000000E+00 -0.70978440004E+02  0.70978440004E+02  0.00000000000E+00 0. -1.
         25    2    1    2    0    0  0.73624804106E+02  0.31478210164E+02  0.64315819532E+02  0.16184447017E+03  0.12508244636E+03 0.  0.
          5    1    3    3  502    0  0.10178917456E+02  0.22363576657E+02  0.89458439274E+02  0.92865627004E+02  0.41800000000E+01 0. -1.
         -5    1    3    3    0  502  0.63445886650E+02  0.91146335075E+01 -0.25142619742E+02  0.68978843164E+02  0.41800000000E+01 0. -1.
        -11    1    1    2    0    0 -0.35076236437E+02  0.28364316292E+02  0.31502705828E+02  0.55020880362E+02  0.00000000000E+00 0.  1.
         11    1    1    2    0    0 -0.38548567669E+02 -0.59842526456E+02  0.11070964864E+03  0.13161970348E+03  0.00000000000E+00 0. -1.
</event>
<event>
 7    1  0.2661133E-009  0.1240948E+03  0.7561462E-02  0.1236491E+00
         -2   -1    0    0    0  501 -0.00000000000E+00  0.00000000000E+00  0.13163108833E+02  0.13163108833E+02  0.00000000000E+00 0.  1.
          2   -1    0    0  501    0  0.00000000000E+00 -0.00000000000E+00 -0.13443986725E+04  0.13443986725E+04  0.00000000000E+00 0. -1.
         25    2    1    2    0    0 -0.61397759725E+02  0.28238821536E+02 -0.89131454631E+03  0.90258323025E+03  0.12509097138E+03 0.  0.
          5    1    3    3  502    0 -0.34877145229E+02  0.76037476383E+02 -0.63282455196E+03  0.63834355878E+03  0.41800000000E+01 0. -1.
         -5    1    3    3    0  502 -0.26520614496E+02 -0.47798654847E+02 -0.25848999436E+03  0.26423967147E+03  0.41800000000E+01 0. -1.
        -11    1    1    2    0    0  0.34000410721E+02  0.29938174174E+02 -0.11206214830E+03  0.12087285586E+03  0.00000000000E+00 0. -1.
         11    1    1    2    0    0  0.27397349004E+02 -0.58176995711E+02 -0.32785886909E+03  0.33410569525E+03  0.00000000000E+00 0.  1.
</event>
<event>
 7    1  0.2661133E-009  0.1079759E+03  0.7561462E-02  0.1264365E+00
          1   -1    0    0  501    0  0.00000000000E+00  0.00000000000E+00  0.29642152758E+03  0.29642152758E+03  0.00000000000E+00 0. -1.
         -1   -1    0    0    0  501 -0.00000000000E+00 -0.00000000000E+00 -0.71271013105E+02  0.71271013105E+02  0.00000000000E+00 0.  1.
         25    2    1    2    0    0 -0.46455498615E+02 -0.19937923597E+02  0.16736446325E+02  0.13595121180E+03  0.12508792590E+03 0.  0.
          5    1    3    3  502    0 -0.33159775719E+02  0.43375171013E+02 -0.23568248323E+02  0.59614687076E+02  0.41800000000E+01 0.  1.
         -5    1    3    3    0  502 -0.13295722896E+02 -0.63313094609E+02  0.40304694648E+02  0.76336524724E+02  0.41800000000E+01 0.  1.
        -11    1    1    2    0    0  0.37776864822E+02 -0.28395221409E+02  0.13821809779E+03  0.14607403148E+03  0.00000000000E+00 0. -1.
         11    1    1    2    0    0  0.86786337928E+01  0.48333145005E+02  0.70195970355E+02  0.85667297405E+02  0.00000000000E+00 0.  1.
</event>
<event>
 7    1  0.2661133E-009  0.8862618E+02  0.7561462E-02  0.1306213E+00
         -1   -1    0    0    0  501 -0.00000000000E+00  0.00000000000E+00  0.87523459359E+02  0.87523459359E+02  0.00000000000E+00 0.  1.
          1   -1    0    0  501    0  0.00000000000E+00 -0.00000000000E+00 -0.18193424644E+03  0.18193424644E+03  0.00000000000E+00 0. -1.
         25    2    1    2    0    0 -0.42233350353E+02 -0.22929776150E+02 -0.77691466432E+01  0.13422776292E+03  0.12508917692E+03 0.  0.
          5    1    3    3  502    0 -0.41490494874E+02 -0.62482282289E+02 -0.38075989533E+02  0.84218466762E+02  0.41800000000E+01 0. -1.
         -5    1    3    3    0  502 -0.74285547969E+00  0.39552506139E+02  0.30306842890E+02  0.50009296157E+02  0.41800000000E+01 0. -1.
        -11    1    1    2    0    0  0.46773993347E+02  0.89084897839E+01 -0.27577777358E+00  0.47615582504E+02  0.00000000000E+00 0.  1.
         11    1    1    2    0    0 -0.45406429933E+01  0.14021286366E+02 -0.86365862665E+02  0.87614360375E+02  0.00000000000E+00 0. -1.
</event>
<event>
 7    1  0.2661133E-009  0.1062968E+03  0.7561462E-02  0.1267585E+00
         -1   -1    0    0    0  501 -0.00000000000E+00  0.00000000000E+00  0.15536110271E+03  0.15536110271E+03  0.00000000000E+00 0.  1.
          1   -1    0    0  501    0  0.00000000000E+00 -0.00000000000E+00 -0.11350762903E+03  0.11350762903E+03  0.00000000000E+00 0. -1.
         25    2    1    2    0    0 -0.10965111754E+02  0.15287591388E+02  0.97282988211E+02  0.15958040516E+03  0.12509189338E+03 0.  0.
          5    1    3    3  502    0  0.33685055651E+02  0.50978484057E+02  0.77866398159E+02  0.99066327141E+02  0.41800000000E+01 0. -1.
         -5    1    3    3    0  502 -0.44650167405E+02 -0.35690892669E+02  0.19416590052E+02  0.60514078015E+02  0.41800000000E+01 0. -1.
        -11    1    1    2    0    0 -0.30492455445E+02  0.22534751004E+02 -0.25438652352E+02  0.45658842247E+02  0.00000000000E+00 0.  1.
         11    1    1    2    0    0  0.41457567198E+02 -0.37822342392E+02 -0.29990862180E+02  0.63629484332E+02  0.00000000000E+00 0. -1.
</event>
<event>
 7    1  0.2661133E-009  0.1129749E+03  0.7561462E-02  0.1255158E+00
         -1   -1    0    0    0  501 -0.00000000000E+00  0.00000000000E+00  0.63928656321E+02  0.63928656321E+02  0.00000000000E+00 0.  1.
          1   -1    0    0  501    0  0.00000000000E+00 -0.00000000000E+00 -0.32353669139E+03  0.32353669139E+03  0.00000000000E+00 0. -1.
         25    2    1    2    0    0  0.55174976855E+02  0.41147147438E+02 -0.22189359682E+03  0.26385953324E+03  0.12509084362E+03 0.  0.
          5    1    3    3  502    0 -0.15888868388E+02  0.60973639883E+02 -0.66029016675E+02  0.91364896663E+02  0.41800000000E+01 0.  1.
         -5    1    3    3    0  502  0.71063845244E+02 -0.19826492445E+02 -0.15586458015E+03  0.17249463658E+03  0.41800000000E+01 0.  1.
        -11    1    1    2    0    0  0.54343478092E+01 -0.25823246588E+02 -0.53036685607E+02  0.59239026162E+02  0.00000000000E+00 0.  1.
         11    1    1    2    0    0 -0.60609324665E+02 -0.15323900850E+02  0.15322247357E+02  0.64366788312E+02  0.00000000000E+00 0. -1.
</event>
<event>
 7    1  0.2661133E-009  0.1122399E+03  0.7561462E-02  0.1256477E+00
          2   -1    0    0  501    0  0.00000000000E+00  0.00000000000E+00  0.45258740395E+03  0.45258740395E+03  0.00000000000E+00 0. -1.
         -2   -1    0    0    0  501 -0.00000000000E+00 -0.00000000000E+00 -0.33631109987E+02  0.33631109987E+02  0.00000000000E+00 0.  1.
         25    2    1    2    0    0  0.19588429109E+02 -0.54826385245E+02  0.25114610332E+03  0.28655162931E+03  0.12509129455E+03 0.  0.
          5    1    3    3  502    0  0.61681013032E+02 -0.54413097934E+02  0.21727613045E+03  0.23236118836E+03  0.41800000000E+01 0. -1.
         -5    1    3    3    0  502 -0.42092583923E+02 -0.41328731103E+00  0.33869972877E+02  0.54190440951E+02  0.41800000000E+01 0. -1.
        -11    1    1    2    0    0 -0.49292790485E+02  0.17929653872E+02  0.12601691206E+03  0.13649730330E+03  0.00000000000E+00 0.  1.
         11    1    1    2    0    0  0.29704361376E+02  0.36896731373E+02  0.41793278575E+02  0.63169581325E+02  0.00000000000E+00 0. -1.
</event>
<event>
 7    1  0.2661133E-009  0.9819757E+02  0.7561462E-02  0.1284133E+00
         -2   -1    0    0    0  501 -0.00000000000E+00  0.00000000000E+00  0.56165411148E+03  0.56165411148E+03  0.00000000000E+00 0.  1.
          2   -1    0    0  501    0  0.00000000000E+00 -0.00000000000E+00 -0.38904391259E+02  0.38904391259E+02  0.00000000000E+00 0. -1.
         25    2    1    2    0    0  0.62401413018E+02 -0.42595831562E+02  0.43273316495E+03  0.45674153965E+03  0.12508597354E+03 0.  0.
          5    1    3    3  502    0  0.77187263797E+02 -0.58282874013E+02  0.19216685023E+03  0.21517513291E+03  0.41800000000E+01 0.  1.
         -5    1    3    3    0  502 -0.14785850780E+02  0.15687042451E+02  0.24056631472E+03  0.24156640674E+03  0.41800000000E+01 0.  1.
        -11    1    1    2    0    0 -0.32290286021E+02  0.32636581875E+02  0.10043762588E+03  0.11043335430E+03  0.00000000000E+00 0.  1.
         11    1    1    2    0    0 -0.30111126997E+02  0.99592496871E+01 -0.10421070618E+02  0.33383608795E+02  0.00000000000E+00 0. -1.
</event>
<event>
 7    1  0.2661133E-009  0.1542975E+03  0.7561462E-02  0.1195290E+00
         -1   -1    0    0    0  501 -0.00000000000E+00  0.00000000000E+00  0.62193493158E+02  0.62193493158E+02  0.00000000000E+00 0.  1.
          1   -1    0    0  501    0  0.00000000000E+00 -0.00000000000E+00 -0.45668100160E+03  0.45668100160E+03  0.00000000000E+00 0. -1.
         25    2    1    2    0    0  0.11941286329E+03  0.31684150904E+02 -0.15622237633E+03  0.23518936371E+03  0.12508112806E+03 0.  0.
          5    1    3    3  502    0  0.16084490511E+02  0.62380805061E+02 -0.81473892111E+02  0.10394971463E+03  0.41800000000E+01 0.  1.
         -5    1    3    3    0  502  0.10332837278E+03 -0.30696654156E+02 -0.74748484221E+02  0.13123964908E+03  0.41800000000E+01 0.  1.
        -11    1    1    2    0    0 -0.96579648513E+02  0.65057536481E+00 -0.21964256821E+03  0.23993938719E+03  0.00000000000E+00 0. -1.
         11    1    1    2    0    0 -0.22833214777E+02 -0.32334726269E+02 -0.18622563903E+02  0.43745743865E+02  0.00000000000E+00 0.  1.
</event>
<event>
 7    1  0.3004278E-009  0.8805190E+02  0.7561462E-02  0.1307639E+00
          1   -1    0    0  501    0  0.00000000000E+00  0.00000000000E+00  0.12656239599E+03  0.12656239599E+03  0.00000000000E+00 0. -1.
         -1   -1    0    0    0  501 -0.00000000000E+00 -0.00000000000E+00 -0.11022246891E+03  0.11022246891E+03  0.00000000000E+00 0.  1.
         25    2    1    2    0    0  0.36462815628E+02  0.31960754088E+01 -0.19923182958E+02  0.13184793521E+03  0.12508874042E+03 0.  0.
          5    1    3    3  502    0 -0.30913107529E+02  0.59149985226E+01  0.33174074296E+02  0.45919484209E+02  0.41800000000E+01 0.  1.
         -5    1    3    3    0  502  0.67375923157E+02 -0.27189231138E+01 -0.53097257255E+02  0.85928451005E+02  0.41800000000E+01 0.  1.
        -11    1    1    2    0    0 -0.41143618111E+01  0.30094680700E+02  0.48232432339E+02  0.56999871130E+02  0.00000000000E+00 0.  1.
         11    1    1    2    0    0 -0.32348453817E+02 -0.33290756109E+02 -0.11969322295E+02  0.47937058554E+02  0.00000000000E+00 0. -1.
</event>
<event>
 7    1  0.2661133E-009  0.1438900E+03  0.7561462E-02  0.1208188E+00
         -2   -1    0    0    0  501 -0.00000000000E+00  0.00000000000E+00  0.30420703424E+03  0.30420703424E+03  0.00000000000E+00 0.  1.
          2   -1    0    0  501    0  0.00000000000E+00 -0.00000000000E+00 -0.82589419392E+02  0.82589419392E+02  0.00000000000E+00 0. -1.
         25    2    1    2    0    0  0.62482330536E+02 -0.87888866532E+02  0.16821264776E+03  0.23573289263E+03  0.12508400102E+03 0.  0.
          5    1    3    3  502    0  0.41375802947E+02  0.23528637981E+02  0.28097245023E+02  0.55429968903E+02  0.41800000000E+01 0.  1.
         -5    1    3    3    0  502  0.21106527590E+02 -0.11141750451E+03  0.14011540274E+03  0.18030292372E+03  0.41800000000E+01 0.  1.
        -11    1    1    2    0    0  0.54582293822E+00  0.55788566217E+02  0.57622665581E+02  0.80206194473E+02  0.00000000000E+00 0.  1.
         11    1    1    2    0    0 -0.63028153475E+02  0.32100300314E+02 -0.42176984969E+01  0.70857366528E+02  0.00000000000E+00 0. -1.
</event>
<event>
 7    1  0.2661133E-009  0.3521301E+03  0.7561462E-02  0.1061744E+00
          2   -1    0    0  501    0  0.00000000000E+00  0.00000000000E+00  0.22724133861E+04  0.22724133861E+04  0.00000000000E+00 0. -1.
         -2   -1    0    0    0  501 -0.00000000000E+00 -0.00000000000E+00 -0.57917893915E+02  0.57917893915E+02  0.00000000000E+00 0.  1.
         25    2    1    2    0    0 -0.31582473788E+03 -0.13638782802E+03  0.99888623381E+03  0.10638469439E+04  0.12509878959E+03 0.  0.
          5    1    3    3  502    0 -0.53242664469E+00 -0.18776997188E+02  0.16280246431E+02  0.25206703977E+02  0.41800000000E+01 0.  1.
         -5    1    3    3    0  502 -0.31529231124E+03 -0.11761083083E+03  0.98260598738E+03  0.10386402399E+04  0.41800000000E+01 0.  1.
        -11    1    1    2    0    0  0.26564282795E+03  0.13568546051E+03  0.11127142993E+04  0.11520025035E+04  0.00000000000E+00 0. -1.
         11    1    1    2    0    0  0.50181909926E+02  0.70236751116E+00  0.10289495908E+03  0.11448183266E+03  0.00000000000E+00 0.  1.
</event>
<event>
 7    1  0.2661133E-009  0.1817813E+03  0.7561462E-02  0.1166090E+00
         -2   -1    0    0    0  501 -0.00000000000E+00  0.00000000000E+00  0.79457698730E+03  0.79457698730E+03  0.00000000000E+00 0. -1.
          2   -1    0    0  501    0  0.00000000000E+00 -0.00000000000E+00 -0.48524247899E+02  0.48524247899E+02  0.00000000000E+00 0.  1.
         25    2    1    2    0    0 -0.13317636794E+03  0.69454475424E+02  0.52765607570E+03  0.56269634935E+03  0.12508548361E+03 0.  0.
          5    1    3    3  502    0 -0.64796625683E+02 -0.32400713421E+02  0.18559657043E+03  0.19927861974E+03  0.41800000000E+01 0.  1.
         -5    1    3    3    0  502 -0.68379742258E+02  0.10185518885E+03  0.34205950527E+03  0.36341772961E+03  0.41800000000E+01 0.  1.
        -11    1    1    2    0    0  0.37034559874E+02 -0.61480866863E+02  0.13495368008E+03  0.15285271140E+03  0.00000000000E+00 0.  1.
         11    1    1    2    0    0  0.96141808067E+02 -0.79736085611E+01  0.83442983618E+02  0.12755217445E+03  0.00000000000E+00 0. -1.
</event>
<event>
 7    1  0.3188038E-009  0.1077811E+03  0.7561462E-02  0.1264735E+00
          2   -1    0    0  501    0  0.00000000000E+00  0.00000000000E+00  0.15428986918E+04  0.15428986918E+04  0.00000000000E+00 0. -1.
         -2   -1    0    0    0  501 -0.00000000000E+00 -0.00000000000E+00 -0.10521596515E+02  0.10521596515E+02  0.00000000000E+00 0.  1.
         25    2    1    2    0    0 -0.15027860297E+02  0.11123458332E+02  0.12394335234E+04  0.12458701273E+04  0.12508935641E+03 0.  0.
          5    1    3    3  502    0 -0.56342825688E+02 -0.31420885667E+02  0.52450321238E+03  0.52847221144E+03  0.41800000000E+01 0. -1.
         -5    1    3    3    0  502  0.41314965391E+02  0.42544343999E+02  0.71493031105E+03  0.71739791583E+03  0.41800000000E+01 0. -1.
        -11    1    1    2    0    0 -0.33241084157E+02 -0.24594675530E+02  0.10016905262E+03  0.10836838489E+03  0.00000000000E+00 0. -1.
         11    1    1    2    0    0  0.48268944454E+02  0.13471217198E+02  0.19277451926E+03  0.19918177620E+03  0.00000000000E+00 0.  1.
</event>
<event>
 7    1  0.2661133E-009  0.8563206E+02  0.7561462E-02  0.1313788E+00
          1   -1    0    0  501    0  0.00000000000E+00  0.00000000000E+00  0.92429401858E+02  0.92429401858E+02  0.00000000000E+00 0. -1.
         -1   -1    0    0    0  501 -0.00000000000E+00 -0.00000000000E+00 -0.12631927150E+03  0.12631927150E+03  0.00000000000E+00 0.  1.
         25    2    1    2    0    0 -0.24433149888E+01  0.42766603749E+01 -0.18353777478E+02  0.12652436341E+03  0.12508914332E+03 0.  0.
          5    1    3    3  502    0 -0.18706416968E+01 -0.50757898005E+02 -0.42421491832E+02  0.66309266920E+02  0.41800000000E+01 0. -1.
         -5    1    3    3    0  502 -0.57267329197E+00  0.55034558380E+02  0.24067714353E+02  0.60215096488E+02  0.41800000000E+01 0. -1.
        -11    1    1    2    0    0  0.33687198676E+02 -0.11927220869E+01 -0.40082195010E+02  0.52372056457E+02  0.00000000000E+00 0.  1.
         11    1    1    2    0    0 -0.31243883688E+02 -0.30839382880E+01  0.24546102849E+02  0.39852253491E+02  0.00000000000E+00 0. -1.
</event>
<event>
 7    1  0.2661133E-009  0.8029687E+02  0.7561462E-02  0.1328211E+00
         -1   -1    0    0    0  501 -0.00000000000E+00  0.00000000000E+00  0.13671346668E+03  0.13671346668E+03  0.00000000000E+00 0.  1.
          1   -1    0    0  501    0  0.00000000000E+00 -0.00000000000E+00 -0.12978443016E+03  0.12978443016E+03  0.00000000000E+00 0. -1.
         25    2    1    2    0    0  0.55826716398E+02  0.14088432197E+02 -0.47287371316E+02  0.14559987778E+03  0.12509245676E+03 0.  0.
          5    1    3    3  502    0  0.46953824887E+02  0.22247697096E+02 -0.88361067028E+02  0.10259031272E+03  0.41800000000E+01 0. -1.
         -5    1    3    3    0  502  0.88728915113E+01 -0.81592648995E+01  0.41073695712E+02  0.43009565063E+02  0.41800000000E+01 0. -1.
        -11    1    1    2    0    0  0.37405490734E+01 -0.33000868525E+02  0.47613719347E+02  0.58052694173E+02  0.00000000000E+00 0.  1.
         11    1    1    2    0    0 -0.59567265471E+02  0.18912436328E+02  0.66026884863E+01  0.62845324877E+02  0.00000000000E+00 0. -1.
</event>
<event>
 7    1  0.2661133E-009  0.9013817E+02  0.7561462E-02  0.1302517E+00
         -1   -1    0    0    0  501 -0.00000000000E+00  0.00000000000E+00  0.66814291044E+03  0.66814291044E+03  0.00000000000E+00 0.  1.
          1   -1    0    0  501    0  0.00000000000E+00 -0.00000000000E+00 -0.30498114198E+02  0.30498114198E+02  0.00000000000E+00 0. -1.
         25    2    1    2    0    0 -0.16240725018E+02  0.16230243127E+02  0.56715216803E+03  0.58123651535E+03  0.12508846123E+03 0.  0.
          5    1    3    3  502    0 -0.57485850301E+02 -0.99929306914E+00  0.47754832144E+03  0.48101506554E+03  0.41800000000E+01 0. -1.
         -5    1    3    3    0  502  0.41245125284E+02  0.17229536197E+02  0.89603846594E+02  0.10022144981E+03  0.41800000000E+01 0. -1.
        -11    1    1    2    0    0  0.41500265692E+02  0.85266007745E+01  0.70247834454E+02  0.82034951202E+02  0.00000000000E+00 0.  1.
         11    1    1    2    0    0 -0.25259540674E+02 -0.24756843902E+02  0.24479375437E+00  0.35369558083E+02  0.00000000000E+00 0. -1.
</event>
<event>
 7    1  0.2661133E-009  0.1351516E+03  0.7561462E-02  0.1220006E+00
         -1   -1    0    0    0  501 -0.00000000000E+00  0.00000000000E+00  0.11968884490E+03  0.11968884490E+03  0.00000000000E+00 0.  1.
          1   -1    0    0  501    0  0.00000000000E+00 -0.00000000000E+00 -0.34723077200E+03  0.34723077200E+03  0.00000000000E+00 0. -1.
         25    2    1    2    0    0  0.14058467740E+02 -0.12448114577E+03  0.16763218735E+02  0.17782375994E+03  0.12508832052E+03 0.  0.
          5    1    3    3  502    0 -0.16034314733E+01 -0.38649355521E+02 -0.53200300326E+02  0.65909696020E+02  0.41800000000E+01 0. -1.
         -5    1    3    3    0  502  0.15661899214E+02 -0.85831790253E+02  0.69963519060E+02  0.11191406393E+03  0.41800000000E+01 0. -1.
        -11    1    1    2    0    0 -0.66496057935E+01  0.13276565368E+03 -0.24413556627E+03  0.27798041437E+03  0.00000000000E+00 0. -1.
         11    1    1    2    0    0 -0.74088619468E+01 -0.82845079082E+01 -0.16957955444E+00  0.11115442585E+02  0.00000000000E+00 0.  1.
</event>
<event>
 7    1  0.2661133E-009  0.1078215E+03  0.7561462E-02  0.1264658E+00
         -1   -1    0    0    0  501 -0.00000000000E+00  0.00000000000E+00  0.36593745743E+02  0.36593745743E+02  0.00000000000E+00 0.  1.
          1   -1    0    0  501    0  0.00000000000E+00 -0.00000000000E+00 -0.43043726952E+03  0.43043726952E+03  0.00000000000E+00 0. -1.
         25    2    1    2    0    0 -0.43578933660E+02 -0.13843894901E+02 -0.26548768188E+03  0.29702131597E+03  0.12508867265E+03 0.  0.
          5    1    3    3  502    0 -0.48937888950E+02 -0.57563147293E+02 -0.98146922043E+02  0.12393031755E+03  0.41800000000E+01 0. -1.
         -5    1    3    3    0  502  0.53589552899E+01  0.43719252392E+02 -0.16734075984E+03  0.17309099842E+03  0.41800000000E+01 0. -1.
        -11    1    1    2    0    0 -0.40524048186E+01 -0.30430062187E+02 -0.57604472835E+01  0.31234490911E+02  0.00000000000E+00 0.  1.
         11    1    1    2    0    0  0.47631338478E+02  0.44273957088E+02 -0.12259539461E+03  0.13877520838E+03  0.00000000000E+00 0. -1.
</event>
<event>
 6    1  0.2661133E-009  0.1678986E+03  0.7561462E-02  0.1180057E+00
         -4   -1    0    0    0  501 -0.00000000000E+00  0.00000000000E+00  0.51628538683E+02  0.51628538683E+02  0.00000000000E+00 0.  1.
          4   -1    0    0  501    0  0.00000000000E+00 -0.00000000000E+00 -0.72222310857E+03  0.72222310857E+03  0.00000000000E+00 0. -1.
          5    1    1    2  502    0 -0.33860879644E+02  0.19898355011E+02 -0.18240793794E+03  0.18663502331E+03  0.41800000000E+01 0. -1.
         -5    1    1    2    0  502 -0.11814661084E+03 -0.68598383100E+02 -0.15184778924E+03  0.20430267574E+03  0.41800000000E+01 0. -1.
        -11    1    1    2    0    0  0.52946534168E+02  0.17246618906E+02 -0.39136176039E+02  0.68061895500E+02  0.00000000000E+00 0.  1.
         11    1    1    2    0    0  0.99060956319E+02  0.31453409183E+02 -0.29720266667E+03  0.31485205270E+03  0.00000000000E+00 0. -1.
</event>
<event>
 7    1  0.2661133E-009  0.1211212E+03  0.7561462E-02  0.1241259E+00
         -1   -1    0    0    0  501 -0.00000000000E+00  0.00000000000E+00  0.34803931625E+03  0.34803931625E+03  0.00000000000E+00 0.  1.
          1   -1    0    0  501    0  0.00000000000E+00 -0.00000000000E+00 -0.51262197323E+02  0.51262197323E+02  0.00000000000E+00 0. -1.
         25    2    1    2    0    0  0.74505309995E+02  0.53622815446E+01  0.13248908912E+03  0.19692896414E+03  0.12509141817E+03 0.  0.
          5    1    3    3  502    0 -0.12956323763E+02 -0.31696650518E+02  0.80443707974E+00  0.34505992212E+02  0.41800000000E+01 0.  1.
         -5    1    3    3    0  502  0.87461633759E+02  0.37058932063E+02  0.13168465204E+03  0.16242297192E+03  0.41800000000E+01 0.  1.
        -11    1    1    2    0    0 -0.57634255627E+02  0.36027879345E+02  0.12749339556E+03  0.14447934601E+03  0.00000000000E+00 0.  1.
         11    1    1    2    0    0 -0.16871054368E+02 -0.41390160889E+02  0.36794634251E+02  0.57893203432E+02  0.00000000000E+00 0. -1.
</event>
<event>
 7    1  0.2661133E-009  0.1139270E+03  0.7561462E-02  0.1253466E+00
          1   -1    0    0  501    0  0.00000000000E+00  0.00000000000E+00  0.10992085899E+03  0.10992085899E+03  0.00000000000E+00 0. -1.
         -1   -1    0    0    0  501 -0.00000000000E+00 -0.00000000000E+00 -0.18695767398E+03  0.18695767398E+03  0.00000000000E+00 0.  1.
         25    2    1    2    0    0 -0.75288450680E+02  0.60564268218E+02 -0.50806106177E+02  0.16603085542E+03  0.12509437692E+03 0.  0.
          5    1    3    3  502    0 -0.22968610814E+02  0.48963250962E+02  0.35160007353E+02  0.64642521180E+02  0.41800000000E+01 0. -1.
         -5    1    3    3    0  502 -0.52319839866E+02  0.11601017256E+02 -0.85966113530E+02  0.10138833424E+03  0.41800000000E+01 0. -1.
        -11    1    1    2    0    0  0.40325374871E+02  0.96100741713E+01  0.12640013264E+02  0.43338889226E+02  0.00000000000E+00 0. -1.
         11    1    1    2    0    0  0.34963075808E+02 -0.70174342390E+02 -0.38870722071E+02  0.87508788325E+02  0.00000000000E+00 0.  1.
</event>
<event>
 7    1  0.2661133E-009  0.1726315E+03  0.7561462E-02  0.1175131E+00
         -2   -1    0    0    0  501 -0.00000000000E+00  0.00000000000E+00  0.24570413232E+02  0.24570413232E+02  0.00000000000E+00 0. -1.
          2   -1    0    0  501    0  0.00000000000E+00 -0.00000000000E+00 -0.14531811577E+04  0.14531811577E+04  0.00000000000E+00 0.  1.
         25    2    1    2    0    0 -0.63033147457E+01 -0.13918819243E+03 -0.49214035028E+03  0.52655724085E+03  0.12508924349E+03 0.  0.
          5    1    3    3  502    0  0.47251697534E+02 -0.10414242591E+03 -0.23284245849E+03  0.25944450402E+03  0.41800000000E+01 0.  1.
         -5    1    3    3    0  502 -0.53555012279E+02 -0.35045766522E+02 -0.25929789179E+03  0.26711273683E+03  0.41800000000E+01 0.  1.
        -11    1    1    2    0    0 -0.23980839955E+02  0.13379397531E+03 -0.75679405859E+03  0.76890386631E+03  0.00000000000E+00 0.  1.
         11    1    1    2    0    0  0.30284154701E+02  0.53942171208E+01 -0.17967633559E+03  0.18229046375E+03  0.00000000000E+00 0. -1.
</event>
<event>
 7    1  0.2661133E-009  0.1278032E+03  0.7561462E-02  0.1230752E+00
          1   -1    0    0  501    0  0.00000000000E+00  0.00000000000E+00  0.36226514397E+03  0.36226514397E+03  0.00000000000E+00 0. -1.
         -1   -1    0    0    0  501 -0.00000000000E+00 -0.00000000000E+00 -0.47831434177E+02  0.47831434177E+02  0.00000000000E+00 0.  1.
         25    2    1    2    0    0  0.26131285003E+02  0.67605879386E+02  0.20162397774E+03  0.24810505106E+03  0.12510191437E+03 0.  0.
          5    1    3    3  502    0  0.28235199066E+02 -0.31208847634E+02  0.86718764530E+02  0.96482304899E+02  0.41800000000E+01 0. -1.
         -5    1    3    3    0  502 -0.21039140636E+01  0.98814727020E+02  0.11490521321E+03  0.15162274616E+03  0.41800000000E+01 0. -1.
        -11    1    1    2    0    0  0.20715415467E+02 -0.64152610338E+02  0.80394798195E+02  0.10491906132E+03  0.00000000000E+00 0. -1.
         11    1    1    2    0    0 -0.46846700470E+02 -0.34532690475E+01  0.32414933856E+02  0.57072465769E+02  0.00000000000E+00 0.  1.
</event>
<event>
 7    1  0.2661133E-009  0.1447516E+03  0.7561462E-02  0.1207075E+00
          3   -1    0    0  501    0  0.00000000000E+00  0.00000000000E+00  0.45130172376E+02  0.45130172376E+02  0.00000000000E+00 0. -1.
         -3   -1    0    0    0  501 -0.00000000000E+00 -0.00000000000E+00 -0.53136354484E+03  0.53136354484E+03  0.00000000000E+00 0.  1.
         25    2    1    2    0    0  0.10551682681E+03 -0.26906372745E+02 -0.22179001461E+03  0.27694290661E+03  0.12509520097E+03 0.  0.
          5    1    3    3  502    0  0.42087133457E+02 -0.63163389472E+02 -0.17306994695E+03  0.18902809185E+03  0.41800000000E+01 0. -1.
         -5    1    3    3    0  502  0.63429693357E+02  0.36257016728E+02 -0.48720067664E+02  0.87914814761E+02  0.41800000000E+01 0. -1.
        -11    1    1    2    0    0 -0.48986676518E+01  0.38692008795E+02 -0.84052212389E+02  0.92659823531E+02  0.00000000000E+00 0.  1.
         11    1    1    2    0    0 -0.10061815916E+03 -0.11785636051E+02 -0.18039114547E+03  0.20689098707E+03  0.00000000000E+00 0. -1.
</event>
<event>
 7    1  0.2661133E-009  0.1239841E+03  0.7561462E-02  0.1236666E+00
         -1   -1    0    0    0  501 -0.00000000000E+00  0.00000000000E+00  0.60007085039E+02  0.60007085039E+02  0.00000000000E+00 0.  1.
          1   -1    0    0  501    0  0.00000000000E+00 -0.00000000000E+00 -0.29887061928E+03  0.29887061928E+03  0.00000000000E+00 0. -1.
         25    2    1    2    0    0  0.37531374294E+02 -0.67396119813E+02 -0.12818067780E+03  0.19500645697E+03  0.12508553504E+03 0.  0.
          5    1    3    3  502    0 -0.45141532562E+02 -0.11309518178E+02 -0.46155213749E+02  0.65676779151E+02  0.41800000000E+01 0. -1.
         -5    1    3    3    0  502  0.82672906856E+02 -0.56086601635E+02 -0.82025464051E+02  0.12932967782E+03  0.41800000000E+01 0. -1.
        -11    1    1    2    0    0 -0.53455058193E+02  0.31651099272E+02 -0.20257833271E+02  0.65342292126E+02  0.00000000000E+00 0.  1.
         11    1    1    2    0    0  0.15923683899E+02  0.35745020542E+02 -0.90425023167E+02  0.98528955222E+02  0.00000000000E+00 0. -1.
</event>
<event>
 7    1  0.2661133E-009  0.1193101E+03  0.7561462E-02  0.1244239E+00
         -2   -1    0    0    0  501 -0.00000000000E+00  0.00000000000E+00  0.23077394631E+02  0.23077394631E+02  0.00000000000E+00 0. -1.
          2   -1    0    0  501    0  0.00000000000E+00 -0.00000000000E+00 -0.93926310099E+03  0.93926310099E+03  0.00000000000E+00 0.  1.
         25    2    1    2    0    0 -0.74829809841E+02  0.64586386905E+01 -0.71403594810E+03  0.72878669929E+03  0.12506599631E+03 0.  0.
          5    1    3    3  502    0 -0.73934202708E+02 -0.47119600676E+02 -0.52382244215E+03  0.53112517018E+03  0.41800000000E+01 0.  1.
         -5    1    3    3    0  502 -0.89560713324E+00  0.53578239366E+02 -0.19021350595E+03  0.19766152912E+03  0.41800000000E+01 0.  1.
        -11    1    1    2    0    0  0.31181252403E+02  0.27673105185E+02 -0.15590261812E+03  0.16138059855E+03  0.00000000000E+00 0.  1.
         11    1    1    2    0    0  0.43648557438E+02 -0.34131743875E+02 -0.46247140138E+02  0.72173197777E+02  0.00000000000E+00 0. -1.
</event>
<event>
 7    1  0.2661133E-009  0.9350905E+02  0.7561462E-02  0.1294570E+00
          1   -1    0    0  501    0  0.00000000000E+00  0.00000000000E+00  0.52388560740E+02  0.52388560740E+02  0.00000000000E+00 0. -1.
         -1   -1    0    0    0  501 -0.00000000000E+00 -0.00000000000E+00 -0.28420629972E+03  0.28420629972E+03  0.00000000000E+00 0.  1.
         25    2    1    2    0    0  0.41254151418E+01  0.16822790750E+02 -0.55390159384E+02  0.13789585393E+03  0.12508865430E+03 0.  0.
          5    1    3    3  502    0 -0.54011908108E+02 -0.91024291748E+01 -0.24336430527E+01  0.54986684324E+02  0.41800000000E+01 0. -1.
         -5    1    3    3    0  502  0.58137323250E+02  0.25925219925E+02 -0.52956516331E+02  0.82909169606E+02  0.41800000000E+01 0. -1.
        -11    1    1    2    0    0 -0.24136362973E+02 -0.34152512724E+02 -0.16437669103E+03  0.16961325036E+03  0.00000000000E+00 0.  1.
         11    1    1    2    0    0  0.20010947831E+02  0.17329721974E+02 -0.12050888562E+02  0.29085756169E+02  0.00000000000E+00 0. -1.
</event>
<event>
 7    1  0.2661133E-009  0.7948930E+02  0.7561462E-02  0.1330507E+00
          2   -1    0    0  501    0  0.00000000000E+00  0.00000000000E+00  0.47274535332E+03  0.47274535332E+03  0.00000000000E+00 0. -1.
         -2   -1    0    0    0  501 -0.00000000000E+00 -0.00000000000E+00 -0.24836632879E+02  0.24836632879E+02  0.00000000000E+00 0.  1.
         25    2    1    2    0    0 -0.82302018731E+01  0.44219273789E+01  0.23392833984E+03  0.26543284991E+03  0.12507933469E+03 0.  0.
          5    1    3    3  502    0 -0.15381796912E+02 -0.40677547786E+02  0.22602541364E+02  0.49189529844E+02  0.41800000000E+01 0.  1.
         -5    1    3    3    0  502  0.71515950391E+01  0.45099475165E+02  0.21132579848E+03  0.21624332007E+03  0.41800000000E+01 0.  1.
        -11    1    1    2    0    0 -0.27340636892E+02 -0.16424056573E+02  0.17555619809E+03  0.17842992671E+03  0.00000000000E+00 0. -1.
         11    1    1    2    0    0  0.35570838765E+02  0.12002129195E+02  0.38424182513E+02  0.53719209576E+02  0.00000000000E+00 0.  1.
</event>
<event>
 7    1  0.2661133E-009  0.7505026E+02  0.7561462E-02  0.1343715E+00
         -3   -1    0    0    0  501 -0.00000000000E+00  0.00000000000E+00  0.46259795159E+02  0.46259795159E+02  0.00000000000E+00 0.  1.
          3   -1    0    0  501    0  0.00000000000E+00 -0.00000000000E+00 -0.26171208155E+03  0.26171208155E+03  0.00000000000E+00 0. -1.
         25    2    1    2    0    0  0.17751242454E+02 -0.33864621357E+00 -0.13612651382E+03  0.18571822215E+03  0.12508240877E+03 0.  0.
          5    1    3    3  502    0  0.14098559992E+02  0.51346742614E+02 -0.11990581873E+03  0.13126360934E+03  0.41800000000E+01 0. -1.
         -5    1    3    3    0  502  0.36526824622E+01 -0.51685388828E+02 -0.16220695090E+02  0.54454612813E+02  0.41800000000E+01 0. -1.
        -11    1    1    2    0    0 -0.14108437192E+02 -0.19760607998E+02  0.13106073936E+02  0.27591643707E+02  0.00000000000E+00 0.  1.
         11    1    1    2    0    0 -0.36428052626E+01  0.20099254211E+02 -0.92431846507E+02  0.94662010853E+02  0.00000000000E+00 0. -1.
</event>
<event>
 7    1  0.2661133E-009  0.1295032E+03  0.7561462E-02  0.1228195E+00
         -2   -1    0    0    0  501 -0.00000000000E+00  0.00000000000E+00  0.12126526227E+02  0.12126526227E+02  0.00000000000E+00 0.  1.
          2   -1    0    0  501    0  0.00000000000E+00 -0.00000000000E+00 -0.20643165713E+04  0.20643165713E+04  0.00000000000E+00 0. -1.
         25    2    1    2    0    0  0.16490967921E+02  0.86189401554E+02 -0.15707187235E+04  0.15781339131E+04  0.12509506113E+03 0.  0.
          5    1    3    3  502    0  0.55325267732E+02  0.69076241348E+02 -0.60281064538E+03  0.60928692663E+03  0.41800000000E+01 0. -1.
         -5    1    3    3    0  502 -0.38834299811E+02  0.17113160206E+02 -0.96790807809E+03  0.96884698643E+03  0.41800000000E+01 0. -1.
        -11    1    1    2    0    0 -0.39807953609E+01 -0.10505321817E+03 -0.41413801096E+03  0.42727311816E+03  0.00000000000E+00 0.  1.
         11    1    1    2    0    0 -0.12510172560E+02  0.18863816618E+02 -0.67333310665E+02  0.71036066332E+02  0.00000000000E+00 0. -1.
</event>
<event>
 7    1  0.2661133E-009  0.1267000E+03  0.7561462E-02  0.1232436E+00
          2   -1    0    0  501    0  0.00000000000E+00  0.00000000000E+00  0.12242209279E+03  0.12242209279E+03  0.00000000000E+00 0. -1.
         -2   -1    0    0    0  501 -0.00000000000E+00 -0.00000000000E+00 -0.16295775956E+03  0.16295775956E+03  0.00000000000E+00 0.  1.
         25    2    1    2    0    0 -0.38292387598E+02 -0.57630561874E+02  0.32465625923E+02  0.14659364369E+03  0.12509232948E+03 0.  0.
          5    1    3    3  502    0 -0.81947591563E+02 -0.34232547075E+02  0.37782785898E+02  0.96603759514E+02  0.41800000000E+01 0.  1.
         -5    1    3    3    0  502  0.43655203965E+02 -0.23398014800E+02 -0.53171599744E+01  0.49989884176E+02  0.41800000000E+01 0.  1.
        -11    1    1    2    0    0 -0.29483855214E+02  0.28523700220E+02 -0.11116956865E+02  0.42502775467E+02  0.00000000000E+00 0.  1.
         11    1    1    2    0    0  0.67776242811E+02  0.29106861655E+02 -0.61884335827E+02  0.96283433184E+02  0.00000000000E+00 0. -1.
</event>
<event>
 7    1  0.2661133E-009  0.1078684E+03  0.7561462E-02  0.1264569E+00
          1   -1    0    0  501    0  0.00000000000E+00  0.00000000000E+00  0.19882466640E+03  0.19882466640E+03  0.00000000000E+00 0. -1.
         -1   -1    0    0    0  501 -0.00000000000E+00 -0.00000000000E+00 -0.60986777843E+02  0.60986777843E+02  0.00000000000E+00 0.  1.
         25    2    1    2    0    0 -0.75799178443E+01  0.20311778455E+02  0.82130824704E+02  0.15120932485E+03  0.12509502011E+03 0.  0.
          5    1    3    3  502    0  0.55926262937E+02  0.20469127082E+02  0.21921849249E+02  0.63598521399E+02  0.41800000000E+01 0. -1.
         -5    1    3    3    0  502 -0.63506180781E+02 -0.15734862719E+00  0.60208975455E+02  0.87610803451E+02  0.41800000000E+01 0. -1.
        -11    1    1    2    0    0  0.44186414297E+02  0.94833564021E+01  0.34505826769E+02  0.56859698717E+02  0.00000000000E+00 0. -1.
         11    1    1    2    0    0 -0.36606496453E+02 -0.29795134857E+02  0.21201237086E+02  0.51742420679E+02  0.00000000000E+00 0.  1.
</event>
<event>
 7    1  0.2661133E-009  0.9417106E+02  0.7561462E-02  0.1293054E+00
          1   -1    0    0  501    0  0.00000000000E+00  0.00000000000E+00  0.39159438705E+02  0.39159438705E+02  0.00000000000E+00 0. -1.
         -1   -1    0    0    0  501 -0.00000000000E+00 -0.00000000000E+00 -0.52787540032E+03  0.52787540032E+03  0.00000000000E+00 0.  1.
         25    2    1    2    0    0 -0.61335440816E+02 -0.49324894267E+02 -0.37755400211E+03  0.40545296831E+03  0.12510037372E+03 0.  0.
          5    1    3    3  502    0 -0.60855292690E+02 -0.15445712118E+02 -0.62964601912E+02  0.89016572419E+02  0.41800000000E+01 0. -1.
         -5    1    3    3    0  502 -0.48014812611E+00 -0.33879182149E+02 -0.31458940020E+03  0.31643639589E+03  0.41800000000E+01 0. -1.
        -11    1    1    2    0    0  0.61457272409E+02  0.24037080975E+02 -0.11816406537E+03  0.13534224743E+03  0.00000000000E+00 0.  1.
         11    1    1    2    0    0 -0.12183159250E+00  0.25287813292E+02  0.70021058642E+01  0.26239623293E+02  0.00000000000E+00 0. -1.
</event>
<event>
 7    1  0.2661133E-009  0.1640165E+03  0.7561462E-02  0.1184235E+00
         -1   -1    0    0    0  501 -0.00000000000E+00  0.00000000000E+00  0.35209858865E+03  0.35209858865E+03  0.00000000000E+00 0.  1.
          1   -1    0    0  501    0  0.00000000000E+00 -0.00000000000E+00 -0.10257955262E+03  0.10257955262E+03  0.00000000000E+00 0. -1.
         25    2    1    2    0    0  0.81524965612E+02  0.12894769903E+03  0.94557459204E+02  0.21879625668E+03  0.12512737407E+03 0.  0.
          5    1    3    3  502    0  0.83920397617E+01  0.57087685901E+02  0.10055175215E+03  0.11600671305E+03  0.41800000000E+01 0. -1.
         -5    1    3    3    0  502  0.73132925850E+02  0.71860013128E+02 -0.59942929471E+01  0.10278954362E+03  0.41800000000E+01 0. -1.
        -11    1    1    2    0    0 -0.18439596626E+01 -0.65986392605E+02  0.24180600335E+02  0.70301533616E+02  0.00000000000E+00 0. -1.
         11    1    1    2    0    0 -0.79681005949E+02 -0.62961306424E+02  0.13078097650E+03  0.16558035098E+03  0.00000000000E+00 0.  1.
</event>
<event>
 7    1  0.2661133E-009  0.2282333E+03  0.7561462E-02  0.1127889E+00
         -1   -1    0    0    0  501 -0.00000000000E+00  0.00000000000E+00  0.18033081225E+03  0.18033081225E+03  0.00000000000E+00 0.  1.
          1   -1    0    0  501    0  0.00000000000E+00 -0.00000000000E+00 -0.39480158593E+03  0.39480158593E+03  0.00000000000E+00 0. -1.
         25    2    1    2    0    0  0.20926956147E+03 -0.19275708484E+02  0.21919918645E+02  0.24554654508E+03  0.12508925082E+03 0.  0.
          5    1    3    3  502    0  0.40772841008E+02  0.30530220000E+02  0.45238110263E+02  0.68253043283E+02  0.41800000000E+01 0. -1.
         -5    1    3    3    0  502  0.16849672046E+03 -0.49805928485E+02 -0.23318191618E+02  0.17729350180E+03  0.41800000000E+01 0. -1.
        -11    1    1    2    0    0 -0.10413714502E+02 -0.23941107542E+02 -0.24536382186E+02  0.35828147187E+02  0.00000000000E+00 0.  1.
         11    1    1    2    0    0 -0.19885584697E+03  0.43216816026E+02 -0.21185431014E+03  0.29375770591E+03  0.00000000000E+00 0. -1.
</event>
<event>
 7    1  0.2661133E-009  0.1314918E+03  0.7561462E-02  0.1225259E+00
         -2   -1    0    0    0  501 -0.00000000000E+00  0.00000000000E+00  0.58711099124E+02  0.58711099124E+02  0.00000000000E+00 0.  1.
          2   -1    0    0  501    0  0.00000000000E+00 -0.00000000000E+00 -0.36429049303E+03  0.36429049303E+03  0.00000000000E+00 0. -1.
         25    2    1    2    0    0 -0.77720909558E+02 -0.56908990832E+02 -0.14328117162E+03  0.21321230188E+03  0.12510323143E+03 0.  0.
          5    1    3    3  502    0  0.22829104685E+02 -0.47690146043E+02 -0.28239780808E+02  0.60087233839E+02  0.41800000000E+01 0.  1.
         -5    1    3    3    0  502 -0.10055001424E+03 -0.92188447894E+01 -0.11504139081E+03  0.15312506805E+03  0.41800000000E+01 0.  1.
        -11    1    1    2    0    0  0.34920823015E+02 -0.32339488100E+01 -0.42175933048E+01  0.35322944359E+02  0.00000000000E+00 0.  1.
         11    1    1    2    0    0  0.42800086543E+02  0.60142939643E+02 -0.15808062898E+03  0.17446634591E+03  0.00000000000E+00 0. -1.
</event>
<event>
 7    1  0.2661133E-009  0.1478013E+03  0.7561462E-02  0.1203201E+00
         -2   -1    0    0    0  501 -0.00000000000E+00  0.00000000000E+00  0.46090179140E+03  0.46090179140E+03  0.00000000000E+00 0.  1.
          2   -1    0    0  501    0  0.00000000000E+00 -0.00000000000E+00 -0.58314652765E+02  0.58314652765E+02  0.00000000000E+00 0. -1.
         25    2    1    2    0    0 -0.11320951855E+03 -0.13444928350E+02  0.14323291905E+03  0.22171827737E+03  0.12508462828E+03 0.  0.
          5    1    3    3  502    0 -0.12744563890E+03 -0.42077873758E+02  0.98311554724E+02  0.16641986819E+03  0.41800000000E+01 0.  1.
         -5    1    3    3    0  502  0.14236120351E+02  0.28632945407E+02  0.44921364328E+02  0.55298409185E+02  0.41800000000E+01 0.  1.
        -11    1    1    2    0    0  0.12843485159E+02 -0.19580167626E+02  0.78442387125E+01  0.24695549321E+02  0.00000000000E+00 0. -1.
         11    1    1    2    0    0  0.10036603339E+03  0.33025095976E+02  0.25150998087E+03  0.27280261747E+03  0.00000000000E+00 0.  1.
</event>
<event>
 7    1  0.2661133E-009  0.1769947E+03  0.7561462E-02  0.1170744E+00
         -1   -1    0    0    0  501 -0.00000000000E+00  0.00000000000E+00  0.22392356407E+03  0.22392356407E+03  0.00000000000E+00 0.  1.
          1   -1    0    0  501    0  0.00000000000E+00 -0.00000000000E+00 -0.21168847895E+03  0.21168847895E+03  0.00000000000E+00 0. -1.
         25    2    1    2    0    0 -0.76542446834E+02  0.15179961505E+03 -0.75166320639E+02  0.22405162321E+03  0.12508910748E+03 0.  0.
          5    1    3    3  502    0 -0.85052976286E+02  0.13679779884E+03 -0.10285361644E+03  0.19116481203E+03  0.41800000000E+01 0.  1.
         -5    1    3    3    0  502  0.85105294520E+01  0.15001816208E+02  0.27687295801E+02  0.32886811184E+02  0.41800000000E+01 0.  1.
        -11    1    1    2    0    0  0.37126224662E+02 -0.11622070226E+03  0.99106260884E+02  0.15718670153E+03  0.00000000000E+00 0.  1.
         11    1    1    2    0    0  0.39416222173E+02 -0.35578912785E+02 -0.11704855127E+02  0.54373718274E+02  0.00000000000E+00 0. -1.
</event>
<event>
 7    1  0.2661133E-009  0.1295760E+03  0.7561462E-02  0.1228086E+00
         -2   -1    0    0    0  501 -0.00000000000E+00  0.00000000000E+00  0.48046157055E+03  0.48046157055E+03  0.00000000000E+00 0.  1.
          2   -1    0    0  501    0  0.00000000000E+00 -0.00000000000E+00 -0.57279899359E+02  0.57279899359E+02  0.00000000000E+00 0. -1.
         25    2    1    2    0    0  0.55419281196E+02 -0.70788931727E+02  0.36524136337E+03  0.39639784507E+03  0.12509048115E+03 0.  0.
          5    1    3    3  502    0 -0.33343228357E+02 -0.32845722743E+02  0.19564070956E+03  0.20120480118E+03  0.41800000000E+01 0.  1.
         -5    1    3    3    0  502  0.88762509553E+02 -0.37943208983E+02  0.16960065381E+03  0.19519304389E+03  0.41800000000E+01 0.  1.
        -11    1    1    2    0    0  0.11884943492E+01 -0.13748117156E+02  0.34188345584E+02  0.36868227756E+02  0.00000000000E+00 0.  1.
         11    1    1    2    0    0 -0.56607775545E+02  0.84537048882E+02  0.23751962236E+02  0.10447539708E+03  0.00000000000E+00 0. -1.
</event>
<event>
 7    1  0.2661133E-009  0.1852640E+03  0.7561462E-02  0.1162804E+00
          2   -1    0    0  501    0  0.00000000000E+00  0.00000000000E+00  0.40495222926E+03  0.40495222926E+03  0.00000000000E+00 0. -1.
         -2   -1    0    0    0  501 -0.00000000000E+00 -0.00000000000E+00 -0.11194155024E+03  0.11194155024E+03  0.00000000000E+00 0.  1.
         25    2    1    2    0    0  0.76822067918E+02 -0.16346648750E+03  0.11510062225E+03  0.24802646654E+03  0.12508418048E+03 0.  0.
          5    1    3    3  502    0  0.79011567253E+02 -0.16340902178E+03  0.13584477687E+03  0.22675231413E+03  0.41800000000E+01 0.  1.
         -5    1    3    3    0  502 -0.21894993345E+01 -0.57465718971E-01 -0.20744154624E+02  0.21274152409E+02  0.41800000000E+01 0.  1.
        -11    1    1    2    0    0 -0.81240543702E+00  0.34814692232E+02 -0.21365838577E+01  0.34889651595E+02  0.00000000000E+00 0.  1.
         11    1    1    2    0    0 -0.76009662481E+02  0.12865179527E+03  0.18004664064E+03  0.23397766137E+03  0.00000000000E+00 0. -1.
</event>
<event>
 7    1  0.2661133E-009  0.1973009E+03  0.7561462E-02  0.1152036E+00
         -2   -1    0    0    0  501 -0.00000000000E+00  0.00000000000E+00  0.68949103156E+03  0.68949103156E+03  0.00000000000E+00 0.  1.
          2   -1    0    0  501    0  0.00000000000E+00 -0.00000000000E+00 -0.71907291790E+02  0.71907291790E+02  0.00000000000E+00 0. -1.
         25    2    1    2    0    0  0.17770788457E+03  0.10904141647E+02  0.45771359073E+03  0.50680215543E+03  0.12509077129E+03 0.  0.
          5    1    3    3  502    0  0.19291239222E+03  0.19722215341E+02  0.44264374479E+03  0.48327540186E+03  0.41800000000E+01 0. -1.
         -5    1    3    3    0  502 -0.15204507645E+02 -0.88180736943E+01  0.15069845942E+02  0.23526753561E+02  0.41800000000E+01 0. -1.
        -11    1    1    2    0    0 -0.10927100706E+03  0.13086954979E+02  0.14245635674E+03  0.18001454094E+03  0.00000000000E+00 0.  1.
         11    1    1    2    0    0 -0.68436877518E+02 -0.23991096625E+02  0.17413792300E+02  0.74581626986E+02  0.00000000000E+00 0. -1.
</event>
<event>
 7    1  0.2661133E-009  0.2237328E+03  0.7561462E-02  0.1131130E+00
          1   -1    0    0  501    0  0.00000000000E+00  0.00000000000E+00  0.26670944838E+03  0.26670944838E+03  0.00000000000E+00 0. -1.
         -1   -1    0    0    0  501 -0.00000000000E+00 -0.00000000000E+00 -0.20081302461E+03  0.20081302461E+03  0.00000000000E+00 0.  1.
         25    2    1    2    0    0 -0.31951075732E+02  0.19800388528E+03  0.72232155231E+02  0.24714642341E+03  0.12504983218E+03 0.  0.
          5    1    3    3  502    0  0.45565424666E+02  0.88569087702E+02  0.48610258089E+02  0.11091041796E+03  0.41800000000E+01 0.  1.
         -5    1    3    3    0  502 -0.77516500398E+02  0.10943479758E+03  0.23621897142E+02  0.13623600545E+03  0.41800000000E+01 0.  1.
        -11    1    1    2    0    0  0.56039621905E+02 -0.13880386040E+03 -0.29172034305E+02  0.15250560144E+03  0.00000000000E+00 0.  1.
         11    1    1    2    0    0 -0.24088546172E+02 -0.59200024878E+02  0.22836302851E+02  0.67870448136E+02  0.00000000000E+00 0. -1.
</event>
<event>
 7    1  0.2661133E-009  0.1006804E+03  0.7561462E-02  0.1278872E+00
         -1   -1    0    0    0  501 -0.00000000000E+00  0.00000000000E+00  0.63429395986E+02  0.63429395986E+02  0.00000000000E+00 0.  1.
          1   -1    0    0  501    0  0.00000000000E+00 -0.00000000000E+00 -0.18884414484E+03  0.18884414484E+03  0.00000000000E+00 0. -1.
         25    2    1    2    0    0 -0.49636140851E+01 -0.14318335960E+02 -0.63147883386E+02  0.14096278317E+03  0.12511274457E+03 0.  0.
          5    1    3    3  502    0  0.22149440238E+02 -0.58510396045E+02 -0.49333253242E+01  0.62895741088E+02  0.41800000000E+01 0. -1.
         -5    1    3    3    0  502 -0.27113054323E+02  0.44192060084E+02 -0.58214558062E+02  0.78067042083E+02  0.41800000000E+01 0. -1.
        -11    1    1    2    0    0  0.31713193244E+02  0.38986766688E+02 -0.16615670261E+02  0.52931796689E+02  0.00000000000E+00 0.  1.
         11    1    1    2    0    0 -0.26749579159E+02 -0.24668430728E+02 -0.45651195208E+02  0.58378960968E+02  0.00000000000E+00 0. -1.
</event>
<event>
 7    1  0.2661133E-009  0.1242702E+03  0.7561462E-02  0.1236214E+00
          2   -1    0    0  501    0  0.00000000000E+00  0.00000000000E+00  0.38047541842E+02  0.38047541842E+02  0.00000000000E+00 0.  1.
         -2   -1    0    0    0  501 -0.00000000000E+00 -0.00000000000E+00 -0.48157068609E+03  0.48157068609E+03  0.00000000000E+00 0. -1.
         25    2    1    2    0    0 -0.74473472686E+02 -0.26313103779E+02 -0.28082550362E+03  0.31741006815E+03  0.12509000885E+03 0.  0.
          5    1    3    3  502    0  0.31106206364E+02 -0.74030616500E+01 -0.27869858028E+02  0.42621623417E+02  0.41800000000E+01 0.  1.
         -5    1    3    3    0  502 -0.10557967905E+03 -0.18910042129E+02 -0.25295564559E+03  0.27478844473E+03  0.41800000000E+01 0.  1.
        -11    1    1    2    0    0 -0.48312024456E+01 -0.17634554177E+02 -0.29457685796E+01  0.18520139595E+02  0.00000000000E+00 0.  1.
         11    1    1    2    0    0  0.79304675132E+02  0.43947657956E+02 -0.15975187205E+03  0.18368802019E+03  0.00000000000E+00 0. -1.
</event>
<event>
 7    1  0.2661133E-009  0.8429942E+02  0.7561462E-02  0.1317275E+00
         -2   -1    0    0    0  501 -0.00000000000E+00  0.00000000000E+00  0.34191909467E+02  0.34191909467E+02  0.00000000000E+00 0.  1.
          2   -1    0    0  501    0  0.00000000000E+00 -0.00000000000E+00 -0.36531677963E+03  0.36531677963E+03  0.00000000000E+00 0. -1.
         25    2    1    2    0    0  0.15899949483E+02 -0.11646983678E+02 -0.14962033547E+03  0.19601416249E+03  0.12508735542E+03 0.  0.
          5    1    3    3  502    0  0.55084840243E+02 -0.11549960563E+02 -0.18955060480E+02  0.59535770184E+02  0.41800000000E+01 0.  1.
         -5    1    3    3    0  502 -0.39184890760E+02 -0.97023114833E-01 -0.13066527499E+03  0.13647839230E+03  0.41800000000E+01 0.  1.
        -11    1    1    2    0    0 -0.11848858834E+02 -0.29300923954E+02 -0.21356971832E+02  0.38145246704E+02  0.00000000000E+00 0.  1.
         11    1    1    2    0    0 -0.40510906489E+01  0.40947907632E+02 -0.16014756286E+03  0.16534927991E+03  0.00000000000E+00 0. -1.
</event>
<event>
 7    1  0.2661133E-009  0.1763981E+03  0.7561462E-02  0.1171335E+00
          1   -1    0    0  501    0  0.00000000000E+00  0.00000000000E+00  0.10580815110E+03  0.10580815110E+03  0.00000000000E+00 0. -1.
         -1   -1    0    0    0  501 -0.00000000000E+00 -0.00000000000E+00 -0.38823033375E+03  0.38823033375E+03  0.00000000000E+00 0.  1.
         25    2    1    2    0    0  0.47135884203E+02  0.15232088269E+03 -0.22208842684E+03  0.30065625099E+03  0.12508984388E+03 0.  0.
          5    1    3    3  502    0  0.39252837880E+02 -0.80034986932E-01 -0.91904408803E+02  0.10002341948E+03  0.41800000000E+01 0. -1.
         -5    1    3    3    0  502  0.78830463232E+01  0.15240091768E+03 -0.13018401804E+03  0.20063283151E+03  0.41800000000E+01 0. -1.
        -11    1    1    2    0    0 -0.34958657604E+02 -0.79772572645E+02 -0.78891446446E+02  0.11751438810E+03  0.00000000000E+00 0.  1.
         11    1    1    2    0    0 -0.12177226598E+02 -0.72548310047E+02  0.18557690643E+02  0.75867845760E+02  0.00000000000E+00 0. -1.
</event>
<event>
 7    1  0.2661133E-009  0.9857167E+02  0.7561462E-02  0.1283329E+00
          1   -1    0    0  501    0  0.00000000000E+00  0.00000000000E+00  0.84098675040E+03  0.84098675040E+03  0.00000000000E+00 0. -1.
         -1   -1    0    0    0  501 -0.00000000000E+00 -0.00000000000E+00 -0.14996236428E+02  0.14996236428E+02  0.00000000000E+00 0.  1.
         25    2    1    2    0    0  0.28857234426E+02 -0.38600870988E+01  0.43358554639E+03  0.45220722026E+03  0.12508918325E+03 0.  0.
          5    1    3    3  502    0  0.29799420341E+02 -0.48628516061E+02  0.36959953301E+03  0.37399735992E+03  0.41800000000E+01 0.  1.
         -5    1    3    3    0  502 -0.94218591489E+00  0.44768428962E+02  0.63986013381E+02  0.78209860340E+02  0.41800000000E+01 0.  1.
        -11    1    1    2    0    0 -0.53671642241E+02 -0.23021605482E+02  0.22958696888E+03  0.23689832372E+03  0.00000000000E+00 0. -1.
         11    1    1    2    0    0  0.24814407815E+02  0.26881692580E+02  0.16281799870E+03  0.16687744285E+03  0.00000000000E+00 0.  1.
</event>
<event>
 6    1  0.2661133E-009  0.1070969E+03  0.7561462E-02  0.1266042E+00
         -1   -1    0    0    0  501 -0.00000000000E+00  0.00000000000E+00  0.18530354691E+02  0.18530354691E+02  0.00000000000E+00 0.  1.
          1   -1    0    0  501    0  0.00000000000E+00 -0.00000000000E+00 -0.99596916051E+03  0.99596916051E+03  0.00000000000E+00 0. -1.
          5    1    1    2  502    0  0.31616779338E+02  0.24236600859E+02 -0.39554733173E+03  0.39757036810E+03  0.41800000000E+01 0. -1.
         -5    1    1    2    0  502  0.28772600731E+02 -0.75575310923E+02 -0.19213801891E+03  0.20850415076E+03  0.41800000000E+01 0. -1.
        -11    1    1    2    0    0 -0.67763380939E+02  0.37414431431E+02 -0.38388501235E+03  0.39161131008E+03  0.00000000000E+00 0. -1.
         11    1    1    2    0    0  0.73740008697E+01  0.13924278633E+02 -0.58684428311E+01  0.16813686257E+02  0.00000000000E+00 0.  1.
</event>
<event>
 7    1  0.2661133E-009  0.6535590E+02  0.7561462E-02  0.1376638E+00
          1   -1    0    0  501    0  0.00000000000E+00  0.00000000000E+00  0.50925190005E+03  0.50925190005E+03  0.00000000000E+00 0. -1.
         -1   -1    0    0    0  501 -0.00000000000E+00 -0.00000000000E+00 -0.21049284686E+02  0.21049284686E+02  0.00000000000E+00 0.  1.
         25    2    1    2    0    0 -0.20388935503E+02  0.19605914526E+02  0.29080993527E+03  0.31783295516E+03  0.12508904173E+03 0.  0.
          5    1    3    3  502    0 -0.15248521191E+02  0.37094398682E+02  0.29575305030E+03  0.29848928117E+03  0.41800000000E+01 0.  1.
         -5    1    3    3    0  502 -0.51404143116E+01 -0.17488484157E+02 -0.49431150298E+01  0.19343673994E+02  0.41800000000E+01 0.  1.
        -11    1    1    2    0    0  0.40524275051E+02 -0.28634430452E+02  0.89430504759E+02  0.10227395884E+03  0.00000000000E+00 0.  1.
         11    1    1    2    0    0 -0.20135339548E+02  0.90285159265E+01  0.10796217533E+03  0.11019427073E+03  0.00000000000E+00 0. -1.
</event>
<event>
 7    1  0.2661133E-009  0.1759168E+03  0.7561462E-02  0.1171814E+00
          2   -1    0    0  501    0  0.00000000000E+00  0.00000000000E+00  0.12836257818E+04  0.12836257818E+04  0.00000000000E+00 0. -1.
         -2   -1    0    0    0  501 -0.00000000000E+00 -0.00000000000E+00 -0.27074667267E+02  0.27074667267E+02  0.00000000000E+00 0.  1.
         25    2    1    2    0    0  0.12825005776E+03  0.74358310619E+02  0.73285080801E+03  0.75808663260E+03  0.12509116692E+03 0.  0.
          5    1    3    3  502    0  0.41900254244E+02 -0.24608588311E+02  0.94422606248E+02  0.10627471428E+03  0.41800000000E+01 0. -1.
         -5    1    3    3    0  502  0.86349803521E+02  0.98966898929E+02  0.63842820177E+03  0.65181191832E+03  0.41800000000E+01 0. -1.
        -11    1    1    2    0    0 -0.10525307459E+03 -0.12908998300E+02  0.25821832804E+03  0.27914432984E+03  0.00000000000E+00 0.  1.
         11    1    1    2    0    0 -0.22996983174E+02 -0.61449312319E+02  0.26548197851E+03  0.27346948666E+03  0.00000000000E+00 0. -1.
</event>
<event>
 7    1  0.2661133E-009  0.1483686E+03  0.7561462E-02  0.1202492E+00
          2   -1    0    0  501    0  0.00000000000E+00  0.00000000000E+00  0.55393554861E+03  0.55393554861E+03  0.00000000000E+00 0. -1.
         -2   -1    0    0    0  501 -0.00000000000E+00 -0.00000000000E+00 -0.54202738486E+02  0.54202738486E+02  0.00000000000E+00 0.  1.
         25    2    1    2    0    0 -0.45240136606E+01  0.13518412776E+03  0.26542136423E+03  0.32309359043E+03  0.12508298243E+03 0.  0.
          5    1    3    3  502    0  0.12351575029E+02  0.20729237181E+02 -0.83318954401E+01  0.25868041314E+02  0.41800000000E+01 0.  1.
         -5    1    3    3    0  502 -0.16875588689E+02  0.11445489058E+03  0.27375325967E+03  0.29722554912E+03  0.41800000000E+01 0.  1.
        -11    1    1    2    0    0  0.40801974625E+02 -0.55104591281E+02  0.66070278447E+02  0.95218689382E+02  0.00000000000E+00 0.  1.
         11    1    1    2    0    0 -0.36277960965E+02 -0.80079536480E+02  0.16824116745E+03  0.18982600728E+03  0.00000000000E+00 0. -1.
</event>
<event>
 7    1  0.2661133E-009  0.1106555E+03  0.7561462E-02  0.1259361E+00
          1   -1    0    0  501    0  0.00000000000E+00  0.00000000000E+00  0.17845032831E+03  0.17845032831E+03  0.00000000000E+00 0. -1.
         -1   -1    0    0    0  501 -0.00000000000E+00 -0.00000000000E+00 -0.83815680214E+02  0.83815680214E+02  0.00000000000E+00 0.  1.
         25    2    1    2    0    0  0.55936327673E+02 -0.37275958568E+01  0.42064747616E+02  0.14339067749E+03  0.12509466685E+03 0.  0.
          5    1    3    3  502    0  0.13357078039E+02  0.46651422944E+02  0.57663125111E+02  0.75480296727E+02  0.41800000000E+01 0. -1.
         -5    1    3    3    0  502  0.42579249634E+02 -0.50379018800E+02 -0.15598377495E+02  0.67910380762E+02  0.41800000000E+01 0. -1.
        -11    1    1    2    0    0  0.94510349140E+00 -0.36708784085E+02  0.20695679798E+02  0.42151384461E+02  0.00000000000E+00 0.  1.
         11    1    1    2    0    0 -0.56881431165E+02  0.40436379942E+02  0.31874220685E+02  0.76723946578E+02  0.00000000000E+00 0. -1.
</event>
<event>
 7    1  0.2661133E-009  0.1104773E+03  0.7561462E-02  0.1259689E+00
         -2   -1    0    0    0  501 -0.00000000000E+00  0.00000000000E+00  0.16730861435E+02  0.16730861435E+02  0.00000000000E+00 0.  1.
          2   -1    0    0  501    0  0.00000000000E+00 -0.00000000000E+00 -0.11550636147E+04  0.11550636147E+04  0.00000000000E+00 0. -1.
         25    2    1    2    0    0 -0.92019602963E+01 -0.81603731600E+02 -0.73784100465E+03  0.75286052388E+03  0.12508307315E+03 0.  0.
          5    1    3    3  502    0  0.28468357182E+00 -0.88518450619E+02 -0.73467916327E+03  0.74000442058E+03  0.41800000000E+01 0.  1.
         -5    1    3    3    0  502 -0.94866438681E+01  0.69147190193E+01 -0.31618413816E+01  0.12856103294E+02  0.41800000000E+01 0.  1.
        -11    1    1    2    0    0 -0.37744189961E+02  0.20924932395E+02 -0.10228711092E+03  0.11101860083E+03  0.00000000000E+00 0.  1.
         11    1    1    2    0    0  0.46946150257E+02  0.60678799204E+02 -0.29820463772E+03  0.30791535144E+03  0.00000000000E+00 0. -1.
</event>
<event>
 7    1  0.2661133E-009  0.1188099E+03  0.7561462E-02  0.1245073E+00
          2   -1    0    0  501    0  0.00000000000E+00  0.00000000000E+00  0.23402280836E+04  0.23402280836E+04  0.00000000000E+00 0. -1.
         -2   -1    0    0    0  501 -0.00000000000E+00 -0.00000000000E+00 -0.10386932437E+02  0.10386932437E+02  0.00000000000E+00 0.  1.
         25    2    1    2    0    0 -0.53942376634E+02 -0.49445576705E+02  0.19181421706E+04  0.19236090262E+04  0.12509058402E+03 0.  0.
          5    1    3    3  502    0 -0.83738572366E+02 -0.32572007103E+02  0.81878646421E+03  0.82371222555E+03  0.41800000000E+01 0.  1.
         -5    1    3    3    0  502  0.29796195732E+02 -0.16873569602E+02  0.10993557063E+04  0.10998968007E+04  0.41800000000E+01 0.  1.
        -11    1    1    2    0    0  0.38816709671E+02 -0.18902224216E+02  0.16707252435E+03  0.17256088613E+03  0.00000000000E+00 0. -1.
         11    1    1    2    0    0  0.15125666962E+02  0.68347800921E+02  0.24462645628E+03  0.25444510371E+03  0.00000000000E+00 0.  1.
</event>
<event>
 7    1  0.2661133E-009  0.3115099E+03  0.7561462E-02  0.1079624E+00
          1   -1    0    0  501    0  0.00000000000E+00  0.00000000000E+00  0.17813469329E+03  0.17813469329E+03  0.00000000000E+00 0. -1.
         -1   -1    0    0    0  501 -0.00000000000E+00 -0.00000000000E+00 -0.57962022380E+03  0.57962022380E+03  0.00000000000E+00 0.  1.
         25    2    1    2    0    0 -0.55940867656E+02 -0.29332318130E+03 -0.15195958088E+03  0.35764323859E+03  0.12509637296E+03 0.  0.
          5    1    3    3  502    0 -0.62715366921E+01 -0.26749307234E+03 -0.12691446204E+03  0.29616993264E+03  0.41800000000E+01 0. -1.
         -5    1    3    3    0  502 -0.49669330964E+02 -0.25830108957E+02 -0.25045118836E+02  0.61473305952E+02  0.41800000000E+01 0. -1.
        -11    1    1    2    0    0  0.31447008181E+02  0.21290013641E+03 -0.12205052146E+03  0.24741000828E+03  0.00000000000E+00 0. -1.
         11    1    1    2    0    0  0.24493859475E+02  0.80423044889E+02 -0.12747542818E+03  0.15270167023E+03  0.00000000000E+00 0.  1.
</event>
<event>
 7    1  0.2661133E-009  0.2742878E+03  0.7561462E-02  0.1098850E+00
         -2   -1    0    0    0  501 -0.00000000000E+00  0.00000000000E+00  0.62442260415E+02  0.62442260415E+02  0.00000000000E+00 0. -1.
          2   -1    0    0  501    0  0.00000000000E+00 -0.00000000000E+00 -0.15297762261E+04  0.15297762261E+04  0.00000000000E+00 0.  1.
         25    2    1    2    0    0  0.21103258538E+03 -0.14660784625E+03 -0.40717612183E+03  0.49746106610E+03  0.12508599211E+03 0.  0.
          5    1    3    3  502    0  0.18525740319E+03 -0.16804950686E+03 -0.37516145901E+03  0.45091521921E+03  0.41800000000E+01 0.  1.
         -5    1    3    3    0  502  0.25775182195E+02  0.21441660613E+02 -0.32014662829E+02  0.46545846894E+02  0.41800000000E+01 0.  1.
        -11    1    1    2    0    0 -0.57852647210E+02  0.77171088211E+02 -0.52529106309E+03  0.53407209870E+03  0.00000000000E+00 0. -1.
         11    1    1    2    0    0 -0.15317993817E+03  0.69436758038E+02 -0.53486678077E+03  0.56068532173E+03  0.00000000000E+00 0.  1.
</event>
<event>
 7    1  0.2661133E-009  0.5706087E+02  0.7561462E-02  0.1410597E+00
         -1   -1    0    0    0  501 -0.00000000000E+00  0.00000000000E+00  0.33519294692E+02  0.33519294692E+02  0.00000000000E+00 0.  1.
          1   -1    0    0  501    0  0.00000000000E+00 -0.00000000000E+00 -0.35889296747E+03  0.35889296747E+03  0.00000000000E+00 0. -1.
         25    2    1    2    0    0  0.69950264860E+00  0.30178834516E+01 -0.20789417895E+03  0.24264543292E+03  0.12508884663E+03 0.  0.
          5    1    3    3  502    0 -0.25505214035E+02 -0.27547522655E+01 -0.21336575481E+03  0.21494306764E+03  0.41800000000E+01 0.  1.
         -5    1    3    3    0  502  0.26204716684E+02  0.57726357171E+01  0.54715758583E+01  0.27702365278E+02  0.41800000000E+01 0.  1.
        -11    1    1    2    0    0  0.15755861615E+02  0.24371410359E+02 -0.10579703084E+01  0.29040181117E+02  0.00000000000E+00 0.  1.
         11    1    1    2    0    0 -0.16455364264E+02 -0.27389293811E+02 -0.11642152352E+03  0.12072664813E+03  0.00000000000E+00 0. -1.
</event>
<event>
 7    1  0.2661133E-009  0.2149870E+03  0.7561462E-02  0.1137677E+00
         -2   -1    0    0    0  501 -0.00000000000E+00  0.00000000000E+00  0.71996809738E+02  0.71996809738E+02  0.00000000000E+00 0. -1.
          2   -1    0    0  501    0  0.00000000000E+00 -0.00000000000E+00 -0.13407414864E+04  0.13407414864E+04  0.00000000000E+00 0.  1.
         25    2    1    2    0    0 -0.76511830611E+02 -0.18866720928E+03 -0.17385076001E+03  0.29549421125E+03  0.12507344260E+03 0.  0.
          5    1    3    3  502    0 -0.20619919987E+02 -0.10867843612E+03 -0.16326154296E+03  0.19725107702E+03  0.41800000000E+01 0. -1.
         -5    1    3    3    0  502 -0.55891910623E+02 -0.79988773157E+02 -0.10589217049E+02  0.98243134223E+02  0.41800000000E+01 0. -1.
        -11    1    1    2    0    0  0.60646522002E+02  0.41266040166E+02 -0.32056583915E+03  0.32885155303E+03  0.00000000000E+00 0. -1.
         11    1    1    2    0    0  0.15865308609E+02  0.14740116911E+03 -0.77432807749E+03  0.78839253185E+03  0.00000000000E+00 0.  1.
</event>
<event>
 7    1  0.2661133E-009  0.1057897E+03  0.7561462E-02  0.1268572E+00
          2   -1    0    0  501    0  0.00000000000E+00  0.00000000000E+00  0.31795640701E+03  0.31795640701E+03  0.00000000000E+00 0.  1.
         -2   -1    0    0    0  501 -0.00000000000E+00 -0.00000000000E+00 -0.41830657309E+02  0.41830657309E+02  0.00000000000E+00 0. -1.
         25    2    1    2    0    0  0.27932584602E+02 -0.12171562000E+01  0.11629520598E+03  0.17307237647E+03  0.12509101412E+03 0.  0.
          5    1    3    3  502    0  0.67100610462E+02  0.20788870032E+02  0.31669269732E+02  0.77169191306E+02  0.41800000000E+01 0.  1.
         -5    1    3    3    0  502 -0.39168025859E+02 -0.22006026232E+02  0.84625936244E+02  0.95903185168E+02  0.41800000000E+01 0.  1.
        -11    1    1    2    0    0 -0.41189433861E+02  0.38584046523E+02  0.10247312178E+03  0.11698734459E+03  0.00000000000E+00 0. -1.
         11    1    1    2    0    0  0.13256849258E+02 -0.37366890323E+02  0.57357421949E+02  0.69727343254E+02  0.00000000000E+00 0.  1.
</event>
<event>
 7    1  0.2661133E-009  0.1720111E+03  0.7561462E-02  0.1175767E+00
          1   -1    0    0  501    0  0.00000000000E+00  0.00000000000E+00  0.19688097663E+03  0.19688097663E+03  0.00000000000E+00 0. -1.
         -1   -1    0    0    0  501 -0.00000000000E+00 -0.00000000000E+00 -0.33456274274E+03  0.33456274274E+03  0.00000000000E+00 0.  1.
         25    2    1    2    0    0 -0.10362632973E+03  0.12595667757E+03  0.10005265118E+03  0.22860801321E+03  0.12509032680E+03 0.  0.
          5    1    3    3  502    0 -0.73716772417E+00  0.31953285378E+01 -0.24871811532E+02  0.25432910758E+02  0.41800000000E+01 0.  1.
         -5    1    3    3    0  502 -0.10288916200E+03  0.12276134903E+03  0.12492446271E+03  0.20317510245E+03  0.41800000000E+01 0.  1.
        -11    1    1    2    0    0  0.17742884266E+02 -0.78245813494E+02 -0.15442087598E+03  0.17402018334E+03  0.00000000000E+00 0.  1.
         11    1    1    2    0    0  0.85883445460E+02 -0.47710864072E+02 -0.83313541302E+02  0.12881552282E+03  0.00000000000E+00 0. -1.
</event>
<event>
 7    1  0.2661133E-009  0.1131896E+03  0.7561462E-02  0.1254775E+00
          1   -1    0    0  501    0  0.00000000000E+00  0.00000000000E+00  0.34559155232E+03  0.34559155232E+03  0.00000000000E+00 0. -1.
         -1   -1    0    0    0  501 -0.00000000000E+00 -0.00000000000E+00 -0.41736499470E+02  0.41736499470E+02  0.00000000000E+00 0.  1.
         25    2    1    2    0    0  0.16287112819E+02  0.48648643392E+02  0.14199331350E+03  0.19605170772E+03  0.12506882295E+03 0.  0.
          5    1    3    3  502    0 -0.48776146107E+02  0.15182087406E+02  0.97950522284E+02  0.11055037505E+03  0.41800000000E+01 0. -1.
         -5    1    3    3    0  502  0.65063258927E+02  0.33466555986E+02  0.44042791215E+02  0.85501332678E+02  0.41800000000E+01 0. -1.
        -11    1    1    2    0    0 -0.52626045447E+02 -0.23426023829E+02  0.87793131816E+02  0.10500434870E+03  0.00000000000E+00 0.  1.
         11    1    1    2    0    0  0.36338932627E+02 -0.25222619562E+02  0.74068607531E+02  0.86271995361E+02  0.00000000000E+00 0. -1.
</event>
<event>
 7    1  0.2661133E-009  0.7540126E+02  0.7561462E-02  0.1342633E+00
         -1   -1    0    0    0  501 -0.00000000000E+00  0.00000000000E+00  0.11654551064E+02  0.11654551064E+02  0.00000000000E+00 0.  1.
          1   -1    0    0  501    0  0.00000000000E+00 -0.00000000000E+00 -0.10470856068E+04  0.10470856068E+04  0.00000000000E+00 0. -1.
         25    2    1    2    0    0 -0.38528268956E+01  0.27525427879E+02 -0.63320767069E+03  0.64604380255E+03  0.12509255428E+03 0.  0.
          5    1    3    3  502    0  0.25876850226E+02  0.21734221404E+02 -0.42103887181E+02  0.54149768914E+02  0.41800000000E+01 0. -1.
         -5    1    3    3    0  502 -0.29729677122E+02  0.57912064742E+01 -0.59110378351E+03  0.59189403364E+03  0.41800000000E+01 0. -1.
        -11    1    1    2    0    0 -0.28114837591E+02  0.15864219572E+02 -0.84927638851E+02  0.90856047659E+02  0.00000000000E+00 0.  1.
         11    1    1    2    0    0  0.31967664487E+02 -0.43389647451E+02 -0.31729574617E+03  0.32184030763E+03  0.00000000000E+00 0. -1.
</event>
<event>
 7    1  0.2661133E-009  0.1385698E+03  0.7561462E-02  0.1215266E+00
         -1   -1    0    0    0  501 -0.00000000000E+00  0.00000000000E+00  0.36804377244E+02  0.36804377244E+02  0.00000000000E+00 0.  1.
          1   -1    0    0  501    0  0.00000000000E+00 -0.00000000000E+00 -0.88876765804E+03  0.88876765804E+03  0.00000000000E+00 0. -1.
         25    2    1    2    0    0  0.50340622192E+02 -0.11232406381E+03 -0.25591366840E+03  0.31030510207E+03  0.12508627880E+03 0.  0.
          5    1    3    3  502    0  0.16638523498E+02 -0.19250549909E+02  0.91259269697E+01  0.27352862356E+02  0.41800000000E+01 0. -1.
         -5    1    3    3    0  502  0.33702098694E+02 -0.93073513901E+02 -0.26503959537E+03  0.28295223972E+03  0.41800000000E+01 0. -1.
        -11    1    1    2    0    0  0.21058224809E+02  0.60483019324E+02 -0.26970414018E+03  0.27720383780E+03  0.00000000000E+00 0.  1.
         11    1    1    2    0    0 -0.71398847001E+02  0.51841044487E+02 -0.32634547221E+03  0.33806309541E+03  0.00000000000E+00 0. -1.
</event>
<event>
 7    1  0.2661133E-009  0.1018874E+03  0.7561462E-02  0.1276376E+00
         -1   -1    0    0    0  501 -0.00000000000E+00  0.00000000000E+00  0.89571842139E+02  0.89571842139E+02  0.00000000000E+00 0.  1.
          1   -1    0    0  501    0  0.00000000000E+00 -0.00000000000E+00 -0.16661204504E+03  0.16661204504E+03  0.00000000000E+00 0. -1.
         25    2    1    2    0    0  0.34690225969E+02 -0.39221117211E+02 -0.65369258649E+02  0.15053890805E+03  0.12508842891E+03 0.  0.
          5    1    3    3  502    0 -0.50316134127E+01  0.42667740555E+02 -0.31074743437E+02  0.53188018362E+02  0.41800000000E+01 0.  1.
         -5    1    3    3    0  502  0.39721839381E+02 -0.81888857765E+02 -0.34294515212E+02  0.97350889691E+02  0.41800000000E+01 0.  1.
        -11    1    1    2    0    0 -0.28698712616E+02 -0.11142350983E+01 -0.44725361477E+02  0.53152757077E+02  0.00000000000E+00 0.  1.
         11    1    1    2    0    0 -0.59915133531E+01  0.40335352309E+02  0.33054417222E+02  0.52492222053E+02  0.00000000000E+00 0. -1.
</event>
<event>
 7    1  0.2661133E-009  0.1838059E+03  0.7561462E-02  0.1164170E+00
          2   -1    0    0  501    0  0.00000000000E+00  0.00000000000E+00  0.34524304238E+03  0.34524304238E+03  0.00000000000E+00 0. -1.
         -2   -1    0    0    0  501 -0.00000000000E+00 -0.00000000000E+00 -0.11126219222E+03  0.11126219222E+03  0.00000000000E+00 0.  1.
         25    2    1    2    0    0  0.14890553770E+03 -0.51172067917E+02  0.50959268553E+02  0.20744992114E+03  0.12508870068E+03 0.  0.
          5    1    3    3  502    0  0.95598723176E+02  0.32966571397E+02  0.30208464864E+02  0.10562165712E+03  0.41800000000E+01 0. -1.
         -5    1    3    3    0  502  0.53306814524E+02 -0.84138639314E+02  0.20750803689E+02  0.10182826402E+03  0.41800000000E+01 0. -1.
        -11    1    1    2    0    0 -0.44957267270E+02  0.43375113148E+02  0.88597769736E+02  0.10840720051E+03  0.00000000000E+00 0. -1.
         11    1    1    2    0    0 -0.10394827043E+03  0.77969547691E+01  0.94423811873E+02  0.14064811295E+03  0.00000000000E+00 0.  1.
</event>
<event>
 7    1  0.2661133E-009  0.1880719E+03  0.7561462E-02  0.1160212E+00
          1   -1    0    0  501    0  0.00000000000E+00  0.00000000000E+00  0.17524418373E+03  0.17524418373E+03  0.00000000000E+00 0. -1.
         -1   -1    0    0    0  501 -0.00000000000E+00 -0.00000000000E+00 -0.23303112967E+03  0.23303112967E+03  0.00000000000E+00 0.  1.
         25    2    1    2    0    0 -0.13897062456E+03 -0.97731923965E+02 -0.14211155261E+02  0.21146263700E+03  0.12510046547E+03 0.  0.
          5    1    3    3  502    0 -0.31288996794E+02  0.12478612236E+02 -0.42869811134E+02  0.54680985638E+02  0.41800000000E+01 0. -1.
         -5    1    3    3    0  502 -0.10768162776E+03 -0.11021053620E+03  0.28658655873E+02  0.15678165136E+03  0.41800000000E+01 0. -1.
        -11    1    1    2    0    0  0.13657087417E+03  0.58199588184E+02 -0.17705240765E+02  0.14950676000E+03  0.00000000000E+00 0. -1.
         11    1    1    2    0    0  0.23997503921E+01  0.39532335781E+02 -0.25870549912E+02  0.47305916406E+02  0.00000000000E+00 0.  1.
</event>
<event>
 7    1  0.2661133E-009  0.9917416E+02  0.7561462E-02  0.1282042E+00
         -1   -1    0    0    0  501 -0.00000000000E+00  0.00000000000E+00  0.11905789359E+03  0.11905789359E+03  0.00000000000E+00 0.  1.
          1   -1    0    0  501    0  0.00000000000E+00 -0.00000000000E+00 -0.24911757476E+03  0.24911757476E+03  0.00000000000E+00 0. -1.
         25    2    1    2    0    0  0.62864231307E+00 -0.68415431872E+02 -0.18975965647E+03  0.23735601504E+03  0.12509230248E+03 0.  0.
          5    1    3    3  502    0 -0.54252888967E+02 -0.31045310209E+02 -0.14275989446E+03  0.15590076046E+03  0.41800000000E+01 0. -1.
         -5    1    3    3    0  502  0.54881531280E+02 -0.37370121662E+02 -0.46999762017E+02  0.81455254578E+02  0.41800000000E+01 0. -1.
        -11    1    1    2    0    0  0.40506590543E+01  0.50310862170E+02 -0.15917582825E+02  0.52924097858E+02  0.00000000000E+00 0. -1.
         11    1    1    2    0    0 -0.46793013674E+01  0.18104569701E+02  0.75617558122E+02  0.77895355457E+02  0.00000000000E+00 0.  1.
</event>
<event>
 6    1  0.2661133E-009  0.8032374E+02  0.7561462E-02  0.1328135E+00
         -2   -1    0    0    0  501 -0.00000000000E+00  0.00000000000E+00  0.94932047256E+02  0.94932047256E+02  0.00000000000E+00 0.  1.
          2   -1    0    0  501    0  0.00000000000E+00 -0.00000000000E+00 -0.13926560608E+03  0.13926560608E+03  0.00000000000E+00 0. -1.
          5    1    1    2  502    0 -0.74082257019E+02  0.14987339286E+02  0.20524126604E+02  0.78431583668E+02  0.41800000000E+01 0.  1.
         -5    1    1    2    0  502  0.41099414911E+02 -0.11186291060E+02 -0.28302644588E+02  0.51310886802E+02  0.41800000000E+01 0.  1.
        -11    1    1    2    0    0  0.20314643092E+02  0.10645997091E+02  0.28522705304E+02  0.36600091474E+02  0.00000000000E+00 0.  1.
         11    1    1    2    0    0  0.12668199015E+02 -0.14447045317E+02 -0.65077746147E+02  0.67855091395E+02  0.00000000000E+00 0. -1.
</event>
<event>
 7    1  0.2661133E-009  0.1306196E+03  0.7561462E-02  0.1226539E+00
          2   -1    0    0  501    0  0.00000000000E+00  0.00000000000E+00  0.30687881679E+03  0.30687881679E+03  0.00000000000E+00 0.  1.
         -2   -1    0    0    0  501 -0.00000000000E+00 -0.00000000000E+00 -0.74138796576E+02  0.74138796576E+02  0.00000000000E+00 0. -1.
         25    2    1    2    0    0  0.97262984664E+02  0.36203093406E+02  0.11820412882E+03  0.20097395894E+03  0.12509022322E+03 0.  0.
          5    1    3    3  502    0  0.12610491761E+02 -0.18442547378E+02 -0.19736125866E+02  0.30102144781E+02  0.41800000000E+01 0.  1.
         -5    1    3    3    0  502  0.84652492902E+02  0.54645640784E+02  0.13794025468E+03  0.17087181416E+03  0.41800000000E+01 0.  1.
        -11    1    1    2    0    0 -0.23143749440E+02  0.30270374314E+02  0.42963543521E+02  0.57426429204E+02  0.00000000000E+00 0.  1.
         11    1    1    2    0    0 -0.74119235224E+02 -0.66473467720E+02  0.71572347872E+02  0.12261722522E+03  0.00000000000E+00 0. -1.
</event>
<event>
 7    1  0.2661133E-009  0.1654204E+03  0.7561462E-02  0.1182710E+00
          1   -1    0    0  501    0  0.00000000000E+00  0.00000000000E+00  0.74150127690E+03  0.74150127690E+03  0.00000000000E+00 0. -1.
         -1   -1    0    0    0  501 -0.00000000000E+00 -0.00000000000E+00 -0.43889515327E+02  0.43889515327E+02  0.00000000000E+00 0.  1.
         25    2    1    2    0    0 -0.92919474632E+02  0.10848985368E+03  0.36174292816E+03  0.40854718112E+03  0.12509506791E+03 0.  0.
          5    1    3    3  502    0  0.21779092956E+02  0.42269394655E+02  0.16169834733E+03  0.16859673349E+03  0.41800000000E+01 0. -1.
         -5    1    3    3    0  502 -0.11469856759E+03  0.66220459029E+02  0.20004458082E+03  0.23995044763E+03  0.41800000000E+01 0. -1.
        -11    1    1    2    0    0  0.54898941790E+02 -0.95983510398E+02  0.31014144863E+03  0.32926349059E+03  0.00000000000E+00 0. -1.
         11    1    1    2    0    0  0.38020532841E+02 -0.12506343286E+02  0.25727384785E+02  0.47580120511E+02  0.00000000000E+00 0.  1.
</event>
<event>
 7    1  0.2661133E-009  0.1288470E+03  0.7561462E-02  0.1229177E+00
          2   -1    0    0  501    0  0.00000000000E+00  0.00000000000E+00  0.57526478564E+03  0.57526478564E+03  0.00000000000E+00 0.  1.
         -2   -1    0    0    0  501 -0.00000000000E+00 -0.00000000000E+00 -0.35195276255E+02  0.35195276255E+02  0.00000000000E+00 0. -1.
         25    2    1    2    0    0 -0.38144231655E+02 -0.82647838719E+02  0.32886697495E+03  0.36343703850E+03  0.12508935241E+03 0.  0.
          5    1    3    3  502    0 -0.67762399137E+02 -0.95463871221E+02  0.28987380521E+03  0.31264898656E+03  0.41800000000E+01 0. -1.
         -5    1    3    3    0  502  0.29618167482E+02  0.12816032502E+02  0.38993169731E+02  0.50788051939E+02  0.41800000000E+01 0. -1.
        -11    1    1    2    0    0 -0.32594783567E+01  0.61372393444E+02  0.18193838055E+03  0.19203845759E+03  0.00000000000E+00 0.  1.
         11    1    1    2    0    0  0.41403710012E+02  0.21275445276E+02  0.29264153889E+02  0.54984565809E+02  0.00000000000E+00 0. -1.
</event>
<event>
 7    1  0.2661133E-009  0.9945199E+02  0.7561462E-02  0.1281453E+00
          1   -1    0    0  501    0  0.00000000000E+00  0.00000000000E+00  0.13465558338E+03  0.13465558338E+03  0.00000000000E+00 0. -1.
         -1   -1    0    0    0  501 -0.00000000000E+00 -0.00000000000E+00 -0.13206441429E+03  0.13206441429E+03  0.00000000000E+00 0.  1.
         25    2    1    2    0    0 -0.67704495656E+02 -0.10550770959E+02 -0.29600029931E+02  0.14566341223E+03  0.12508577213E+03 0.  0.
          5    1    3    3  502    0  0.23808750415E+02  0.86577852352E+01 -0.44017158356E+02  0.50958772269E+02  0.41800000000E+01 0.  1.
         -5    1    3    3    0  502 -0.91513246071E+02 -0.19208556195E+02  0.14417128425E+02  0.94704639957E+02  0.41800000000E+01 0.  1.
        -11    1    1    2    0    0  0.32458720044E+02 -0.15332444550E+02  0.59507732754E+02  0.69496925258E+02  0.00000000000E+00 0. -1.
         11    1    1    2    0    0  0.35245775612E+02  0.25883215509E+02 -0.27316533725E+02  0.51559660184E+02  0.00000000000E+00 0.  1.
</event>
<event>
 7    1  0.2661133E-009  0.1099142E+03  0.7561462E-02  0.1260729E+00
          1   -1    0    0  501    0  0.00000000000E+00  0.00000000000E+00  0.91672577946E+02  0.91672577946E+02  0.00000000000E+00 0. -1.
         -1   -1    0    0    0  501 -0.00000000000E+00 -0.00000000000E+00 -0.61280802639E+03  0.61280802639E+03  0.00000000000E+00 0.  1.
         25    2    1    2    0    0  0.64431899357E+02 -0.69604665889E+02 -0.54965840136E+03  0.57163621270E+03  0.12508925737E+03 0.  0.
          5    1    3    3  502    0  0.55335508484E+01  0.89402838237E+01 -0.33897818218E+03  0.33916696368E+03  0.41800000000E+01 0.  1.
         -5    1    3    3    0  502  0.58898348508E+02 -0.78544949712E+02 -0.21068021919E+03  0.23246924902E+03  0.41800000000E+01 0.  1.
        -11    1    1    2    0    0  0.32089649912E+01  0.33353044821E+02  0.43240101711E+02  0.54703102756E+02  0.00000000000E+00 0. -1.
         11    1    1    2    0    0 -0.67640864348E+02  0.36251621068E+02 -0.14717148792E+02  0.78141288883E+02  0.00000000000E+00 0.  1.
</event>
<event>
 7    1  0.2661133E-009  0.1246058E+03  0.7561462E-02  0.1235687E+00
         -1   -1    0    0    0  501 -0.00000000000E+00  0.00000000000E+00  0.10187330425E+03  0.10187330425E+03  0.00000000000E+00 0.  1.
          1   -1    0    0  501    0  0.00000000000E+00 -0.00000000000E+00 -0.19770909819E+03  0.19770909819E+03  0.00000000000E+00 0. -1.
         25    2    1    2    0    0  0.63277019256E+01  0.85384866437E+02 -0.81308067641E+02  0.17201601100E+03  0.12509153029E+03 0.  0.
          5    1    3    3  502    0  0.34424080502E+02  0.10756487970E+03 -0.47470793632E+02  0.12258127635E+03  0.41800000000E+01 0. -1.
         -5    1    3    3    0  502 -0.28096378577E+02 -0.22180013266E+02 -0.33837274009E+02  0.49434734651E+02  0.41800000000E+01 0. -1.
        -11    1    1    2    0    0  0.22999481004E+02 -0.36018361096E+02  0.32221818853E+02  0.53521435637E+02  0.00000000000E+00 0.  1.
         11    1    1    2    0    0 -0.29327182930E+02 -0.49366505341E+02 -0.46749545155E+02  0.74044955806E+02  0.00000000000E+00 0. -1.
</event>
<event>
 7    1  0.2661133E-009  0.9864799E+02  0.7561462E-02  0.1283165E+00
         -2   -1    0    0    0  501 -0.00000000000E+00  0.00000000000E+00  0.40751668763E+02  0.40751668763E+02  0.00000000000E+00 0.  1.
          2   -1    0    0  501    0  0.00000000000E+00 -0.00000000000E+00 -0.38371361729E+03  0.38371361729E+03  0.00000000000E+00 0. -1.
         25    2    1    2    0    0 -0.87861391425E+00  0.10334580938E+02 -0.88145896681E+02  0.15338400082E+03  0.12509747032E+03 0.  0.
          5    1    3    3  502    0  0.50151171462E+02  0.34618012301E+02 -0.72085627426E+02  0.94484691120E+02  0.41800000000E+01 0. -1.
         -5    1    3    3    0  502 -0.51029785376E+02 -0.24283431363E+02 -0.16060269255E+02  0.58899309697E+02  0.41800000000E+01 0. -1.
        -11    1    1    2    0    0  0.35419598311E+02 -0.23582453799E+02 -0.20301460165E+03  0.20742615205E+03  0.00000000000E+00 0. -1.
         11    1    1    2    0    0 -0.34540984397E+02  0.13247872861E+02 -0.51801450202E+02  0.63655133190E+02  0.00000000000E+00 0.  1.
</event>
<event>
 7    1  0.2661133E-009  0.1474798E+03  0.7561462E-02  0.1203604E+00
         -4   -1    0    0    0  501 -0.00000000000E+00  0.00000000000E+00  0.15142581312E+03  0.15142581312E+03  0.00000000000E+00 0.  1.
          4   -1    0    0  501    0  0.00000000000E+00 -0.00000000000E+00 -0.24251421959E+03  0.24251421959E+03  0.00000000000E+00 0. -1.
         25    2    1    2    0    0  0.11091494810E+03  0.21183682655E+02 -0.16250575342E+03  0.23410092886E+03  0.12507697980E+03 0.  0.
          5    1    3    3  502    0  0.12140599281E+03 -0.10949721150E+02 -0.15821475548E+03  0.19977160142E+03  0.41800000000E+01 0.  1.
         -5    1    3    3    0  502 -0.10491044708E+02  0.32133403805E+02 -0.42909979443E+01  0.34329327441E+02  0.41800000000E+01 0.  1.
        -11    1    1    2    0    0 -0.52159365089E+02  0.30717994563E+02  0.50153111827E+02  0.78609981443E+02  0.00000000000E+00 0.  1.
         11    1    1    2    0    0 -0.58755583008E+02 -0.51901677219E+02  0.21264235124E+02  0.81229122414E+02  0.00000000000E+00 0. -1.
</event>
<event>
 7    1  0.2661133E-009  0.1276089E+03  0.7561462E-02  0.1231047E+00
          2   -1    0    0  501    0  0.00000000000E+00  0.00000000000E+00  0.32506554683E+03  0.32506554683E+03  0.00000000000E+00 0. -1.
         -2   -1    0    0    0  501 -0.00000000000E+00 -0.00000000000E+00 -0.69047001063E+02  0.69047001063E+02  0.00000000000E+00 0.  1.
         25    2    1    2    0    0  0.87951255596E+02 -0.38997394062E+02  0.89876348530E+02  0.18160820177E+03  0.12509021073E+03 0.  0.
          5    1    3    3  502    0  0.47411933590E+02 -0.60870335641E+02  0.10726201447E+03  0.13219569341E+03  0.41800000000E+01 0.  1.
         -5    1    3    3    0  502  0.40539322006E+02  0.21872941578E+02 -0.17385665942E+02  0.49412508358E+02  0.41800000000E+01 0.  1.
        -11    1    1    2    0    0  0.85674492790E+01  0.33983268006E+02  0.54998376411E+02  0.65215681391E+02  0.00000000000E+00 0.  1.
         11    1    1    2    0    0 -0.96518704875E+02  0.50141260568E+01  0.11114382083E+03  0.14728866473E+03  0.00000000000E+00 0. -1.
</event>
<event>
 7    1  0.2661133E-009  0.1367182E+03  0.7561462E-02  0.1217814E+00
          2   -1    0    0  501    0  0.00000000000E+00  0.00000000000E+00  0.27627274487E+03  0.27627274487E+03  0.00000000000E+00 0. -1.
         -2   -1    0    0    0  501 -0.00000000000E+00 -0.00000000000E+00 -0.88116116374E+02  0.88116116374E+02  0.00000000000E+00 0.  1.
         25    2    1    2    0    0 -0.87833017660E+02 -0.69437216389E+02  0.12157022158E+03  0.20727967289E+03  0.12509747403E+03 0.  0.
          5    1    3    3  502    0 -0.31267334740E+02 -0.81693294074E+02  0.19270344806E+02  0.89667491920E+02  0.41800000000E+01 0. -1.
         -5    1    3    3    0  502 -0.56565682920E+02  0.12256077684E+02  0.10229987678E+03  0.11761218097E+03  0.41800000000E+01 0. -1.
        -11    1    1    2    0    0  0.75389370625E+02  0.21624337519E+02  0.56101749623E+01  0.78629785956E+02  0.00000000000E+00 0.  1.
         11    1    1    2    0    0  0.12443647035E+02  0.47812878870E+02  0.60976231948E+02  0.78479402393E+02  0.00000000000E+00 0. -1.
</event>
<event>
 7    1  0.2661133E-009  0.1521388E+03  0.7561462E-02  0.1197869E+00
         -1   -1    0    0    0  501 -0.00000000000E+00  0.00000000000E+00  0.11055087049E+03  0.11055087049E+03  0.00000000000E+00 0.  1.
          1   -1    0    0  501    0  0.00000000000E+00 -0.00000000000E+00 -0.22137871278E+03  0.22137871278E+03  0.00000000000E+00 0. -1.
         25    2    1    2    0    0 -0.38957414569E+02  0.10609464540E+03 -0.68372303686E+02  0.18193462727E+03  0.12510668550E+03 0.  0.
          5    1    3    3  502    0  0.28190564820E+02 -0.88855630975E+01  0.43397763297E+01  0.30165663179E+02  0.41800000000E+01 0. -1.
         -5    1    3    3    0  502 -0.67147979389E+02  0.11498020850E+03 -0.72712080016E+02  0.15176896409E+03  0.41800000000E+01 0. -1.
        -11    1    1    2    0    0 -0.16064821974E+02 -0.77600815132E+02 -0.94998664124E+01  0.79813610845E+02  0.00000000000E+00 0.  1.
         11    1    1    2    0    0  0.55022236543E+02 -0.28493830266E+02 -0.32955672195E+02  0.70181345152E+02  0.00000000000E+00 0. -1.
</event>
<event>
 7    1  0.2661133E-009  0.9028696E+02  0.7561462E-02  0.1302158E+00
          3   -1    0    0  501    0  0.00000000000E+00  0.00000000000E+00  0.31807735069E+02  0.31807735069E+02  0.00000000000E+00 0. -1.
         -3   -1    0    0    0  501 -0.00000000000E+00 -0.00000000000E+00 -0.57529964254E+03  0.57529964254E+03  0.00000000000E+00 0.  1.
         25    2    1    2    0    0 -0.47961962497E+02  0.62993851351E+01 -0.15631877909E+03  0.20596450648E+03  0.12508311291E+03 0.  0.
          5    1    3    3  502    0  0.14033025101E+02  0.24465700708E+02 -0.13474319537E+03  0.13772689426E+03  0.41800000000E+01 0. -1.
         -5    1    3    3    0  502 -0.61994987599E+02 -0.18166315573E+02 -0.21575583723E+02  0.68237612223E+02  0.41800000000E+01 0. -1.
        -11    1    1    2    0    0  0.59191783176E+02  0.16893950089E+02 -0.35308593403E+03  0.35841142498E+03  0.00000000000E+00 0.  1.
         11    1    1    2    0    0 -0.11229820679E+02 -0.23193335224E+02 -0.34087194350E+02  0.42731446149E+02  0.00000000000E+00 0. -1.
</event>
<event>
 7    1  0.2661133E-009  0.1293042E+03  0.7561462E-02  0.1228492E+00
         -2   -1    0    0    0  501 -0.00000000000E+00  0.00000000000E+00  0.16113550986E+02  0.16113550986E+02  0.00000000000E+00 0.  1.
          2   -1    0    0  501    0  0.00000000000E+00 -0.00000000000E+00 -0.11128377974E+04  0.11128377974E+04  0.00000000000E+00 0. -1.
         25    2    1    2    0    0  0.59633600355E+02  0.46838756466E+02 -0.51000557431E+03  0.53056831386E+03  0.12508802679E+03 0.  0.
          5    1    3    3  502    0  0.79961120460E+02  0.75445438694E+02 -0.35880312886E+03  0.37529049107E+03  0.41800000000E+01 0. -1.
         -5    1    3    3    0  502 -0.20327520105E+02 -0.28606682228E+02 -0.15120244545E+03  0.15527782279E+03  0.41800000000E+01 0. -1.
        -11    1    1    2    0    0 -0.36388447594E+02 -0.70964363469E+02 -0.47840241979E+03  0.48500405695E+03  0.00000000000E+00 0.  1.
         11    1    1    2    0    0 -0.23245152760E+02  0.24125607003E+02 -0.10831625235E+03  0.11337897761E+03  0.00000000000E+00 0. -1.
</event>
<event>
 7    1  0.2661133E-009  0.1264363E+03  0.7561462E-02  0.1232841E+00
          2   -1    0    0  501    0  0.00000000000E+00  0.00000000000E+00  0.36255066220E+03  0.36255066220E+03  0.00000000000E+00 0. -1.
         -2   -1    0    0    0  501 -0.00000000000E+00 -0.00000000000E+00 -0.57114457877E+02  0.57114457877E+02  0.00000000000E+00 0.  1.
         25    2    1    2    0    0  0.46667197031E+02  0.71734394877E+02  0.22341686878E+03  0.26997406141E+03  0.12508895192E+03 0.  0.
          5    1    3    3  502    0  0.15640561961E+02  0.10110468605E+03  0.18899780990E+03  0.21495215576E+03  0.41800000000E+01 0. -1.
         -5    1    3    3    0  502  0.31026635070E+02 -0.29370291168E+02  0.34419058875E+02  0.55021905646E+02  0.41800000000E+01 0. -1.
        -11    1    1    2    0    0  0.32013741240E+01  0.10721773736E+02 -0.11046891013E+02  0.15723836345E+02  0.00000000000E+00 0.  1.
         11    1    1    2    0    0 -0.49868571155E+02 -0.82456168614E+02  0.93066226562E+02  0.13396722233E+03  0.00000000000E+00 0. -1.
</event>
<event>
 7    1  0.2661133E-009  0.2057160E+03  0.7561462E-02  0.1145004E+00
         -2   -1    0    0    0  501 -0.00000000000E+00  0.00000000000E+00  0.48530353571E+02  0.48530353571E+02  0.00000000000E+00 0.  1.
          2   -1    0    0  501    0  0.00000000000E+00 -0.00000000000E+00 -0.92689267950E+03  0.92689267950E+03  0.00000000000E+00 0. -1.
         25    2    1    2    0    0 -0.81579132221E+02  0.15154616876E+03 -0.52786857227E+03  0.56913642295E+03  0.12509853022E+03 0.  0.
          5    1    3    3  502    0  0.28814883085E+02  0.65143220069E+01 -0.60210135366E+02  0.67197222258E+02  0.41800000000E+01 0. -1.
         -5    1    3    3    0  502 -0.11039401531E+03  0.14503184675E+03 -0.46765843690E+03  0.50193920070E+03  0.41800000000E+01 0. -1.
        -11    1    1    2    0    0  0.98530456898E+02 -0.83492407157E+02 -0.17661717674E+03  0.21879867484E+03  0.00000000000E+00 0.  1.
         11    1    1    2    0    0 -0.16951324676E+02 -0.68053761600E+02 -0.17387657692E+03  0.18748793528E+03  0.00000000000E+00 0. -1.
</event>
<event>
 7    1  0.2661133E-009  0.1200365E+03  0.7561462E-02  0.1243037E+00
          2   -1    0    0  501    0  0.00000000000E+00  0.00000000000E+00  0.32394566650E+03  0.32394566650E+03  0.00000000000E+00 0. -1.
         -2   -1    0    0    0  501 -0.00000000000E+00 -0.00000000000E+00 -0.50972035028E+02  0.50972035028E+02  0.00000000000E+00 0.  1.
         25    2    1    2    0    0 -0.51258544475E+02 -0.20940171582E+02  0.20922342673E+03  0.24997432680E+03  0.12508714001E+03 0.  0.
          5    1    3    3  502    0 -0.49385126054E+02 -0.70898178612E+02  0.12726477875E+03  0.15388059889E+03  0.41800000000E+01 0. -1.
         -5    1    3    3    0  502 -0.18734184209E+01  0.49958007030E+02  0.81958647983E+02  0.96093727902E+02  0.41800000000E+01 0. -1.
        -11    1    1    2    0    0  0.66111836149E+02 -0.12069130660E+02  0.24450812342E+02  0.71514201513E+02  0.00000000000E+00 0.  1.
         11    1    1    2    0    0 -0.14853291674E+02  0.33009302242E+02  0.39299392402E+02  0.53429173222E+02  0.00000000000E+00 0. -1.
</event>
<event>
 7    1  0.2661133E-009  0.1121303E+03  0.7561462E-02  0.1256675E+00
         -2   -1    0    0    0  501 -0.00000000000E+00  0.00000000000E+00  0.38682874236E+02  0.38682874236E+02  0.00000000000E+00 0. -1.
          2   -1    0    0  501    0  0.00000000000E+00 -0.00000000000E+00 -0.44729881510E+03  0.44729881510E+03  0.00000000000E+00 0.  1.
         25    2    1    2    0    0  0.32245276122E+02 -0.65634822846E+02 -0.19386730809E+03  0.24202050200E+03  0.12506679191E+03 0.  0.
          5    1    3    3  502    0 -0.31731172283E+02 -0.90669188332E+01 -0.13292369393E+03  0.13702283430E+03  0.41800000000E+01 0.  1.
         -5    1    3    3    0  502  0.63976448405E+02 -0.56567904013E+02 -0.60943614167E+02  0.10499766770E+03  0.41800000000E+01 0.  1.
        -11    1    1    2    0    0  0.15947994462E+02 -0.77254894541E+01 -0.81798802483E+01  0.19517483330E+02  0.00000000000E+00 0. -1.
         11    1    1    2    0    0 -0.48193270584E+02  0.73360312301E+02 -0.20656875252E+03  0.22444370401E+03  0.00000000000E+00 0.  1.
</event>
<event>
 7    1  0.2661133E-009  0.1197846E+03  0.7561462E-02  0.1243453E+00
          1   -1    0    0  501    0  0.00000000000E+00  0.00000000000E+00  0.18310723189E+04  0.18310723189E+04  0.00000000000E+00 0. -1.
         -1   -1    0    0    0  501 -0.00000000000E+00 -0.00000000000E+00 -0.16514538555E+02  0.16514538555E+02  0.00000000000E+00 0.  1.
         25    2    1    2    0    0 -0.11771200502E+02  0.83915191299E+02  0.15112581503E+04  0.15187923229E+04  0.12509437532E+03 0.  0.
          5    1    3    3  502    0 -0.61772555574E+02  0.75282255678E+02  0.84814392271E+03  0.85372645072E+03  0.41800000000E+01 0. -1.
         -5    1    3    3    0  502  0.50001355072E+02  0.86329356210E+01  0.66311422758E+03  0.66506587216E+03  0.41800000000E+01 0. -1.
        -11    1    1    2    0    0  0.17818623722E+02 -0.19226802101E+02  0.94770508712E+01  0.27874500239E+02  0.00000000000E+00 0.  1.
         11    1    1    2    0    0 -0.60474232208E+01 -0.64688389199E+02  0.29382257919E+03  0.30092003433E+03  0.00000000000E+00 0. -1.
</event>
<event>
 7    1  0.2661133E-009  0.1124909E+03  0.7561462E-02  0.1256026E+00
          2   -1    0    0  501    0  0.00000000000E+00  0.00000000000E+00  0.58060509959E+03  0.58060509959E+03  0.00000000000E+00 0. -1.
         -2   -1    0    0    0  501 -0.00000000000E+00 -0.00000000000E+00 -0.23364562511E+02  0.23364562511E+02  0.00000000000E+00 0.  1.
         25    2    1    2    0    0 -0.10504356931E+02  0.40848989590E+02  0.28413698640E+03  0.31330520180E+03  0.12508933197E+03 0.  0.
          5    1    3    3  502    0 -0.66304500457E+02  0.36614548504E+02  0.15975919952E+03  0.17685413813E+03  0.41800000000E+01 0.  1.
         -5    1    3    3    0  502  0.55800143526E+02  0.42344410856E+01  0.12437778688E+03  0.13645106367E+03  0.41800000000E+01 0.  1.
        -11    1    1    2    0    0  0.26279748435E+02  0.18148550231E+02  0.14855444191E+03  0.15194873236E+03  0.00000000000E+00 0. -1.
         11    1    1    2    0    0 -0.15775391505E+02 -0.58997539821E+02  0.12454910877E+03  0.13871572794E+03  0.00000000000E+00 0.  1.
</event>
<event>
 7    1  0.2661133E-009  0.1153263E+03  0.7561462E-02  0.1251013E+00
         -2   -1    0    0    0  501 -0.00000000000E+00  0.00000000000E+00  0.33619261067E+03  0.33619261067E+03  0.00000000000E+00 0.  1.
          2   -1    0    0  501    0  0.00000000000E+00 -0.00000000000E+00 -0.14669120698E+03  0.14669120698E+03  0.00000000000E+00 0. -1.
         25    2    1    2    0    0 -0.10922848340E+02 -0.42745574297E+02 -0.10624466847E+03  0.16994711904E+03  0.12509037115E+03 0.  0.
          5    1    3    3  502    0  0.55180574863E+02 -0.27735424431E+02 -0.68198865572E+02  0.92101613861E+02  0.41800000000E+01 0.  1.
         -5    1    3    3    0  502 -0.66103423204E+02 -0.15010149866E+02 -0.38045802901E+02  0.77845505179E+02  0.41800000000E+01 0.  1.
        -11    1    1    2    0    0  0.50474282289E+02  0.15465686362E+02  0.12836929117E+03  0.13880027213E+03  0.00000000000E+00 0. -1.
         11    1    1    2    0    0 -0.39551433948E+02  0.27279887934E+02  0.16737678098E+03  0.17413642648E+03  0.00000000000E+00 0.  1.
</event>
<event>
 7    1  0.2661133E-009  0.1034498E+03  0.7561462E-02  0.1273204E+00
          2   -1    0    0  501    0  0.00000000000E+00  0.00000000000E+00  0.18903880094E+03  0.18903880094E+03  0.00000000000E+00 0. -1.
         -2   -1    0    0    0  501 -0.00000000000E+00 -0.00000000000E+00 -0.84041155585E+02  0.84041155585E+02  0.00000000000E+00 0.  1.
         25    2    1    2    0    0  0.29891688617E+02 -0.59694439841E+02  0.61688782307E+02  0.15462795994E+03  0.12508941177E+03 0.  0.
          5    1    3    3  502    0 -0.23121028142E+02 -0.18314661787E+02 -0.29048375857E+02  0.41608764926E+02  0.41800000000E+01 0.  1.
         -5    1    3    3    0  502  0.53012716760E+02 -0.41379778055E+02  0.90737158164E+02  0.11301919501E+03  0.41800000000E+01 0.  1.
        -11    1    1    2    0    0 -0.48812233395E+02  0.72125191949E+02  0.29583245858E+02  0.91977420480E+02  0.00000000000E+00 0. -1.
         11    1    1    2    0    0  0.18920544777E+02 -0.12430752107E+02  0.13725617188E+02  0.26474576103E+02  0.00000000000E+00 0.  1.
</event>
<event>
 7    1  0.2661133E-009  0.7446419E+02  0.7561462E-02  0.1345538E+00
         -1   -1    0    0    0  501 -0.00000000000E+00  0.00000000000E+00  0.41005877023E+03  0.41005877023E+03  0.00000000000E+00 0.  1.
          1   -1    0    0  501    0  0.00000000000E+00 -0.00000000000E+00 -0.20464041802E+02  0.20464041802E+02  0.00000000000E+00 0. -1.
         25    2    1    2    0    0  0.16500887724E+02  0.18652000030E+02  0.22815811283E+03  0.26138779607E+03  0.12508908458E+03 0.  0.
          5    1    3    3  502    0  0.35994886837E+02  0.49856204966E+02  0.49835600871E+02  0.79261166823E+02  0.41800000000E+01 0. -1.
         -5    1    3    3    0  502 -0.19493999113E+02 -0.31204204936E+02  0.17832251196E+03  0.18212662924E+03  0.41800000000E+01 0. -1.
        -11    1    1    2    0    0  0.36154240962E+01  0.12594347068E+02  0.48668073091E+02  0.50401093320E+02  0.00000000000E+00 0.  1.
         11    1    1    2    0    0 -0.20116311820E+02 -0.31246347098E+02  0.11276854250E+03  0.11873392264E+03  0.00000000000E+00 0. -1.
</event>
<event>
 7    1  0.2661133E-009  0.9290552E+02  0.7561462E-02  0.1295964E+00
         -2   -1    0    0    0  501 -0.00000000000E+00  0.00000000000E+00  0.19737580333E+02  0.19737580333E+02  0.00000000000E+00 0.  1.
          2   -1    0    0  501    0  0.00000000000E+00 -0.00000000000E+00 -0.73234320609E+03  0.73234320609E+03  0.00000000000E+00 0. -1.
         25    2    1    2    0    0 -0.89424886120E+00  0.51743719021E+02 -0.40518973759E+03  0.42720575533E+03  0.12509125386E+03 0.  0.
          5    1    3    3  502    0  0.20321981736E+02  0.55705439325E+02 -0.72337587561E+02  0.93628403202E+02  0.41800000000E+01 0. -1.
         -5    1    3    3    0  502 -0.21216230597E+02 -0.39617203035E+01 -0.33285215003E+03  0.33357735212E+03  0.41800000000E+01 0. -1.
        -11    1    1    2    0    0  0.45772587294E+02 -0.26668064014E+02 -0.17449365739E+03  0.18235775787E+03  0.00000000000E+00 0. -1.
         11    1    1    2    0    0 -0.44878338433E+02 -0.25075655007E+02 -0.13292223077E+03  0.14251727323E+03  0.00000000000E+00 0.  1.
</event>
<event>
 7    1  0.2661133E-009  0.1303626E+03  0.7561462E-02  0.1226919E+00
         -2   -1    0    0    0  501 -0.00000000000E+00  0.00000000000E+00  0.51048591519E+02  0.51048591519E+02  0.00000000000E+00 0.  1.
          2   -1    0    0  501    0  0.00000000000E+00 -0.00000000000E+00 -0.34429158155E+03  0.34429158155E+03  0.00000000000E+00 0. -1.
         25    2    1    2    0    0 -0.38551567795E+02  0.60799948684E+02 -0.12642657734E+03  0.19187303970E+03  0.12509487106E+03 0.  0.
          5    1    3    3  502    0 -0.84885168009E+01  0.96757966309E+02 -0.82662548186E+02  0.12761163048E+03  0.41800000000E+01 0.  1.
         -5    1    3    3    0  502 -0.30063050994E+02 -0.35958017626E+02 -0.43764029155E+02  0.64261409217E+02  0.41800000000E+01 0.  1.
        -11    1    1    2    0    0 -0.26715715318E+01 -0.73319140027E+02 -0.10782300562E+03  0.13041715427E+03  0.00000000000E+00 0.  1.
         11    1    1    2    0    0  0.41223139327E+02  0.12519191343E+02 -0.58993407075E+02  0.73049979098E+02  0.00000000000E+00 0. -1.
</event>
<event>
 7    1  0.2661133E-009  0.1118564E+03  0.7561462E-02  0.1257170E+00
          2   -1    0    0  501    0  0.00000000000E+00  0.00000000000E+00  0.50270031154E+03  0.50270031154E+03  0.00000000000E+00 0. -1.
         -2   -1    0    0    0  501 -0.00000000000E+00 -0.00000000000E+00 -0.45910642592E+02  0.45910642592E+02  0.00000000000E+00 0.  1.
         25    2    1    2    0    0 -0.13582283942E+01  0.10507082866E+03  0.20194132548E+03  0.25975162953E+03  0.12509550867E+03 0.  0.
          5    1    3    3  502    0 -0.23614456147E+02  0.22168772546E+02  0.16150606186E+03  0.16477492963E+03  0.41800000000E+01 0. -1.
         -5    1    3    3    0  502  0.22256227753E+02  0.82902056112E+02  0.40435263614E+02  0.94976699906E+02  0.41800000000E+01 0. -1.
        -11    1    1    2    0    0 -0.59473100055E+00 -0.58855392545E+02  0.45316999601E+02  0.74282847208E+02  0.00000000000E+00 0.  1.
         11    1    1    2    0    0  0.19529593948E+01 -0.46215436114E+02  0.20953134388E+03  0.21457647740E+03  0.00000000000E+00 0. -1.
</event>
<event>
 6    1  0.2661133E-009  0.1246339E+03  0.7561462E-02  0.1235642E+00
         -2   -1    0    0    0  501 -0.00000000000E+00  0.00000000000E+00  0.21279806339E+02  0.21279806339E+02  0.00000000000E+00 0.  1.
          2   -1    0    0  501    0  0.00000000000E+00 -0.00000000000E+00 -0.95182325099E+03  0.95182325099E+03  0.00000000000E+00 0. -1.
          5    1    1    2  502    0  0.85139852531E+02  0.51479172728E+02 -0.56856289354E+03  0.57721758118E+03  0.41800000000E+01 0. -1.
         -5    1    1    2    0  502  0.26867514931E+01 -0.24998369856E+02 -0.23003202297E+02  0.34333028485E+02  0.41800000000E+01 0. -1.
        -11    1    1    2    0    0 -0.17641155395E+02  0.29534038503E+02 -0.70297918821E+02  0.78264086173E+02  0.00000000000E+00 0.  1.
         11    1    1    2    0    0 -0.70185448629E+02 -0.56014841375E+02 -0.26867942999E+03  0.28328836149E+03  0.00000000000E+00 0. -1.
</event>
<event>
 7    1  0.2661133E-009  0.8911421E+02  0.7561462E-02  0.1305011E+00
          1   -1    0    0  501    0  0.00000000000E+00  0.00000000000E+00  0.32509153956E+02  0.32509153956E+02  0.00000000000E+00 0. -1.
         -1   -1    0    0    0  501 -0.00000000000E+00 -0.00000000000E+00 -0.41565637772E+03  0.41565637772E+03  0.00000000000E+00 0.  1.
         25    2    1    2    0    0  0.38258067310E+01  0.15866066739E+02 -0.29681028019E+03  0.32249521231E+03  0.12506178740E+03 0.  0.
          5    1    3    3  502    0  0.23158935145E+02 -0.35092134255E+02 -0.34495226079E+02  0.54545276477E+02  0.41800000000E+01 0. -1.
         -5    1    3    3    0  502 -0.19333128414E+02  0.50958200994E+02 -0.26231505411E+03  0.26794993583E+03  0.41800000000E+01 0. -1.
        -11    1    1    2    0    0  0.21046172154E+02 -0.40917071947E+02 -0.76075589419E+02  0.88908061752E+02  0.00000000000E+00 0.  1.
         11    1    1    2    0    0 -0.24871978885E+02  0.25051005209E+02 -0.10261354160E+02  0.36762257613E+02  0.00000000000E+00 0. -1.
</event>
<event>
 7    1  0.2661133E-009  0.9733504E+02  0.7561462E-02  0.1286002E+00
         -4   -1    0    0    0  501 -0.00000000000E+00  0.00000000000E+00  0.14460176291E+03  0.14460176291E+03  0.00000000000E+00 0.  1.
          4   -1    0    0  501    0  0.00000000000E+00 -0.00000000000E+00 -0.86330775049E+02  0.86330775049E+02  0.00000000000E+00 0. -1.
         25    2    1    2    0    0  0.94815022166E+01  0.19533383072E+02  0.16748337895E+02  0.12805815315E+03  0.12508769655E+03 0.  0.
          5    1    3    3  502    0 -0.47662014268E+02 -0.25297877183E+02  0.94758317262E+01  0.54944644698E+02  0.41800000000E+01 0.  1.
         -5    1    3    3    0  502  0.57143516485E+02  0.44831260255E+02  0.72725061686E+01  0.73113508453E+02  0.41800000000E+01 0.  1.
        -11    1    1    2    0    0 -0.32807042991E+02  0.58501387381E+01  0.56255369841E+02  0.65384958737E+02  0.00000000000E+00 0.  1.
         11    1    1    2    0    0  0.23325540774E+02 -0.25383521810E+02 -0.14732719878E+02  0.37489426068E+02  0.00000000000E+00 0. -1.
</event>
<event>
 7    1  0.2661133E-009  0.9730412E+02  0.7561462E-02  0.1286069E+00
         -1   -1    0    0    0  501 -0.00000000000E+00  0.00000000000E+00  0.63401041216E+02  0.63401041216E+02  0.00000000000E+00 0.  1.
          1   -1    0    0  501    0  0.00000000000E+00 -0.00000000000E+00 -0.22832733590E+03  0.22832733590E+03  0.00000000000E+00 0. -1.
         25    2    1    2    0    0 -0.26877259174E+02  0.34142803999E+02 -0.58837792234E+02  0.14490603181E+03  0.12509098342E+03 0.  0.
          5    1    3    3  502    0 -0.17362138859E+02  0.62333012126E+02 -0.83721641858E+02  0.10589444736E+03  0.41800000000E+01 0. -1.
         -5    1    3    3    0  502 -0.95151203149E+01 -0.28190208127E+02  0.24883849624E+02  0.39011584446E+02  0.41800000000E+01 0. -1.
        -11    1    1    2    0    0  0.39443574978E+02  0.19941248008E+02 -0.60817059315E+02  0.75180873119E+02  0.00000000000E+00 0.  1.
         11    1    1    2    0    0 -0.12566315804E+02 -0.54084052007E+02 -0.45271443139E+02  0.71641472195E+02  0.00000000000E+00 0. -1.
</event>
<event>
 7    1  0.2661133E-009  0.1091631E+03  0.7561462E-02  0.1262128E+00
          1   -1    0    0  501    0  0.00000000000E+00  0.00000000000E+00  0.19315547372E+03  0.19315547372E+03  0.00000000000E+00 0. -1.
         -1   -1    0    0    0  501 -0.00000000000E+00 -0.00000000000E+00 -0.62460190588E+02  0.62460190588E+02  0.00000000000E+00 0.  1.
         25    2    1    2    0    0 -0.50478924228E+01  0.13324112377E+02  0.63681632739E+02  0.14108772729E+03  0.12508950097E+03 0.  0.
          5    1    3    3  502    0 -0.49240560348E+02 -0.34604771394E+02  0.26209846497E+02  0.65776526512E+02  0.41800000000E+01 0.  1.
         -5    1    3    3    0  502  0.44192667925E+02  0.47928883771E+02  0.37471786242E+02  0.75311200774E+02  0.41800000000E+01 0.  1.
        -11    1    1    2    0    0  0.21254948626E+02 -0.49040471366E+02  0.34867780496E+02  0.63816164015E+02  0.00000000000E+00 0. -1.
         11    1    1    2    0    0 -0.16207056203E+02  0.35716358988E+02  0.32145869898E+02  0.50711773008E+02  0.00000000000E+00 0.  1.
</event>
<event>
 7    1  0.2661133E-009  0.1667695E+03  0.7561462E-02  0.1181259E+00
         -1   -1    0    0    0  501 -0.00000000000E+00  0.00000000000E+00  0.41297120296E+03  0.41297120296E+03  0.00000000000E+00 0.  1.
          1   -1    0    0  501    0  0.00000000000E+00 -0.00000000000E+00 -0.73969803660E+02  0.73969803660E+02  0.00000000000E+00 0. -1.
         25    2    1    2    0    0 -0.78547622048E+02  0.60007023433E+02  0.16767281315E+03  0.23137100467E+03  0.12509115774E+03 0.  0.
          5    1    3    3  502    0  0.58816875945E+01  0.70932516294E+02  0.98509868002E+02  0.12160461591E+03  0.41800000000E+01 0.  1.
         -5    1    3    3    0  502 -0.84429309643E+02 -0.10925492862E+02  0.69162945146E+02  0.10976638876E+03  0.41800000000E+01 0. -1.
        -11    1    1    2    0    0  0.59855191564E+02  0.42114363859E+02  0.11800703176E+03  0.13885936463E+03  0.00000000000E+00 0.  1.
         11    1    1    2    0    0  0.18692430484E+02 -0.10212138729E+03  0.53321554388E+02  0.11671063731E+03  0.00000000000E+00 0. -1.
</event>
<event>
 7    1  0.2661133E-009  0.1039664E+03  0.7561462E-02  0.1272170E+00
          2   -1    0    0  501    0  0.00000000000E+00  0.00000000000E+00  0.89649632703E+02  0.89649632703E+02  0.00000000000E+00 0. -1.
         -2   -1    0    0    0  501 -0.00000000000E+00 -0.00000000000E+00 -0.13831093587E+03  0.13831093587E+03  0.00000000000E+00 0.  1.
         25    2    1    2    0    0 -0.99749775961E+01 -0.66656800931E+01 -0.56037209036E+02  0.13759249770E+03  0.12509034798E+03 0.  0.
          5    1    3    3  502    0  0.89333379020E+01  0.56717050385E+02 -0.14463508267E+02  0.59357339915E+02  0.41800000000E+01 0.  1.
         -5    1    3    3    0  502 -0.18908315498E+02 -0.63382730478E+02 -0.41573700769E+02  0.78235157784E+02  0.41800000000E+01 0.  1.
        -11    1    1    2    0    0 -0.36910971767E+02  0.18547815630E+01 -0.12782998772E+02  0.39105819376E+02  0.00000000000E+00 0.  1.
         11    1    1    2    0    0  0.46885949363E+02  0.48108985300E+01  0.20158904641E+02  0.51262251498E+02  0.00000000000E+00 0. -1.
</event>
