<event>
 7    1  0.1020736E-005  0.1232101E+03  0.7546771E-02  0.1247426E+00
          1   -1    0    0  501    0  0.00000000000E+00  0.00000000000E+00  0.13969121782E+03  0.13969121782E+03  0.00000000000E+00 0. -1.
         -1   -1    0    0    0  501 -0.00000000000E+00 -0.00000000000E+00 -0.98946145150E+02  0.98946145150E+02  0.00000000000E+00 0.  1.
         23    2    1    2    0    0 -0.42147607088E+02 -0.23041110189E+02 -0.16220637173E+02  0.10289557474E+03  0.89538129805E+02 0.  0.
          5    1    1    2  502    0  0.19667165477E+02  0.65555315709E+02  0.54042294005E+02  0.87332447332E+02  0.47000000000E+01 0. -1.
         -5    1    1    2    0  502  0.22480441611E+02 -0.42514205520E+02  0.29234158392E+01  0.48409340898E+02  0.47000000000E+01 0.  1.
        -11    1    3    3    0    0 -0.40238158039E+02  0.28549122503E+02 -0.21371327124E+01  0.49383490098E+02  0.00000000000E+00 0.  1.
         11    1    3    3    0    0 -0.19094490494E+01 -0.51590232692E+02 -0.14083504461E+02  0.53512084643E+02  0.00000000000E+00 0. -1.
<mgrwt>
<rscale>  0 0.11741347E+03</rscale>
<asrwt>0</asrwt>
<pdfrwt beam="1">  1        1 0.21490957E-01 0.12321015E+03</pdfrwt>
<pdfrwt beam="2">  1       -1 0.15222484E-01 0.12321015E+03</pdfrwt>
<totfact> 0.68752427E+03</totfact>
</mgrwt>
</event>
<event>
 7    1  0.1020736E-005  0.1789096E+03  0.7546771E-02  0.1173834E+00
          1   -1    0    0  501    0  0.00000000000E+00  0.00000000000E+00  0.12922016426E+04  0.12922016426E+04  0.00000000000E+00 0. -1.
         -1   -1    0    0    0  501 -0.00000000000E+00 -0.00000000000E+00 -0.29031638583E+02  0.29031638583E+02  0.00000000000E+00 0.  1.
         23    2    1    2    0    0  0.12457378519E+03  0.29410306694E+02  0.28381544389E+03  0.32567112565E+03  0.95534715112E+02 0.  0.
          5    1    1    2  502    0 -0.70983007788E+02 -0.10524482602E+02  0.17513877711E+03  0.18932784628E+03  0.47000000000E+01 0.  1.
         -5    1    1    2    0  502 -0.53590777406E+02 -0.18885824092E+02  0.80421578297E+03  0.80623430922E+03  0.47000000000E+01 0.  1.
        -11    1    3    3    0    0  0.10784829267E+03 -0.18008364369E+02  0.19961023936E+03  0.22759570092E+03  0.00000000000E+00 0. -1.
         11    1    3    3    0    0  0.16725492523E+02  0.47418671063E+02  0.84205204530E+02  0.98075424727E+02  0.00000000000E+00 0.  1.
<mgrwt>
<rscale>  0 0.17390621E+03</rscale>
<asrwt>0</asrwt>
<pdfrwt beam="1">  1        1 0.19880021E+00 0.17890962E+03</pdfrwt>
<pdfrwt beam="2">  1       -1 0.44664069E-02 0.17890962E+03</pdfrwt>
<totfact> 0.20567000E+03</totfact>
</mgrwt>
</event>
<event>
 7    1  0.1020736E-005  0.1787021E+03  0.7546771E-02  0.1174786E+00
          1   -1    0    0  501    0  0.00000000000E+00  0.00000000000E+00  0.60994655822E+02  0.60994655822E+02  0.00000000000E+00 0. -1.
         -1   -1    0    0    0  501 -0.00000000000E+00 -0.00000000000E+00 -0.47340614635E+03  0.47340614635E+03  0.00000000000E+00 0.  1.
         23    2    1    2    0    0  0.65144304509E+02  0.10984550152E+03 -0.23539337317E+03  0.28286584067E+03  0.91067167900E+02 0.  0.
          5    1    1    2  502    0 -0.43277032529E+02 -0.11477595717E+03 -0.68391755695E+02  0.14052026237E+03  0.47000000000E+01 0.  1.
         -5    1    1    2    0  502 -0.21867271980E+02  0.49304556483E+01 -0.10862636166E+03  0.11101469914E+03  0.47000000000E+01 0.  1.
        -11    1    3    3    0    0  0.41613606969E+02  0.73490719237E+01 -0.29080901548E+02  0.51297173197E+02  0.00000000000E+00 0. -1.
         11    1    3    3    0    0  0.23530697539E+02  0.10249642960E+03 -0.20631247162E+03  0.23156866747E+03  0.00000000000E+00 0.  1.
<mgrwt>
<rscale>  0 0.17296999E+03</rscale>
<asrwt>0</asrwt>
<pdfrwt beam="1">  1        1 0.93837930E-02 0.17870205E+03</pdfrwt>
<pdfrwt beam="2">  1       -1 0.72831716E-01 0.17870205E+03</pdfrwt>
<totfact> 0.13673787E+03</totfact>
</mgrwt>
</event>
<event>
 7    1  0.1020736E-005  0.3107820E+03  0.7546771E-02  0.1122101E+00
         -2   -1    0    0    0  501 -0.00000000000E+00  0.00000000000E+00  0.14509867327E+03  0.14509867327E+03  0.00000000000E+00 0.  1.
          2   -1    0    0  501    0  0.00000000000E+00 -0.00000000000E+00 -0.29751718922E+03  0.29751718922E+03  0.00000000000E+00 0. -1.
         23    2    1    2    0    0  0.50502300485E+02  0.12204095663E+02 -0.47043553662E+02  0.11445536418E+03  0.90484872460E+02 0.  0.
          5    1    1    2  502    0 -0.18369592662E+02  0.13881031947E+03  0.18738881536E+01  0.14011191307E+03  0.47000000000E+01 0. -1.
         -5    1    1    2    0  502 -0.32132707824E+02 -0.15101441514E+03 -0.10724885044E+03  0.18804858524E+03  0.47000000000E+01 0.  1.
        -11    1    3    3    0    0  0.64927971349E+02 -0.11340912074E+02 -0.76577602966E+01  0.66354344567E+02  0.00000000000E+00 0. -1.
         11    1    3    3    0    0 -0.14425670863E+02  0.23545007737E+02 -0.39385793365E+02  0.48101019617E+02  0.00000000000E+00 0.  1.
<mgrwt>
<rscale>  0 0.23656749E+03</rscale>
<asrwt>0</asrwt>
<pdfrwt beam="2">  1        2 0.45771875E-01 0.31078197E+03</pdfrwt>
<pdfrwt beam="1">  1       -2 0.22322873E-01 0.31078197E+03</pdfrwt>
<totfact> 0.19174520E+03</totfact>
</mgrwt>
</event>
<event>
 7    1  0.1020736E-005  0.1615098E+03  0.7546771E-02  0.1194607E+00
         -2   -1    0    0    0  501 -0.00000000000E+00  0.00000000000E+00  0.37072297293E+02  0.37072297293E+02  0.00000000000E+00 0.  1.
          2   -1    0    0  501    0  0.00000000000E+00 -0.00000000000E+00 -0.60186970647E+03  0.60186970647E+03  0.00000000000E+00 0. -1.
         23    2    1    2    0    0  0.10075950922E+03  0.17541073751E+02 -0.23745394414E+03  0.27392262576E+03  0.90493432609E+02 0.  0.
          5    1    1    2  502    0 -0.40712643253E+02  0.65738701359E+01 -0.12194027550E+02  0.43261060980E+02  0.47000000000E+01 0. -1.
         -5    1    1    2    0  502 -0.60046865962E+02 -0.24114943887E+02 -0.31514943748E+03  0.32175831702E+03  0.47000000000E+01 0. -1.
        -11    1    3    3    0    0 -0.13683656489E+02  0.17227365896E+02 -0.42616927004E+02  0.47960682417E+02  0.00000000000E+00 0. -1.
         11    1    3    3    0    0  0.11444316570E+03  0.31370785523E+00 -0.19483701714E+03  0.22596194334E+03  0.00000000000E+00 0.  1.
<mgrwt>
<rscale>  0 0.15487513E+03</rscale>
<asrwt>0</asrwt>
<pdfrwt beam="2">  1        2 0.92595330E-01 0.16150976E+03</pdfrwt>
<pdfrwt beam="1">  1       -2 0.57034309E-02 0.16150976E+03</pdfrwt>
<totfact> 0.77963127E+03</totfact>
</mgrwt>
</event>
<event>
 7    1  0.1020736E-005  0.1403908E+03  0.7546771E-02  0.1225938E+00
         -1   -1    0    0    0  501 -0.00000000000E+00  0.00000000000E+00  0.19919360374E+02  0.19919360374E+02  0.00000000000E+00 0.  1.
          1   -1    0    0  501    0  0.00000000000E+00 -0.00000000000E+00 -0.77027900632E+03  0.77027900632E+03  0.00000000000E+00 0. -1.
         23    2    1    2    0    0 -0.61529638141E+02 -0.17277684004E+02 -0.35596367663E+03  0.37156039875E+03  0.85220749268E+02 0.  0.
          5    1    1    2  502    0 -0.17758183261E+02  0.22121321861E+01 -0.26775160857E+03  0.26839012742E+03  0.47000000000E+01 0. -1.
         -5    1    1    2    0  502  0.79287821402E+02  0.15065551818E+02 -0.12664436074E+03  0.15024784052E+03  0.47000000000E+01 0. -1.
        -11    1    3    3    0    0 -0.14677615385E+02  0.31669440747E+02 -0.17222768547E+03  0.17572922782E+03  0.00000000000E+00 0.  1.
         11    1    3    3    0    0 -0.46852022756E+02 -0.48947124751E+02 -0.18373599116E+03  0.19583117092E+03  0.00000000000E+00 0. -1.
<mgrwt>
<rscale>  0 0.13102797E+03</rscale>
<asrwt>0</asrwt>
<pdfrwt beam="2">  1        1 0.11850445E+00 0.14039077E+03</pdfrwt>
<pdfrwt beam="1">  1       -1 0.30645174E-02 0.14039077E+03</pdfrwt>
<totfact> 0.86066918E+03</totfact>
</mgrwt>
</event>
<event>
 7    1  0.1020736E-005  0.1484189E+03  0.7546771E-02  0.1212797E+00
          2   -1    0    0  501    0  0.00000000000E+00  0.00000000000E+00  0.37351577167E+03  0.37351577167E+03  0.00000000000E+00 0. -1.
         -2   -1    0    0    0  501 -0.00000000000E+00 -0.00000000000E+00 -0.51806628607E+02  0.51806628607E+02  0.00000000000E+00 0.  1.
         23    2    1    2    0    0 -0.31973921167E-01 -0.80015932962E+02  0.85663123356E+02  0.14649289549E+03  0.87860384560E+02 0.  0.
          5    1    1    2  502    0  0.16297028878E+02  0.91848062868E+02  0.84719240130E+02  0.12609956166E+03  0.47000000000E+01 0.  1.
         -5    1    1    2    0  502 -0.16265054957E+02 -0.11832129906E+02  0.15132677957E+03  0.15272994312E+03  0.47000000000E+01 0.  1.
        -11    1    3    3    0    0 -0.34311173451E+02 -0.60704513739E+02  0.80989293673E+02  0.10687170019E+03  0.00000000000E+00 0. -1.
         11    1    3    3    0    0  0.34279199530E+02 -0.19311419222E+02  0.46738296828E+01  0.39621195296E+02  0.00000000000E+00 0.  1.
<mgrwt>
<rscale>  0 0.14039574E+03</rscale>
<asrwt>0</asrwt>
<pdfrwt beam="1">  1        2 0.57463963E-01 0.14841890E+03</pdfrwt>
<pdfrwt beam="2">  1       -2 0.79702508E-02 0.14841890E+03</pdfrwt>
<totfact> 0.78447479E+03</totfact>
</mgrwt>
</event>
<event>
 7    1  0.1020736E-005  0.1711491E+03  0.7546771E-02  0.1185646E+00
          4   -1    0    0  501    0  0.00000000000E+00  0.00000000000E+00  0.52587096876E+02  0.52587096876E+02  0.00000000000E+00 0. -1.
         -4   -1    0    0    0  501 -0.00000000000E+00 -0.00000000000E+00 -0.49185413216E+03  0.49185413216E+03  0.00000000000E+00 0.  1.
         23    2    1    2    0    0  0.95826537629E+02  0.66870928992E+02 -0.26803187110E+03  0.30233895861E+03  0.76898085230E+02 0.  0.
          5    1    1    2  502    0 -0.21899149166E+02  0.20203918915E+02  0.64227167649E+01  0.30840109669E+02  0.47000000000E+01 0. -1.
         -5    1    1    2    0  502 -0.73927388463E+02 -0.87074847908E+02 -0.17765788095E+03  0.21126216075E+03  0.47000000000E+01 0. -1.
        -11    1    3    3    0    0  0.44737652753E+02  0.43490104002E+02 -0.21917505886E+03  0.22788276184E+03  0.00000000000E+00 0. -1.
         11    1    3    3    0    0  0.51088884876E+02  0.23380824991E+02 -0.48856812243E+02  0.74456196771E+02  0.00000000000E+00 0.  1.
<mgrwt>
<rscale>  0 0.16273227E+03</rscale>
<asrwt>0</asrwt>
<pdfrwt beam="1">  1        4 0.80903228E-02 0.17114914E+03</pdfrwt>
<pdfrwt beam="2">  1       -4 0.75669864E-01 0.17114914E+03</pdfrwt>
<totfact> 0.30233470E+02</totfact>
</mgrwt>
</event>
<event>
 7    1  0.1020736E-005  0.2540760E+03  0.7546771E-02  0.1113093E+00
         -2   -1    0    0    0  501 -0.00000000000E+00  0.00000000000E+00  0.13090306110E+03  0.13090306110E+03  0.00000000000E+00 0.  1.
          2   -1    0    0  501    0  0.00000000000E+00 -0.00000000000E+00 -0.68157832970E+03  0.68157832970E+03  0.00000000000E+00 0. -1.
         23    2    1    2    0    0 -0.12210001640E+03 -0.18444994463E+03 -0.40917186817E+02  0.24291321943E+03  0.91664714684E+02 0.  0.
          5    1    1    2  502    0  0.43295322914E+02  0.77747613657E+02 -0.35343384900E+03  0.36449520166E+03  0.47000000000E+01 0. -1.
         -5    1    1    2    0  502  0.78804693487E+02  0.10670233097E+03 -0.15632423278E+03  0.20507296971E+03  0.47000000000E+01 0. -1.
        -11    1    3    3    0    0 -0.76565771713E+02 -0.11944722864E+03 -0.70227460918E+02  0.15830936199E+03  0.00000000000E+00 0. -1.
         11    1    3    3    0    0 -0.45534244688E+02 -0.65002715991E+02  0.29310274101E+02  0.84603857438E+02  0.00000000000E+00 0.  1.
<mgrwt>
<rscale>  0 0.25033577E+03</rscale>
<asrwt>0</asrwt>
<pdfrwt beam="2">  1        2 0.10485821E+00 0.25407597E+03</pdfrwt>
<pdfrwt beam="1">  1       -2 0.20138932E-01 0.25407597E+03</pdfrwt>
<totfact> 0.90233749E+02</totfact>
</mgrwt>
</event>
<event>
 7    1  0.1020736E-005  0.1385571E+03  0.7546771E-02  0.1227128E+00
          2   -1    0    0  501    0  0.00000000000E+00  0.00000000000E+00  0.92758515326E+03  0.92758515326E+03  0.00000000000E+00 0. -1.
         -2   -1    0    0    0  501 -0.00000000000E+00 -0.00000000000E+00 -0.17138314340E+02  0.17138314340E+02  0.00000000000E+00 0.  1.
         23    2    1    2    0    0 -0.27813120277E+02 -0.52911978619E+02  0.30398861426E+03  0.32263855738E+03  0.90073936111E+02 0.  0.
          5    1    1    2  502    0  0.60545000418E+02  0.25280837094E+02  0.53203766851E+03  0.53608860136E+03  0.47000000000E+01 0. -1.
         -5    1    1    2    0  502 -0.32731880141E+02  0.27631141525E+02  0.74420556153E+02  0.85996308861E+02  0.47000000000E+01 0. -1.
        -11    1    3    3    0    0  0.28006252790E+01  0.21555047974E+02  0.29879194500E+02  0.36949017024E+02  0.00000000000E+00 0.  1.
         11    1    3    3    0    0 -0.30613745556E+02 -0.74467026592E+02  0.27410941976E+03  0.28568954036E+03  0.00000000000E+00 0. -1.
<mgrwt>
<rscale>  0 0.13022139E+03</rscale>
<asrwt>0</asrwt>
<pdfrwt beam="1">  1        2 0.14270537E+00 0.13855705E+03</pdfrwt>
<pdfrwt beam="2">  1       -2 0.26366645E-02 0.13855705E+03</pdfrwt>
<totfact> 0.14347402E+04</totfact>
</mgrwt>
</event>
<event>
 7    1  0.1020736E-005  0.2255130E+03  0.7546771E-02  0.1132892E+00
         -1   -1    0    0    0  501 -0.00000000000E+00  0.00000000000E+00  0.34244860032E+03  0.34244860032E+03  0.00000000000E+00 0.  1.
          1   -1    0    0  501    0  0.00000000000E+00 -0.00000000000E+00 -0.15503042676E+03  0.15503042676E+03  0.00000000000E+00 0. -1.
         23    2    1    2    0    0  0.12084054142E+03 -0.14362763363E+03  0.17298877334E+03  0.27150483288E+03  0.92511755920E+02 0.  0.
          5    1    1    2  502    0 -0.49574758362E+02  0.10660677217E+03  0.61503029689E+02  0.13276811816E+03  0.47000000000E+01 0.  1.
         -5    1    1    2    0  502 -0.71265783054E+02  0.37020861461E+02 -0.47073629478E+02  0.93206076035E+02  0.47000000000E+01 0.  1.
        -11    1    3    3    0    0  0.68834046404E+02 -0.13850496861E+03  0.14598786966E+03  0.21268335704E+03  0.00000000000E+00 0.  1.
         11    1    3    3    0    0  0.52006495011E+02 -0.51226650181E+01  0.27000903682E+02  0.58821475839E+02  0.00000000000E+00 0. -1.
<mgrwt>
<rscale>  0 0.22133511E+03</rscale>
<asrwt>0</asrwt>
<pdfrwt beam="2">  1        1 0.23850835E-01 0.22551303E+03</pdfrwt>
<pdfrwt beam="1">  1       -1 0.52684400E-01 0.22551303E+03</pdfrwt>
<totfact> 0.75762599E+02</totfact>
</mgrwt>
</event>
<event>
 6    1  0.1020736E-005  0.1199998E+03  0.7546771E-02  0.1301015E+00
         -2   -1    0    0    0  501 -0.00000000000E+00  0.00000000000E+00  0.33825171451E+02  0.33825171451E+02  0.00000000000E+00 0. -1.
          2   -1    0    0  501    0  0.00000000000E+00 -0.00000000000E+00 -0.19171462084E+03  0.19171462084E+03  0.00000000000E+00 0.  1.
          5    1    1    2  502    0 -0.31905264310E+02  0.86372653639E+00  0.62971675124E+01  0.32869989853E+02  0.47000000000E+01 0. -1.
         -5    1    1    2    0  502  0.25644348505E+02  0.36562300159E+02 -0.13885577575E+03  0.14593646173E+03  0.47000000000E+01 0.  1.
        -11    1    1    2    0    0  0.18137900587E+01 -0.12612548807E+02 -0.14480337850E+02  0.19288504505E+02  0.00000000000E+00 0. -1.
         11    1    1    2    0    0  0.44471257466E+01 -0.24813477888E+02 -0.10850503299E+02  0.27444836202E+02  0.00000000000E+00 0.  1.
<mgrwt>
<rscale>  0 0.90762930E+02</rscale>
<asrwt>0</asrwt>
<pdfrwt beam="2">  1        2 0.29494556E-01 0.11999984E+03</pdfrwt>
<pdfrwt beam="1">  1       -2 0.52038726E-02 0.11999984E+03</pdfrwt>
<totfact> 0.30004292E+04</totfact>
</mgrwt>
</event>
<event>
 7    1  0.1020736E-005  0.1263823E+03  0.7546771E-02  0.1247136E+00
          3   -1    0    0  501    0  0.00000000000E+00  0.00000000000E+00  0.22672735296E+03  0.22672735296E+03  0.00000000000E+00 0. -1.
         -3   -1    0    0    0  501 -0.00000000000E+00 -0.00000000000E+00 -0.55185403783E+02  0.55185403783E+02  0.00000000000E+00 0.  1.
         23    2    1    2    0    0 -0.18609986302E+02  0.10405209285E+01  0.52413577487E+02  0.10823475392E+03  0.92844841411E+02 0.  0.
          5    1    1    2  502    0  0.59325157908E+02 -0.11505531583E+02  0.16719409548E+02  0.62876706923E+02  0.47000000000E+01 0.  1.
         -5    1    1    2    0  502 -0.40715171606E+02  0.10465010655E+02  0.10240896214E+03  0.11080129590E+03  0.47000000000E+01 0.  1.
        -11    1    3    3    0    0 -0.15740138374E+02 -0.12213120792E+02 -0.23677872209E+02  0.30944367951E+02  0.00000000000E+00 0.  1.
         11    1    3    3    0    0 -0.28698479276E+01  0.13253641721E+02  0.76091449696E+02  0.77290385966E+02  0.00000000000E+00 0. -1.
<mgrwt>
<rscale>  0 0.11758422E+03</rscale>
<asrwt>0</asrwt>
<pdfrwt beam="1">  1        3 0.34881131E-01 0.12638228E+03</pdfrwt>
<pdfrwt beam="2">  1       -3 0.84900623E-02 0.12638228E+03</pdfrwt>
<totfact> 0.17725819E+03</totfact>
</mgrwt>
</event>
<event>
 7    1  0.1020736E-005  0.2058507E+03  0.7546771E-02  0.1148062E+00
          2   -1    0    0  501    0  0.00000000000E+00  0.00000000000E+00  0.10315988930E+04  0.10315988930E+04  0.00000000000E+00 0. -1.
         -2   -1    0    0    0  501 -0.00000000000E+00 -0.00000000000E+00 -0.38251572090E+02  0.38251572090E+02  0.00000000000E+00 0.  1.
         23    2    1    2    0    0 -0.14727966414E+03  0.71116882288E+02  0.44947144197E+03  0.48832190077E+03  0.98411336814E+02 0.  0.
          5    1    1    2  502    0  0.94904081883E+02  0.17938783245E+02  0.33138892109E+03  0.34520905510E+03  0.47000000000E+01 0.  1.
         -5    1    1    2    0  502  0.52375582255E+02 -0.89055665533E+02  0.21248695786E+03  0.23631950922E+03  0.47000000000E+01 0.  1.
        -11    1    3    3    0    0 -0.10104249680E+03  0.48019845075E+02  0.16600981395E+03  0.20018678780E+03  0.00000000000E+00 0.  1.
         11    1    3    3    0    0 -0.46237167341E+02  0.23097037213E+02  0.28346162802E+03  0.28813511298E+03  0.00000000000E+00 0. -1.
<mgrwt>
<rscale>  0 0.20200035E+03</rscale>
<asrwt>0</asrwt>
<pdfrwt beam="1">  1        2 0.15870750E+00 0.20585067E+03</pdfrwt>
<pdfrwt beam="2">  1       -2 0.58848580E-02 0.20585067E+03</pdfrwt>
<totfact> 0.38001979E+03</totfact>
</mgrwt>
</event>
<event>
 7    1  0.1020736E-005  0.1976896E+03  0.7546771E-02  0.1156202E+00
          2   -1    0    0  501    0  0.00000000000E+00  0.00000000000E+00  0.42578049179E+03  0.42578049179E+03  0.00000000000E+00 0. -1.
         -2   -1    0    0    0  501 -0.00000000000E+00 -0.00000000000E+00 -0.10865013984E+03  0.10865013984E+03  0.00000000000E+00 0.  1.
         23    2    1    2    0    0  0.13902537838E+02  0.15252585934E+03  0.21974822368E+02  0.17918707539E+03  0.90375311042E+02 0.  0.
          5    1    1    2  502    0 -0.12882658671E+02 -0.15231364848E+03  0.30671225668E+03  0.34272424601E+03  0.47000000000E+01 0. -1.
         -5    1    1    2    0  502 -0.10198791670E+01 -0.21221085966E+00 -0.11556727107E+02  0.12519310220E+02  0.47000000000E+01 0. -1.
        -11    1    3    3    0    0  0.28388039681E+02  0.12350514590E+03 -0.17684154594E+02  0.12795362904E+03  0.00000000000E+00 0.  1.
         11    1    3    3    0    0 -0.14485501842E+02  0.29020713441E+02  0.39658976962E+02  0.51233446360E+02  0.00000000000E+00 0. -1.
<mgrwt>
<rscale>  0 0.19252714E+03</rscale>
<asrwt>0</asrwt>
<pdfrwt beam="1">  1        2 0.65504690E-01 0.19768965E+03</pdfrwt>
<pdfrwt beam="2">  1       -2 0.16715406E-01 0.19768965E+03</pdfrwt>
<totfact> 0.21061554E+03</totfact>
</mgrwt>
</event>
<event>
 7    1  0.1020736E-005  0.1325798E+03  0.7546771E-02  0.1236630E+00
          1   -1    0    0  501    0  0.00000000000E+00  0.00000000000E+00  0.56433759380E+03  0.56433759380E+03  0.00000000000E+00 0. -1.
         -1   -1    0    0    0  501 -0.00000000000E+00 -0.00000000000E+00 -0.24917637423E+02  0.24917637423E+02  0.00000000000E+00 0.  1.
         23    2    1    2    0    0  0.40920220721E+02 -0.16680944222E+02  0.18761328818E+03  0.21329600434E+03  0.91343971911E+02 0.  0.
          5    1    1    2  502    0 -0.46000601633E+02  0.65877505016E+02  0.18130782033E+03  0.19836964670E+03  0.47000000000E+01 0.  1.
         -5    1    1    2    0  502  0.50803809119E+01 -0.49196560793E+02  0.17049884787E+03  0.17758958018E+03  0.47000000000E+01 0.  1.
        -11    1    3    3    0    0 -0.11768446901E+02 -0.27338385076E+02  0.13440100293E+03  0.13765723093E+03  0.00000000000E+00 0. -1.
         11    1    3    3    0    0  0.52688667622E+02  0.10657440854E+02  0.53212285252E+02  0.75638773410E+02  0.00000000000E+00 0.  1.
<mgrwt>
<rscale>  0 0.12400636E+03</rscale>
<asrwt>0</asrwt>
<pdfrwt beam="1">  1        1 0.86821158E-01 0.13257982E+03</pdfrwt>
<pdfrwt beam="2">  1       -1 0.38334831E-02 0.13257982E+03</pdfrwt>
<totfact> 0.95691111E+03</totfact>
</mgrwt>
</event>
<event>
 7    1  0.1020736E-005  0.1155063E+03  0.7546771E-02  0.1260006E+00
          2   -1    0    0  501    0  0.00000000000E+00  0.00000000000E+00  0.13644307713E+03  0.13644307713E+03  0.00000000000E+00 0. -1.
         -2   -1    0    0    0  501 -0.00000000000E+00 -0.00000000000E+00 -0.14212609821E+03  0.14212609821E+03  0.00000000000E+00 0.  1.
         23    2    1    2    0    0 -0.12788163257E+02 -0.25702834213E+02 -0.93050712220E+02  0.13374230551E+03  0.91675495266E+02 0.  0.
          5    1    1    2  502    0  0.11595222268E+02 -0.85528738556E+01  0.10493590805E+03  0.10602469349E+03  0.47000000000E+01 0. -1.
         -5    1    1    2    0  502  0.11929409893E+01  0.34255708069E+02 -0.17568216917E+02  0.38802176345E+02  0.47000000000E+01 0.  1.
        -11    1    3    3    0    0 -0.35552507860E+02 -0.43944691058E+02 -0.29375022062E+02  0.63702500802E+02  0.00000000000E+00 0.  1.
         11    1    3    3    0    0  0.22764344603E+02  0.18241856845E+02 -0.63675690158E+02  0.70039804708E+02  0.00000000000E+00 0. -1.
<mgrwt>
<rscale>  0 0.11030523E+03</rscale>
<asrwt>0</asrwt>
<pdfrwt beam="1">  1        2 0.20991243E-01 0.11550631E+03</pdfrwt>
<pdfrwt beam="2">  1       -2 0.21865554E-01 0.11550631E+03</pdfrwt>
<totfact> 0.44738242E+03</totfact>
</mgrwt>
</event>
<event>
 7    1  0.1020736E-005  0.1298239E+03  0.7546771E-02  0.1242241E+00
          2   -1    0    0  501    0  0.00000000000E+00  0.00000000000E+00  0.71750420868E+03  0.71750420868E+03  0.00000000000E+00 0. -1.
         -2   -1    0    0    0  501 -0.00000000000E+00 -0.00000000000E+00 -0.24092138836E+02  0.24092138836E+02  0.00000000000E+00 0.  1.
         23    2    1    2    0    0  0.27003495646E+02  0.22381333103E+02  0.12138191477E+03  0.15501920041E+03  0.89817984922E+02 0.  0.
          5    1    1    2  502    0 -0.45436315176E+02 -0.37510343095E+02  0.11875810123E+03  0.13265391507E+03  0.47000000000E+01 0.  1.
         -5    1    1    2    0  502  0.18432819530E+02  0.15129009992E+02  0.45327205385E+03  0.45392323204E+03  0.47000000000E+01 0.  1.
        -11    1    3    3    0    0  0.21752739226E+02 -0.33564191123E+02  0.55852021697E+02  0.68696323898E+02  0.00000000000E+00 0.  1.
         11    1    3    3    0    0  0.52507564195E+01  0.55945524226E+02  0.65529893071E+02  0.86322876515E+02  0.00000000000E+00 0. -1.
<mgrwt>
<rscale>  0 0.12052056E+03</rscale>
<asrwt>0</asrwt>
<pdfrwt beam="1">  1        2 0.11038525E+00 0.12982392E+03</pdfrwt>
<pdfrwt beam="2">  1       -2 0.37064834E-02 0.12982392E+03</pdfrwt>
<totfact> 0.11945539E+04</totfact>
</mgrwt>
</event>
<event>
 7    1  0.1020736E-005  0.1582391E+03  0.7546771E-02  0.1194387E+00
          2   -1    0    0  501    0  0.00000000000E+00  0.00000000000E+00  0.58729404923E+02  0.58729404923E+02  0.00000000000E+00 0.  1.
         -2   -1    0    0    0  501 -0.00000000000E+00 -0.00000000000E+00 -0.40810480365E+03  0.40810480365E+03  0.00000000000E+00 0. -1.
         23    2    1    2    0    0  0.75718403685E+02  0.60606022755E+02 -0.21154718082E+03  0.25698613237E+03  0.10901053099E+03 0.  0.
          5    1    1    2  502    0  0.17547695276E+02 -0.62239064138E+02 -0.57234297606E+02  0.86483972716E+02  0.47000000000E+01 0.  1.
         -5    1    1    2    0  502 -0.93266098961E+02  0.16330413829E+01 -0.80593920306E+02  0.12336410349E+03  0.47000000000E+01 0.  1.
        -11    1    3    3    0    0  0.81359631401E+02  0.75965255537E+01 -0.17259997076E+03  0.19096556425E+03  0.00000000000E+00 0.  1.
         11    1    3    3    0    0 -0.56412277164E+01  0.53009497201E+02 -0.38947210057E+02  0.66020568120E+02  0.00000000000E+00 0. -1.
<mgrwt>
<rscale>  0 0.15506235E+03</rscale>
<asrwt>0</asrwt>
<pdfrwt beam="1">  1        2 0.90352932E-02 0.15823905E+03</pdfrwt>
<pdfrwt beam="2">  1       -2 0.62785353E-01 0.15823905E+03</pdfrwt>
<totfact> 0.17075903E+03</totfact>
</mgrwt>
</event>
<event>
 7    1  0.1020736E-005  0.1394042E+03  0.7546771E-02  0.1225053E+00
         -1   -1    0    0    0  501 -0.00000000000E+00  0.00000000000E+00  0.34103901249E+02  0.34103901249E+02  0.00000000000E+00 0.  1.
          1   -1    0    0  501    0  0.00000000000E+00 -0.00000000000E+00 -0.45901399568E+03  0.45901399568E+03  0.00000000000E+00 0. -1.
         23    2    1    2    0    0 -0.28563065828E+02 -0.54711447890E+02 -0.18639176001E+03  0.21684896454E+03  0.92045608057E+02 0.  0.
          5    1    1    2  502    0 -0.16138651931E+02  0.36476925637E+01  0.91116122989E+01  0.19464666087E+02  0.47000000000E+01 0.  1.
         -5    1    1    2    0  502  0.44701717759E+02  0.51063755327E+02 -0.24762994672E+03  0.25680426631E+03  0.47000000000E+01 0.  1.
        -11    1    3    3    0    0 -0.12518243263E+02 -0.66984520720E+02 -0.66318237723E+02  0.95088070152E+02  0.00000000000E+00 0.  1.
         11    1    3    3    0    0 -0.16044822565E+02  0.12273072830E+02 -0.12007352228E+03  0.12176089439E+03  0.00000000000E+00 0. -1.
<mgrwt>
<rscale>  0 0.13163266E+03</rscale>
<asrwt>0</asrwt>
<pdfrwt beam="2">  1        1 0.70617537E-01 0.13940419E+03</pdfrwt>
<pdfrwt beam="1">  1       -1 0.52467541E-02 0.13940419E+03</pdfrwt>
<totfact> 0.79233641E+03</totfact>
</mgrwt>
</event>
<event>
 7    1  0.1020736E-005  0.1369253E+03  0.7546771E-02  0.1227713E+00
         -1   -1    0    0    0  501 -0.00000000000E+00  0.00000000000E+00  0.19214519561E+02  0.19214519561E+02  0.00000000000E+00 0.  1.
          1   -1    0    0  501    0  0.00000000000E+00 -0.00000000000E+00 -0.31088256576E+04  0.31088256576E+04  0.00000000000E+00 0. -1.
         23    2    1    2    0    0  0.51153901731E+02 -0.22373347374E+02 -0.15616140333E+03  0.19139653421E+03  0.95545596878E+02 0.  0.
          5    1    1    2  502    0  0.23961590890E+02  0.43621418333E+00 -0.14139910950E+03  0.14349266980E+03  0.47000000000E+01 0. -1.
         -5    1    1    2    0  502 -0.75115492621E+02  0.21937133191E+02 -0.27920506252E+04  0.27931509731E+04  0.47000000000E+01 0. -1.
        -11    1    3    3    0    0 -0.87918281290E+01 -0.32862464114E+02 -0.14054550136E+02  0.36807175510E+02  0.00000000000E+00 0.  1.
         11    1    3    3    0    0  0.59945729860E+02  0.10489116740E+02 -0.14210685320E+03  0.15458935870E+03  0.00000000000E+00 0. -1.
<mgrwt>
<rscale>  0 0.12982645E+03</rscale>
<asrwt>0</asrwt>
<pdfrwt beam="2">  1        1 0.47828086E+00 0.13692531E+03</pdfrwt>
<pdfrwt beam="1">  1       -1 0.29560800E-02 0.13692531E+03</pdfrwt>
<totfact> 0.24422694E+02</totfact>
</mgrwt>
</event>
<event>
 7    1  0.1020736E-005  0.1335853E+03  0.7546771E-02  0.1234745E+00
         -1   -1    0    0    0  501 -0.00000000000E+00  0.00000000000E+00  0.12962813253E+03  0.12962813253E+03  0.00000000000E+00 0.  1.
          1   -1    0    0  501    0  0.00000000000E+00 -0.00000000000E+00 -0.11524463542E+03  0.11524463542E+03  0.00000000000E+00 0. -1.
         23    2    1    2    0    0 -0.27860537140E+02 -0.37993252694E+02  0.36704474641E+02  0.10943543616E+03  0.91701687274E+02 0.  0.
          5    1    1    2  502    0 -0.33824490750E+02 -0.24583325868E+02 -0.21914504336E+02  0.47442297431E+02  0.47000000000E+01 0. -1.
         -5    1    1    2    0  502  0.61685027890E+02  0.62576578563E+02 -0.40647319809E+00  0.87995034354E+02  0.47000000000E+01 0. -1.
        -11    1    3    3    0    0  0.47545210059E+01 -0.58813880726E+02  0.46498932670E+01  0.59188677493E+02  0.00000000000E+00 0. -1.
         11    1    3    3    0    0 -0.32615058146E+02  0.20820628031E+02  0.32054581374E+02  0.50246758667E+02  0.00000000000E+00 0.  1.
<mgrwt>
<rscale>  0 0.12520744E+03</rscale>
<asrwt>0</asrwt>
<pdfrwt beam="2">  1        1 0.17729944E-01 0.13358535E+03</pdfrwt>
<pdfrwt beam="1">  1       -1 0.19942790E-01 0.13358535E+03</pdfrwt>
<totfact> 0.57567541E+03</totfact>
</mgrwt>
</event>
<event>
 7    1  0.1020736E-005  0.3709033E+03  0.7546771E-02  0.1055304E+00
          1   -1    0    0  501    0  0.00000000000E+00  0.00000000000E+00  0.12734893027E+04  0.12734893027E+04  0.00000000000E+00 0. -1.
         -1   -1    0    0    0  501 -0.00000000000E+00 -0.00000000000E+00 -0.11255573427E+03  0.11255573427E+03  0.00000000000E+00 0.  1.
         23    2    1    2    0    0 -0.11803864689E+03 -0.32865215136E+03  0.39558691292E+03  0.53556003809E+03  0.91597980153E+02 0.  0.
          5    1    1    2  502    0  0.17721312539E+02  0.17072140658E+03  0.25985766620E+03  0.31146097712E+03  0.47000000000E+01 0. -1.
         -5    1    1    2    0  502  0.10031733435E+03  0.15793074479E+03  0.50548898929E+03  0.53902402174E+03  0.47000000000E+01 0. -1.
        -11    1    3    3    0    0 -0.65021514283E+01 -0.15122612549E+03  0.17155715591E+03  0.22878696805E+03  0.00000000000E+00 0. -1.
         11    1    3    3    0    0 -0.11153649546E+03 -0.17742602587E+03  0.22402975701E+03  0.30677307004E+03  0.00000000000E+00 0.  1.
<mgrwt>
<rscale>  0 0.36840740E+03</rscale>
<asrwt>0</asrwt>
<pdfrwt beam="1">  1        1 0.19592142E+00 0.37090326E+03</pdfrwt>
<pdfrwt beam="2">  1       -1 0.17316268E-01 0.37090326E+03</pdfrwt>
<totfact> 0.25760618E+02</totfact>
</mgrwt>
</event>
<event>
 7    1  0.1020736E-005  0.1456097E+03  0.7546771E-02  0.1216381E+00
         -2   -1    0    0    0  501 -0.00000000000E+00  0.00000000000E+00  0.76564343499E+02  0.76564343499E+02  0.00000000000E+00 0.  1.
          2   -1    0    0  501    0  0.00000000000E+00 -0.00000000000E+00 -0.41141532894E+03  0.41141532894E+03  0.00000000000E+00 0. -1.
         23    2    1    2    0    0  0.22080729926E+02 -0.71359909963E+02  0.65444241010E+01  0.11682875281E+03  0.89589801949E+02 0.  0.
          5    1    1    2  502    0 -0.10634574127E+02 -0.34475198430E+02 -0.58943019626E+02  0.69267618959E+02  0.47000000000E+01 0. -1.
         -5    1    1    2    0  502 -0.11446155799E+02  0.10583510839E+03 -0.28245238992E+03  0.30188330067E+03  0.47000000000E+01 0. -1.
        -11    1    3    3    0    0  0.32586533956E+02  0.10349801197E+02  0.48153055510E-01  0.34190684386E+02  0.00000000000E+00 0. -1.
         11    1    3    3    0    0 -0.10505804029E+02 -0.81709711160E+02  0.64962710455E+01  0.82638068428E+02  0.00000000000E+00 0.  1.
<mgrwt>
<rscale>  0 0.13775568E+03</rscale>
<asrwt>0</asrwt>
<pdfrwt beam="2">  1        2 0.63294665E-01 0.14560968E+03</pdfrwt>
<pdfrwt beam="1">  1       -2 0.11779130E-01 0.14560968E+03</pdfrwt>
<totfact> 0.38259349E+03</totfact>
</mgrwt>
</event>
<event>
 7    1  0.1020736E-005  0.1304098E+03  0.7546771E-02  0.1239998E+00
         -1   -1    0    0    0  501 -0.00000000000E+00  0.00000000000E+00  0.58207190012E+02  0.58207190012E+02  0.00000000000E+00 0.  1.
          1   -1    0    0  501    0  0.00000000000E+00 -0.00000000000E+00 -0.24299754099E+03  0.24299754099E+03  0.00000000000E+00 0. -1.
         23    2    1    2    0    0 -0.27553614645E+01 -0.37073114267E+02 -0.42650775505E+02  0.10830482449E+03  0.92351711073E+02 0.  0.
          5    1    1    2  502    0  0.77069438094E+01  0.94479255528E+01  0.22391874552E+02  0.25925784966E+02  0.47000000000E+01 0. -1.
         -5    1    1    2    0  502 -0.49515823448E+01  0.27625188714E+02 -0.16453145003E+03  0.16697412155E+03  0.47000000000E+01 0. -1.
        -11    1    3    3    0    0 -0.18951627277E+02 -0.64677398005E+02 -0.31686423655E+02  0.74473884236E+02  0.00000000000E+00 0. -1.
         11    1    3    3    0    0  0.16196265813E+02  0.27604283737E+02 -0.10964351850E+02  0.33830940253E+02  0.00000000000E+00 0.  1.
<mgrwt>
<rscale>  0 0.12189798E+03</rscale>
<asrwt>0</asrwt>
<pdfrwt beam="2">  1        1 0.37384237E-01 0.13040980E+03</pdfrwt>
<pdfrwt beam="1">  1       -1 0.89549524E-02 0.13040980E+03</pdfrwt>
<totfact> 0.78348368E+03</totfact>
</mgrwt>
</event>
<event>
 7    1  0.1020736E-005  0.1347092E+03  0.7546771E-02  0.1230110E+00
         -2   -1    0    0    0  501 -0.00000000000E+00  0.00000000000E+00  0.12796633664E+03  0.12796633664E+03  0.00000000000E+00 0.  1.
          2   -1    0    0  501    0  0.00000000000E+00 -0.00000000000E+00 -0.15336526539E+03  0.15336526539E+03  0.00000000000E+00 0. -1.
         23    2    1    2    0    0  0.44101025412E+02  0.24036429109E+02  0.55975093458E+02  0.12395212778E+03  0.98530546156E+02 0.  0.
          5    1    1    2  502    0  0.30104557781E+02 -0.42416455341E+02 -0.11012813915E+02  0.53374264896E+02  0.47000000000E+01 0. -1.
         -5    1    1    2    0  502 -0.74205583193E+02  0.18380026231E+02 -0.70361208293E+02  0.10400520936E+03  0.47000000000E+01 0. -1.
        -11    1    3    3    0    0  0.39517174575E+02  0.52175627615E+02  0.51210999423E+01  0.65651571710E+02  0.00000000000E+00 0. -1.
         11    1    3    3    0    0  0.45838508366E+01 -0.28139198505E+02  0.50853993516E+02  0.58300556065E+02  0.00000000000E+00 0.  1.
<mgrwt>
<rscale>  0 0.12822725E+03</rscale>
<asrwt>0</asrwt>
<pdfrwt beam="2">  1        2 0.23594656E-01 0.13470920E+03</pdfrwt>
<pdfrwt beam="1">  1       -2 0.19687129E-01 0.13470920E+03</pdfrwt>
<totfact> 0.47395953E+03</totfact>
</mgrwt>
</event>
<event>
 7    1  0.1020736E-005  0.1596468E+03  0.7546771E-02  0.1196357E+00
          1   -1    0    0  501    0  0.00000000000E+00  0.00000000000E+00  0.13123566014E+04  0.13123566014E+04  0.00000000000E+00 0. -1.
         -1   -1    0    0    0  501 -0.00000000000E+00 -0.00000000000E+00 -0.17357926447E+02  0.17357926447E+02  0.00000000000E+00 0.  1.
         23    2    1    2    0    0 -0.50372942430E+02 -0.85614904749E+02  0.46510559214E+03  0.48460528958E+03  0.93014674091E+02 0.  0.
          5    1    1    2  502    0  0.74236273931E+01  0.10978683111E+03  0.57404113860E+03  0.58451140052E+03  0.47000000000E+01 0.  1.
         -5    1    1    2    0  502  0.42949315037E+02 -0.24171926365E+02  0.25585194418E+03  0.26059783773E+03  0.47000000000E+01 0.  1.
        -11    1    3    3    0    0 -0.68301828172E+02 -0.29062614107E+02  0.30377584680E+03  0.31271319187E+03  0.00000000000E+00 0. -1.
         11    1    3    3    0    0  0.17928885742E+02 -0.56552290642E+02  0.16132974534E+03  0.17189209771E+03  0.00000000000E+00 0.  1.
<mgrwt>
<rscale>  0 0.15339900E+03</rscale>
<asrwt>0</asrwt>
<pdfrwt beam="1">  1        1 0.20190094E+00 0.15964678E+03</pdfrwt>
<pdfrwt beam="2">  1       -1 0.26704513E-02 0.15964678E+03</pdfrwt>
<totfact> 0.42383985E+03</totfact>
</mgrwt>
</event>
<event>
 7    1  0.1020736E-005  0.2967415E+03  0.7546771E-02  0.1088570E+00
         -2   -1    0    0    0  501 -0.00000000000E+00  0.00000000000E+00  0.66779864187E+03  0.66779864187E+03  0.00000000000E+00 0.  1.
          2   -1    0    0  501    0  0.00000000000E+00 -0.00000000000E+00 -0.12649100286E+03  0.12649100286E+03  0.00000000000E+00 0. -1.
         23    2    1    2    0    0 -0.11544684982E+03 -0.24308419534E+03  0.24367996879E+03  0.37400672098E+03  0.89906612606E+02 0.  0.
          5    1    1    2  502    0  0.28397168389E+02  0.56163613617E+02  0.16088605464E+03  0.17282118864E+03  0.47000000000E+01 0.  1.
         -5    1    1    2    0  502  0.87049681433E+02  0.18692058172E+03  0.13674161558E+03  0.24746173511E+03  0.47000000000E+01 0.  1.
        -11    1    3    3    0    0 -0.27500688585E+02 -0.46059485707E+01  0.37438369195E+02  0.46681196674E+02  0.00000000000E+00 0.  1.
         11    1    3    3    0    0 -0.87946161236E+02 -0.23847824677E+03  0.20624159960E+03  0.32732552431E+03  0.00000000000E+00 0. -1.
<mgrwt>
<rscale>  0 0.29343298E+03</rscale>
<asrwt>0</asrwt>
<pdfrwt beam="2">  1        2 0.19460155E-01 0.29674148E+03</pdfrwt>
<pdfrwt beam="1">  1       -2 0.10273825E+00 0.29674148E+03</pdfrwt>
<totfact> 0.23146100E+02</totfact>
</mgrwt>
</event>
<event>
 7    1  0.1020736E-005  0.1849471E+03  0.7546771E-02  0.1168537E+00
         -2   -1    0    0    0  501 -0.00000000000E+00  0.00000000000E+00  0.51004381227E+02  0.51004381227E+02  0.00000000000E+00 0.  1.
          2   -1    0    0  501    0  0.00000000000E+00 -0.00000000000E+00 -0.59400599134E+03  0.59400599134E+03  0.00000000000E+00 0. -1.
         23    2    1    2    0    0 -0.27314984155E+02  0.13354870003E+03 -0.25626929150E+03  0.30380534796E+03  0.89679295526E+02 0.  0.
          5    1    1    2  502    0  0.63867800590E+02 -0.12663105516E+03 -0.18764484559E+03  0.23525985242E+03  0.47000000000E+01 0.  1.
         -5    1    1    2    0  502 -0.36552816435E+02 -0.69176448679E+01 -0.99087473030E+02  0.10594517219E+03  0.47000000000E+01 0.  1.
        -11    1    3    3    0    0  0.22289113413E+01  0.13316678411E+03 -0.21787575307E+03  0.25535897128E+03  0.00000000000E+00 0. -1.
         11    1    3    3    0    0 -0.29543895496E+02  0.38191592079E+00 -0.38393538427E+02  0.48446376684E+02  0.00000000000E+00 0.  1.
<mgrwt>
<rscale>  0 0.17924389E+03</rscale>
<asrwt>0</asrwt>
<pdfrwt beam="2">  1        2 0.91385537E-01 0.18494714E+03</pdfrwt>
<pdfrwt beam="1">  1       -2 0.78468279E-02 0.18494714E+03</pdfrwt>
<totfact> 0.48814075E+03</totfact>
</mgrwt>
</event>
<event>
 7    1  0.1020736E-005  0.1326526E+03  0.7546771E-02  0.1236764E+00
          1   -1    0    0  501    0  0.00000000000E+00  0.00000000000E+00  0.15539589117E+03  0.15539589117E+03  0.00000000000E+00 0. -1.
         -1   -1    0    0    0  501 -0.00000000000E+00 -0.00000000000E+00 -0.89200300341E+02  0.89200300341E+02  0.00000000000E+00 0.  1.
         23    2    1    2    0    0  0.43456623782E+02 -0.88691316146E+01  0.13783512732E+02  0.10196471620E+03  0.90772674740E+02 0.  0.
          5    1    1    2  502    0 -0.63583222684E+02  0.10804156382E+02 -0.19692991530E+02  0.67597780418E+02  0.47000000000E+01 0. -1.
         -5    1    1    2    0  502  0.20126598902E+02 -0.19350247671E+01  0.72105069630E+02  0.75033694902E+02  0.47000000000E+01 0. -1.
        -11    1    3    3    0    0  0.23871286825E+02 -0.88910610603E+01  0.52624270688E+02  0.58465401451E+02  0.00000000000E+00 0. -1.
         11    1    3    3    0    0  0.19585336957E+02  0.21929445742E-01 -0.38840757956E+02  0.43499314744E+02  0.00000000000E+00 0.  1.
<mgrwt>
<rscale>  0 0.12392192E+03</rscale>
<asrwt>0</asrwt>
<pdfrwt beam="1">  1        1 0.23907060E-01 0.13265260E+03</pdfrwt>
<pdfrwt beam="2">  1       -1 0.13723123E-01 0.13265260E+03</pdfrwt>
<totfact> 0.71060154E+03</totfact>
</mgrwt>
</event>
<event>
 7    1  0.1020736E-005  0.3335392E+03  0.7546771E-02  0.1073976E+00
         -2   -1    0    0    0  501 -0.00000000000E+00  0.00000000000E+00  0.11805258117E+04  0.11805258117E+04  0.00000000000E+00 0.  1.
          2   -1    0    0  501    0  0.00000000000E+00 -0.00000000000E+00 -0.14939754784E+03  0.14939754784E+03  0.00000000000E+00 0. -1.
         23    2    1    2    0    0  0.25764332856E+02  0.27979180786E+03  0.93815327395E+03  0.98366802716E+03  0.92325325108E+02 0.  0.
          5    1    1    2  502    0 -0.37263047798E+01 -0.25092466097E+03  0.50923328110E+01  0.25104798881E+03  0.47000000000E+01 0. -1.
         -5    1    1    2    0  502 -0.22038028076E+02 -0.28867146885E+02  0.87882657135E+02  0.95207343603E+02  0.47000000000E+01 0.  1.
        -11    1    3    3    0    0  0.52668973914E+02  0.24836641574E+03  0.78576170045E+03  0.82576107148E+03  0.00000000000E+00 0.  1.
         11    1    3    3    0    0 -0.26904641058E+02  0.31425392122E+02  0.15239157349E+03  0.15790695568E+03  0.00000000000E+00 0. -1.
<mgrwt>
<rscale>  0 0.32366320E+03</rscale>
<asrwt>0</asrwt>
<pdfrwt beam="2">  1        2 0.22984239E-01 0.33353921E+03</pdfrwt>
<pdfrwt beam="1">  1       -2 0.18161935E+00 0.33353921E+03</pdfrwt>
<totfact> 0.44770770E+01</totfact>
</mgrwt>
</event>
<event>
 7    1  0.1020736E-005  0.1835415E+03  0.7546771E-02  0.1170328E+00
         -1   -1    0    0    0  501 -0.00000000000E+00  0.00000000000E+00  0.44098616132E+02  0.44098616132E+02  0.00000000000E+00 0.  1.
          1   -1    0    0  501    0  0.00000000000E+00 -0.00000000000E+00 -0.75412187647E+03  0.75412187647E+03  0.00000000000E+00 0. -1.
         23    2    1    2    0    0 -0.60433346748E+02  0.12004160917E+03 -0.20060794460E+03  0.25674894312E+03  0.87259927952E+02 0.  0.
          5    1    1    2  502    0  0.81658594038E+02 -0.39022502350E+02 -0.17977905304E+03  0.20132928148E+03  0.47000000000E+01 0.  1.
         -5    1    1    2    0  502 -0.21225247289E+02 -0.81019106822E+02 -0.32963626270E+03  0.34014226800E+03  0.47000000000E+01 0.  1.
        -11    1    3    3    0    0 -0.75254068805E+02  0.93693611052E+02 -0.11650143551E+03  0.16737458618E+03  0.00000000000E+00 0.  1.
         11    1    3    3    0    0  0.14820722057E+02  0.26347998120E+02 -0.84106509089E+02  0.89374356940E+02  0.00000000000E+00 0. -1.
<mgrwt>
<rscale>  0 0.17741592E+03</rscale>
<asrwt>0</asrwt>
<pdfrwt beam="2">  1        1 0.11601875E+00 0.18354148E+03</pdfrwt>
<pdfrwt beam="1">  1       -1 0.67844022E-02 0.18354148E+03</pdfrwt>
<totfact> 0.27664244E+03</totfact>
</mgrwt>
</event>
<event>
 7    1  0.1020736E-005  0.1657019E+03  0.7546771E-02  0.1188963E+00
          1   -1    0    0  501    0  0.00000000000E+00  0.00000000000E+00  0.98583365682E+03  0.98583365682E+03  0.00000000000E+00 0. -1.
         -1   -1    0    0    0  501 -0.00000000000E+00 -0.00000000000E+00 -0.32704870773E+02  0.32704870773E+02  0.00000000000E+00 0.  1.
         23    2    1    2    0    0  0.55595733762E+02 -0.93492492100E+02  0.19164776026E+03  0.23923725005E+03  0.93133592803E+02 0.  0.
          5    1    1    2  502    0 -0.18444677191E+02  0.22850755985E+02  0.26045831388E+02  0.39532752225E+02  0.47000000000E+01 0. -1.
         -5    1    1    2    0  502 -0.37151056571E+02  0.70641736115E+02  0.73543519440E+03  0.73976852532E+03  0.47000000000E+01 0. -1.
        -11    1    3    3    0    0  0.27399385469E+02 -0.10574820063E+03  0.12609832522E+03  0.16683583513E+03  0.00000000000E+00 0.  1.
         11    1    3    3    0    0  0.28196348293E+02  0.12255708530E+02  0.65549435036E+02  0.72401414918E+02  0.00000000000E+00 0. -1.
<mgrwt>
<rscale>  0 0.15976429E+03</rscale>
<asrwt>0</asrwt>
<pdfrwt beam="1">  1        1 0.15166669E+00 0.16570193E+03</pdfrwt>
<pdfrwt beam="2">  1       -1 0.50315193E-02 0.16570193E+03</pdfrwt>
<totfact> 0.28292325E+03</totfact>
</mgrwt>
</event>
<event>
 7    1  0.1020736E-005  0.1163905E+03  0.7546771E-02  0.1259832E+00
          2   -1    0    0  501    0  0.00000000000E+00  0.00000000000E+00  0.13523563871E+02  0.13523563871E+02  0.00000000000E+00 0. -1.
         -2   -1    0    0    0  501 -0.00000000000E+00 -0.00000000000E+00 -0.83340800086E+03  0.83340800086E+03  0.00000000000E+00 0.  1.
         23    2    1    2    0    0 -0.26441892224E+02 -0.23845121943E+01 -0.42099691839E+03  0.43141021619E+03  0.90396403526E+02 0.  0.
          5    1    1    2  502    0 -0.21435322974E+02  0.16406244240E+02 -0.21516557499E+02  0.34838056313E+02  0.47000000000E+01 0. -1.
         -5    1    1    2    0  502  0.47877215198E+02 -0.14021732046E+02 -0.37737096109E+03  0.38068329223E+03  0.47000000000E+01 0.  1.
        -11    1    3    3    0    0  0.11815565171E+02  0.37212088657E+02 -0.18513305791E+03  0.18920516974E+03  0.00000000000E+00 0.  1.
         11    1    3    3    0    0 -0.38257457395E+02 -0.39596600852E+02 -0.23586386048E+03  0.24220504645E+03  0.00000000000E+00 0. -1.
<mgrwt>
<rscale>  0 0.11039959E+03</rscale>
<asrwt>0</asrwt>
<pdfrwt beam="1">  1        2 0.20805480E-02 0.11639046E+03</pdfrwt>
<pdfrwt beam="2">  1       -2 0.12821664E+00 0.11639046E+03</pdfrwt>
<totfact> 0.23085760E+03</totfact>
</mgrwt>
</event>
<event>
 7    1  0.1020736E-005  0.1508407E+03  0.7546771E-02  0.1208009E+00
         -2   -1    0    0    0  501 -0.00000000000E+00  0.00000000000E+00  0.12712695084E+02  0.12712695084E+02  0.00000000000E+00 0. -1.
          2   -1    0    0  501    0  0.00000000000E+00 -0.00000000000E+00 -0.15629959846E+04  0.15629959846E+04  0.00000000000E+00 0.  1.
         23    2    1    2    0    0  0.82542259426E+02 -0.17735693898E+02 -0.54961389732E+03  0.56373429231E+03  0.92699173494E+02 0.  0.
          5    1    1    2  502    0 -0.34901675016E+02 -0.42569991551E+02 -0.19625467232E+03  0.20388309765E+03  0.47000000000E+01 0. -1.
         -5    1    1    2    0  502 -0.47640584410E+02  0.60305685449E+02 -0.80441471985E+03  0.80809128970E+03  0.47000000000E+01 0. -1.
        -11    1    3    3    0    0 -0.78641821855E+01  0.24339806521E+02 -0.12086137687E+03  0.12353843111E+03  0.00000000000E+00 0. -1.
         11    1    3    3    0    0  0.90406441611E+02 -0.42075500418E+02 -0.42875252045E+03  0.44019586120E+03  0.00000000000E+00 0.  1.
<mgrwt>
<rscale>  0 0.14402859E+03</rscale>
<asrwt>0</asrwt>
<pdfrwt beam="2">  1        2 0.24046094E+00 0.15084074E+03</pdfrwt>
<pdfrwt beam="1">  1       -2 0.19557991E-02 0.15084074E+03</pdfrwt>
<totfact> 0.98902335E+03</totfact>
</mgrwt>
</event>
<event>
 7    1  0.1020736E-005  0.1480565E+03  0.7546771E-02  0.1212291E+00
          2   -1    0    0  501    0  0.00000000000E+00  0.00000000000E+00  0.62885190512E+03  0.62885190512E+03  0.00000000000E+00 0. -1.
         -2   -1    0    0    0  501 -0.00000000000E+00 -0.00000000000E+00 -0.37153280693E+02  0.37153280693E+02  0.00000000000E+00 0.  1.
         23    2    1    2    0    0 -0.42540230013E+02 -0.66975173790E+02  0.11534841343E+03  0.16717631084E+03  0.91363654436E+02 0.  0.
          5    1    1    2  502    0  0.10160717799E+02  0.43543744454E+02  0.38669560080E+02  0.59301962396E+02  0.47000000000E+01 0.  1.
         -5    1    1    2    0  502  0.32379512214E+02  0.23431429335E+02  0.43768065092E+03  0.43952691258E+03  0.47000000000E+01 0.  1.
        -11    1    3    3    0    0 -0.24193839428E+02 -0.31827762203E+02  0.12071874223E+03  0.12716667425E+03  0.00000000000E+00 0. -1.
         11    1    3    3    0    0 -0.18346390585E+02 -0.35147411587E+02 -0.53703288034E+01  0.40009636592E+02  0.00000000000E+00 0.  1.
<mgrwt>
<rscale>  0 0.14077421E+03</rscale>
<asrwt>0</asrwt>
<pdfrwt beam="1">  1        2 0.96746439E-01 0.14805649E+03</pdfrwt>
<pdfrwt beam="2">  1       -2 0.57158898E-02 0.14805649E+03</pdfrwt>
<totfact> 0.73521143E+03</totfact>
</mgrwt>
</event>
<event>
 7    1  0.1020736E-005  0.2071749E+03  0.7546771E-02  0.1147754E+00
          1   -1    0    0  501    0  0.00000000000E+00  0.00000000000E+00  0.49207499782E+03  0.49207499782E+03  0.00000000000E+00 0. -1.
         -1   -1    0    0    0  501 -0.00000000000E+00 -0.00000000000E+00 -0.80277370344E+02  0.80277370344E+02  0.00000000000E+00 0.  1.
         23    2    1    2    0    0  0.10379383391E+03 -0.12854122658E+03  0.22284756574E+03  0.29195340986E+03  0.90993126563E+02 0.  0.
          5    1    1    2  502    0  0.23892206190E+02  0.30506564646E+00  0.35705405695E+02  0.43219169098E+02  0.47000000000E+01 0.  1.
         -5    1    1    2    0  502 -0.12768604010E+03  0.12823616093E+03  0.15324465603E+03  0.23717978921E+03  0.47000000000E+01 0.  1.
        -11    1    3    3    0    0  0.43810630470E+01 -0.74827075504E+02  0.10101776694E+03  0.12578900659E+03  0.00000000000E+00 0.  1.
         11    1    3    3    0    0  0.99412770860E+02 -0.53714151072E+02  0.12182979881E+03  0.16616440327E+03  0.00000000000E+00 0. -1.
<mgrwt>
<rscale>  0 0.20237048E+03</rscale>
<asrwt>0</asrwt>
<pdfrwt beam="1">  1        1 0.75703844E-01 0.20717493E+03</pdfrwt>
<pdfrwt beam="2">  1       -1 0.12350365E-01 0.20717493E+03</pdfrwt>
<totfact> 0.20050196E+03</totfact>
</mgrwt>
</event>
<event>
 7    1  0.1020736E-005  0.1448352E+03  0.7546771E-02  0.1216252E+00
          3   -1    0    0  501    0  0.00000000000E+00  0.00000000000E+00  0.18443538645E+03  0.18443538645E+03  0.00000000000E+00 0. -1.
         -3   -1    0    0    0  501 -0.00000000000E+00 -0.00000000000E+00 -0.10452320820E+03  0.10452320820E+03  0.00000000000E+00 0.  1.
         23    2    1    2    0    0  0.65561573469E+02  0.32466476882E+02 -0.86963310629E+01  0.11916839506E+03  0.93664764833E+02 0.  0.
          5    1    1    2  502    0 -0.89995380241E+02 -0.88286314594E+01  0.98772418672E+02  0.13399699209E+03  0.47000000000E+01 0. -1.
         -5    1    1    2    0  502  0.24433806773E+02 -0.23637845422E+02 -0.10163909355E+02  0.35793207498E+02  0.47000000000E+01 0. -1.
        -11    1    3    3    0    0  0.72733414757E+02  0.65669601347E+00 -0.31616575351E+02  0.79310709925E+02  0.00000000000E+00 0.  1.
         11    1    3    3    0    0 -0.71718412882E+01  0.31809780868E+02  0.22920244288E+02  0.39857685138E+02  0.00000000000E+00 0. -1.
<mgrwt>
<rscale>  0 0.13784978E+03</rscale>
<asrwt>0</asrwt>
<pdfrwt beam="1">  1        3 0.28374675E-01 0.14483523E+03</pdfrwt>
<pdfrwt beam="2">  1       -3 0.16080494E-01 0.14483523E+03</pdfrwt>
<totfact> 0.91342021E+02</totfact>
</mgrwt>
</event>
<event>
 7    1  0.1020736E-005  0.1620289E+03  0.7546771E-02  0.1194342E+00
         -2   -1    0    0    0  501 -0.00000000000E+00  0.00000000000E+00  0.30285047823E+02  0.30285047823E+02  0.00000000000E+00 0.  1.
          2   -1    0    0  501    0  0.00000000000E+00 -0.00000000000E+00 -0.73546737898E+03  0.73546737898E+03  0.00000000000E+00 0. -1.
         23    2    1    2    0    0  0.62402989197E+02  0.82066274096E+02 -0.30183641076E+03  0.33107864079E+03  0.88762836346E+02 0.  0.
          5    1    1    2  502    0 -0.39272624002E+02 -0.10732897043E+03 -0.21857476791E+03  0.24669589793E+03  0.47000000000E+01 0.  1.
         -5    1    1    2    0  502 -0.23130365195E+02  0.25262696332E+02 -0.18477115249E+03  0.18797788809E+03  0.47000000000E+01 0.  1.
        -11    1    3    3    0    0  0.62562259124E+02  0.27407599119E+02 -0.23507113808E+03  0.24479308143E+03  0.00000000000E+00 0. -1.
         11    1    3    3    0    0 -0.15926992670E+00  0.54658674977E+02 -0.66765272684E+02  0.86285559358E+02  0.00000000000E+00 0.  1.
<mgrwt>
<rscale>  0 0.15510074E+03</rscale>
<asrwt>0</asrwt>
<pdfrwt beam="2">  1        2 0.11314883E+00 0.16202891E+03</pdfrwt>
<pdfrwt beam="1">  1       -2 0.46592380E-02 0.16202891E+03</pdfrwt>
<totfact> 0.83558754E+03</totfact>
</mgrwt>
</event>
<event>
 7    1  0.1020736E-005  0.1323352E+03  0.7546771E-02  0.1236377E+00
          3   -1    0    0  501    0  0.00000000000E+00  0.00000000000E+00  0.14549854756E+03  0.14549854756E+03  0.00000000000E+00 0. -1.
         -3   -1    0    0    0  501 -0.00000000000E+00 -0.00000000000E+00 -0.14113461771E+03  0.14113461771E+03  0.00000000000E+00 0.  1.
         23    2    1    2    0    0  0.43098278053E+02 -0.37961915331E+00 -0.79668663075E+02  0.12987195222E+03  0.93069986652E+02 0.  0.
          5    1    1    2  502    0  0.18432716802E+02 -0.48278921038E+02  0.20842021647E+02  0.55920471489E+02  0.47000000000E+01 0.  1.
         -5    1    1    2    0  502 -0.61530994855E+02  0.48658540191E+02  0.63190571280E+02  0.10084074157E+03  0.47000000000E+01 0.  1.
        -11    1    3    3    0    0  0.37706911113E+02  0.39653643974E+02 -0.20933513462E+02  0.58586983298E+02  0.00000000000E+00 0. -1.
         11    1    3    3    0    0  0.53913669399E+01 -0.40033263127E+02 -0.58735149613E+02  0.71284968921E+02  0.00000000000E+00 0.  1.
<mgrwt>
<rscale>  0 0.12416710E+03</rscale>
<asrwt>0</asrwt>
<pdfrwt beam="1">  1        3 0.22384392E-01 0.13233519E+03</pdfrwt>
<pdfrwt beam="2">  1       -3 0.21713018E-01 0.13233519E+03</pdfrwt>
<totfact> 0.81835245E+02</totfact>
</mgrwt>
</event>
<event>
 7    1  0.1020736E-005  0.1730249E+03  0.7546771E-02  0.1181020E+00
          2   -1    0    0  501    0  0.00000000000E+00  0.00000000000E+00  0.26614527616E+04  0.26614527616E+04  0.00000000000E+00 0. -1.
         -2   -1    0    0    0  501 -0.00000000000E+00 -0.00000000000E+00 -0.10930247533E+02  0.10930247533E+02  0.00000000000E+00 0.  1.
         23    2    1    2    0    0  0.76974464764E+02 -0.91563839890E+02  0.81410717512E+03  0.82783458245E+03  0.90722644999E+02 0.  0.
          5    1    1    2  502    0 -0.29835853488E+01  0.50695475405E+01  0.38704238266E+01  0.84659479325E+01  0.47000000000E+01 0.  1.
         -5    1    1    2    0  502 -0.73990879415E+02  0.86494292349E+02  0.18325449151E+04  0.18360824788E+04  0.47000000000E+01 0.  1.
        -11    1    3    3    0    0  0.51785820819E+02  0.28500646913E+01  0.24943692055E+03  0.25477180268E+03  0.00000000000E+00 0.  1.
         11    1    3    3    0    0  0.25188643945E+02 -0.94413904581E+02  0.56467025457E+03  0.57306277977E+03  0.00000000000E+00 0. -1.
<mgrwt>
<rscale>  0 0.16699354E+03</rscale>
<asrwt>0</asrwt>
<pdfrwt beam="1">  1        2 0.40945375E+00 0.17302486E+03</pdfrwt>
<pdfrwt beam="2">  1       -2 0.16815787E-02 0.17302486E+03</pdfrwt>
<totfact> 0.32796781E+03</totfact>
</mgrwt>
</event>
<event>
 7    1  0.1020736E-005  0.2211229E+03  0.7546771E-02  0.1136387E+00
          1   -1    0    0  501    0  0.00000000000E+00  0.00000000000E+00  0.14059752659E+03  0.14059752659E+03  0.00000000000E+00 0. -1.
         -1   -1    0    0    0  501 -0.00000000000E+00 -0.00000000000E+00 -0.32502576620E+03  0.32502576620E+03  0.00000000000E+00 0.  1.
         23    2    1    2    0    0  0.97427057618E+01 -0.18213526716E+03 -0.11393575642E+03  0.23353601281E+03  0.91046893553E+02 0.  0.
          5    1    1    2  502    0 -0.14623647952E+02 -0.16235251378E+02 -0.10777859372E+02  0.24813035271E+02  0.47000000000E+01 0.  1.
         -5    1    1    2    0  502  0.48809421906E+01  0.19837051854E+03 -0.59714623815E+02  0.20727424471E+03  0.47000000000E+01 0.  1.
        -11    1    3    3    0    0 -0.37506820216E+02 -0.80445995152E+02 -0.30814125448E+02  0.93956532641E+02  0.00000000000E+00 0. -1.
         11    1    3    3    0    0  0.47249525978E+02 -0.10168927201E+03 -0.83121630974E+02  0.13957948016E+03  0.00000000000E+00 0.  1.
<mgrwt>
<rscale>  0 0.21667394E+03</rscale>
<asrwt>0</asrwt>
<pdfrwt beam="1">  1        1 0.21630389E-01 0.22112285E+03</pdfrwt>
<pdfrwt beam="2">  1       -1 0.50003964E-01 0.22112285E+03</pdfrwt>
<totfact> 0.94574604E+02</totfact>
</mgrwt>
</event>
<event>
 7    1  0.1020736E-005  0.1639441E+03  0.7546771E-02  0.1190729E+00
          3   -1    0    0  501    0  0.00000000000E+00  0.00000000000E+00  0.55391740322E+03  0.55391740322E+03  0.00000000000E+00 0. -1.
         -3   -1    0    0    0  501 -0.00000000000E+00 -0.00000000000E+00 -0.43752830548E+02  0.43752830548E+02  0.00000000000E+00 0.  1.
         23    2    1    2    0    0  0.97415640244E+02 -0.41967427434E+02  0.18323213263E+03  0.23193468610E+03  0.94702757397E+02 0.  0.
          5    1    1    2  502    0  0.13430615044E+02 -0.18437438685E+02  0.11553431747E+02  0.25997929741E+02  0.47000000000E+01 0. -1.
         -5    1    1    2    0  502 -0.11084625529E+03  0.60404866118E+02  0.31537900829E+03  0.33973761792E+03  0.47000000000E+01 0. -1.
        -11    1    3    3    0    0  0.35340471720E+02 -0.62067930534E+02  0.12741816451E+03  0.14607109772E+03  0.00000000000E+00 0.  1.
         11    1    3    3    0    0  0.62075168524E+02  0.20100503100E+02  0.55813968122E+02  0.85863588381E+02  0.00000000000E+00 0. -1.
<mgrwt>
<rscale>  0 0.15821354E+03</rscale>
<asrwt>0</asrwt>
<pdfrwt beam="1">  1        3 0.85218057E-01 0.16394411E+03</pdfrwt>
<pdfrwt beam="2">  1       -3 0.67312051E-02 0.16394411E+03</pdfrwt>
<totfact> 0.43764526E+02</totfact>
</mgrwt>
</event>
<event>
 7    1  0.1020736E-005  0.1326016E+03  0.7546771E-02  0.1237460E+00
          1   -1    0    0  501    0  0.00000000000E+00  0.00000000000E+00  0.54896411873E+03  0.54896411873E+03  0.00000000000E+00 0. -1.
         -1   -1    0    0    0  501 -0.00000000000E+00 -0.00000000000E+00 -0.24705800088E+02  0.24705800088E+02  0.00000000000E+00 0.  1.
         23    2    1    2    0    0  0.12224196386E+02 -0.42546156403E+02  0.20490565435E+03  0.22788194993E+03  0.89354627856E+02 0.  0.
          5    1    1    2  502    0 -0.63403360556E+01  0.76488897065E+02  0.11397833119E+03  0.13749145870E+03  0.47000000000E+01 0. -1.
         -5    1    1    2    0  502 -0.58838603303E+01 -0.33942740663E+02  0.20537433310E+03  0.20829651018E+03  0.47000000000E+01 0. -1.
        -11    1    3    3    0    0  0.26011221614E+02 -0.58231564351E+02  0.19422036576E+03  0.20442370023E+03  0.00000000000E+00 0. -1.
         11    1    3    3    0    0 -0.13787025228E+02  0.15685407949E+02  0.10685288584E+02  0.23458249706E+02  0.00000000000E+00 0.  1.
<mgrwt>
<rscale>  0 0.12348267E+03</rscale>
<asrwt>0</asrwt>
<pdfrwt beam="1">  1        1 0.84456009E-01 0.13260164E+03</pdfrwt>
<pdfrwt beam="2">  1       -1 0.38008928E-02 0.13260164E+03</pdfrwt>
<totfact> 0.10053320E+04</totfact>
</mgrwt>
</event>
<event>
 7    1  0.1020736E-005  0.1383115E+03  0.7546771E-02  0.1226550E+00
         -2   -1    0    0    0  501 -0.00000000000E+00  0.00000000000E+00  0.32321056186E+02  0.32321056186E+02  0.00000000000E+00 0.  1.
          2   -1    0    0  501    0  0.00000000000E+00 -0.00000000000E+00 -0.74242982303E+03  0.74242982303E+03  0.00000000000E+00 0. -1.
         23    2    1    2    0    0  0.20281637319E+02 -0.55622767587E+02 -0.98344545663E+02  0.14754633152E+03  0.92698614867E+02 0.  0.
          5    1    1    2  502    0 -0.60048429113E+02  0.65087033805E+02 -0.30299832752E+03  0.31570906273E+03  0.47000000000E+01 0.  1.
         -5    1    1    2    0  502  0.39766791795E+02 -0.94642662179E+01 -0.30876589366E+03  0.31149548497E+03  0.47000000000E+01 0.  1.
        -11    1    3    3    0    0 -0.27055333001E+02  0.15110350062E+01 -0.37975112870E+01  0.27362298196E+02  0.00000000000E+00 0.  1.
         11    1    3    3    0    0  0.47336970320E+02 -0.57133802593E+02 -0.94547034376E+02  0.12018403333E+03  0.00000000000E+00 0. -1.
<mgrwt>
<rscale>  0 0.13061234E+03</rscale>
<asrwt>0</asrwt>
<pdfrwt beam="2">  1        2 0.11421997E+00 0.13831154E+03</pdfrwt>
<pdfrwt beam="1">  1       -2 0.49724703E-02 0.13831154E+03</pdfrwt>
<totfact> 0.74278357E+03</totfact>
</mgrwt>
</event>
<event>
 7    1  0.1020736E-005  0.1221457E+03  0.7546771E-02  0.1253836E+00
         -2   -1    0    0    0  501 -0.00000000000E+00  0.00000000000E+00  0.24442678986E+02  0.24442678986E+02  0.00000000000E+00 0.  1.
          2   -1    0    0  501    0  0.00000000000E+00 -0.00000000000E+00 -0.52275395891E+03  0.52275395891E+03  0.00000000000E+00 0. -1.
         23    2    1    2    0    0  0.10904082078E+01  0.53871106337E+00 -0.12974429881E+03  0.15891684654E+03  0.91757843484E+02 0.  0.
          5    1    1    2  502    0  0.30109981662E+02  0.43652886026E+02 -0.90810750934E+02  0.10526570163E+03  0.47000000000E+01 0. -1.
         -5    1    1    2    0  502 -0.31200389870E+02 -0.44191597090E+02 -0.27775623017E+03  0.28301408972E+03  0.47000000000E+01 0.  1.
        -11    1    3    3    0    0  0.22064565308E+01 -0.43776587731E+02 -0.42484042636E+02  0.61042214593E+02  0.00000000000E+00 0.  1.
         11    1    3    3    0    0 -0.11160483230E+01  0.44315298794E+02 -0.87260256177E+02  0.97874631949E+02  0.00000000000E+00 0. -1.
<mgrwt>
<rscale>  0 0.11371795E+03</rscale>
<asrwt>0</asrwt>
<pdfrwt beam="2">  1        2 0.80423686E-01 0.12214572E+03</pdfrwt>
<pdfrwt beam="1">  1       -2 0.37604121E-02 0.12214572E+03</pdfrwt>
<totfact> 0.16712264E+04</totfact>
</mgrwt>
</event>
<event>
 7    1  0.1020736E-005  0.1430781E+03  0.7546771E-02  0.1222902E+00
         -2   -1    0    0    0  501 -0.00000000000E+00  0.00000000000E+00  0.99507590372E+02  0.99507590372E+02  0.00000000000E+00 0.  1.
          2   -1    0    0  501    0  0.00000000000E+00 -0.00000000000E+00 -0.47187839984E+03  0.47187839984E+03  0.00000000000E+00 0. -1.
         23    2    1    2    0    0 -0.51483314722E+02  0.14528722910E+02  0.55148957310E+02  0.12055954031E+03  0.92906295710E+02 0.  0.
          5    1    1    2  502    0 -0.42299065090E+02 -0.23635373704E+02 -0.15152134881E+03  0.15914977519E+03  0.47000000000E+01 0. -1.
         -5    1    1    2    0  502  0.93782379812E+02  0.91066507937E+01 -0.27599841796E+03  0.29167667471E+03  0.47000000000E+01 0.  1.
        -11    1    3    3    0    0  0.23227061990E+02 -0.79006482012E+01  0.29669019143E+02  0.38498926577E+02  0.00000000000E+00 0.  1.
         11    1    3    3    0    0 -0.74710376712E+02  0.22429371111E+02  0.25479938167E+02  0.82060613731E+02  0.00000000000E+00 0. -1.
<mgrwt>
<rscale>  0 0.13311743E+03</rscale>
<asrwt>0</asrwt>
<pdfrwt beam="2">  1        2 0.72596676E-01 0.14307808E+03</pdfrwt>
<pdfrwt beam="1">  1       -2 0.15308860E-01 0.14307808E+03</pdfrwt>
<totfact> 0.21573285E+03</totfact>
</mgrwt>
</event>
<event>
 7    1  0.1020736E-005  0.1237390E+03  0.7546771E-02  0.1249817E+00
          1   -1    0    0  501    0  0.00000000000E+00  0.00000000000E+00  0.10448677576E+04  0.10448677576E+04  0.00000000000E+00 0. -1.
         -1   -1    0    0    0  501 -0.00000000000E+00 -0.00000000000E+00 -0.31451772047E+02  0.31451772047E+02  0.00000000000E+00 0.  1.
         23    2    1    2    0    0 -0.19594212741E+02 -0.34346753803E+02  0.55740425082E+02  0.11068304884E+03  0.87063825111E+02 0.  0.
          5    1    1    2  502    0  0.15879829173E+02  0.14963202576E+01  0.89015310728E+03  0.89030840295E+03  0.47000000000E+01 0. -1.
         -5    1    1    2    0  502  0.37143835672E+01  0.32850433545E+02  0.67522453184E+02  0.75328077855E+02  0.47000000000E+01 0.  1.
        -11    1    3    3    0    0  0.31520902672E+02 -0.30940987382E+02  0.29604226284E+02  0.53172570178E+02  0.00000000000E+00 0. -1.
         11    1    3    3    0    0 -0.51115115413E+02 -0.34057664211E+01  0.26136198798E+02  0.57510478665E+02  0.00000000000E+00 0.  1.
<mgrwt>
<rscale>  0 0.11601667E+03</rscale>
<asrwt>0</asrwt>
<pdfrwt beam="1">  1        1 0.16074886E+00 0.12373898E+03</pdfrwt>
<pdfrwt beam="2">  1       -1 0.48387350E-02 0.12373898E+03</pdfrwt>
<totfact> 0.26967934E+03</totfact>
</mgrwt>
</event>
<event>
 7    1  0.1020736E-005  0.1505148E+03  0.7546771E-02  0.1210257E+00
          1   -1    0    0  501    0  0.00000000000E+00  0.00000000000E+00  0.54262694563E+03  0.54262694563E+03  0.00000000000E+00 0. -1.
         -1   -1    0    0    0  501 -0.00000000000E+00 -0.00000000000E+00 -0.34021944773E+02  0.34021944773E+02  0.00000000000E+00 0.  1.
         23    2    1    2    0    0 -0.70342756695E+02  0.45630641230E+02  0.20212449483E+03  0.23520342715E+03  0.86232719384E+02 0.  0.
          5    1    1    2  502    0  0.69337259404E+02 -0.18479485781E+02  0.60647710392E+02  0.94071152391E+02  0.47000000000E+01 0.  1.
         -5    1    1    2    0  502  0.10054972908E+01 -0.27151155448E+02  0.24583279564E+03  0.24737431087E+03  0.47000000000E+01 0.  1.
        -11    1    3    3    0    0 -0.14760152612E+02 -0.22363991186E+02  0.82914566187E+02  0.87136877916E+02  0.00000000000E+00 0. -1.
         11    1    3    3    0    0 -0.55582604083E+02  0.67994632415E+02  0.11920992864E+03  0.14806654923E+03  0.00000000000E+00 0.  1.
<mgrwt>
<rscale>  0 0.14230797E+03</rscale>
<asrwt>0</asrwt>
<pdfrwt beam="1">  1        1 0.83481062E-01 0.15051480E+03</pdfrwt>
<pdfrwt beam="2">  1       -1 0.52341457E-02 0.15051480E+03</pdfrwt>
<totfact> 0.64185463E+03</totfact>
</mgrwt>
</event>
<event>
 7    1  0.1020736E-005  0.1690314E+03  0.7546771E-02  0.1187761E+00
          1   -1    0    0  501    0  0.00000000000E+00  0.00000000000E+00  0.42039960978E+03  0.42039960978E+03  0.00000000000E+00 0. -1.
         -1   -1    0    0    0  501 -0.00000000000E+00 -0.00000000000E+00 -0.58601914356E+02  0.58601914356E+02  0.00000000000E+00 0.  1.
         23    2    1    2    0    0  0.94399335290E+02 -0.64042311232E+02  0.11600608890E+03  0.18069778670E+03  0.78623312865E+02 0.  0.
          5    1    1    2  502    0  0.13283365240E+02 -0.24882389185E+02  0.52671573569E+02  0.59933010486E+02  0.47000000000E+01 0. -1.
         -5    1    1    2    0  502 -0.10768270053E+03  0.88924700417E+02  0.19312003296E+03  0.23837072695E+03  0.47000000000E+01 0. -1.
        -11    1    3    3    0    0  0.51566654147E+02 -0.35017332038E+02  0.10531357194E+02  0.63215843325E+02  0.00000000000E+00 0.  1.
         11    1    3    3    0    0  0.42832681143E+02 -0.29024979195E+02  0.10547473170E+03  0.11748194338E+03  0.00000000000E+00 0. -1.
<mgrwt>
<rscale>  0 0.16083182E+03</rscale>
<asrwt>0</asrwt>
<pdfrwt beam="1">  1        1 0.64676861E-01 0.16903138E+03</pdfrwt>
<pdfrwt beam="2">  1       -1 0.90156794E-02 0.16903138E+03</pdfrwt>
<totfact> 0.39707883E+03</totfact>
</mgrwt>
</event>
<event>
 7    1  0.1020736E-005  0.2002493E+03  0.7546771E-02  0.1179421E+00
          2   -1    0    0  501    0  0.00000000000E+00  0.00000000000E+00  0.30049997348E+03  0.30049997348E+03  0.00000000000E+00 0. -1.
         -2   -1    0    0    0  501 -0.00000000000E+00 -0.00000000000E+00 -0.29211388633E+03  0.29211388633E+03  0.00000000000E+00 0.  1.
         23    2    1    2    0    0  0.29595725507E+01  0.42405298323E+02 -0.24785144509E+03  0.26741012843E+03  0.90944321199E+02 0.  0.
          5    1    1    2  502    0  0.29580143080E+02 -0.32768795968E+02  0.28000742249E+03  0.28350489503E+03  0.47000000000E+01 0. -1.
         -5    1    1    2    0  502 -0.32539715630E+02 -0.96365023559E+01 -0.23769890254E+02  0.41698836358E+02  0.47000000000E+01 0.  1.
        -11    1    3    3    0    0  0.10792327060E+02  0.69774862504E+02 -0.15567738895E+03  0.17093991690E+03  0.00000000000E+00 0.  1.
         11    1    3    3    0    0 -0.78327545093E+01 -0.27369564181E+02 -0.92174056141E+02  0.96470211527E+02  0.00000000000E+00 0. -1.
<mgrwt>
<rscale>  0 0.16849974E+03</rscale>
<asrwt>0</asrwt>
<pdfrwt beam="1">  1        2 0.46230765E-01 0.20024933E+03</pdfrwt>
<pdfrwt beam="2">  1       -2 0.44940598E-01 0.20024933E+03</pdfrwt>
<totfact> 0.52031904E+02</totfact>
</mgrwt>
</event>
<event>
 7    1  0.1020736E-005  0.2558031E+03  0.7546771E-02  0.1112278E+00
          1   -1    0    0  501    0  0.00000000000E+00  0.00000000000E+00  0.70054422170E+03  0.70054422170E+03  0.00000000000E+00 0. -1.
         -1   -1    0    0    0  501 -0.00000000000E+00 -0.00000000000E+00 -0.97852794902E+02  0.97852794902E+02  0.00000000000E+00 0.  1.
         23    2    1    2    0    0 -0.17928651659E+03  0.13291906237E+03  0.16303840382E+03  0.28974191534E+03  0.86935172466E+02 0.  0.
          5    1    1    2  502    0  0.14020981474E+02  0.13552839479E+01  0.14129801683E+03  0.14207619180E+03  0.47000000000E+01 0. -1.
         -5    1    1    2    0  502  0.16526553511E+03 -0.13427434631E+03  0.29835500614E+03  0.36657890947E+03  0.47000000000E+01 0. -1.
        -11    1    3    3    0    0 -0.52623744613E+02  0.64178808865E+02  0.17292974473E+02  0.84777502738E+02  0.00000000000E+00 0.  1.
         11    1    3    3    0    0 -0.12666277197E+03  0.68740253501E+02  0.14574542935E+03  0.20496441260E+03  0.00000000000E+00 0. -1.
<mgrwt>
<rscale>  0 0.25163085E+03</rscale>
<asrwt>0</asrwt>
<pdfrwt beam="1">  1        1 0.10777603E+00 0.25580311E+03</pdfrwt>
<pdfrwt beam="2">  1       -1 0.15054277E-01 0.25580311E+03</pdfrwt>
<totfact> 0.90205347E+02</totfact>
</mgrwt>
</event>
<event>
 7    1  0.1020736E-005  0.1967652E+03  0.7546771E-02  0.1157065E+00
         -1   -1    0    0    0  501 -0.00000000000E+00  0.00000000000E+00  0.15199063535E+03  0.15199063535E+03  0.00000000000E+00 0.  1.
          1   -1    0    0  501    0  0.00000000000E+00 -0.00000000000E+00 -0.25861663411E+03  0.25861663411E+03  0.00000000000E+00 0. -1.
         23    2    1    2    0    0  0.11426385626E+03 -0.10017067863E+03  0.18061050109E+02  0.17766216397E+03  0.90262114247E+02 0.  0.
          5    1    1    2  502    0 -0.13164420510E+03  0.49979460761E+02 -0.72986277751E+02  0.15867334362E+03  0.47000000000E+01 0. -1.
         -5    1    1    2    0  502  0.17380348838E+02  0.50191217872E+02 -0.51700771117E+02  0.74271761870E+02  0.47000000000E+01 0. -1.
        -11    1    3    3    0    0  0.67861118762E+02 -0.23201021470E+02  0.43974327824E+02  0.84125860141E+02  0.00000000000E+00 0.  1.
         11    1    3    3    0    0  0.46402737499E+02 -0.76969657163E+02 -0.25913277715E+02  0.93536303825E+02  0.00000000000E+00 0. -1.
<mgrwt>
<rscale>  0 0.19155614E+03</rscale>
<asrwt>0</asrwt>
<pdfrwt beam="2">  1        1 0.39787175E-01 0.19676525E+03</pdfrwt>
<pdfrwt beam="1">  1       -1 0.23383175E-01 0.19676525E+03</pdfrwt>
<totfact> 0.16335305E+03</totfact>
</mgrwt>
</event>
<event>
 7    1  0.1020736E-005  0.1540580E+03  0.7546771E-02  0.1204342E+00
          2   -1    0    0  501    0  0.00000000000E+00  0.00000000000E+00  0.71532131337E+03  0.71532131337E+03  0.00000000000E+00 0. -1.
         -2   -1    0    0    0  501 -0.00000000000E+00 -0.00000000000E+00 -0.27722092528E+02  0.27722092528E+02  0.00000000000E+00 0.  1.
         23    2    1    2    0    0 -0.90058085635E+02 -0.35536668594E+00  0.29588510366E+03  0.32212320066E+03  0.90026533670E+02 0.  0.
          5    1    1    2  502    0  0.73928479596E+02  0.32036002507E+02  0.10735545395E+03  0.13430937810E+03  0.47000000000E+01 0. -1.
         -5    1    1    2    0  502  0.16129606039E+02 -0.31680635821E+02  0.28435866324E+03  0.28661082714E+03  0.47000000000E+01 0. -1.
        -11    1    3    3    0    0 -0.30029395479E+02  0.11718451248E+02  0.16703040172E+02  0.36305347312E+02  0.00000000000E+00 0.  1.
         11    1    3    3    0    0 -0.60028690157E+02 -0.12073817934E+02  0.27918206349E+03  0.28581785335E+03  0.00000000000E+00 0. -1.
<mgrwt>
<rscale>  0 0.14689399E+03</rscale>
<asrwt>0</asrwt>
<pdfrwt beam="1">  1        2 0.11004942E+00 0.15405801E+03</pdfrwt>
<pdfrwt beam="2">  1       -2 0.42649379E-02 0.15405801E+03</pdfrwt>
<totfact> 0.98375248E+03</totfact>
</mgrwt>
</event>
<event>
 7    1  0.1020736E-005  0.1293905E+03  0.7546771E-02  0.1255635E+00
         -1   -1    0    0    0  501 -0.00000000000E+00  0.00000000000E+00  0.19053680025E+02  0.19053680025E+02  0.00000000000E+00 0.  1.
          1   -1    0    0  501    0  0.00000000000E+00 -0.00000000000E+00 -0.10508809642E+04  0.10508809642E+04  0.00000000000E+00 0. -1.
         23    2    1    2    0    0  0.21985786407E+02  0.25178844519E+02 -0.79844804548E+02  0.10919923161E+03  0.66572744839E+02 0.  0.
          5    1    1    2  502    0 -0.86251118624E+01 -0.43261699703E+02 -0.92150266779E+03  0.92256990193E+03  0.47000000000E+01 0.  1.
         -5    1    1    2    0  502 -0.13360674544E+02  0.18082855184E+02 -0.30479811840E+02  0.38165510682E+02  0.47000000000E+01 0.  1.
        -11    1    3    3    0    0 -0.96513629498E+00 -0.18058177138E+02 -0.33635023592E+01  0.18394085945E+02  0.00000000000E+00 0.  1.
         11    1    3    3    0    0  0.22950922702E+02  0.43237021657E+02 -0.76481302189E+02  0.90805145664E+02  0.00000000000E+00 0. -1.
<mgrwt>
<rscale>  0 0.11270840E+03</rscale>
<asrwt>0</asrwt>
<pdfrwt beam="2">  1        1 0.16167405E+00 0.12939046E+03</pdfrwt>
<pdfrwt beam="1">  1       -1 0.29313345E-02 0.12939046E+03</pdfrwt>
<totfact> 0.55676504E+03</totfact>
</mgrwt>
</event>
<event>
 7    1  0.1020736E-005  0.2240606E+03  0.7546771E-02  0.1130891E+00
         -1   -1    0    0    0  501 -0.00000000000E+00  0.00000000000E+00  0.43031686537E+02  0.43031686537E+02  0.00000000000E+00 0.  1.
          1   -1    0    0  501    0  0.00000000000E+00 -0.00000000000E+00 -0.29166385475E+03  0.29166385475E+03  0.00000000000E+00 0. -1.
         23    2    1    2    0    0 -0.11625937425E+02 -0.97398519397E+01 -0.63646002692E+02  0.11090713886E+03  0.89551955060E+02 0.  0.
          5    1    1    2  502    0 -0.31630583242E+02 -0.21119233124E+02 -0.82805754200E+01  0.39206807231E+02  0.47000000000E+01 0. -1.
         -5    1    1    2    0  502  0.43256520667E+02  0.30859085064E+02 -0.17670559011E+03  0.18458159520E+03  0.47000000000E+01 0. -1.
        -11    1    3    3    0    0  0.95341719492E+01  0.37024196943E+02 -0.36430226201E+02  0.52809591696E+02  0.00000000000E+00 0.  1.
         11    1    3    3    0    0 -0.21160109374E+02 -0.46764048883E+02 -0.27215776490E+02  0.58097547166E+02  0.00000000000E+00 0. -1.
<mgrwt>
<rscale>  0 0.22406060E+03</rscale>
<asrwt>0</asrwt>
<pdfrwt beam="2">  1        1 0.44871363E-01 0.22406060E+03</pdfrwt>
<pdfrwt beam="1">  1       -1 0.66202594E-02 0.22406060E+03</pdfrwt>
<totfact> 0.10231011E+04</totfact>
</mgrwt>
</event>
<event>
 7    1  0.1020736E-005  0.1422784E+03  0.7546771E-02  0.1220665E+00
         -1   -1    0    0    0  501 -0.00000000000E+00  0.00000000000E+00  0.12996237759E+03  0.12996237759E+03  0.00000000000E+00 0.  1.
          1   -1    0    0  501    0  0.00000000000E+00 -0.00000000000E+00 -0.13220401329E+03  0.13220401329E+03  0.00000000000E+00 0. -1.
         23    2    1    2    0    0  0.11140441675E+02  0.67038847469E+02  0.25855712478E+02  0.11714014339E+03  0.91842140739E+02 0.  0.
          5    1    1    2  502    0 -0.57925481062E+02 -0.23938261352E+02 -0.47018540719E+02  0.78493534028E+02  0.47000000000E+01 0.  1.
         -5    1    1    2    0  502  0.46785039386E+02 -0.43100586117E+02  0.18921192538E+02  0.66532713465E+02  0.47000000000E+01 0.  1.
        -11    1    3    3    0    0 -0.13571623162E+02  0.43103977493E+02  0.55609273433E+02  0.71655656600E+02  0.00000000000E+00 0.  1.
         11    1    3    3    0    0  0.24712064838E+02  0.23934869976E+02 -0.29753560955E+02  0.45484486793E+02  0.00000000000E+00 0. -1.
<mgrwt>
<rscale>  0 0.13468503E+03</rscale>
<asrwt>0</asrwt>
<pdfrwt beam="2">  1        1 0.20339079E-01 0.14227843E+03</pdfrwt>
<pdfrwt beam="1">  1       -1 0.19994212E-01 0.14227843E+03</pdfrwt>
<totfact> 0.48308712E+03</totfact>
</mgrwt>
</event>
<event>
 7    1  0.1020736E-005  0.2029005E+03  0.7546771E-02  0.1151435E+00
          2   -1    0    0  501    0  0.00000000000E+00  0.00000000000E+00  0.44431386103E+03  0.44431386103E+03  0.00000000000E+00 0. -1.
         -2   -1    0    0    0  501 -0.00000000000E+00 -0.00000000000E+00 -0.84620653193E+02  0.84620653193E+02  0.00000000000E+00 0.  1.
         23    2    1    2    0    0  0.72409424324E+02 -0.14247843391E+03  0.15313553749E+03  0.23939231107E+03  0.91186385476E+02 0.  0.
          5    1    1    2  502    0  0.39613179647E+01 -0.20997288858E+02  0.29244639856E+02  0.36522830390E+02  0.47000000000E+01 0.  1.
         -5    1    1    2    0  502 -0.76370742289E+02  0.16347572277E+03  0.17731303049E+03  0.25301937277E+03  0.47000000000E+01 0.  1.
        -11    1    3    3    0    0 -0.17489620992E+02 -0.10236354510E+02  0.35504093997E+02  0.40880441371E+02  0.00000000000E+00 0. -1.
         11    1    3    3    0    0  0.89899045317E+02 -0.13224207940E+03  0.11763144349E+03  0.19851186970E+03  0.00000000000E+00 0.  1.
<mgrwt>
<rscale>  0 0.19800233E+03</rscale>
<asrwt>0</asrwt>
<pdfrwt beam="1">  1        2 0.68355977E-01 0.20290051E+03</pdfrwt>
<pdfrwt beam="2">  1       -2 0.13018562E-01 0.20290051E+03</pdfrwt>
<totfact> 0.30357904E+03</totfact>
</mgrwt>
</event>
<event>
 7    1  0.1020736E-005  0.2008728E+03  0.7546771E-02  0.1153449E+00
          1   -1    0    0  501    0  0.00000000000E+00  0.00000000000E+00  0.34918662167E+03  0.34918662167E+03  0.00000000000E+00 0. -1.
         -1   -1    0    0    0  501 -0.00000000000E+00 -0.00000000000E+00 -0.10777253653E+03  0.10777253653E+03  0.00000000000E+00 0.  1.
         23    2    1    2    0    0  0.14912083045E+03 -0.49872008245E+02  0.15544480580E+03  0.23846293962E+03  0.89315433384E+02 0.  0.
          5    1    1    2  502    0 -0.14668847812E+03 -0.21339908400E+01  0.75968502881E+02  0.16527361241E+03  0.47000000000E+01 0.  1.
         -5    1    1    2    0  502 -0.24323523301E+01  0.52005999085E+02  0.10000776458E+02  0.53222606179E+02  0.47000000000E+01 0.  1.
        -11    1    3    3    0    0  0.60843018226E+02 -0.52146669559E+02  0.11779009384E+03  0.14246281697E+03  0.00000000000E+00 0.  1.
         11    1    3    3    0    0  0.88277812220E+02  0.22746613138E+01  0.37654711957E+02  0.96000122641E+02  0.00000000000E+00 0. -1.
<mgrwt>
<rscale>  0 0.19566438E+03</rscale>
<asrwt>0</asrwt>
<pdfrwt beam="1">  1        1 0.53721018E-01 0.20087280E+03</pdfrwt>
<pdfrwt beam="2">  1       -1 0.16580390E-01 0.20087280E+03</pdfrwt>
<totfact> 0.19568662E+03</totfact>
</mgrwt>
</event>
<event>
 7    1  0.1020736E-005  0.1265551E+04  0.7546771E-02  0.9057339E-01
         -2   -1    0    0    0  501 -0.00000000000E+00  0.00000000000E+00  0.32593972120E+03  0.32593972120E+03  0.00000000000E+00 0.  1.
          2   -1    0    0  501    0  0.00000000000E+00 -0.00000000000E+00 -0.12284626016E+04  0.12284626016E+04  0.00000000000E+00 0. -1.
         23    2    1    2    0    0 -0.50424288005E+02  0.42329400782E+02 -0.26589622153E+02  0.11492460938E+03  0.90367421358E+02 0.  0.
          5    1    1    2  502    0  0.19373168809E+03 -0.20880133509E+03 -0.10936650899E+04  0.11301572383E+04  0.47000000000E+01 0. -1.
         -5    1    1    2    0  502 -0.14330740009E+03  0.16647193431E+03  0.21773183161E+03  0.30932047512E+03  0.47000000000E+01 0.  1.
        -11    1    3    3    0    0 -0.73943211208E+02  0.20295200486E+02 -0.65114196236E+01  0.76953831822E+02  0.00000000000E+00 0. -1.
         11    1    3    3    0    0  0.23518923203E+02  0.22034200297E+02 -0.20078202529E+02  0.37970777556E+02  0.00000000000E+00 0.  1.
<mgrwt>
<rscale>  0 0.12655509E+04</rscale>
<asrwt>0</asrwt>
<pdfrwt beam="2">  1        2 0.18899425E+00 0.12655509E+04</pdfrwt>
<pdfrwt beam="1">  1       -2 0.50144571E-01 0.12655509E+04</pdfrwt>
<totfact> 0.67305691E+01</totfact>
</mgrwt>
</event>
<event>
 7    1  0.1020736E-005  0.1355841E+03  0.7546771E-02  0.1231539E+00
          1   -1    0    0  501    0  0.00000000000E+00  0.00000000000E+00  0.41291680497E+03  0.41291680497E+03  0.00000000000E+00 0. -1.
         -1   -1    0    0    0  501 -0.00000000000E+00 -0.00000000000E+00 -0.36957471512E+02  0.36957471512E+02  0.00000000000E+00 0.  1.
         23    2    1    2    0    0 -0.52193868506E+02 -0.55499317673E+01  0.11596851729E+03  0.15665377685E+03  0.91305570182E+02 0.  0.
          5    1    1    2  502    0 -0.23145077660E+02  0.44562250766E+02  0.10421941111E+03  0.11578110582E+03  0.47000000000E+01 0.  1.
         -5    1    1    2    0  502  0.75338946165E+02 -0.39012318999E+02  0.15577140506E+03  0.17743939382E+03  0.47000000000E+01 0.  1.
        -11    1    3    3    0    0  0.20967903263E+02 -0.19744244372E+02  0.46938099524E+02  0.55069713454E+02  0.00000000000E+00 0. -1.
         11    1    3    3    0    0 -0.73161771769E+02  0.14194312604E+02  0.69030417769E+02  0.10158406340E+03  0.00000000000E+00 0.  1.
<mgrwt>
<rscale>  0 0.12728619E+03</rscale>
<asrwt>0</asrwt>
<pdfrwt beam="1">  1        1 0.63525659E-01 0.13558406E+03</pdfrwt>
<pdfrwt beam="2">  1       -1 0.56857651E-02 0.13558406E+03</pdfrwt>
<totfact> 0.80338283E+03</totfact>
</mgrwt>
</event>
<event>
 7    1  0.1020736E-005  0.1277889E+03  0.7546771E-02  0.1253677E+00
          1   -1    0    0  501    0  0.00000000000E+00  0.00000000000E+00  0.31350182284E+02  0.31350182284E+02  0.00000000000E+00 0. -1.
         -1   -1    0    0    0  501 -0.00000000000E+00 -0.00000000000E+00 -0.34641164295E+03  0.34641164295E+03  0.00000000000E+00 0.  1.
         23    2    1    2    0    0  0.74709002181E+01 -0.25441479833E+02 -0.13064872168E+03  0.15340039075E+03  0.75891423480E+02 0.  0.
          5    1    1    2  502    0 -0.58757625445E+02 -0.96219426910E+01 -0.57139071981E+02  0.82655936726E+02  0.47000000000E+01 0.  1.
         -5    1    1    2    0  502  0.51286725227E+02  0.35063422524E+02 -0.12727366700E+03  0.14170549776E+03  0.47000000000E+01 0.  1.
        -11    1    3    3    0    0  0.24863584703E+02  0.93711434965E+01 -0.10111225609E+03  0.10454522708E+03  0.00000000000E+00 0.  1.
         11    1    3    3    0    0 -0.17392684485E+02 -0.34812623330E+02 -0.29536465592E+02  0.48855163661E+02  0.00000000000E+00 0. -1.
<mgrwt>
<rscale>  0 0.11380743E+03</rscale>
<asrwt>0</asrwt>
<pdfrwt beam="1">  1        1 0.48231049E-02 0.12778887E+03</pdfrwt>
<pdfrwt beam="2">  1       -1 0.53294100E-01 0.12778887E+03</pdfrwt>
<totfact> 0.60374818E+03</totfact>
</mgrwt>
</event>
<event>
 7    1  0.1020736E-005  0.1473886E+03  0.7546771E-02  0.1213720E+00
         -1   -1    0    0    0  501 -0.00000000000E+00  0.00000000000E+00  0.38561442379E+02  0.38561442379E+02  0.00000000000E+00 0.  1.
          1   -1    0    0  501    0  0.00000000000E+00 -0.00000000000E+00 -0.46055389722E+03  0.46055389722E+03  0.00000000000E+00 0. -1.
         23    2    1    2    0    0  0.77832679964E+02 -0.65406630800E+01 -0.18017910618E+03  0.21592442696E+03  0.89767151635E+02 0.  0.
          5    1    1    2  502    0 -0.84629119055E+01  0.56696877080E+02 -0.65705138037E+02  0.87323604558E+02  0.47000000000E+01 0.  1.
         -5    1    1    2    0  502 -0.69369768059E+02 -0.50156214000E+02 -0.17610821063E+03  0.19586730808E+03  0.47000000000E+01 0.  1.
        -11    1    3    3    0    0  0.28380609510E+02 -0.46446683099E+02 -0.69221234331E+02  0.88058688665E+02  0.00000000000E+00 0.  1.
         11    1    3    3    0    0  0.49452070454E+02  0.39906020019E+02 -0.11095787184E+03  0.12786573830E+03  0.00000000000E+00 0. -1.
<mgrwt>
<rscale>  0 0.13970965E+03</rscale>
<asrwt>0</asrwt>
<pdfrwt beam="2">  1        1 0.70854450E-01 0.14738859E+03</pdfrwt>
<pdfrwt beam="1">  1       -1 0.59325293E-02 0.14738859E+03</pdfrwt>
<totfact> 0.65942336E+03</totfact>
</mgrwt>
</event>
<event>
 7    1  0.1020736E-005  0.1296900E+03  0.7546771E-02  0.1241924E+00
          3   -1    0    0  501    0  0.00000000000E+00  0.00000000000E+00  0.91385682232E+03  0.91385682232E+03  0.00000000000E+00 0. -1.
         -3   -1    0    0    0  501 -0.00000000000E+00 -0.00000000000E+00 -0.15282476994E+02  0.15282476994E+02  0.00000000000E+00 0.  1.
         23    2    1    2    0    0  0.19932767730E+02  0.28200464720E+02  0.26226103236E+03  0.27974409963E+03  0.91012805383E+02 0.  0.
          5    1    1    2  502    0 -0.11963482292E+02 -0.43080529022E+02  0.62867567007E+03  0.63028108414E+03  0.47000000000E+01 0. -1.
         -5    1    1    2    0  502 -0.79692854375E+01  0.14880064302E+02  0.76376428987E+01  0.19114115545E+02  0.47000000000E+01 0. -1.
        -11    1    3    3    0    0  0.51025330427E+02 -0.56644577298E+01  0.13478453344E+03  0.14423085967E+03  0.00000000000E+00 0.  1.
         11    1    3    3    0    0 -0.31092562698E+02  0.33864922450E+02  0.12747649892E+03  0.13551323996E+03  0.00000000000E+00 0. -1.
<mgrwt>
<rscale>  0 0.12071395E+03</rscale>
<asrwt>0</asrwt>
<pdfrwt beam="1">  1        3 0.14059331E+00 0.12968999E+03</pdfrwt>
<pdfrwt beam="2">  1       -3 0.23511510E-02 0.12968999E+03</pdfrwt>
<totfact> 0.69183861E+02</totfact>
</mgrwt>
</event>
<event>
 7    1  0.1020736E-005  0.1406218E+03  0.7546771E-02  0.1222798E+00
         -2   -1    0    0    0  501 -0.00000000000E+00  0.00000000000E+00  0.20698576792E+03  0.20698576792E+03  0.00000000000E+00 0. -1.
          2   -1    0    0  501    0  0.00000000000E+00 -0.00000000000E+00 -0.83465592657E+02  0.83465592657E+02  0.00000000000E+00 0.  1.
         23    2    1    2    0    0  0.60346923308E+02  0.22516756109E+02  0.93181401160E+02  0.14659406874E+03  0.93049943626E+02 0.  0.
          5    1    1    2  502    0 -0.54591790292E+01  0.48177849520E+02  0.23181246142E+02  0.53947826580E+02  0.47000000000E+01 0. -1.
         -5    1    1    2    0  502 -0.54887744279E+02 -0.70694605628E+02  0.71575279628E+01  0.89909465261E+02  0.47000000000E+01 0. -1.
        -11    1    3    3    0    0  0.61575686148E+02  0.55523687133E+00  0.12325376455E+02  0.62799588512E+02  0.00000000000E+00 0.  1.
         11    1    3    3    0    0 -0.12287628397E+01  0.21961519237E+02  0.80856024704E+02  0.83794480226E+02  0.00000000000E+00 0. -1.
<mgrwt>
<rscale>  0 0.13318966E+03</rscale>
<asrwt>0</asrwt>
<pdfrwt beam="2">  1        2 0.12840860E-01 0.14062176E+03</pdfrwt>
<pdfrwt beam="1">  1       -2 0.31843964E-01 0.14062176E+03</pdfrwt>
<totfact> 0.41264795E+03</totfact>
</mgrwt>
</event>
<event>
 7    1  0.1020736E-005  0.1470092E+03  0.7546771E-02  0.1214290E+00
          1   -1    0    0  501    0  0.00000000000E+00  0.00000000000E+00  0.88287648389E+03  0.88287648389E+03  0.00000000000E+00 0. -1.
         -1   -1    0    0    0  501 -0.00000000000E+00 -0.00000000000E+00 -0.25893914768E+02  0.25893914768E+02  0.00000000000E+00 0.  1.
         23    2    1    2    0    0  0.66689223243E+02 -0.39239902236E+02  0.17640408166E+03  0.21249547535E+03  0.89714572912E+02 0.  0.
          5    1    1    2  502    0 -0.49978500078E+02 -0.40946988143E+02  0.28310289537E+03  0.29042011927E+03  0.47000000000E+01 0. -1.
         -5    1    1    2    0  502 -0.16710723165E+02  0.80186890379E+02  0.39747559209E+03  0.40585480405E+03  0.47000000000E+01 0. -1.
        -11    1    3    3    0    0 -0.20588385957E+02 -0.87401775703E+01  0.16523908497E+02  0.27808485976E+02  0.00000000000E+00 0. -1.
         11    1    3    3    0    0  0.87277609200E+02 -0.30499724666E+02  0.15988017317E+03  0.18468698937E+03  0.00000000000E+00 0.  1.
<mgrwt>
<rscale>  0 0.13928791E+03</rscale>
<asrwt>0</asrwt>
<pdfrwt beam="1">  1        1 0.13582713E+00 0.14700915E+03</pdfrwt>
<pdfrwt beam="2">  1       -1 0.39836799E-02 0.14700915E+03</pdfrwt>
<totfact> 0.47668477E+03</totfact>
</mgrwt>
</event>
<event>
 7    1  0.1020736E-005  0.2061989E+03  0.7546771E-02  0.1154109E+00
         -1   -1    0    0    0  501 -0.00000000000E+00  0.00000000000E+00  0.75948076755E+02  0.75948076755E+02  0.00000000000E+00 0.  1.
          1   -1    0    0  501    0  0.00000000000E+00 -0.00000000000E+00 -0.46596403424E+03  0.46596403424E+03  0.00000000000E+00 0. -1.
         23    2    1    2    0    0  0.40143942335E+02 -0.13031640415E+03 -0.21936321136E+03  0.27425495585E+03  0.92204452228E+02 0.  0.
          5    1    1    2  502    0 -0.28643035605E+02 -0.25431172895E+02 -0.75310165319E+02  0.84621977310E+02  0.47000000000E+01 0. -1.
         -5    1    1    2    0  502 -0.11500906730E+02  0.15574757705E+03 -0.95342580804E+02  0.18303517784E+03  0.47000000000E+01 0.  1.
        -11    1    3    3    0    0  0.12534318463E+02 -0.13259521446E+03 -0.20062636101E+03  0.24081016749E+03  0.00000000000E+00 0. -1.
         11    1    3    3    0    0  0.27609623872E+02  0.22788103117E+01 -0.18736850356E+02  0.33444788354E+02  0.00000000000E+00 0.  1.
<mgrwt>
<rscale>  0 0.19490683E+03</rscale>
<asrwt>0</asrwt>
<pdfrwt beam="2">  1        1 0.71686774E-01 0.20619892E+03</pdfrwt>
<pdfrwt beam="1">  1       -1 0.11684320E-01 0.20619892E+03</pdfrwt>
<totfact> 0.23479042E+03</totfact>
</mgrwt>
</event>
<event>
 7    1  0.1020736E-005  0.1133687E+03  0.7546771E-02  0.1263647E+00
          2   -1    0    0  501    0  0.00000000000E+00  0.00000000000E+00  0.10209302133E+04  0.10209302133E+04  0.00000000000E+00 0. -1.
         -2   -1    0    0    0  501 -0.00000000000E+00 -0.00000000000E+00 -0.12411693249E+02  0.12411693249E+02  0.00000000000E+00 0.  1.
         23    2    1    2    0    0 -0.56446715710E+01 -0.21795119201E+02  0.26827642814E+03  0.28446887703E+03  0.91888032746E+02 0.  0.
          5    1    1    2  502    0  0.16766777187E+02 -0.34259692307E+02  0.51552849580E+03  0.51695896483E+03  0.47000000000E+01 0. -1.
         -5    1    1    2    0  502 -0.11122105616E+02  0.56054811508E+02  0.22471359606E+03  0.23191406465E+03  0.47000000000E+01 0.  1.
        -11    1    3    3    0    0  0.35329877928E+02  0.15307168695E+02  0.12902256559E+03  0.13464520830E+03  0.00000000000E+00 0. -1.
         11    1    3    3    0    0 -0.40974549499E+02 -0.37102287896E+02  0.13925386255E+03  0.14982366872E+03  0.00000000000E+00 0.  1.
<mgrwt>
<rscale>  0 0.10835515E+03</rscale>
<asrwt>0</asrwt>
<pdfrwt beam="1">  1        2 0.15706612E+00 0.11336869E+03</pdfrwt>
<pdfrwt beam="2">  1       -2 0.19094921E-02 0.11336869E+03</pdfrwt>
<totfact> 0.19858387E+04</totfact>
</mgrwt>
</event>
<event>
 7    1  0.1020736E-005  0.2422635E+03  0.7546771E-02  0.1121001E+00
          4   -1    0    0  501    0  0.00000000000E+00  0.00000000000E+00  0.57767670046E+03  0.57767670046E+03  0.00000000000E+00 0. -1.
         -4   -1    0    0    0  501 -0.00000000000E+00 -0.00000000000E+00 -0.11751169791E+03  0.11751169791E+03  0.00000000000E+00 0.  1.
         23    2    1    2    0    0  0.52518890770E+02  0.20076869442E+03  0.71899067611E+02  0.23754001538E+03  0.90495748188E+02 0.  0.
          5    1    1    2  502    0 -0.27986922894E+02 -0.16073775770E+03  0.17532743105E+03  0.23954476133E+03  0.47000000000E+01 0.  1.
         -5    1    1    2    0  502 -0.24531967876E+02 -0.40030936720E+02  0.21293850389E+03  0.21810362167E+03  0.47000000000E+01 0.  1.
        -11    1    3    3    0    0  0.64125892420E+02  0.20256905400E+03  0.59921902180E+02  0.22076454896E+03  0.00000000000E+00 0.  1.
         11    1    3    3    0    0 -0.11607001650E+02 -0.18003595840E+01  0.11977165431E+02  0.16775466423E+02  0.00000000000E+00 0. -1.
<mgrwt>
<rscale>  0 0.23819567E+03</rscale>
<asrwt>0</asrwt>
<pdfrwt beam="1">  1        4 0.88873337E-01 0.24226351E+03</pdfrwt>
<pdfrwt beam="2">  1       -4 0.18078723E-01 0.24226351E+03</pdfrwt>
<totfact> 0.55135524E+01</totfact>
</mgrwt>
</event>
<event>
 7    1  0.1020736E-005  0.1453311E+03  0.7546771E-02  0.1215482E+00
          1   -1    0    0  501    0  0.00000000000E+00  0.00000000000E+00  0.10576618237E+03  0.10576618237E+03  0.00000000000E+00 0. -1.
         -1   -1    0    0    0  501 -0.00000000000E+00 -0.00000000000E+00 -0.18479626962E+03  0.18479626962E+03  0.00000000000E+00 0.  1.
         23    2    1    2    0    0 -0.73307260808E+02  0.11433826989E+02 -0.82367776889E+02  0.14519307590E+03  0.93765088028E+02 0.  0.
          5    1    1    2  502    0  0.91652362551E+02  0.61896898764E+01  0.40161623491E+02  0.10036689605E+03  0.47000000000E+01 0. -1.
         -5    1    1    2    0  502 -0.18345101743E+02 -0.17623516865E+02 -0.36823933854E+02  0.45002480033E+02  0.47000000000E+01 0. -1.
        -11    1    3    3    0    0 -0.84833024097E+02  0.19224457576E+02 -0.93256669785E+02  0.12752657843E+03  0.00000000000E+00 0.  1.
         11    1    3    3    0    0  0.11525763290E+02 -0.77906305869E+01  0.10888892896E+02  0.17666497470E+02  0.00000000000E+00 0. -1.
<mgrwt>
<rscale>  0 0.13841171E+03</rscale>
<asrwt>0</asrwt>
<pdfrwt beam="1">  1        1 0.16271721E-01 0.14533105E+03</pdfrwt>
<pdfrwt beam="2">  1       -1 0.28430195E-01 0.14533105E+03</pdfrwt>
<totfact> 0.36169334E+03</totfact>
</mgrwt>
</event>
<event>
 7    1  0.1020736E-005  0.1438198E+03  0.7546771E-02  0.1219329E+00
          2   -1    0    0  501    0  0.00000000000E+00  0.00000000000E+00  0.88088056099E+03  0.88088056099E+03  0.00000000000E+00 0. -1.
         -2   -1    0    0    0  501 -0.00000000000E+00 -0.00000000000E+00 -0.21701398963E+02  0.21701398963E+02  0.00000000000E+00 0.  1.
         23    2    1    2    0    0 -0.64535913496E+02  0.29897175073E+02  0.22292613410E+03  0.25027678185E+03  0.88790095501E+02 0.  0.
          5    1    1    2  502    0 -0.16490774207E+01 -0.32409810503E+02  0.37221476989E+02  0.49604874987E+02  0.47000000000E+01 0.  1.
         -5    1    1    2    0  502  0.66184990917E+02  0.25126354306E+01  0.59903155093E+03  0.60270030311E+03  0.47000000000E+01 0.  1.
        -11    1    3    3    0    0 -0.45228004377E+02  0.50721036158E+02  0.81913561640E+02  0.10643320661E+03  0.00000000000E+00 0.  1.
         11    1    3    3    0    0 -0.19307909119E+02 -0.20823861086E+02  0.14101257246E+03  0.14384357524E+03  0.00000000000E+00 0. -1.
<mgrwt>
<rscale>  0 0.13563315E+03</rscale>
<asrwt>0</asrwt>
<pdfrwt beam="1">  1        2 0.13552006E+00 0.14381978E+03</pdfrwt>
<pdfrwt beam="2">  1       -2 0.33386774E-02 0.14381978E+03</pdfrwt>
<totfact> 0.10875015E+04</totfact>
</mgrwt>
</event>
<event>
 7    1  0.1020736E-005  0.1478835E+03  0.7546771E-02  0.1213532E+00
          3   -1    0    0  501    0  0.00000000000E+00  0.00000000000E+00  0.18763338292E+03  0.18763338292E+03  0.00000000000E+00 0. -1.
         -3   -1    0    0    0  501 -0.00000000000E+00 -0.00000000000E+00 -0.11262643271E+03  0.11262643271E+03  0.00000000000E+00 0.  1.
         23    2    1    2    0    0 -0.77643671415E+02  0.14722590212E+02 -0.26101067462E+02  0.12111639019E+03  0.87992158040E+02 0.  0.
          5    1    1    2  502    0  0.41602116427E+02  0.26635445894E+02 -0.13988316271E+02  0.51555271905E+02  0.47000000000E+01 0. -1.
         -5    1    1    2    0  502  0.36041554988E+02 -0.41358036106E+02  0.11509633394E+03  0.12758815353E+03  0.47000000000E+01 0. -1.
        -11    1    3    3    0    0 -0.64155660797E+02  0.48966668843E+02 -0.11505875437E+02  0.81523423870E+02  0.00000000000E+00 0. -1.
         11    1    3    3    0    0 -0.13488010618E+02 -0.34244078631E+02 -0.14595192024E+02  0.39592966319E+02  0.00000000000E+00 0.  1.
<mgrwt>
<rscale>  0 0.13984887E+03</rscale>
<asrwt>0</asrwt>
<pdfrwt beam="1">  1        3 0.28866674E-01 0.14788352E+03</pdfrwt>
<pdfrwt beam="2">  1       -3 0.17327143E-01 0.14788352E+03</pdfrwt>
<totfact> 0.78011874E+02</totfact>
</mgrwt>
</event>
<event>
 7    1  0.1020736E-005  0.2298023E+03  0.7546771E-02  0.1129568E+00
         -2   -1    0    0    0  501 -0.00000000000E+00  0.00000000000E+00  0.33925966675E+02  0.33925966675E+02  0.00000000000E+00 0.  1.
          2   -1    0    0  501    0  0.00000000000E+00 -0.00000000000E+00 -0.19638348550E+04  0.19638348550E+04  0.00000000000E+00 0. -1.
         23    2    1    2    0    0  0.14649052369E+03 -0.12539653422E+03 -0.43213208961E+03  0.48245741310E+03  0.94038546652E+02 0.  0.
          5    1    1    2  502    0 -0.93395251274E+02  0.91488783749E+01 -0.83763693437E+03  0.84289032427E+03  0.47000000000E+01 0. -1.
         -5    1    1    2    0  502 -0.53095272420E+02  0.11624765585E+03 -0.66013986437E+03  0.67241308433E+03  0.47000000000E+01 0. -1.
        -11    1    3    3    0    0  0.39627300261E+02 -0.22313407387E+02 -0.21272708974E+03  0.21753396467E+03  0.00000000000E+00 0. -1.
         11    1    3    3    0    0  0.10686322343E+03 -0.10308312683E+03 -0.21940499987E+03  0.26492344843E+03  0.00000000000E+00 0.  1.
<mgrwt>
<rscale>  0 0.22588757E+03</rscale>
<asrwt>0</asrwt>
<pdfrwt beam="2">  1        2 0.30212853E+00 0.22980227E+03</pdfrwt>
<pdfrwt beam="1">  1       -2 0.52193780E-02 0.22980227E+03</pdfrwt>
<totfact> 0.14285944E+03</totfact>
</mgrwt>
</event>
<event>
 7    1  0.1020736E-005  0.1710583E+03  0.7546771E-02  0.1182866E+00
         -1   -1    0    0    0  501 -0.00000000000E+00  0.00000000000E+00  0.34574728210E+02  0.34574728210E+02  0.00000000000E+00 0.  1.
          1   -1    0    0  501    0  0.00000000000E+00 -0.00000000000E+00 -0.75423398544E+03  0.75423398544E+03  0.00000000000E+00 0. -1.
         23    2    1    2    0    0 -0.11460338731E+03 -0.22439734963E+02 -0.28350882417E+03  0.32031308302E+03  0.92659266585E+02 0.  0.
          5    1    1    2  502    0  0.40919005279E+01 -0.14201130513E+02  0.15173126036E+01  0.15582297498E+02  0.47000000000E+01 0.  1.
         -5    1    1    2    0  502  0.11051148678E+03  0.36640865475E+02 -0.43766774566E+03  0.45291333313E+03  0.47000000000E+01 0.  1.
        -11    1    3    3    0    0 -0.38081055193E+02  0.28331976802E+02 -0.47872072696E+02  0.67413670856E+02  0.00000000000E+00 0.  1.
         11    1    3    3    0    0 -0.76522332119E+02 -0.50771711765E+02 -0.23563675148E+03  0.25289941217E+03  0.00000000000E+00 0. -1.
<mgrwt>
<rscale>  0 0.16527572E+03</rscale>
<asrwt>0</asrwt>
<pdfrwt beam="2">  1        1 0.11603599E+00 0.17105834E+03</pdfrwt>
<pdfrwt beam="1">  1       -1 0.53191894E-02 0.17105834E+03</pdfrwt>
<totfact> 0.39753656E+03</totfact>
</mgrwt>
</event>
<event>
 7    1  0.1020736E-005  0.1876402E+03  0.7546771E-02  0.1165385E+00
          1   -1    0    0  501    0  0.00000000000E+00  0.00000000000E+00  0.46390206196E+03  0.46390206196E+03  0.00000000000E+00 0. -1.
         -1   -1    0    0    0  501 -0.00000000000E+00 -0.00000000000E+00 -0.79304831546E+02  0.79304831546E+02  0.00000000000E+00 0.  1.
         23    2    1    2    0    0  0.13886556445E+03  0.17328967532E+02  0.81466354578E+02  0.18670001013E+03  0.92931096777E+02 0.  0.
          5    1    1    2  502    0 -0.37761271565E+02 -0.43862864885E+02  0.20496883171E+03  0.21303562266E+03  0.47000000000E+01 0.  1.
         -5    1    1    2    0  502 -0.10110429288E+03  0.26533897353E+02  0.98162044119E+02  0.14347126072E+03  0.47000000000E+01 0.  1.
        -11    1    3    3    0    0  0.12463652893E+03 -0.17697826215E+02  0.79404203963E+02  0.14883717614E+03  0.00000000000E+00 0.  1.
         11    1    3    3    0    0  0.14229035519E+02  0.35026793747E+02  0.20621506152E+01  0.37862833982E+02  0.00000000000E+00 0. -1.
<mgrwt>
<rscale>  0 0.18252158E+03</rscale>
<asrwt>0</asrwt>
<pdfrwt beam="1">  1        1 0.71369546E-01 0.18764016E+03</pdfrwt>
<pdfrwt beam="2">  1       -1 0.12200744E-01 0.18764016E+03</pdfrwt>
<totfact> 0.22023384E+03</totfact>
</mgrwt>
</event>
<event>
 7    1  0.1020736E-005  0.1546135E+03  0.7546771E-02  0.1202824E+00
         -2   -1    0    0    0  501 -0.00000000000E+00  0.00000000000E+00  0.97241634121E+03  0.97241634121E+03  0.00000000000E+00 0. -1.
          2   -1    0    0  501    0  0.00000000000E+00 -0.00000000000E+00 -0.24473256586E+02  0.24473256586E+02  0.00000000000E+00 0.  1.
         23    2    1    2    0    0  0.31207590039E+01 -0.90950633858E+02  0.63048277847E+03  0.64378000637E+03  0.93072045837E+02 0.  0.
          5    1    1    2  502    0  0.42191936358E+02  0.23978362761E+02  0.37053262192E+02  0.61238514134E+02  0.47000000000E+01 0. -1.
         -5    1    1    2    0  502 -0.45312695362E+02  0.66972271098E+02  0.28040704396E+03  0.29187107729E+03  0.47000000000E+01 0. -1.
        -11    1    3    3    0    0  0.78258063888E+01  0.17376779696E+02  0.55996706060E+02  0.59150881717E+02  0.00000000000E+00 0.  1.
         11    1    3    3    0    0 -0.47050473850E+01 -0.10832741355E+03  0.57448607241E+03  0.58462912466E+03  0.00000000000E+00 0. -1.
<mgrwt>
<rscale>  0 0.14810274E+03</rscale>
<asrwt>0</asrwt>
<pdfrwt beam="2">  1        2 0.37651172E-02 0.15461351E+03</pdfrwt>
<pdfrwt beam="1">  1       -2 0.14960248E+00 0.15461351E+03</pdfrwt>
<totfact> 0.71911401E+02</totfact>
</mgrwt>
</event>
<event>
 7    1  0.1020736E-005  0.1392540E+03  0.7546771E-02  0.1227956E+00
         -4   -1    0    0    0  501 -0.00000000000E+00  0.00000000000E+00  0.22052280298E+03  0.22052280298E+03  0.00000000000E+00 0.  1.
          4   -1    0    0  501    0  0.00000000000E+00 -0.00000000000E+00 -0.67978511558E+02  0.67978511558E+02  0.00000000000E+00 0. -1.
         23    2    1    2    0    0  0.58500708644E+02  0.18500902691E+02  0.78068073403E+02  0.13058243272E+03  0.84808792804E+02 0.  0.
          5    1    1    2  502    0 -0.49044523179E+02 -0.26521437918E+02  0.10812855027E+03  0.12174820454E+03  0.47000000000E+01 0. -1.
         -5    1    1    2    0  502 -0.94561854656E+01  0.80205352270E+01 -0.33652332257E+02  0.36170677285E+02  0.47000000000E+01 0. -1.
        -11    1    3    3    0    0  0.31632175563E+02  0.41663316821E+02  0.91984173935E+01  0.53113438808E+02  0.00000000000E+00 0. -1.
         11    1    3    3    0    0  0.26868533081E+02 -0.23162414130E+02  0.68869656009E+02  0.77468993908E+02  0.00000000000E+00 0.  1.
<mgrwt>
<rscale>  0 0.12966354E+03</rscale>
<asrwt>0</asrwt>
<pdfrwt beam="2">  1        4 0.10458233E-01 0.13925396E+03</pdfrwt>
<pdfrwt beam="1">  1       -4 0.33926585E-01 0.13925396E+03</pdfrwt>
<totfact> 0.98027673E+02</totfact>
</mgrwt>
</event>
<event>
 7    1  0.1020736E-005  0.1808256E+03  0.7546771E-02  0.1174997E+00
          1   -1    0    0  501    0  0.00000000000E+00  0.00000000000E+00  0.31354010777E+03  0.31354010777E+03  0.00000000000E+00 0. -1.
         -1   -1    0    0    0  501 -0.00000000000E+00 -0.00000000000E+00 -0.13174232180E+03  0.13174232180E+03  0.00000000000E+00 0.  1.
         23    2    1    2    0    0 -0.61417884131E+02  0.98315514799E+02 -0.43095691093E+02  0.15670838220E+03  0.96240228185E+02 0.  0.
          5    1    1    2  502    0  0.73712173988E+02 -0.10734116947E+03  0.23568756168E+03  0.26930712576E+03  0.47000000000E+01 0. -1.
         -5    1    1    2    0  502 -0.12294289857E+02  0.90256546686E+01 -0.10794084613E+02  0.19266921600E+02  0.47000000000E+01 0.  1.
        -11    1    3    3    0    0 -0.89513258139E+01  0.42886340929E+02  0.28333982606E+02  0.52174505675E+02  0.00000000000E+00 0. -1.
         11    1    3    3    0    0 -0.52466558317E+02  0.55429173871E+02 -0.71429673700E+02  0.10453387653E+03  0.00000000000E+00 0.  1.
<mgrwt>
<rscale>  0 0.17276226E+03</rscale>
<asrwt>0</asrwt>
<pdfrwt beam="1">  1        1 0.48236939E-01 0.18082562E+03</pdfrwt>
<pdfrwt beam="2">  1       -1 0.20268050E-01 0.18082562E+03</pdfrwt>
<totfact> 0.16184460E+03</totfact>
</mgrwt>
</event>
<event>
 7    1  0.1020736E-005  0.2258618E+03  0.7546771E-02  0.1129587E+00
         -1   -1    0    0    0  501 -0.00000000000E+00  0.00000000000E+00  0.18198592240E+03  0.18198592240E+03  0.00000000000E+00 0.  1.
          1   -1    0    0  501    0  0.00000000000E+00 -0.00000000000E+00 -0.70078968862E+02  0.70078968862E+02  0.00000000000E+00 0. -1.
         23    2    1    2    0    0  0.20925451130E+02  0.18400741048E+02  0.67999699466E+02  0.11668604780E+03  0.90637811351E+02 0.  0.
          5    1    1    2  502    0 -0.37007806745E+02 -0.66696182933E+02  0.20291860802E+02  0.79068376692E+02  0.47000000000E+01 0.  1.
         -5    1    1    2    0  502  0.16082355615E+02  0.48295441885E+02  0.23615393269E+02  0.56310466774E+02  0.47000000000E+01 0.  1.
        -11    1    3    3    0    0 -0.14883268879E+02  0.21871808717E+02  0.75443439860E+02  0.79947484807E+02  0.00000000000E+00 0.  1.
         11    1    3    3    0    0  0.35808720009E+02 -0.34710676691E+01 -0.74437403940E+01  0.36738562989E+02  0.00000000000E+00 0. -1.
<mgrwt>
<rscale>  0 0.22586178E+03</rscale>
<asrwt>0</asrwt>
<pdfrwt beam="2">  1        1 0.10781380E-01 0.22586178E+03</pdfrwt>
<pdfrwt beam="1">  1       -1 0.27997834E-01 0.22586178E+03</pdfrwt>
<totfact> 0.65382757E+03</totfact>
</mgrwt>
</event>
<event>
 7    1  0.1020736E-005  0.1314431E+03  0.7546771E-02  0.1237516E+00
          2   -1    0    0  501    0  0.00000000000E+00  0.00000000000E+00  0.55187728889E+03  0.55187728889E+03  0.00000000000E+00 0. -1.
         -2   -1    0    0    0  501 -0.00000000000E+00 -0.00000000000E+00 -0.25770634556E+02  0.25770634556E+02  0.00000000000E+00 0.  1.
         23    2    1    2    0    0 -0.21670668814E+02 -0.34370198624E+02  0.17424734054E+03  0.20203871751E+03  0.93843376148E+02 0.  0.
          5    1    1    2  502    0 -0.47496086546E+02  0.38298153951E+02  0.14416768354E+03  0.15661748884E+03  0.47000000000E+01 0. -1.
         -5    1    1    2    0  502  0.69166755361E+02 -0.39279553271E+01  0.20769163025E+03  0.21899171709E+03  0.47000000000E+01 0. -1.
        -11    1    3    3    0    0  0.10858923458E+01 -0.45154444869E+02  0.26933958721E+02  0.52588413039E+02  0.00000000000E+00 0.  1.
         11    1    3    3    0    0 -0.22756561160E+02  0.10784246245E+02  0.14731338182E+03  0.14945030447E+03  0.00000000000E+00 0. -1.
<mgrwt>
<rscale>  0 0.12344741E+03</rscale>
<asrwt>0</asrwt>
<pdfrwt beam="1">  1        2 0.84904190E-01 0.13144314E+03</pdfrwt>
<pdfrwt beam="2">  1       -2 0.39647134E-02 0.13144314E+03</pdfrwt>
<totfact> 0.14638961E+04</totfact>
</mgrwt>
</event>
<event>
 7    1  0.1020736E-005  0.2217760E+03  0.7546771E-02  0.1135714E+00
         -2   -1    0    0    0  501 -0.00000000000E+00  0.00000000000E+00  0.32453225527E+02  0.32453225527E+02  0.00000000000E+00 0.  1.
          2   -1    0    0  501    0  0.00000000000E+00 -0.00000000000E+00 -0.16211093674E+04  0.16211093674E+04  0.00000000000E+00 0. -1.
         23    2    1    2    0    0 -0.15568850536E+02  0.18253383658E+03 -0.46669467244E+03  0.50989212946E+03  0.92871286172E+02 0.  0.
          5    1    1    2  502    0  0.23281125290E+02 -0.96270617307E+02 -0.27594750340E+03  0.29322202711E+03  0.47000000000E+01 0. -1.
         -5    1    1    2    0  502 -0.77122747546E+01 -0.86263219270E+02 -0.84601396600E+03  0.85044843633E+03  0.47000000000E+01 0. -1.
        -11    1    3    3    0    0  0.83276592829E+00  0.18447580055E+03 -0.45028785037E+03  0.48661192204E+03  0.00000000000E+00 0.  1.
         11    1    3    3    0    0 -0.16401616464E+02 -0.19419639694E+01 -0.16406822075E+02  0.23280207415E+02  0.00000000000E+00 0. -1.
<mgrwt>
<rscale>  0 0.21756149E+03</rscale>
<asrwt>0</asrwt>
<pdfrwt beam="2">  1        2 0.24940148E+00 0.22177599E+03</pdfrwt>
<pdfrwt beam="1">  1       -2 0.49928032E-02 0.22177599E+03</pdfrwt>
<totfact> 0.23098216E+03</totfact>
</mgrwt>
</event>
<event>
 7    1  0.1020736E-005  0.1421690E+03  0.7546771E-02  0.1214908E+00
         -2   -1    0    0    0  501 -0.00000000000E+00  0.00000000000E+00  0.14180120923E+03  0.14180120923E+03  0.00000000000E+00 0.  1.
          2   -1    0    0  501    0  0.00000000000E+00 -0.00000000000E+00 -0.18788622896E+03  0.18788622896E+03  0.00000000000E+00 0. -1.
         23    2    1    2    0    0 -0.94175412716E+01 -0.67067876638E+02  0.69207982396E+02  0.14664512588E+03  0.11012837036E+03 0.  0.
          5    1    1    2  502    0  0.28558064735E+02 -0.28603871200E+02 -0.54402419176E+02  0.67937160091E+02  0.47000000000E+01 0. -1.
         -5    1    1    2    0  502 -0.19140523464E+02  0.95671747838E+02 -0.60890582955E+02  0.11510515221E+03  0.47000000000E+01 0. -1.
        -11    1    3    3    0    0  0.10118118762E+02 -0.47498115788E+02  0.96350874536E+02  0.10789781441E+03  0.00000000000E+00 0.  1.
         11    1    3    3    0    0 -0.19535660033E+02 -0.19569760849E+02 -0.27142892139E+02  0.38747311472E+02  0.00000000000E+00 0. -1.
<mgrwt>
<rscale>  0 0.13883278E+03</rscale>
<asrwt>0</asrwt>
<pdfrwt beam="2">  1        2 0.28905574E-01 0.14216895E+03</pdfrwt>
<pdfrwt beam="1">  1       -2 0.21815571E-01 0.14216895E+03</pdfrwt>
<totfact> 0.31938618E+03</totfact>
</mgrwt>
</event>
<event>
 7    1  0.1020736E-005  0.1790462E+03  0.7546771E-02  0.1174225E+00
         -2   -1    0    0    0  501 -0.00000000000E+00  0.00000000000E+00  0.65850725758E+03  0.65850725758E+03  0.00000000000E+00 0.  1.
          2   -1    0    0  501    0  0.00000000000E+00 -0.00000000000E+00 -0.70913938633E+02  0.70913938633E+02  0.00000000000E+00 0. -1.
         23    2    1    2    0    0  0.10529835380E+03 -0.73102247897E+02  0.51069015831E+03  0.53455806996E+03  0.92283315947E+02 0.  0.
          5    1    1    2  502    0 -0.21636898321E+02  0.64394885239E+02 -0.15483595640E+02  0.69833289682E+02  0.47000000000E+01 0. -1.
         -5    1    1    2    0  502 -0.83661455483E+02  0.87073626579E+01  0.92386756282E+02  0.12502983658E+03  0.47000000000E+01 0. -1.
        -11    1    3    3    0    0  0.82236116134E+01 -0.24701845974E+02  0.22338768143E+02  0.34304949274E+02  0.00000000000E+00 0. -1.
         11    1    3    3    0    0  0.97074742191E+02 -0.48400401923E+02  0.48835139016E+03  0.50025312068E+03  0.00000000000E+00 0.  1.
<mgrwt>
<rscale>  0 0.17352141E+03</rscale>
<asrwt>0</asrwt>
<pdfrwt beam="2">  1        2 0.10909837E-01 0.17904620E+03</pdfrwt>
<pdfrwt beam="1">  1       -2 0.10130880E+00 0.17904620E+03</pdfrwt>
<totfact> 0.47509102E+02</totfact>
</mgrwt>
</event>
<event>
 7    1  0.1020736E-005  0.1990420E+03  0.7546771E-02  0.1150550E+00
          3   -1    0    0  501    0  0.00000000000E+00  0.00000000000E+00  0.25730865691E+02  0.25730865691E+02  0.00000000000E+00 0. -1.
         -3   -1    0    0    0  501 -0.00000000000E+00 -0.00000000000E+00 -0.38492396135E+03  0.38492396135E+03  0.00000000000E+00 0.  1.
         23    2    1    2    0    0 -0.28929036405E+01 -0.17699344768E+02 -0.11063898504E+03  0.13185736097E+03  0.69453170811E+02 0.  0.
          5    1    1    2  502    0  0.10147220822E+02  0.54156241785E+02 -0.23080743549E+03  0.23733947605E+03  0.47000000000E+01 0.  1.
         -5    1    1    2    0  502 -0.72543171814E+01 -0.36456897018E+02 -0.17746675126E+02  0.41457990013E+02  0.47000000000E+01 0.  1.
        -11    1    3    3    0    0  0.29171258300E+02  0.23385082353E+01 -0.72356254490E+02  0.78050358714E+02  0.00000000000E+00 0.  1.
         11    1    3    3    0    0 -0.32064161940E+02 -0.20037853003E+02 -0.38282730551E+02  0.53807002261E+02  0.00000000000E+00 0. -1.
<mgrwt>
<rscale>  0 0.19904197E+03</rscale>
<asrwt>0</asrwt>
<pdfrwt beam="1">  1        3 0.39585950E-02 0.19904197E+03</pdfrwt>
<pdfrwt beam="2">  1       -3 0.59219066E-01 0.19904197E+03</pdfrwt>
<totfact> 0.22796900E+03</totfact>
</mgrwt>
</event>
<event>
 7    1  0.1020736E-005  0.1798627E+03  0.7546771E-02  0.1173350E+00
         -2   -1    0    0    0  501 -0.00000000000E+00  0.00000000000E+00  0.21762758596E+03  0.21762758596E+03  0.00000000000E+00 0.  1.
          2   -1    0    0  501    0  0.00000000000E+00 -0.00000000000E+00 -0.15543035853E+03  0.15543035853E+03  0.00000000000E+00 0. -1.
         23    2    1    2    0    0 -0.80043747852E+01  0.12908090124E+03  0.10199089668E+03  0.18884580631E+03  0.92383150382E+02 0.  0.
          5    1    1    2  502    0 -0.49281995810E+02 -0.14439380628E+02 -0.13388554788E+02  0.53278083892E+02  0.47000000000E+01 0.  1.
         -5    1    1    2    0  502  0.57286370595E+02 -0.11464152061E+03 -0.26405114467E+02  0.13093405429E+03  0.47000000000E+01 0.  1.
        -11    1    3    3    0    0  0.41478796678E+02  0.73213433221E+02  0.49842302145E+02  0.97800574952E+02  0.00000000000E+00 0.  1.
         11    1    3    3    0    0 -0.49483171463E+02  0.55867468014E+02  0.52148594537E+02  0.91045231356E+02  0.00000000000E+00 0. -1.
<mgrwt>
<rscale>  0 0.17438583E+03</rscale>
<asrwt>0</asrwt>
<pdfrwt beam="2">  1        2 0.23912363E-01 0.17986266E+03</pdfrwt>
<pdfrwt beam="1">  1       -2 0.33481167E-01 0.17986266E+03</pdfrwt>
<totfact> 0.18587914E+03</totfact>
</mgrwt>
</event>
<event>
 7    1  0.1020736E-005  0.1279302E+03  0.7546771E-02  0.1244514E+00
         -2   -1    0    0    0  501 -0.00000000000E+00  0.00000000000E+00  0.14113363670E+03  0.14113363670E+03  0.00000000000E+00 0.  1.
          2   -1    0    0  501    0  0.00000000000E+00 -0.00000000000E+00 -0.10611316697E+03  0.10611316697E+03  0.00000000000E+00 0. -1.
         23    2    1    2    0    0  0.86118994034E+01 -0.25842908392E+02  0.64631499196E+02  0.11593438976E+03  0.92312140673E+02 0.  0.
          5    1    1    2  502    0  0.87129184873E+01 -0.28260847937E+02  0.34394058905E+02  0.45602979756E+02  0.47000000000E+01 0. -1.
         -5    1    1    2    0  502 -0.17324817891E+02  0.54103756329E+02 -0.64005088370E+02  0.85709434143E+02  0.47000000000E+01 0. -1.
        -11    1    3    3    0    0  0.21476699352E+02 -0.50838577752E+02  0.68048873844E+02  0.87615402952E+02  0.00000000000E+00 0.  1.
         11    1    3    3    0    0 -0.12864799949E+02  0.24995669360E+02 -0.34173746481E+01  0.28318986810E+02  0.00000000000E+00 0. -1.
<mgrwt>
<rscale>  0 0.11914533E+03</rscale>
<asrwt>0</asrwt>
<pdfrwt beam="2">  1        2 0.16325103E-01 0.12793020E+03</pdfrwt>
<pdfrwt beam="1">  1       -2 0.21712867E-01 0.12793020E+03</pdfrwt>
<totfact> 0.60692394E+03</totfact>
</mgrwt>
</event>
<event>
 7    1  0.1020736E-005  0.1707502E+03  0.7546771E-02  0.1181562E+00
         -1   -1    0    0    0  501 -0.00000000000E+00  0.00000000000E+00  0.66897555409E+02  0.66897555409E+02  0.00000000000E+00 0.  1.
          1   -1    0    0  501    0  0.00000000000E+00 -0.00000000000E+00 -0.39602863374E+03  0.39602863374E+03  0.00000000000E+00 0. -1.
         23    2    1    2    0    0 -0.11577887194E+03 -0.11287855453E+02 -0.14398945798E+03  0.21106697572E+03  0.10141075565E+03 0.  0.
          5    1    1    2  502    0  0.12560415577E+03 -0.13106234735E+02 -0.18630153323E+03  0.22511892106E+03  0.47000000000E+01 0. -1.
         -5    1    1    2    0  502 -0.98252838318E+01  0.24394090188E+02  0.11599128766E+01  0.26740292376E+02  0.47000000000E+01 0. -1.
        -11    1    3    3    0    0 -0.11881784814E+03 -0.37694501208E+02 -0.13305632222E+03  0.18232537218E+03  0.00000000000E+00 0. -1.
         11    1    3    3    0    0  0.30389762032E+01  0.26406645755E+02 -0.10933135764E+02  0.28741603540E+02  0.00000000000E+00 0.  1.
<mgrwt>
<rscale>  0 0.16648698E+03</rscale>
<asrwt>0</asrwt>
<pdfrwt beam="2">  1        1 0.60927482E-01 0.17075024E+03</pdfrwt>
<pdfrwt beam="1">  1       -1 0.10291932E-01 0.17075024E+03</pdfrwt>
<totfact> 0.34995328E+03</totfact>
</mgrwt>
</event>
<event>
 7    1  0.1020736E-005  0.1956862E+03  0.7546771E-02  0.1156888E+00
          1   -1    0    0  501    0  0.00000000000E+00  0.00000000000E+00  0.17398377375E+04  0.17398377375E+04  0.00000000000E+00 0. -1.
         -1   -1    0    0    0  501 -0.00000000000E+00 -0.00000000000E+00 -0.23030296572E+02  0.23030296572E+02  0.00000000000E+00 0.  1.
         23    2    1    2    0    0 -0.86855068940E+02 -0.12299161868E+03  0.52588229170E+03  0.55597293134E+03  0.99413149980E+02 0.  0.
          5    1    1    2  502    0 -0.50702221412E+01 -0.21670124711E+02  0.19444979348E+03  0.19577567173E+03  0.47000000000E+01 0.  1.
         -5    1    1    2    0  502  0.91925291081E+02  0.14466174339E+03  0.99647535579E+03  0.10111194310E+04  0.47000000000E+01 0.  1.
        -11    1    3    3    0    0 -0.28885204683E+02 -0.11859194802E+03  0.34283146866E+03  0.36391183147E+03  0.00000000000E+00 0.  1.
         11    1    3    3    0    0 -0.57969864257E+02 -0.43996706602E+01  0.18305082304E+03  0.19206109986E+03  0.00000000000E+00 0. -1.
<mgrwt>
<rscale>  0 0.19175433E+03</rscale>
<asrwt>0</asrwt>
<pdfrwt beam="1">  1        1 0.26766724E+00 0.19568617E+03</pdfrwt>
<pdfrwt beam="2">  1       -1 0.35431239E-02 0.19568617E+03</pdfrwt>
<totfact> 0.14723064E+03</totfact>
</mgrwt>
</event>
<event>
 7    1  0.1020736E-005  0.1611877E+03  0.7546771E-02  0.1194742E+00
         -2   -1    0    0    0  501 -0.00000000000E+00  0.00000000000E+00  0.33547156141E+03  0.33547156141E+03  0.00000000000E+00 0.  1.
          2   -1    0    0  501    0  0.00000000000E+00 -0.00000000000E+00 -0.66428218686E+02  0.66428218686E+02  0.00000000000E+00 0. -1.
         23    2    1    2    0    0  0.16531051311E+02 -0.10041695500E+03  0.11330626457E+03  0.17776700659E+03  0.91684014597E+02 0.  0.
          5    1    1    2  502    0  0.34997248031E+02  0.26291911609E+02 -0.42198955436E-01  0.44024581390E+02  0.47000000000E+01 0.  1.
         -5    1    1    2    0  502 -0.51528299342E+02  0.74125043390E+02  0.15577927711E+03  0.18010819212E+03  0.47000000000E+01 0.  1.
        -11    1    3    3    0    0 -0.10824004535E+02 -0.84056614600E+02  0.11827822668E+03  0.14550743087E+03  0.00000000000E+00 0.  1.
         11    1    3    3    0    0  0.27355055846E+02 -0.16360340400E+02 -0.49719621108E+01  0.32259575719E+02  0.00000000000E+00 0. -1.
<mgrwt>
<rscale>  0 0.15476083E+03</rscale>
<asrwt>0</asrwt>
<pdfrwt beam="2">  1        2 0.10219726E-01 0.16118766E+03</pdfrwt>
<pdfrwt beam="1">  1       -2 0.51611009E-01 0.16118766E+03</pdfrwt>
<totfact> 0.21877626E+03</totfact>
</mgrwt>
</event>
<event>
 7    1  0.1020736E-005  0.1667730E+03  0.7546771E-02  0.1182523E+00
          3   -1    0    0  501    0  0.00000000000E+00  0.00000000000E+00  0.56747414794E+03  0.56747414794E+03  0.00000000000E+00 0. -1.
         -3   -1    0    0    0  501 -0.00000000000E+00 -0.00000000000E+00 -0.47780581002E+02  0.47780581002E+02  0.00000000000E+00 0.  1.
         23    2    1    2    0    0 -0.69429047744E+02  0.91458348135E+02  0.24008271361E+03  0.28968530706E+03  0.11442397318E+03 0.  0.
          5    1    1    2  502    0 -0.12962446591E+02 -0.97929653925E+00 -0.58037302792E+01  0.14991908768E+02  0.47000000000E+01 0. -1.
         -5    1    1    2    0  502  0.82391494335E+02 -0.90479051596E+02  0.28541458360E+03  0.31057751311E+03  0.47000000000E+01 0.  1.
        -11    1    3    3    0    0  0.26529378970E+02  0.12430777185E+02  0.90861560395E+02  0.95468085386E+02  0.00000000000E+00 0.  1.
         11    1    3    3    0    0 -0.95958426714E+02  0.79027570950E+02  0.14922115322E+03  0.19421722168E+03  0.00000000000E+00 0. -1.
<mgrwt>
<rscale>  0 0.16559339E+03</rscale>
<asrwt>0</asrwt>
<pdfrwt beam="1">  1        3 0.87303710E-01 0.16677296E+03</pdfrwt>
<pdfrwt beam="2">  1       -3 0.73508590E-02 0.16677296E+03</pdfrwt>
<totfact> 0.36050099E+02</totfact>
</mgrwt>
</event>
<event>
 7    1  0.1020736E-005  0.1378814E+03  0.7546771E-02  0.1227574E+00
         -2   -1    0    0    0  501 -0.00000000000E+00  0.00000000000E+00  0.15359032954E+02  0.15359032954E+02  0.00000000000E+00 0.  1.
          2   -1    0    0  501    0  0.00000000000E+00 -0.00000000000E+00 -0.99709784345E+03  0.99709784345E+03  0.00000000000E+00 0. -1.
         23    2    1    2    0    0 -0.52399087149E+02 -0.25301805562E+02 -0.38963628371E+03  0.40451223277E+03  0.91803415913E+02 0.  0.
          5    1    1    2  502    0 -0.25911301928E+02  0.43681011531E+02 -0.14673412628E+03  0.15534613014E+03  0.47000000000E+01 0. -1.
         -5    1    1    2    0  502  0.78310389076E+02 -0.18379205969E+02 -0.44536840050E+03  0.45259851349E+03  0.47000000000E+01 0. -1.
        -11    1    3    3    0    0  0.10286065857E+02 -0.38440318461E+02 -0.95041915338E+02  0.10303604663E+03  0.00000000000E+00 0.  1.
         11    1    3    3    0    0 -0.62685153006E+02  0.13138512899E+02 -0.29459436837E+03  0.30147618613E+03  0.00000000000E+00 0. -1.
<mgrwt>
<rscale>  0 0.12992048E+03</rscale>
<asrwt>0</asrwt>
<pdfrwt beam="2">  1        2 0.15339971E+00 0.13788143E+03</pdfrwt>
<pdfrwt beam="1">  1       -2 0.23629275E-02 0.13788143E+03</pdfrwt>
<totfact> 0.15270498E+04</totfact>
</mgrwt>
</event>
<event>
 7    1  0.1020736E-005  0.2489402E+03  0.7546771E-02  0.1116327E+00
         -1   -1    0    0    0  501 -0.00000000000E+00  0.00000000000E+00  0.21852070196E+03  0.21852070196E+03  0.00000000000E+00 0.  1.
          1   -1    0    0  501    0  0.00000000000E+00 -0.00000000000E+00 -0.41214452875E+03  0.41214452875E+03  0.00000000000E+00 0. -1.
         23    2    1    2    0    0  0.10482869195E+03 -0.18803090358E+03  0.91805869792E+02  0.25192873927E+03  0.93247501756E+02 0.  0.
          5    1    1    2  502    0  0.15426557646E-01  0.80205101444E+02 -0.37370563645E+02  0.88608732994E+02  0.47000000000E+01 0.  1.
         -5    1    1    2    0  502 -0.10484411850E+03  0.10782580213E+03 -0.24805913294E+03  0.29012775845E+03  0.47000000000E+01 0.  1.
        -11    1    3    3    0    0  0.78971868437E+02 -0.19140685854E+03  0.72130246413E+02  0.21926220365E+03  0.00000000000E+00 0.  1.
         11    1    3    3    0    0  0.25856823509E+02  0.33759549621E+01  0.19675623379E+02  0.32666535618E+02  0.00000000000E+00 0. -1.
<mgrwt>
<rscale>  0 0.24527644E+03</rscale>
<asrwt>0</asrwt>
<pdfrwt beam="2">  1        1 0.63406850E-01 0.24894019E+03</pdfrwt>
<pdfrwt beam="1">  1       -1 0.33618570E-01 0.24894019E+03</pdfrwt>
<totfact> 0.49212294E+02</totfact>
</mgrwt>
</event>
<event>
 7    1  0.1020736E-005  0.1251826E+03  0.7546771E-02  0.1251218E+00
         -3   -1    0    0    0  501 -0.00000000000E+00  0.00000000000E+00  0.25078819206E+03  0.25078819206E+03  0.00000000000E+00 0.  1.
          3   -1    0    0  501    0  0.00000000000E+00 -0.00000000000E+00 -0.59787967576E+02  0.59787967576E+02  0.00000000000E+00 0. -1.
         23    2    1    2    0    0 -0.46896210145E+01 -0.31122672870E+01  0.15698022519E+03  0.18085321564E+03  0.89629324186E+02 0.  0.
          5    1    1    2  502    0 -0.40620519558E+02  0.37581778423E+02 -0.11455457983E+02  0.56707443922E+02  0.47000000000E+01 0. -1.
         -5    1    1    2    0  502  0.45310140572E+02 -0.34469511136E+02  0.45475457280E+02  0.73015500077E+02  0.47000000000E+01 0. -1.
        -11    1    3    3    0    0  0.12735579149E+02  0.35397557164E+02  0.11612832143E+03  0.12206952555E+03  0.00000000000E+00 0.  1.
         11    1    3    3    0    0 -0.17425200163E+02 -0.38509824451E+02  0.40851903757E+02  0.58783690090E+02  0.00000000000E+00 0. -1.
<mgrwt>
<rscale>  0 0.11520840E+03</rscale>
<asrwt>0</asrwt>
<pdfrwt beam="2">  1        3 0.91981490E-02 0.12518259E+03</pdfrwt>
<pdfrwt beam="1">  1       -3 0.38582798E-01 0.12518259E+03</pdfrwt>
<totfact> 0.12816059E+03</totfact>
</mgrwt>
</event>
<event>
 7    1  0.1020736E-005  0.2250525E+03  0.7546771E-02  0.1134648E+00
          1   -1    0    0  501    0  0.00000000000E+00  0.00000000000E+00  0.71346180189E+03  0.71346180189E+03  0.00000000000E+00 0. -1.
         -1   -1    0    0    0  501 -0.00000000000E+00 -0.00000000000E+00 -0.12044900727E+03  0.12044900727E+03  0.00000000000E+00 0.  1.
         23    2    1    2    0    0  0.16176901130E+03  0.76589101432E+02  0.22477148093E+01  0.20173044857E+03  0.93032350214E+02 0.  0.
          5    1    1    2  502    0 -0.57712023387E+02 -0.28821524723E+02  0.42952287988E+03  0.43436545934E+03  0.47000000000E+01 0. -1.
         -5    1    1    2    0  502 -0.10405698791E+03 -0.47767576709E+02  0.16124219993E+03  0.19781490124E+03  0.47000000000E+01 0.  1.
        -11    1    3    3    0    0  0.10726953791E+03  0.91556457591E+01 -0.25606312748E+02  0.11066283416E+03  0.00000000000E+00 0.  1.
         11    1    3    3    0    0  0.54499473388E+02  0.67433455673E+02  0.27854027557E+02  0.91067614412E+02  0.00000000000E+00 0. -1.
<mgrwt>
<rscale>  0 0.21897726E+03</rscale>
<asrwt>0</asrwt>
<pdfrwt beam="1">  1        1 0.10976335E+00 0.22505250E+03</pdfrwt>
<pdfrwt beam="2">  1       -1 0.18530617E-01 0.22505250E+03</pdfrwt>
<totfact> 0.63021549E+02</totfact>
</mgrwt>
</event>
<event>
 7    1  0.1020736E-005  0.1259539E+03  0.7546771E-02  0.1249083E+00
          2   -1    0    0  501    0  0.00000000000E+00  0.00000000000E+00  0.41151936820E+03  0.41151936820E+03  0.00000000000E+00 0. -1.
         -2   -1    0    0    0  501 -0.00000000000E+00 -0.00000000000E+00 -0.34573518626E+02  0.34573518626E+02  0.00000000000E+00 0.  1.
         23    2    1    2    0    0 -0.11022556918E+02 -0.10890722910E+02  0.74225561746E+02  0.11821491844E+03  0.90693044491E+02 0.  0.
          5    1    1    2  502    0 -0.13108213956E+02  0.82493978973E+01 -0.66666165179E+01  0.17504616950E+02  0.47000000000E+01 0. -1.
         -5    1    1    2    0  502  0.24130770874E+02  0.26413250122E+01  0.30938690435E+03  0.31037335144E+03  0.47000000000E+01 0. -1.
        -11    1    3    3    0    0  0.37559742628E+02 -0.13794336804E+02  0.18069497616E+02  0.43903584572E+02  0.00000000000E+00 0.  1.
         11    1    3    3    0    0 -0.48582299546E+02  0.29036138950E+01  0.56156064129E+02  0.74311333869E+02  0.00000000000E+00 0. -1.
<mgrwt>
<rscale>  0 0.11644324E+03</rscale>
<asrwt>0</asrwt>
<pdfrwt beam="1">  1        2 0.63310668E-01 0.12595392E+03</pdfrwt>
<pdfrwt beam="2">  1       -2 0.53190032E-02 0.12595392E+03</pdfrwt>
<totfact> 0.12950009E+04</totfact>
</mgrwt>
</event>
<event>
 7    1  0.1020736E-005  0.1997601E+03  0.7546771E-02  0.1153864E+00
         -1   -1    0    0    0  501 -0.00000000000E+00  0.00000000000E+00  0.72909118963E+02  0.72909118963E+02  0.00000000000E+00 0.  1.
          1   -1    0    0  501    0  0.00000000000E+00 -0.00000000000E+00 -0.65117541419E+03  0.65117541419E+03  0.00000000000E+00 0. -1.
         23    2    1    2    0    0 -0.10578533152E+03  0.11442553937E+03 -0.10453956741E+03  0.20996283334E+03  0.94191983761E+02 0.  0.
          5    1    1    2  502    0  0.12110600723E+03 -0.10545954789E+03 -0.30801473699E+03  0.34739537912E+03  0.47000000000E+01 0. -1.
         -5    1    1    2    0  502 -0.15320675710E+02 -0.89659914807E+01 -0.16571199083E+03  0.16672632070E+03  0.47000000000E+01 0. -1.
        -11    1    3    3    0    0 -0.21743085242E+02  0.60902151256E+02 -0.87617484701E+02  0.10889746282E+03  0.00000000000E+00 0.  1.
         11    1    3    3    0    0 -0.84042246278E+02  0.53523388117E+02 -0.16922082704E+02  0.10106537052E+03  0.00000000000E+00 0. -1.
<mgrwt>
<rscale>  0 0.19518735E+03</rscale>
<asrwt>0</asrwt>
<pdfrwt beam="2">  1        1 0.10018083E+00 0.19976013E+03</pdfrwt>
<pdfrwt beam="1">  1       -1 0.11216788E-01 0.19976013E+03</pdfrwt>
<totfact> 0.15892136E+03</totfact>
</mgrwt>
</event>
<event>
 7    1  0.1020736E-005  0.1499587E+03  0.7546771E-02  0.1208945E+00
         -1   -1    0    0    0  501 -0.00000000000E+00  0.00000000000E+00  0.15266911101E+02  0.15266911101E+02  0.00000000000E+00 0.  1.
          1   -1    0    0  501    0  0.00000000000E+00 -0.00000000000E+00 -0.19097677454E+04  0.19097677454E+04  0.00000000000E+00 0. -1.
         23    2    1    2    0    0  0.72972680758E+02  0.39219961908E+02 -0.32261466287E+03  0.34601162335E+03  0.93704883789E+02 0.  0.
          5    1    1    2  502    0 -0.64788040294E+02  0.24357982895E+02 -0.45191080027E+03  0.45720483691E+03  0.47000000000E+01 0. -1.
         -5    1    1    2    0  502 -0.81846404641E+01 -0.63577944804E+02 -0.11199753712E+04  0.11218181963E+04  0.47000000000E+01 0. -1.
        -11    1    3    3    0    0  0.48262600262E+02  0.15575902059E+02 -0.30168045410E+03  0.30591335978E+03  0.00000000000E+00 0. -1.
         11    1    3    3    0    0  0.24710080495E+02  0.23644059849E+02 -0.20934208773E+02  0.40098263568E+02  0.00000000000E+00 0.  1.
<mgrwt>
<rscale>  0 0.14330837E+03</rscale>
<asrwt>0</asrwt>
<pdfrwt beam="2">  1        1 0.29381033E+00 0.14995867E+03</pdfrwt>
<pdfrwt beam="1">  1       -1 0.23487563E-02 0.14995867E+03</pdfrwt>
<totfact> 0.20938696E+03</totfact>
</mgrwt>
</event>
<event>
 7    1  0.1020736E-005  0.1705148E+03  0.7546771E-02  0.1183430E+00
         -2   -1    0    0    0  501 -0.00000000000E+00  0.00000000000E+00  0.66359962644E+02  0.66359962644E+02  0.00000000000E+00 0.  1.
          2   -1    0    0  501    0  0.00000000000E+00 -0.00000000000E+00 -0.39150888310E+03  0.39150888310E+03  0.00000000000E+00 0. -1.
         23    2    1    2    0    0 -0.64719241606E+02 -0.96232337232E+02 -0.11936997705E+03  0.19062312238E+03  0.92944824501E+02 0.  0.
          5    1    1    2  502    0  0.97912885057E+02  0.82405134329E+02 -0.12620534998E+03  0.17979827470E+03  0.47000000000E+01 0. -1.
         -5    1    1    2    0  502 -0.33193643451E+02  0.13827202903E+02 -0.79573593429E+02  0.87447448658E+02  0.47000000000E+01 0. -1.
        -11    1    3    3    0    0 -0.29176767261E+02 -0.59133331052E+02 -0.60697998445E+01  0.66218404234E+02  0.00000000000E+00 0.  1.
         11    1    3    3    0    0 -0.35542474345E+02 -0.37099006179E+02 -0.11330017720E+03  0.12440471814E+03  0.00000000000E+00 0. -1.
<mgrwt>
<rscale>  0 0.16475595E+03</rscale>
<asrwt>0</asrwt>
<pdfrwt beam="2">  1        2 0.60232136E-01 0.17051482E+03</pdfrwt>
<pdfrwt beam="1">  1       -2 0.10209225E-01 0.17051482E+03</pdfrwt>
<totfact> 0.51042508E+03</totfact>
</mgrwt>
</event>
<event>
 7    1  0.1020736E-005  0.1665766E+03  0.7546771E-02  0.1198466E+00
          3   -1    0    0  501    0  0.00000000000E+00  0.00000000000E+00  0.61104647352E+02  0.61104647352E+02  0.00000000000E+00 0. -1.
         -3   -1    0    0    0  501 -0.00000000000E+00 -0.00000000000E+00 -0.47120360163E+03  0.47120360163E+03  0.00000000000E+00 0.  1.
         23    2    1    2    0    0  0.54265778573E+02 -0.39629164334E+02 -0.32642931989E+03  0.34589906488E+03  0.92600306785E+02 0.  0.
          5    1    1    2  502    0 -0.10695882830E+03  0.34117045525E+02 -0.66239312926E+02  0.13043734252E+03  0.47000000000E+01 0. -1.
         -5    1    1    2    0  502  0.52693049727E+02  0.55121188092E+01 -0.17430321467E+02  0.55971841579E+02  0.47000000000E+01 0.  1.
        -11    1    3    3    0    0  0.63765548198E+01 -0.59482305459E+02 -0.21190912749E+03  0.22019146992E+03  0.00000000000E+00 0.  1.
         11    1    3    3    0    0  0.47889223753E+02  0.19853141124E+02 -0.11452019240E+03  0.12570759496E+03  0.00000000000E+00 0. -1.
<mgrwt>
<rscale>  0 0.15164507E+03</rscale>
<asrwt>0</asrwt>
<pdfrwt beam="1">  1        3 0.94007149E-02 0.16657664E+03</pdfrwt>
<pdfrwt beam="2">  1       -3 0.72492862E-01 0.16657664E+03</pdfrwt>
<totfact> 0.36057971E+02</totfact>
</mgrwt>
</event>
<event>
 7    1  0.1020736E-005  0.1322619E+03  0.7546771E-02  0.1236296E+00
         -1   -1    0    0    0  501 -0.00000000000E+00  0.00000000000E+00  0.15750562134E+03  0.15750562134E+03  0.00000000000E+00 0.  1.
          1   -1    0    0  501    0  0.00000000000E+00 -0.00000000000E+00 -0.92960309767E+02  0.92960309767E+02  0.00000000000E+00 0. -1.
         23    2    1    2    0    0 -0.42609722123E+02 -0.73990368679E+01  0.57813416182E+02  0.11803285145E+03  0.93375739701E+02 0.  0.
          5    1    1    2  502    0  0.26906403941E+02 -0.40991525268E+02 -0.39800078321E+02  0.63327687082E+02  0.47000000000E+01 0.  1.
         -5    1    1    2    0  502  0.15703318182E+02  0.48390562136E+02  0.46531973715E+02  0.69105392579E+02  0.47000000000E+01 0.  1.
        -11    1    3    3    0    0  0.15288049446E+02  0.13162282764E+02 -0.13216315360E+02  0.24117237303E+02  0.00000000000E+00 0.  1.
         11    1    3    3    0    0 -0.57897771569E+02 -0.20561319632E+02  0.71029731542E+02  0.93915614147E+02  0.00000000000E+00 0. -1.
<mgrwt>
<rscale>  0 0.12421805E+03</rscale>
<asrwt>0</asrwt>
<pdfrwt beam="2">  1        1 0.14301586E-01 0.13226187E+03</pdfrwt>
<pdfrwt beam="1">  1       -1 0.24231634E-01 0.13226187E+03</pdfrwt>
<totfact> 0.55352195E+03</totfact>
</mgrwt>
</event>
<event>
 7    1  0.1020736E-005  0.1678768E+03  0.7546771E-02  0.1186903E+00
          1   -1    0    0  501    0  0.00000000000E+00  0.00000000000E+00  0.10422651186E+04  0.10422651186E+04  0.00000000000E+00 0. -1.
         -1   -1    0    0    0  501 -0.00000000000E+00 -0.00000000000E+00 -0.23394528803E+02  0.23394528803E+02  0.00000000000E+00 0.  1.
         23    2    1    2    0    0  0.10469730259E+03 -0.39954567387E+02  0.44805755812E+03  0.47067214324E+03  0.90657588824E+02 0.  0.
          5    1    1    2  502    0 -0.77330989535E+02  0.74468224728E+02  0.50033442248E+03  0.51174429431E+03  0.47000000000E+01 0.  1.
         -5    1    1    2    0  502 -0.27366313052E+02 -0.34513657341E+02  0.70478609210E+02  0.83243209869E+02  0.47000000000E+01 0.  1.
        -11    1    3    3    0    0  0.90750985889E+02 -0.83837959347E+00  0.38210010335E+03  0.39273010236E+03  0.00000000000E+00 0. -1.
         11    1    3    3    0    0  0.13946316697E+02 -0.39116187794E+02  0.65957454767E+02  0.77942040879E+02  0.00000000000E+00 0.  1.
<mgrwt>
<rscale>  0 0.16159950E+03</rscale>
<asrwt>0</asrwt>
<pdfrwt beam="1">  1        1 0.16034844E+00 0.16787678E+03</pdfrwt>
<pdfrwt beam="2">  1       -1 0.35991591E-02 0.16787678E+03</pdfrwt>
<totfact> 0.42230123E+03</totfact>
</mgrwt>
</event>
<event>
 7    1  0.1020736E-005  0.1582831E+03  0.7546771E-02  0.1198702E+00
          2   -1    0    0  501    0  0.00000000000E+00  0.00000000000E+00  0.17198469506E+03  0.17198469506E+03  0.00000000000E+00 0. -1.
         -2   -1    0    0    0  501 -0.00000000000E+00 -0.00000000000E+00 -0.12880932741E+03  0.12880932741E+03  0.00000000000E+00 0.  1.
         23    2    1    2    0    0 -0.90027134535E+02 -0.36371914122E+02 -0.11897868456E+02  0.13320341825E+03  0.90409016526E+02 0.  0.
          5    1    1    2  502    0  0.39650659962E+02  0.33452851847E+02 -0.36032351252E+02  0.63337891257E+02  0.47000000000E+01 0. -1.
         -5    1    1    2    0  502  0.50376474573E+02  0.29190622754E+01  0.91105587355E+02  0.10425271297E+03  0.47000000000E+01 0. -1.
        -11    1    3    3    0    0 -0.51482620707E+02  0.27273954307E+02 -0.48094799679E+01  0.58459044774E+02  0.00000000000E+00 0.  1.
         11    1    3    3    0    0 -0.38544513829E+02 -0.63645868429E+02 -0.70883884883E+01  0.74744373472E+02  0.00000000000E+00 0. -1.
<mgrwt>
<rscale>  0 0.15145024E+03</rscale>
<asrwt>0</asrwt>
<pdfrwt beam="1">  1        2 0.26459184E-01 0.15828313E+03</pdfrwt>
<pdfrwt beam="2">  1       -2 0.19816820E-01 0.15828313E+03</pdfrwt>
<totfact> 0.41684625E+03</totfact>
</mgrwt>
</event>
<event>
 7    1  0.1020736E-005  0.1716708E+03  0.7546771E-02  0.1182622E+00
         -1   -1    0    0    0  501 -0.00000000000E+00  0.00000000000E+00  0.80895324509E+02  0.80895324509E+02  0.00000000000E+00 0.  1.
          1   -1    0    0  501    0  0.00000000000E+00 -0.00000000000E+00 -0.33452213598E+03  0.33452213598E+03  0.00000000000E+00 0. -1.
         23    2    1    2    0    0  0.13198851262E+02 -0.11692620050E+03 -0.69809360760E+02  0.16390259679E+03  0.90248370323E+02 0.  0.
          5    1    1    2  502    0  0.58164974537E+01 -0.23731844427E+02 -0.94129189270E+01  0.26603103678E+02  0.47000000000E+01 0. -1.
         -5    1    1    2    0  502 -0.19015348716E+02  0.14065804493E+03 -0.17440453179E+03  0.22491176003E+03  0.47000000000E+01 0. -1.
        -11    1    3    3    0    0  0.30976504859E+02 -0.37242974646E+02 -0.66396153314E+02  0.82189002845E+02  0.00000000000E+00 0.  1.
         11    1    3    3    0    0 -0.17777653597E+02 -0.79683225856E+02 -0.34132074461E+01  0.81713593944E+02  0.00000000000E+00 0. -1.
<mgrwt>
<rscale>  0 0.16550163E+03</rscale>
<asrwt>0</asrwt>
<pdfrwt beam="2">  1        1 0.51464944E-01 0.17167082E+03</pdfrwt>
<pdfrwt beam="1">  1       -1 0.12445435E-01 0.17167082E+03</pdfrwt>
<totfact> 0.32278116E+03</totfact>
</mgrwt>
</event>
<event>
 7    1  0.1020736E-005  0.3466743E+03  0.7546771E-02  0.1065251E+00
         -1   -1    0    0    0  501 -0.00000000000E+00  0.00000000000E+00  0.21825951482E+03  0.21825951482E+03  0.00000000000E+00 0.  1.
          1   -1    0    0  501    0  0.00000000000E+00 -0.00000000000E+00 -0.53675177117E+03  0.53675177117E+03  0.00000000000E+00 0. -1.
         23    2    1    2    0    0 -0.90475197744E+02 -0.31046681640E+03 -0.12045713631E+03  0.35576079919E+03  0.86489415877E+02 0.  0.
          5    1    1    2  502    0  0.30702755414E+02  0.20862478434E+03 -0.63707143896E+02  0.22033531268E+03  0.47000000000E+01 0. -1.
         -5    1    1    2    0  502  0.59772442330E+02  0.10184203206E+03 -0.13432797614E+03  0.17891517412E+03  0.47000000000E+01 0. -1.
        -11    1    3    3    0    0 -0.28158732665E+02 -0.20957310627E+03 -0.10525233313E+03  0.23620299474E+03  0.00000000000E+00 0. -1.
         11    1    3    3    0    0 -0.62316465078E+02 -0.10089371013E+03 -0.15204803181E+02  0.11955780445E+03  0.00000000000E+00 0.  1.
<mgrwt>
<rscale>  0 0.34365329E+03</rscale>
<asrwt>0</asrwt>
<pdfrwt beam="2">  1        1 0.82577196E-01 0.34667426E+03</pdfrwt>
<pdfrwt beam="1">  1       -1 0.33578387E-01 0.34667426E+03</pdfrwt>
<totfact> 0.34555633E+02</totfact>
</mgrwt>
</event>
<event>
 7    1  0.1020736E-005  0.1359333E+03  0.7546771E-02  0.1230739E+00
         -2   -1    0    0    0  501 -0.00000000000E+00  0.00000000000E+00  0.14278927766E+03  0.14278927766E+03  0.00000000000E+00 0.  1.
          2   -1    0    0  501    0  0.00000000000E+00 -0.00000000000E+00 -0.10340434321E+03  0.10340434321E+03  0.00000000000E+00 0. -1.
         23    2    1    2    0    0  0.82578525443E+01 -0.52775722764E+02  0.27469397233E+02  0.10973907438E+03  0.91840228760E+02 0.  0.
          5    1    1    2  502    0  0.33607441894E+02  0.46612186398E+02  0.52247477590E+02  0.77807743741E+02  0.47000000000E+01 0.  1.
         -5    1    1    2    0  502 -0.41865294438E+02  0.61635363663E+01 -0.40331940379E+02  0.58646802757E+02  0.47000000000E+01 0.  1.
        -11    1    3    3    0    0  0.37384664760E+02  0.42959583588E+01 -0.49069638701E+01  0.37949264971E+02  0.00000000000E+00 0. -1.
         11    1    3    3    0    0 -0.29126812216E+02 -0.57071681123E+02  0.32376361103E+02  0.71789809404E+02  0.00000000000E+00 0.  1.
<mgrwt>
<rscale>  0 0.12781211E+03</rscale>
<asrwt>0</asrwt>
<pdfrwt beam="2">  1        2 0.15908361E-01 0.13593330E+03</pdfrwt>
<pdfrwt beam="1">  1       -2 0.21967581E-01 0.13593330E+03</pdfrwt>
<totfact> 0.61570648E+03</totfact>
</mgrwt>
</event>
<event>
 7    1  0.1020736E-005  0.1746025E+03  0.7546771E-02  0.1179217E+00
         -2   -1    0    0    0  501 -0.00000000000E+00  0.00000000000E+00  0.66844515398E+02  0.66844515398E+02  0.00000000000E+00 0.  1.
          2   -1    0    0  501    0  0.00000000000E+00 -0.00000000000E+00 -0.54010127517E+03  0.54010127517E+03  0.00000000000E+00 0. -1.
         23    2    1    2    0    0 -0.11480979772E+03  0.40988964931E+02 -0.69921087832E+02  0.16743957420E+03  0.91025642469E+02 0.  0.
          5    1    1    2  502    0  0.13457853049E+03 -0.50645560963E+02 -0.38318648860E+03  0.40930468939E+03  0.47000000000E+01 0.  1.
         -5    1    1    2    0  502 -0.19768732766E+02  0.96565960324E+01 -0.20149183337E+02  0.30201526969E+02  0.47000000000E+01 0.  1.
        -11    1    3    3    0    0 -0.10326090816E+03  0.61892430360E+02 -0.76537196386E+02  0.14265844006E+03  0.00000000000E+00 0. -1.
         11    1    3    3    0    0 -0.11548889566E+02 -0.20903465429E+02  0.66161085543E+01  0.24781134146E+02  0.00000000000E+00 0.  1.
<mgrwt>
<rscale>  0 0.16869410E+03</rscale>
<asrwt>0</asrwt>
<pdfrwt beam="2">  1        2 0.83092502E-01 0.17460255E+03</pdfrwt>
<pdfrwt beam="1">  1       -2 0.10283772E-01 0.17460255E+03</pdfrwt>
<totfact> 0.35500054E+03</totfact>
</mgrwt>
</event>
<event>
 7    1  0.1020736E-005  0.1281258E+03  0.7546771E-02  0.1244098E+00
          2   -1    0    0  501    0  0.00000000000E+00  0.00000000000E+00  0.12069048997E+03  0.12069048997E+03  0.00000000000E+00 0. -1.
         -2   -1    0    0    0  501 -0.00000000000E+00 -0.00000000000E+00 -0.18891852983E+03  0.18891852983E+03  0.00000000000E+00 0.  1.
         23    2    1    2    0    0  0.18455991622E+02 -0.21268731235E+02 -0.13430695899E+03  0.16544717836E+03  0.92419841154E+02 0.  0.
          5    1    1    2  502    0 -0.64521484220E+01 -0.41122062619E+02  0.68627776956E+02  0.80402214044E+02  0.47000000000E+01 0. -1.
         -5    1    1    2    0  502 -0.12003843200E+02  0.62390793853E+02 -0.25488578300E+01  0.63759627394E+02  0.47000000000E+01 0. -1.
        -11    1    3    3    0    0  0.26362285677E+02  0.22927278424E+02 -0.10777411285E+03  0.11329558510E+03  0.00000000000E+00 0.  1.
         11    1    3    3    0    0 -0.79062940548E+01 -0.44196009658E+02 -0.26532846140E+02  0.52151593261E+02  0.00000000000E+00 0. -1.
<mgrwt>
<rscale>  0 0.11939557E+03</rscale>
<asrwt>0</asrwt>
<pdfrwt beam="1">  1        2 0.18567768E-01 0.12812577E+03</pdfrwt>
<pdfrwt beam="2">  1       -2 0.29064389E-01 0.12812577E+03</pdfrwt>
<totfact> 0.31467808E+03</totfact>
</mgrwt>
</event>
<event>
 7    1  0.1020736E-005  0.1671447E+03  0.7546771E-02  0.1187666E+00
         -2   -1    0    0    0  501 -0.00000000000E+00  0.00000000000E+00  0.31577027923E+02  0.31577027923E+02  0.00000000000E+00 0.  1.
          2   -1    0    0  501    0  0.00000000000E+00 -0.00000000000E+00 -0.93222483585E+03  0.93222483585E+03  0.00000000000E+00 0. -1.
         23    2    1    2    0    0  0.11093857882E+03 -0.23069798501E+01 -0.21837407119E+03  0.26135271455E+03  0.91133506490E+02 0.  0.
          5    1    1    2  502    0  0.14725046825E+02 -0.25787419515E+02 -0.23723865899E+03  0.23913613137E+03  0.47000000000E+01 0. -1.
         -5    1    1    2    0  502 -0.12566362565E+03  0.28094399365E+02 -0.44503507774E+03  0.46331301785E+03  0.47000000000E+01 0. -1.
        -11    1    3    3    0    0 -0.16626663357E+01  0.19002031654E+02 -0.59387700095E+01  0.19977754017E+02  0.00000000000E+00 0.  1.
         11    1    3    3    0    0  0.11260124516E+03 -0.21309011504E+02 -0.21243530118E+03  0.24137496053E+03  0.00000000000E+00 0. -1.
<mgrwt>
<rscale>  0 0.16091640E+03</rscale>
<asrwt>0</asrwt>
<pdfrwt beam="2">  1        2 0.14341921E+00 0.16714471E+03</pdfrwt>
<pdfrwt beam="1">  1       -2 0.48580042E-02 0.16714471E+03</pdfrwt>
<totfact> 0.58104338E+03</totfact>
</mgrwt>
</event>
<event>
 7    1  0.1020736E-005  0.1746518E+03  0.7546771E-02  0.1177646E+00
         -2   -1    0    0    0  501 -0.00000000000E+00  0.00000000000E+00  0.85559810458E+02  0.85559810458E+02  0.00000000000E+00 0.  1.
          2   -1    0    0  501    0  0.00000000000E+00 -0.00000000000E+00 -0.32599977153E+03  0.32599977153E+03  0.00000000000E+00 0. -1.
         23    2    1    2    0    0 -0.61062386593E+02  0.11191536598E+03 -0.92309575387E+02  0.18254899904E+03  0.92463047441E+02 0.  0.
          5    1    1    2  502    0  0.28200040502E+02 -0.11328442346E+03 -0.15596563762E+03  0.19487424920E+03  0.47000000000E+01 0. -1.
         -5    1    1    2    0  502  0.32862346092E+02  0.13690574796E+01  0.78352519363E+01  0.34136333751E+02  0.47000000000E+01 0.  1.
        -11    1    3    3    0    0 -0.60624039996E+02  0.17564326323E+02 -0.35552234372E+02  0.72441294532E+02  0.00000000000E+00 0.  1.
         11    1    3    3    0    0 -0.43834659763E+00  0.94351039658E+02 -0.56757341015E+02  0.11010770451E+03  0.00000000000E+00 0. -1.
<mgrwt>
<rscale>  0 0.17019348E+03</rscale>
<asrwt>0</asrwt>
<pdfrwt beam="2">  1        2 0.50153811E-01 0.17465176E+03</pdfrwt>
<pdfrwt beam="1">  1       -2 0.13163048E-01 0.17465176E+03</pdfrwt>
<totfact> 0.41398770E+03</totfact>
</mgrwt>
</event>
<event>
 7    1  0.1020736E-005  0.1299401E+03  0.7546771E-02  0.1241431E+00
         -2   -1    0    0    0  501 -0.00000000000E+00  0.00000000000E+00  0.62143027397E+02  0.62143027397E+02  0.00000000000E+00 0.  1.
          2   -1    0    0  501    0  0.00000000000E+00 -0.00000000000E+00 -0.23978896142E+03  0.23978896142E+03  0.00000000000E+00 0. -1.
         23    2    1    2    0    0 -0.80130073106E+01  0.34564856449E+02 -0.23906370214E+02  0.10063546295E+03  0.91088112723E+02 0.  0.
          5    1    1    2  502    0  0.18998678989E+02 -0.48867076314E+02 -0.66822806560E+01  0.53063017494E+02  0.47000000000E+01 0. -1.
         -5    1    1    2    0  502 -0.10985671679E+02  0.14302219866E+02 -0.14705728315E+03  0.14823350837E+03  0.47000000000E+01 0. -1.
        -11    1    3    3    0    0 -0.75720192435E+01 -0.21499676574E+02  0.19288203503E+02  0.29859778341E+02  0.00000000000E+00 0.  1.
         11    1    3    3    0    0 -0.44098806706E+00  0.56064533023E+02 -0.43194573718E+02  0.70775684611E+02  0.00000000000E+00 0. -1.
<mgrwt>
<rscale>  0 0.12101575E+03</rscale>
<asrwt>0</asrwt>
<pdfrwt beam="2">  1        2 0.36890610E-01 0.12994013E+03</pdfrwt>
<pdfrwt beam="1">  1       -2 0.95604656E-02 0.12994013E+03</pdfrwt>
<totfact> 0.93802794E+03</totfact>
</mgrwt>
</event>
<event>
 6    1  0.1020736E-005  0.4095649E+03  0.7546771E-02  0.1040517E+00
         -1   -1    0    0    0  501 -0.00000000000E+00  0.00000000000E+00  0.38409652912E+02  0.38409652912E+02  0.00000000000E+00 0.  1.
          1   -1    0    0  501    0  0.00000000000E+00 -0.00000000000E+00 -0.10918050722E+04  0.10918050722E+04  0.00000000000E+00 0. -1.
          5    1    1    2  502    0 -0.15686058080E+03  0.18855637282E+01 -0.63813220213E+03  0.65714807658E+03  0.47000000000E+01 0. -1.
         -5    1    1    2    0  502  0.12840738936E+02  0.17718292263E+02 -0.27056888960E+02  0.35113924551E+02  0.47000000000E+01 0. -1.
        -11    1    1    2    0    0  0.34172721231E+02 -0.62990368263E+02 -0.22746764742E+03  0.23848918633E+03  0.00000000000E+00 0.  1.
         11    1    1    2    0    0  0.10984712064E+03  0.43386512271E+02 -0.16073868081E+03  0.19946353769E+03  0.00000000000E+00 0. -1.
<mgrwt>
<rscale>  0 0.40956491E+03</rscale>
<asrwt>0</asrwt>
<pdfrwt beam="2">  1        1 0.16796999E+00 0.40956491E+03</pdfrwt>
<pdfrwt beam="1">  1       -1 0.59091782E-02 0.40956491E+03</pdfrwt>
<totfact> 0.18703523E+03</totfact>
</mgrwt>
</event>
<event>
 7    1  0.1020736E-005  0.1785293E+03  0.7546771E-02  0.1178010E+00
          1   -1    0    0  501    0  0.00000000000E+00  0.00000000000E+00  0.91520279220E+03  0.91520279220E+03  0.00000000000E+00 0. -1.
         -1   -1    0    0    0  501 -0.00000000000E+00 -0.00000000000E+00 -0.35604012335E+02  0.35604012335E+02  0.00000000000E+00 0.  1.
         23    2    1    2    0    0 -0.90606827861E+02 -0.89663557234E+02  0.19761742935E+03  0.24584490245E+03  0.71679264268E+02 0.  0.
          5    1    1    2  502    0  0.70561631237E+02 -0.46960545214E+01  0.17399183225E+03  0.18787294755E+03  0.47000000000E+01 0. -1.
         -5    1    1    2    0  502  0.20045196624E+02  0.94359611755E+02  0.50798951826E+03  0.51708895453E+03  0.47000000000E+01 0. -1.
        -11    1    3    3    0    0 -0.15382726063E+02 -0.65426997518E+02  0.90725826317E+02  0.11290923712E+03  0.00000000000E+00 0. -1.
         11    1    3    3    0    0 -0.75224101798E+02 -0.24236559716E+02  0.10689160304E+03  0.13293566533E+03  0.00000000000E+00 0.  1.
<mgrwt>
<rscale>  0 0.16984434E+03</rscale>
<asrwt>0</asrwt>
<pdfrwt beam="1">  1        1 0.14080041E+00 0.17852933E+03</pdfrwt>
<pdfrwt beam="2">  1       -1 0.54775410E-02 0.17852933E+03</pdfrwt>
<totfact> 0.28233025E+03</totfact>
</mgrwt>
</event>
<event>
 7    1  0.1020736E-005  0.1913582E+03  0.7546771E-02  0.1180619E+00
         -1   -1    0    0    0  501 -0.00000000000E+00  0.00000000000E+00  0.78182234074E+02  0.78182234074E+02  0.00000000000E+00 0.  1.
          1   -1    0    0  501    0  0.00000000000E+00 -0.00000000000E+00 -0.47706315538E+03  0.47706315538E+03  0.00000000000E+00 0. -1.
         23    2    1    2    0    0 -0.64321952509E+02 -0.10325352705E+02  0.94027970257E+00  0.11199045117E+03  0.91088147117E+02 0.  0.
          5    1    1    2  502    0  0.10360429608E+03  0.65859663192E+02 -0.26915694578E+03  0.29586972955E+03  0.47000000000E+01 0. -1.
         -5    1    1    2    0  502 -0.39282343574E+02 -0.55534310486E+02 -0.13066425522E+03  0.14738520872E+03  0.47000000000E+01 0.  1.
        -11    1    3    3    0    0  0.20070347776E+02  0.16481717470E+01 -0.15209971062E+02  0.25236452795E+02  0.00000000000E+00 0. -1.
         11    1    3    3    0    0 -0.84392300285E+02 -0.11973524452E+02  0.16150250764E+02  0.86753998380E+02  0.00000000000E+00 0.  1.
<mgrwt>
<rscale>  0 0.16736964E+03</rscale>
<asrwt>0</asrwt>
<pdfrwt beam="2">  1        1 0.73394331E-01 0.19135817E+03</pdfrwt>
<pdfrwt beam="1">  1       -1 0.12028036E-01 0.19135817E+03</pdfrwt>
<totfact> 0.21722085E+03</totfact>
</mgrwt>
</event>
<event>
 7    1  0.1020736E-005  0.1468877E+03  0.7546771E-02  0.1220155E+00
         -2   -1    0    0    0  501 -0.00000000000E+00  0.00000000000E+00  0.43583011371E+02  0.43583011371E+02  0.00000000000E+00 0.  1.
          2   -1    0    0  501    0  0.00000000000E+00 -0.00000000000E+00 -0.37693991467E+03  0.37693991467E+03  0.00000000000E+00 0. -1.
         23    2    1    2    0    0  0.14545343730E+02 -0.50642549213E+02 -0.10114861598E+03  0.14575633203E+03  0.90761395958E+02 0.  0.
          5    1    1    2  502    0 -0.27274790044E+02  0.16950512654E+02 -0.23602386543E+03  0.23824480918E+03  0.47000000000E+01 0. -1.
         -5    1    1    2    0  502  0.12729446315E+02  0.33692036559E+02  0.38155781097E+01  0.36521784832E+02  0.47000000000E+01 0.  1.
        -11    1    3    3    0    0 -0.29155104080E+02 -0.91028341323E+01 -0.31629032275E+01  0.30706442972E+02  0.00000000000E+00 0. -1.
         11    1    3    3    0    0  0.43700447810E+02 -0.41539715081E+02 -0.97985712757E+02  0.11504988906E+03  0.00000000000E+00 0.  1.
<mgrwt>
<rscale>  0 0.13504593E+03</rscale>
<asrwt>0</asrwt>
<pdfrwt beam="2">  1        2 0.57990759E-01 0.14688769E+03</pdfrwt>
<pdfrwt beam="1">  1       -2 0.67050783E-02 0.14688769E+03</pdfrwt>
<totfact> 0.10127704E+04</totfact>
</mgrwt>
</event>
<event>
 7    1  0.1020736E-005  0.1462063E+03  0.7546771E-02  0.1214860E+00
         -1   -1    0    0    0  501 -0.00000000000E+00  0.00000000000E+00  0.94875964656E+02  0.94875964656E+02  0.00000000000E+00 0.  1.
          1   -1    0    0  501    0  0.00000000000E+00 -0.00000000000E+00 -0.18700064529E+03  0.18700064529E+03  0.00000000000E+00 0. -1.
         23    2    1    2    0    0 -0.59986202225E+02  0.46394076731E+02 -0.28082477148E+02  0.12225931384E+03  0.91694926169E+02 0.  0.
          5    1    1    2  502    0  0.59541684669E+02 -0.41791725586E+02  0.19783251316E+02  0.75532956869E+02  0.47000000000E+01 0. -1.
         -5    1    1    2    0  502  0.44451755562E+00 -0.46023511452E+01 -0.83825454800E+02  0.84084339233E+02  0.47000000000E+01 0. -1.
        -11    1    3    3    0    0 -0.35417866145E+02  0.22460992366E+02  0.32218604632E+02  0.52886292220E+02  0.00000000000E+00 0.  1.
         11    1    3    3    0    0 -0.24568336080E+02  0.23933084365E+02 -0.60301081781E+02  0.69373021621E+02  0.00000000000E+00 0. -1.
<mgrwt>
<rscale>  0 0.13886810E+03</rscale>
<asrwt>0</asrwt>
<pdfrwt beam="2">  1        1 0.28769330E-01 0.14620628E+03</pdfrwt>
<pdfrwt beam="1">  1       -1 0.14596302E-01 0.14620628E+03</pdfrwt>
<totfact> 0.51496985E+03</totfact>
</mgrwt>
</event>
<event>
 7    1  0.1020736E-005  0.1263764E+03  0.7546771E-02  0.1248962E+00
         -1   -1    0    0    0  501 -0.00000000000E+00  0.00000000000E+00  0.17390617340E+02  0.17390617340E+02  0.00000000000E+00 0.  1.
          1   -1    0    0  501    0  0.00000000000E+00 -0.00000000000E+00 -0.74773933314E+03  0.74773933314E+03  0.00000000000E+00 0. -1.
         23    2    1    2    0    0  0.13358720390E+01 -0.18030507970E+02 -0.19881953804E+03  0.21878367523E+03  0.89499743406E+02 0.  0.
          5    1    1    2  502    0  0.56365258883E+02 -0.13010062152E+02 -0.30555484417E+03  0.31101793666E+03  0.47000000000E+01 0. -1.
         -5    1    1    2    0  502 -0.57701130922E+02  0.31040570122E+02 -0.22597433359E+03  0.23532833859E+03  0.47000000000E+01 0. -1.
        -11    1    3    3    0    0  0.31903117725E+02 -0.16840217783E+02 -0.17838423352E+03  0.18199543023E+03  0.00000000000E+00 0. -1.
         11    1    3    3    0    0 -0.30567245686E+02 -0.11902901872E+01 -0.20435304518E+02  0.36788245002E+02  0.00000000000E+00 0.  1.
<mgrwt>
<rscale>  0 0.11651348E+03</rscale>
<asrwt>0</asrwt>
<pdfrwt beam="2">  1        1 0.11503681E+00 0.12637637E+03</pdfrwt>
<pdfrwt beam="1">  1       -1 0.26754799E-02 0.12637637E+03</pdfrwt>
<totfact> 0.10880649E+04</totfact>
</mgrwt>
</event>
<event>
 7    1  0.1020736E-005  0.1517868E+03  0.7546771E-02  0.1205989E+00
         -1   -1    0    0    0  501 -0.00000000000E+00  0.00000000000E+00  0.57969567560E+02  0.57969567560E+02  0.00000000000E+00 0.  1.
          1   -1    0    0  501    0  0.00000000000E+00 -0.00000000000E+00 -0.36262382327E+03  0.36262382327E+03  0.00000000000E+00 0. -1.
         23    2    1    2    0    0  0.36139935205E+02  0.78151114698E+02 -0.19422083186E+03  0.23288414809E+03  0.95391840625E+02 0.  0.
          5    1    1    2  502    0 -0.78898905752E+02 -0.48262499740E+02 -0.95973826182E+02  0.13336930502E+03  0.47000000000E+01 0. -1.
         -5    1    1    2    0  502  0.42758970547E+02 -0.29888614959E+02 -0.14459597668E+02  0.54339937717E+02  0.47000000000E+01 0. -1.
        -11    1    3    3    0    0  0.55403935698E+02  0.88661110847E+02 -0.14283863981E+03  0.17701204956E+03  0.00000000000E+00 0.  1.
         11    1    3    3    0    0 -0.19264000493E+02 -0.10509996148E+02 -0.51382192050E+02  0.55872098528E+02  0.00000000000E+00 0. -1.
<mgrwt>
<rscale>  0 0.14559774E+03</rscale>
<asrwt>0</asrwt>
<pdfrwt beam="2">  1        1 0.55788280E-01 0.15178675E+03</pdfrwt>
<pdfrwt beam="1">  1       -1 0.89183950E-02 0.15178675E+03</pdfrwt>
<totfact> 0.48421869E+03</totfact>
</mgrwt>
</event>
<event>
 7    1  0.1020736E-005  0.1320172E+03  0.7546771E-02  0.1237007E+00
          2   -1    0    0  501    0  0.00000000000E+00  0.00000000000E+00  0.22975763022E+03  0.22975763022E+03  0.00000000000E+00 0. -1.
         -2   -1    0    0    0  501 -0.00000000000E+00 -0.00000000000E+00 -0.67266499603E+02  0.67266499603E+02  0.00000000000E+00 0.  1.
         23    2    1    2    0    0 -0.17006328531E+02  0.39011702679E+02  0.22182265763E+02  0.10437131636E+03  0.92683281172E+02 0.  0.
          5    1    1    2  502    0 -0.10113593461E+02 -0.73963397480E+02  0.12487501396E+03  0.14556348461E+03  0.47000000000E+01 0. -1.
         -5    1    1    2    0  502  0.27119921993E+02  0.34951694802E+02  0.15433850893E+02  0.47089328852E+02  0.47000000000E+01 0. -1.
        -11    1    3    3    0    0  0.18205876515E+02  0.58386500471E+02  0.19057067973E+02  0.64059419422E+02  0.00000000000E+00 0. -1.
         11    1    3    3    0    0 -0.35212205046E+02 -0.19374797792E+02  0.31251977903E+01  0.40311896940E+02  0.00000000000E+00 0.  1.
<mgrwt>
<rscale>  0 0.12376813E+03</rscale>
<asrwt>0</asrwt>
<pdfrwt beam="1">  1        2 0.35347327E-01 0.13201715E+03</pdfrwt>
<pdfrwt beam="2">  1       -2 0.10348692E-01 0.13201715E+03</pdfrwt>
<totfact> 0.86810973E+03</totfact>
</mgrwt>
</event>
<event>
 7    1  0.1020736E-005  0.1388751E+03  0.7546771E-02  0.1225909E+00
          2   -1    0    0  501    0  0.00000000000E+00  0.00000000000E+00  0.28283349973E+04  0.28283349973E+04  0.00000000000E+00 0. -1.
         -2   -1    0    0    0  501 -0.00000000000E+00 -0.00000000000E+00 -0.11531494044E+02  0.11531494044E+02  0.00000000000E+00 0.  1.
         23    2    1    2    0    0 -0.50494685699E+02  0.33343499030E+02  0.30572498252E+03  0.32495066274E+03  0.91998185135E+02 0.  0.
          5    1    1    2  502    0  0.18900167314E+02 -0.69052803077E+02  0.20699683812E+04  0.20712114076E+04  0.47000000000E+01 0.  1.
         -5    1    1    2    0  502  0.31594518385E+02  0.35709304046E+02  0.44111013952E+03  0.44370442095E+03  0.47000000000E+01 0.  1.
        -11    1    3    3    0    0 -0.29539673311E+02  0.51263872358E+02  0.28329371471E+03  0.28940612589E+03  0.00000000000E+00 0. -1.
         11    1    3    3    0    0 -0.20955012388E+02 -0.17920373328E+02  0.22431267808E+02  0.35544536850E+02  0.00000000000E+00 0.  1.
<mgrwt>
<rscale>  0 0.13104764E+03</rscale>
<asrwt>0</asrwt>
<pdfrwt beam="1">  1        2 0.43512791E+00 0.13887508E+03</pdfrwt>
<pdfrwt beam="2">  1       -2 0.17740783E-02 0.13887508E+03</pdfrwt>
<totfact> 0.24597676E+03</totfact>
</mgrwt>
</event>
<event>
 7    1  0.1020736E-005  0.1390318E+03  0.7546771E-02  0.1225311E+00
         -2   -1    0    0    0  501 -0.00000000000E+00  0.00000000000E+00  0.99508117357E+01  0.99508117357E+01  0.00000000000E+00 0.  1.
          2   -1    0    0  501    0  0.00000000000E+00 -0.00000000000E+00 -0.17994709935E+04  0.17994709935E+04  0.00000000000E+00 0. -1.
         23    2    1    2    0    0 -0.27837280670E+02  0.54137731379E+02 -0.48768327173E+03  0.50018187701E+03  0.92957669981E+02 0.  0.
          5    1    1    2  502    0  0.46815795011E+02 -0.27429893531E+02 -0.12163516714E+04  0.12175703660E+04  0.47000000000E+01 0. -1.
         -5    1    1    2    0  502 -0.18978514341E+02 -0.26707837848E+02 -0.85485238662E+02  0.91669562223E+02  0.47000000000E+01 0. -1.
        -11    1    3    3    0    0  0.33815701306E+02  0.28085262258E+02 -0.20918143388E+03  0.21375021846E+03  0.00000000000E+00 0. -1.
         11    1    3    3    0    0 -0.61652981976E+02  0.26052469120E+02 -0.27850183785E+03  0.28643165855E+03  0.00000000000E+00 0.  1.
<mgrwt>
<rscale>  0 0.13145605E+03</rscale>
<asrwt>0</asrwt>
<pdfrwt beam="2">  1        2 0.27684149E+00 0.13903183E+03</pdfrwt>
<pdfrwt beam="1">  1       -2 0.15308953E-02 0.13903183E+03</pdfrwt>
<totfact> 0.10624685E+04</totfact>
</mgrwt>
</event>
<event>
 6    1  0.1159578E-005  0.1440447E+03  0.7546771E-02  0.1234218E+00
          1   -1    0    0  501    0  0.00000000000E+00  0.00000000000E+00  0.28082722202E+03  0.28082722202E+03  0.00000000000E+00 0. -1.
         -1   -1    0    0    0  501 -0.00000000000E+00 -0.00000000000E+00 -0.52918910879E+02  0.52918910879E+02  0.00000000000E+00 0.  1.
          5    1    1    2  502    0  0.36112521252E+01 -0.42108437445E+01 -0.16758629317E+02  0.18267840692E+02  0.47000000000E+01 0.  1.
         -5    1    1    2    0  502  0.52485704297E+02  0.48676899901E+02  0.21591866502E+03  0.22752395400E+03  0.47000000000E+01 0.  1.
        -11    1    1    2    0    0 -0.11674376529E+02 -0.27633002369E+01  0.24009768758E+02  0.26840191716E+02  0.00000000000E+00 0. -1.
         11    1    1    2    0    0 -0.44422579893E+02 -0.41702755919E+02  0.47385066787E+01  0.61114146489E+02  0.00000000000E+00 0.  1.
<mgrwt>
<rscale>  0 0.12554629E+03</rscale>
<asrwt>0</asrwt>
<pdfrwt beam="1">  1        1 0.43204187E-01 0.14404474E+03</pdfrwt>
<pdfrwt beam="2">  1       -1 0.81413710E-02 0.14404474E+03</pdfrwt>
<totfact> 0.76196387E+03</totfact>
</mgrwt>
</event>
<event>
 7    1  0.1020736E-005  0.1788059E+03  0.7546771E-02  0.1174461E+00
         -2   -1    0    0    0  501 -0.00000000000E+00  0.00000000000E+00  0.21884818386E+02  0.21884818386E+02  0.00000000000E+00 0.  1.
          2   -1    0    0  501    0  0.00000000000E+00 -0.00000000000E+00 -0.14674576709E+04  0.14674576709E+04  0.00000000000E+00 0. -1.
         23    2    1    2    0    0  0.44130588282E+02 -0.11999427269E+03 -0.42719540790E+03  0.45538689693E+03  0.92386011199E+02 0.  0.
          5    1    1    2  502    0  0.13863711166E+02  0.10761288540E+03 -0.81016791386E+03  0.81741475045E+03  0.47000000000E+01 0.  1.
         -5    1    1    2    0  502 -0.57994299448E+02  0.12381387282E+02 -0.20820953073E+03  0.21654084189E+03  0.47000000000E+01 0.  1.
        -11    1    3    3    0    0 -0.11589492616E+02 -0.88474952785E+02 -0.19352128850E+03  0.21310237613E+03  0.00000000000E+00 0.  1.
         11    1    3    3    0    0  0.55720080897E+02 -0.31519319901E+02 -0.23367411940E+03  0.24228452080E+03  0.00000000000E+00 0. -1.
<mgrwt>
<rscale>  0 0.17328881E+03</rscale>
<asrwt>0</asrwt>
<pdfrwt beam="2">  1        2 0.22576274E+00 0.17880589E+03</pdfrwt>
<pdfrwt beam="1">  1       -2 0.33668948E-02 0.17880589E+03</pdfrwt>
<totfact> 0.50211848E+03</totfact>
</mgrwt>
</event>
<event>
 7    1  0.1020736E-005  0.2417039E+03  0.7546771E-02  0.1121548E+00
          2   -1    0    0  501    0  0.00000000000E+00  0.00000000000E+00  0.13558621572E+04  0.13558621572E+04  0.00000000000E+00 0. -1.
         -2   -1    0    0    0  501 -0.00000000000E+00 -0.00000000000E+00 -0.40851980062E+02  0.40851980062E+02  0.00000000000E+00 0.  1.
         23    2    1    2    0    0  0.14144837216E+03  0.15096310942E+03  0.54215541851E+03  0.58694549688E+03  0.88176051662E+02 0.  0.
          5    1    1    2  502    0 -0.14697574132E+02 -0.30573133729E+02  0.26783206468E+02  0.43476031789E+02  0.47000000000E+01 0.  1.
         -5    1    1    2    0  502 -0.12675079803E+03 -0.12038997570E+03  0.74607155216E+03  0.76629260859E+03  0.47000000000E+01 0.  1.
        -11    1    3    3    0    0  0.51108580017E+02  0.58066148259E+01  0.16533775280E+03  0.17315419784E+03  0.00000000000E+00 0. -1.
         11    1    3    3    0    0  0.90339792147E+02  0.14515649460E+03  0.37681766571E+03  0.41379129904E+03  0.00000000000E+00 0.  1.
<mgrwt>
<rscale>  0 0.23738434E+03</rscale>
<asrwt>0</asrwt>
<pdfrwt beam="1">  1        2 0.20859414E+00 0.24170390E+03</pdfrwt>
<pdfrwt beam="2">  1       -2 0.62849211E-02 0.24170390E+03</pdfrwt>
<totfact> 0.22509140E+03</totfact>
</mgrwt>
</event>
<event>
 7    1  0.1020736E-005  0.1636788E+03  0.7546771E-02  0.1191922E+00
         -2   -1    0    0    0  501 -0.00000000000E+00  0.00000000000E+00  0.18543469826E+02  0.18543469826E+02  0.00000000000E+00 0.  1.
          2   -1    0    0  501    0  0.00000000000E+00 -0.00000000000E+00 -0.14964182336E+04  0.14964182336E+04  0.00000000000E+00 0. -1.
         23    2    1    2    0    0 -0.86422353160E+02  0.60784671817E+02 -0.37476439271E+03  0.39977416937E+03  0.90594906009E+02 0.  0.
          5    1    1    2  502    0 -0.21327273765E+02 -0.36593204256E+02 -0.51646457126E+03  0.51821970106E+03  0.47000000000E+01 0.  1.
         -5    1    1    2    0  502  0.10774962692E+03 -0.24191467561E+02 -0.58664579977E+03  0.59696783296E+03  0.47000000000E+01 0.  1.
        -11    1    3    3    0    0 -0.60060101894E+02  0.83038758370E+02 -0.24658910161E+03  0.26703714398E+03  0.00000000000E+00 0.  1.
         11    1    3    3    0    0 -0.26362251266E+02 -0.22254086552E+02 -0.12817529110E+03  0.13273702539E+03  0.00000000000E+00 0. -1.
<mgrwt>
<rscale>  0 0.15717679E+03</rscale>
<asrwt>0</asrwt>
<pdfrwt beam="2">  1        2 0.23021823E+00 0.16367879E+03</pdfrwt>
<pdfrwt beam="1">  1       -2 0.28528410E-02 0.16367879E+03</pdfrwt>
<totfact> 0.61816542E+03</totfact>
</mgrwt>
</event>
<event>
 7    1  0.1020736E-005  0.1756672E+03  0.7546771E-02  0.1177631E+00
         -1   -1    0    0    0  501 -0.00000000000E+00  0.00000000000E+00  0.13836766557E+03  0.13836766557E+03  0.00000000000E+00 0.  1.
          1   -1    0    0  501    0  0.00000000000E+00 -0.00000000000E+00 -0.21071798253E+03  0.21071798253E+03  0.00000000000E+00 0. -1.
         23    2    1    2    0    0 -0.19631949997E+02 -0.12185447308E+03  0.98401941946E+01  0.15514170974E+03  0.93478310900E+02 0.  0.
          5    1    1    2  502    0  0.59658596896E+02  0.36560364164E+02 -0.20419823481E+01  0.70157452229E+02  0.47000000000E+01 0.  1.
         -5    1    1    2    0  502 -0.40026646899E+02  0.85294108920E+02 -0.80148528805E+02  0.12378648613E+03  0.47000000000E+01 0.  1.
        -11    1    3    3    0    0  0.82038564190E+01 -0.30810509583E+02 -0.37163484401E+02  0.48966471526E+02  0.00000000000E+00 0. -1.
         11    1    3    3    0    0 -0.27835806416E+02 -0.91043963500E+02  0.47003678596E+02  0.10617523822E+03  0.00000000000E+00 0.  1.
<mgrwt>
<rscale>  0 0.17020854E+03</rscale>
<asrwt>0</asrwt>
<pdfrwt beam="2">  1        1 0.32418151E-01 0.17566722E+03</pdfrwt>
<pdfrwt beam="1">  1       -1 0.21287333E-01 0.17566722E+03</pdfrwt>
<totfact> 0.24518283E+03</totfact>
</mgrwt>
</event>
<event>
 7    1  0.1020736E-005  0.1791998E+03  0.7546771E-02  0.1174279E+00
         -1   -1    0    0    0  501 -0.00000000000E+00  0.00000000000E+00  0.21123184782E+03  0.21123184782E+03  0.00000000000E+00 0.  1.
          1   -1    0    0  501    0  0.00000000000E+00 -0.00000000000E+00 -0.13441707937E+03  0.13441707937E+03  0.00000000000E+00 0. -1.
         23    2    1    2    0    0  0.10150705986E+03 -0.78632505156E+02  0.26931104176E+02  0.15963561518E+03  0.90947738803E+02 0.  0.
          5    1    1    2  502    0 -0.36726780520E+01  0.26347521770E+01 -0.35105119691E+02  0.35705600564E+02  0.47000000000E+01 0. -1.
         -5    1    1    2    0  502 -0.97834381809E+02  0.75997752979E+02  0.84988783960E+02  0.15030771145E+03  0.47000000000E+01 0. -1.
        -11    1    3    3    0    0  0.60265861922E+02 -0.65584709900E+02 -0.24553611424E+02  0.92391601999E+02  0.00000000000E+00 0. -1.
         11    1    3    3    0    0  0.41241197939E+02 -0.13047795256E+02  0.51484715600E+02  0.67244013182E+02  0.00000000000E+00 0.  1.
<mgrwt>
<rscale>  0 0.17346751E+03</rscale>
<asrwt>0</asrwt>
<pdfrwt beam="2">  1        1 0.20679551E-01 0.17919981E+03</pdfrwt>
<pdfrwt beam="1">  1       -1 0.32497207E-01 0.17919981E+03</pdfrwt>
<totfact> 0.21405673E+03</totfact>
</mgrwt>
</event>
<event>
 7    1  0.1020736E-005  0.1316610E+03  0.7546771E-02  0.1238356E+00
         -1   -1    0    0    0  501 -0.00000000000E+00  0.00000000000E+00  0.43225050690E+02  0.43225050690E+02  0.00000000000E+00 0.  1.
          1   -1    0    0  501    0  0.00000000000E+00 -0.00000000000E+00 -0.33514737519E+03  0.33514737519E+03  0.00000000000E+00 0. -1.
         23    2    1    2    0    0  0.11134927534E+02  0.39823110290E+02 -0.76604074044E+02  0.12599063892E+03  0.91080130717E+02 0.  0.
          5    1    1    2  502    0  0.40505444380E+02 -0.17207915773E+02 -0.19159153892E+02  0.48228275602E+02  0.47000000000E+01 0.  1.
         -5    1    1    2    0  502 -0.51640371914E+02 -0.22615194517E+02 -0.19615909656E+03  0.20415351136E+03  0.47000000000E+01 0.  1.
        -11    1    3    3    0    0  0.35152840974E+02  0.46551345543E+02 -0.16050143199E+02  0.60500885094E+02  0.00000000000E+00 0.  1.
         11    1    3    3    0    0 -0.24017913440E+02 -0.67282352538E+01 -0.60553930846E+02  0.65489753828E+02  0.00000000000E+00 0. -1.
<mgrwt>
<rscale>  0 0.12291998E+03</rscale>
<asrwt>0</asrwt>
<pdfrwt beam="2">  1        1 0.51561134E-01 0.13166099E+03</pdfrwt>
<pdfrwt beam="1">  1       -1 0.66500079E-02 0.13166099E+03</pdfrwt>
<totfact> 0.82447186E+03</totfact>
</mgrwt>
</event>
<event>
 7    1  0.1020736E-005  0.1253236E+03  0.7546771E-02  0.1248979E+00
         -2   -1    0    0    0  501 -0.00000000000E+00  0.00000000000E+00  0.18350650639E+02  0.18350650639E+02  0.00000000000E+00 0.  1.
          2   -1    0    0  501    0  0.00000000000E+00 -0.00000000000E+00 -0.73357927382E+03  0.73357927382E+03  0.00000000000E+00 0. -1.
         23    2    1    2    0    0  0.84625761203E+01 -0.29086695082E+01 -0.18798431945E+03  0.20999582655E+03  0.93166878539E+02 0.  0.
          5    1    1    2  502    0 -0.48807230074E+02 -0.90061699735E+01 -0.92024199171E+02  0.10466040339E+03  0.47000000000E+01 0. -1.
         -5    1    1    2    0  502  0.40344653954E+02  0.11914839482E+02 -0.43522010457E+03  0.43727369452E+03  0.47000000000E+01 0. -1.
        -11    1    3    3    0    0  0.50820708566E+02 -0.30050912601E+01 -0.11129427745E+03  0.12238542064E+03  0.00000000000E+00 0.  1.
         11    1    3    3    0    0 -0.42358132446E+02  0.96421751925E-01 -0.76690041995E+02  0.87610405904E+02  0.00000000000E+00 0. -1.
<mgrwt>
<rscale>  0 0.11650340E+03</rscale>
<asrwt>0</asrwt>
<pdfrwt beam="2">  1        2 0.11285836E+00 0.12532362E+03</pdfrwt>
<pdfrwt beam="1">  1       -2 0.28231767E-02 0.12532362E+03</pdfrwt>
<totfact> 0.17318213E+04</totfact>
</mgrwt>
</event>
<event>
 7    1  0.1020736E-005  0.1605928E+03  0.7546771E-02  0.1195644E+00
          1   -1    0    0  501    0  0.00000000000E+00  0.00000000000E+00  0.12900597892E+03  0.12900597892E+03  0.00000000000E+00 0. -1.
         -1   -1    0    0    0  501 -0.00000000000E+00 -0.00000000000E+00 -0.18082372876E+03  0.18082372876E+03  0.00000000000E+00 0.  1.
         23    2    1    2    0    0 -0.60168751148E+02 -0.80898658523E+02 -0.61229091999E+02  0.14896140601E+03  0.90970474373E+02 0.  0.
          5    1    1    2  502    0 -0.99803128711E+01 -0.24888119212E+02 -0.15649032723E+02  0.31400753941E+02  0.47000000000E+01 0.  1.
         -5    1    1    2    0  502  0.70149064019E+02  0.10578677773E+03  0.25060374881E+02  0.12946754773E+03  0.47000000000E+01 0.  1.
        -11    1    3    3    0    0  0.15374380968E+02 -0.46164377386E+02 -0.40408150501E+02  0.63248240738E+02  0.00000000000E+00 0.  1.
         11    1    3    3    0    0 -0.75543132115E+02 -0.34734281138E+02 -0.20820941498E+02  0.85713165271E+02  0.00000000000E+00 0. -1.
<mgrwt>
<rscale>  0 0.15399835E+03</rscale>
<asrwt>0</asrwt>
<pdfrwt beam="1">  1        1 0.19847074E-01 0.16059277E+03</pdfrwt>
<pdfrwt beam="2">  1       -1 0.27819035E-01 0.16059277E+03</pdfrwt>
<totfact> 0.29208933E+03</totfact>
</mgrwt>
</event>
<event>
 7    1  0.1020736E-005  0.1366588E+03  0.7546771E-02  0.1228313E+00
          2   -1    0    0  501    0  0.00000000000E+00  0.00000000000E+00  0.47144631113E+03  0.47144631113E+03  0.00000000000E+00 0. -1.
         -2   -1    0    0    0  501 -0.00000000000E+00 -0.00000000000E+00 -0.42553218322E+02  0.42553218322E+02  0.00000000000E+00 0.  1.
         23    2    1    2    0    0 -0.38758129672E+02  0.39346531390E+02  0.70920567530E+02  0.13082861188E+03  0.95058175028E+02 0.  0.
          5    1    1    2  502    0 -0.44404548526E+02 -0.10101518156E+01  0.12945195625E+03  0.13694043710E+03  0.47000000000E+01 0.  1.
         -5    1    1    2    0  502  0.83162678198E+02 -0.38336379574E+02  0.22852056903E+03  0.24623048047E+03  0.47000000000E+01 0.  1.
        -11    1    3    3    0    0 -0.27102058599E+02  0.61692937713E+02  0.79490403011E+02  0.10420779393E+03  0.00000000000E+00 0. -1.
         11    1    3    3    0    0 -0.11656071073E+02 -0.22346406323E+02 -0.85698354813E+01  0.26620817955E+02  0.00000000000E+00 0.  1.
<mgrwt>
<rscale>  0 0.12942414E+03</rscale>
<asrwt>0</asrwt>
<pdfrwt beam="1">  1        2 0.72530198E-01 0.13665878E+03</pdfrwt>
<pdfrwt beam="2">  1       -2 0.65466493E-02 0.13665878E+03</pdfrwt>
<totfact> 0.82164903E+03</totfact>
</mgrwt>
</event>
<event>
 7    1  0.1020736E-005  0.1432953E+03  0.7546771E-02  0.1225169E+00
          1   -1    0    0  501    0  0.00000000000E+00  0.00000000000E+00  0.74110648884E+02  0.74110648884E+02  0.00000000000E+00 0. -1.
         -1   -1    0    0    0  501 -0.00000000000E+00 -0.00000000000E+00 -0.21450990985E+03  0.21450990985E+03  0.00000000000E+00 0.  1.
         23    2    1    2    0    0  0.51645629256E+02  0.47365797215E+02 -0.92471106435E+02  0.13752244234E+03  0.73829038015E+02 0.  0.
          5    1    1    2  502    0 -0.15870732082E+02 -0.39531808490E+02  0.38186500845E+02  0.57401592888E+02  0.47000000000E+01 0. -1.
         -5    1    1    2    0  502 -0.35774897174E+02 -0.78339887244E+01 -0.86114655375E+02  0.93696523508E+02  0.47000000000E+01 0. -1.
        -11    1    3    3    0    0  0.95328806383E+01 -0.11154569795E+02  0.56822444074E+01  0.15734933813E+02  0.00000000000E+00 0. -1.
         11    1    3    3    0    0  0.42112748618E+02  0.58520367010E+02 -0.98153350843E+02  0.12178750853E+03  0.00000000000E+00 0.  1.
<mgrwt>
<rscale>  0 0.13155331E+03</rscale>
<asrwt>0</asrwt>
<pdfrwt beam="1">  1        1 0.11401638E-01 0.14329526E+03</pdfrwt>
<pdfrwt beam="2">  1       -1 0.33001524E-01 0.14329526E+03</pdfrwt>
<totfact> 0.44690352E+03</totfact>
</mgrwt>
</event>
<event>
 7    1  0.1020736E-005  0.1415215E+03  0.7546771E-02  0.1222214E+00
          1   -1    0    0  501    0  0.00000000000E+00  0.00000000000E+00  0.67231210454E+02  0.67231210454E+02  0.00000000000E+00 0. -1.
         -1   -1    0    0    0  501 -0.00000000000E+00 -0.00000000000E+00 -0.27074283049E+03  0.27074283049E+03  0.00000000000E+00 0.  1.
         23    2    1    2    0    0 -0.28377087328E+02  0.60149163773E+02 -0.14827431297E+03  0.18605466955E+03  0.90597390629E+02 0.  0.
          5    1    1    2  502    0 -0.37893847821E+02  0.12115158344E+02 -0.31409287510E+02  0.50905344575E+02  0.47000000000E+01 0.  1.
         -5    1    1    2    0  502  0.66270935149E+02 -0.72264322117E+02 -0.23828019554E+02  0.10101402681E+03  0.47000000000E+01 0.  1.
        -11    1    3    3    0    0 -0.45622582326E+02  0.56203906719E+02 -0.15165251441E+03  0.16804399506E+03  0.00000000000E+00 0.  1.
         11    1    3    3    0    0  0.17245494998E+02  0.39452570545E+01  0.33782014375E+01  0.18010674499E+02  0.00000000000E+00 0. -1.
<mgrwt>
<rscale>  0 0.13359704E+03</rscale>
<asrwt>0</asrwt>
<pdfrwt beam="1">  1        1 0.10343263E-01 0.14152150E+03</pdfrwt>
<pdfrwt beam="2">  1       -1 0.41652743E-01 0.14152150E+03</pdfrwt>
<totfact> 0.33923831E+03</totfact>
</mgrwt>
</event>
<event>
 7    1  0.1020736E-005  0.1419845E+03  0.7546771E-02  0.1220848E+00
         -1   -1    0    0    0  501 -0.00000000000E+00  0.00000000000E+00  0.58640502450E+02  0.58640502450E+02  0.00000000000E+00 0.  1.
          1   -1    0    0  501    0  0.00000000000E+00 -0.00000000000E+00 -0.28969249223E+03  0.28969249223E+03  0.00000000000E+00 0. -1.
         23    2    1    2    0    0  0.42384212927E+02 -0.53807654169E+02 -0.72699627160E+02  0.13564762305E+03  0.91778846682E+02 0.  0.
          5    1    1    2  502    0  0.15070404739E+02 -0.30381424911E+02 -0.16654423731E+02  0.38073716767E+02  0.47000000000E+01 0. -1.
         -5    1    1    2    0  502 -0.57454617667E+02  0.84189079080E+02 -0.14169793889E+03  0.17461165486E+03  0.47000000000E+01 0. -1.
        -11    1    3    3    0    0 -0.15154517124E+01  0.22512714472E+02 -0.30694448593E+02  0.38095512613E+02  0.00000000000E+00 0. -1.
         11    1    3    3    0    0  0.43899664640E+02 -0.76320368641E+02 -0.42005178567E+02  0.97552110441E+02  0.00000000000E+00 0.  1.
<mgrwt>
<rscale>  0 0.13455564E+03</rscale>
<asrwt>0</asrwt>
<pdfrwt beam="2">  1        1 0.44568077E-01 0.14198449E+03</pdfrwt>
<pdfrwt beam="1">  1       -1 0.90216155E-02 0.14198449E+03</pdfrwt>
<totfact> 0.62695700E+03</totfact>
</mgrwt>
</event>
<event>
 7    1  0.1020736E-005  0.1469130E+03  0.7546771E-02  0.1213728E+00
          2   -1    0    0  501    0  0.00000000000E+00  0.00000000000E+00  0.56062350661E+02  0.56062350661E+02  0.00000000000E+00 0. -1.
         -2   -1    0    0    0  501 -0.00000000000E+00 -0.00000000000E+00 -0.39544372625E+03  0.39544372625E+03  0.00000000000E+00 0.  1.
         23    2    1    2    0    0  0.52769264142E+02  0.56332569982E+02 -0.25550048366E+03  0.28233330726E+03  0.92052406606E+02 0.  0.
          5    1    1    2  502    0  0.28996840519E+02 -0.34249879233E+01  0.12468704633E+02  0.32095262853E+02  0.47000000000E+01 0.  1.
         -5    1    1    2    0  502 -0.81766104662E+02 -0.52907582059E+02 -0.96349596567E+02  0.13707750680E+03  0.47000000000E+01 0.  1.
        -11    1    3    3    0    0 -0.17406546044E+02  0.41738272893E+02 -0.13209981008E+03  0.13962604017E+03  0.00000000000E+00 0. -1.
         11    1    3    3    0    0  0.70175810187E+02  0.14594297089E+02 -0.12340067358E+03  0.14270726709E+03  0.00000000000E+00 0.  1.
<mgrwt>
<rscale>  0 0.13970419E+03</rscale>
<asrwt>0</asrwt>
<pdfrwt beam="1">  1        2 0.86249769E-02 0.14691297E+03</pdfrwt>
<pdfrwt beam="2">  1       -2 0.60837497E-01 0.14691297E+03</pdfrwt>
<totfact> 0.19243789E+03</totfact>
</mgrwt>
</event>
<event>
 7    1  0.1020736E-005  0.1479594E+03  0.7546771E-02  0.1213857E+00
         -1   -1    0    0    0  501 -0.00000000000E+00  0.00000000000E+00  0.32366017930E+02  0.32366017930E+02  0.00000000000E+00 0.  1.
          1   -1    0    0  501    0  0.00000000000E+00 -0.00000000000E+00 -0.58557812519E+03  0.58557812519E+03  0.00000000000E+00 0. -1.
         23    2    1    2    0    0  0.14417659825E+02  0.77845678047E+02 -0.16450648009E+03  0.20203061839E+03  0.86522657558E+02 0.  0.
          5    1    1    2  502    0 -0.36235162402E+02 -0.56326202952E+02 -0.74927122042E+02  0.10060711581E+03  0.47000000000E+01 0.  1.
         -5    1    1    2    0  502  0.21817502577E+02 -0.21519475095E+02 -0.31377850514E+03  0.31530640893E+03  0.47000000000E+01 0.  1.
        -11    1    3    3    0    0 -0.16348853282E+02  0.58589140055E+02 -0.15186901266E+03  0.16359758355E+03  0.00000000000E+00 0.  1.
         11    1    3    3    0    0  0.30766513108E+02  0.19256537992E+02 -0.12637467426E+02  0.38433034842E+02  0.00000000000E+00 0. -1.
<mgrwt>
<rscale>  0 0.13960809E+03</rscale>
<asrwt>0</asrwt>
<pdfrwt beam="2">  1        1 0.90088940E-01 0.14795944E+03</pdfrwt>
<pdfrwt beam="1">  1       -1 0.49793875E-02 0.14795944E+03</pdfrwt>
<totfact> 0.62334060E+03</totfact>
</mgrwt>
</event>
<event>
 7    1  0.1020736E-005  0.1345630E+03  0.7546771E-02  0.1231970E+00
          2   -1    0    0  501    0  0.00000000000E+00  0.00000000000E+00  0.13908981623E+03  0.13908981623E+03  0.00000000000E+00 0. -1.
         -2   -1    0    0    0  501 -0.00000000000E+00 -0.00000000000E+00 -0.10698987456E+03  0.10698987456E+03  0.00000000000E+00 0.  1.
         23    2    1    2    0    0 -0.65118236082E+01 -0.49396036111E+02 -0.36675313868E+01  0.10684419812E+03  0.94445008635E+02 0.  0.
          5    1    1    2  502    0  0.22411057247E+02  0.79372756522E+02 -0.87407096261E+01  0.83070933362E+02  0.47000000000E+01 0. -1.
         -5    1    1    2    0  502 -0.15899233639E+02 -0.29976720412E+02  0.44508182679E+02  0.56164559308E+02  0.47000000000E+01 0. -1.
        -11    1    3    3    0    0 -0.24726317676E+02  0.21135090403E+02 -0.91571545007E+01  0.33792548153E+02  0.00000000000E+00 0.  1.
         11    1    3    3    0    0  0.18214494067E+02 -0.70531126514E+02  0.54896231139E+01  0.73051649970E+02  0.00000000000E+00 0. -1.
<mgrwt>
<rscale>  0 0.12700419E+03</rscale>
<asrwt>0</asrwt>
<pdfrwt beam="1">  1        2 0.21398433E-01 0.13456303E+03</pdfrwt>
<pdfrwt beam="2">  1       -2 0.16459981E-01 0.13456303E+03</pdfrwt>
<totfact> 0.71254012E+03</totfact>
</mgrwt>
</event>
<event>
 7    1  0.1020736E-005  0.1398981E+03  0.7546771E-02  0.1225100E+00
          1   -1    0    0  501    0  0.00000000000E+00  0.00000000000E+00  0.45553215252E+03  0.45553215252E+03  0.00000000000E+00 0. -1.
         -1   -1    0    0    0  501 -0.00000000000E+00 -0.00000000000E+00 -0.36227798149E+02  0.36227798149E+02  0.00000000000E+00 0.  1.
         23    2    1    2    0    0  0.62756343771E+02  0.27487199391E+01  0.12710254843E+03  0.16779487542E+03  0.89744906563E+02 0.  0.
          5    1    1    2  502    0 -0.65061478568E+01  0.55832469643E+02  0.92671290055E+02  0.10848802988E+03  0.47000000000E+01 0.  1.
         -5    1    1    2    0  502 -0.56250195914E+02 -0.58581189582E+02  0.19953051588E+03  0.21547704537E+03  0.47000000000E+01 0.  1.
        -11    1    3    3    0    0  0.42841845053E+02 -0.38425932934E+02  0.42226242935E+02  0.71379490063E+02  0.00000000000E+00 0.  1.
         11    1    3    3    0    0  0.19914498718E+02  0.41174652873E+02  0.84876305494E+02  0.96415385353E+02  0.00000000000E+00 0. -1.
<mgrwt>
<rscale>  0 0.13160027E+03</rscale>
<asrwt>0</asrwt>
<pdfrwt beam="1">  1        1 0.70081866E-01 0.13989809E+03</pdfrwt>
<pdfrwt beam="2">  1       -1 0.55735077E-02 0.13989809E+03</pdfrwt>
<totfact> 0.73164673E+03</totfact>
</mgrwt>
</event>
<event>
 7    1  0.1020736E-005  0.1680382E+03  0.7546771E-02  0.1207164E+00
         -1   -1    0    0    0  501 -0.00000000000E+00  0.00000000000E+00  0.43061264749E+02  0.43061264749E+02  0.00000000000E+00 0.  1.
          1   -1    0    0  501    0  0.00000000000E+00 -0.00000000000E+00 -0.53214269228E+03  0.53214269228E+03  0.00000000000E+00 0. -1.
         23    2    1    2    0    0 -0.56784320753E+01 -0.10820576208E+02 -0.49891960006E+02  0.10496546405E+03  0.91538033127E+02 0.  0.
          5    1    1    2  502    0 -0.71679736045E+02  0.43349751328E+02 -0.21182760092E+03  0.22783811799E+03  0.47000000000E+01 0. -1.
         -5    1    1    2    0  502  0.77358168121E+02 -0.32529175120E+02 -0.22736186661E+03  0.24240037500E+03  0.47000000000E+01 0. -1.
        -11    1    3    3    0    0 -0.48058706140E+02 -0.21109328637E+01 -0.18627798766E+02  0.51585755401E+02  0.00000000000E+00 0.  1.
         11    1    3    3    0    0  0.42380274065E+02 -0.87096433442E+01 -0.31264161240E+02  0.53379708645E+02  0.00000000000E+00 0. -1.
<mgrwt>
<rscale>  0 0.14468231E+03</rscale>
<asrwt>0</asrwt>
<pdfrwt beam="2">  1        1 0.81868108E-01 0.16803825E+03</pdfrwt>
<pdfrwt beam="1">  1       -1 0.66248098E-02 0.16803825E+03</pdfrwt>
<totfact> 0.46577628E+03</totfact>
</mgrwt>
</event>
<event>
 7    1  0.1020736E-005  0.1485564E+03  0.7546771E-02  0.1211916E+00
          2   -1    0    0  501    0  0.00000000000E+00  0.00000000000E+00  0.28758296628E+03  0.28758296628E+03  0.00000000000E+00 0. -1.
         -2   -1    0    0    0  501 -0.00000000000E+00 -0.00000000000E+00 -0.63068615479E+02  0.63068615479E+02  0.00000000000E+00 0.  1.
         23    2    1    2    0    0  0.72203449656E+02 -0.35080606567E+02  0.10386006336E+03  0.15927116565E+03  0.90202019628E+02 0.  0.
          5    1    1    2  502    0 -0.75610376625E+02  0.44163683905E+02  0.14232876328E+03  0.16717334383E+03  0.47000000000E+01 0.  1.
         -5    1    1    2    0  502  0.34069269684E+01 -0.90830773377E+01 -0.21674475846E+02  0.24207072282E+02  0.47000000000E+01 0.  1.
        -11    1    3    3    0    0 -0.11962698228E+02 -0.33149457660E+02  0.20378691410E+02  0.40709750130E+02  0.00000000000E+00 0. -1.
         11    1    3    3    0    0  0.84166147885E+02 -0.19311489066E+01  0.83481371953E+02  0.11856141552E+03  0.00000000000E+00 0.  1.
<mgrwt>
<rscale>  0 0.14105539E+03</rscale>
<asrwt>0</asrwt>
<pdfrwt beam="1">  1        2 0.44243533E-01 0.14855641E+03</pdfrwt>
<pdfrwt beam="2">  1       -2 0.97028641E-02 0.14855641E+03</pdfrwt>
<totfact> 0.76259522E+03</totfact>
</mgrwt>
</event>
<event>
 7    1  0.1020736E-005  0.1507634E+03  0.7546771E-02  0.1208906E+00
         -1   -1    0    0    0  501 -0.00000000000E+00  0.00000000000E+00  0.39085793218E+02  0.39085793218E+02  0.00000000000E+00 0.  1.
          1   -1    0    0  501    0  0.00000000000E+00 -0.00000000000E+00 -0.48592967480E+03  0.48592967480E+03  0.00000000000E+00 0. -1.
         23    2    1    2    0    0  0.84258481977E+02 -0.22857739610E+01 -0.17240998458E+03  0.21189636589E+03  0.89834016654E+02 0.  0.
          5    1    1    2  502    0 -0.73283017300E+02 -0.54573303636E+02 -0.14836853485E+03  0.17430994873E+03  0.47000000000E+01 0. -1.
         -5    1    1    2    0  502 -0.10975464677E+02  0.56859077597E+02 -0.12606536216E+03  0.13880915340E+03  0.47000000000E+01 0. -1.
        -11    1    3    3    0    0  0.34557202086E+02 -0.44007362701E+02 -0.10057121231E+03  0.11508873504E+03  0.00000000000E+00 0. -1.
         11    1    3    3    0    0  0.49701279891E+02  0.41721588740E+02 -0.71838772267E+02  0.96807630850E+02  0.00000000000E+00 0.  1.
<mgrwt>
<rscale>  0 0.14333841E+03</rscale>
<asrwt>0</asrwt>
<pdfrwt beam="2">  1        1 0.74758405E-01 0.15076342E+03</pdfrwt>
<pdfrwt beam="1">  1       -1 0.60131995E-02 0.15076342E+03</pdfrwt>
<totfact> 0.60367028E+03</totfact>
</mgrwt>
</event>
<event>
 7    1  0.1020736E-005  0.1366671E+03  0.7546771E-02  0.1231307E+00
         -2   -1    0    0    0  501 -0.00000000000E+00  0.00000000000E+00  0.34066105342E+03  0.34066105342E+03  0.00000000000E+00 0.  1.
          2   -1    0    0  501    0  0.00000000000E+00 -0.00000000000E+00 -0.49879645720E+02  0.49879645720E+02  0.00000000000E+00 0. -1.
         23    2    1    2    0    0 -0.19945320086E+02 -0.51429801934E+02  0.20392791124E+03  0.22861035377E+03  0.87368532938E+02 0.  0.
          5    1    1    2  502    0  0.26310211341E+02  0.40475427754E+02 -0.21272550614E+02  0.52963184216E+02  0.47000000000E+01 0. -1.
         -5    1    1    2    0  502 -0.63648912553E+01  0.10954374180E+02  0.10812604707E+03  0.10896716115E+03  0.47000000000E+01 0. -1.
        -11    1    3    3    0    0  0.27260687844E+02 -0.17100132014E+02  0.13257579972E+03  0.13642544589E+03  0.00000000000E+00 0.  1.
         11    1    3    3    0    0 -0.47206007930E+02 -0.34329669920E+02  0.71352111529E+02  0.92184907882E+02  0.00000000000E+00 0. -1.
<mgrwt>
<rscale>  0 0.12743821E+03</rscale>
<asrwt>0</asrwt>
<pdfrwt beam="2">  1        2 0.76737919E-02 0.13666714E+03</pdfrwt>
<pdfrwt beam="1">  1       -2 0.52409391E-01 0.13666714E+03</pdfrwt>
<totfact> 0.30035363E+03</totfact>
</mgrwt>
</event>
<event>
 7    1  0.1020736E-005  0.1436976E+03  0.7546771E-02  0.1224219E+00
         -1   -1    0    0    0  501 -0.00000000000E+00  0.00000000000E+00  0.27331773759E+02  0.27331773759E+02  0.00000000000E+00 0.  1.
          1   -1    0    0  501    0  0.00000000000E+00 -0.00000000000E+00 -0.61179446097E+03  0.61179446097E+03  0.00000000000E+00 0. -1.
         23    2    1    2    0    0  0.23126373534E+02 -0.67033525150E+02 -0.15343517884E+03  0.18477647545E+03  0.74643614119E+02 0.  0.
          5    1    1    2  502    0  0.16964628312E+02  0.43551582552E+02 -0.38805493215E+03  0.39088778354E+03  0.47000000000E+01 0. -1.
         -5    1    1    2    0  502 -0.40091001846E+02  0.23481942598E+02 -0.42972576227E+02  0.63461975739E+02  0.47000000000E+01 0. -1.
        -11    1    3    3    0    0  0.39967634121E+02 -0.42822545720E+02 -0.14116090060E+03  0.15283187514E+03  0.00000000000E+00 0. -1.
         11    1    3    3    0    0 -0.16841260588E+02 -0.24210979429E+02 -0.12274278238E+02  0.31944600316E+02  0.00000000000E+00 0.  1.
<mgrwt>
<rscale>  0 0.13220572E+03</rscale>
<asrwt>0</asrwt>
<pdfrwt beam="2">  1        1 0.94122218E-01 0.14369757E+03</pdfrwt>
<pdfrwt beam="1">  1       -1 0.42048886E-02 0.14369757E+03</pdfrwt>
<totfact> 0.75258650E+03</totfact>
</mgrwt>
</event>
<event>
 7    1  0.1020736E-005  0.1459713E+03  0.7546771E-02  0.1215519E+00
          4   -1    0    0  501    0  0.00000000000E+00  0.00000000000E+00  0.38337633409E+02  0.38337633409E+02  0.00000000000E+00 0.  1.
         -4   -1    0    0    0  501 -0.00000000000E+00 -0.00000000000E+00 -0.53132317739E+03  0.53132317739E+03  0.00000000000E+00 0. -1.
         23    2    1    2    0    0  0.60666820475E+02  0.44707220581E+02 -0.33216607999E+03  0.35247306859E+03  0.90684953039E+02 0.  0.
          5    1    1    2  502    0 -0.53739202973E+02 -0.80271847020E+02 -0.15106457677E+03  0.17937131240E+03  0.47000000000E+01 0. -1.
         -5    1    1    2    0  502 -0.69276175020E+01  0.35564626440E+02 -0.97548872209E+01  0.37816429799E+02  0.47000000000E+01 0. -1.
        -11    1    3    3    0    0  0.97672790237E+01  0.60881136551E+02 -0.13904903508E+03  0.15210702378E+03  0.00000000000E+00 0. -1.
         11    1    3    3    0    0  0.50899541451E+02 -0.16173915970E+02 -0.19311704491E+03  0.20036604481E+03  0.00000000000E+00 0.  1.
<mgrwt>
<rscale>  0 0.13838499E+03</rscale>
<asrwt>0</asrwt>
<pdfrwt beam="1">  1        4 0.58980974E-02 0.14597128E+03</pdfrwt>
<pdfrwt beam="2">  1       -4 0.81742029E-01 0.14597128E+03</pdfrwt>
<totfact> 0.41693247E+02</totfact>
</mgrwt>
</event>
<event>
 7    1  0.1020736E-005  0.1655837E+03  0.7546771E-02  0.1189636E+00
          2   -1    0    0  501    0  0.00000000000E+00  0.00000000000E+00  0.23566919541E+03  0.23566919541E+03  0.00000000000E+00 0. -1.
         -2   -1    0    0    0  501 -0.00000000000E+00 -0.00000000000E+00 -0.10024258753E+03  0.10024258753E+03  0.00000000000E+00 0.  1.
         23    2    1    2    0    0  0.19311632224E+01 -0.10857636932E+03  0.53508634192E+02  0.15117274054E+03  0.90539859629E+02 0.  0.
          5    1    1    2  502    0  0.92995783842E+01  0.13397563677E+03  0.80260261235E+02  0.15652396922E+03  0.47000000000E+01 0.  1.
         -5    1    1    2    0  502 -0.11230741607E+02 -0.25399267450E+02  0.16577124567E+01  0.28215073182E+02  0.47000000000E+01 0.  1.
        -11    1    3    3    0    0  0.34689440667E+02 -0.35953992866E+02 -0.79034045887E+01  0.50581722992E+02  0.00000000000E+00 0.  1.
         11    1    3    3    0    0 -0.32758277445E+02 -0.72622376458E+02  0.61412038781E+02  0.10059101754E+03  0.00000000000E+00 0. -1.
<mgrwt>
<rscale>  0 0.15917133E+03</rscale>
<asrwt>0</asrwt>
<pdfrwt beam="1">  1        2 0.36256799E-01 0.16558369E+03</pdfrwt>
<pdfrwt beam="2">  1       -2 0.15421937E-01 0.16558369E+03</pdfrwt>
<totfact> 0.45102635E+03</totfact>
</mgrwt>
</event>
<event>
 7    1  0.1020736E-005  0.1308057E+03  0.7546771E-02  0.1238328E+00
         -2   -1    0    0    0  501 -0.00000000000E+00  0.00000000000E+00  0.62791745855E+02  0.62791745855E+02  0.00000000000E+00 0.  1.
          2   -1    0    0  501    0  0.00000000000E+00 -0.00000000000E+00 -0.32305764456E+03  0.32305764456E+03  0.00000000000E+00 0. -1.
         23    2    1    2    0    0 -0.29161090226E+02 -0.32247569666E+02 -0.88545651922E+01  0.10244546845E+03  0.92338484654E+02 0.  0.
          5    1    1    2  502    0  0.35567329029E+02 -0.72294621253E+01 -0.23824187869E+03  0.24103647603E+03  0.47000000000E+01 0. -1.
         -5    1    1    2    0  502 -0.64062388029E+01  0.39477031791E+02 -0.13169454825E+02  0.42367445935E+02  0.47000000000E+01 0.  1.
        -11    1    3    3    0    0  0.18082457725E+02 -0.68878593362E+01  0.30369859505E+02  0.36010363091E+02  0.00000000000E+00 0. -1.
         11    1    3    3    0    0 -0.47243547951E+02 -0.25359710330E+02 -0.39224424697E+02  0.66435105357E+02  0.00000000000E+00 0.  1.
<mgrwt>
<rscale>  0 0.12293797E+03</rscale>
<asrwt>0</asrwt>
<pdfrwt beam="2">  1        2 0.49701175E-01 0.13080567E+03</pdfrwt>
<pdfrwt beam="1">  1       -2 0.96602688E-02 0.13080567E+03</pdfrwt>
<totfact> 0.67317236E+03</totfact>
</mgrwt>
</event>
<event>
 7    1  0.1020736E-005  0.2146326E+03  0.7546771E-02  0.1141482E+00
         -1   -1    0    0    0  501 -0.00000000000E+00  0.00000000000E+00  0.33938504949E+02  0.33938504949E+02  0.00000000000E+00 0.  1.
          1   -1    0    0  501    0  0.00000000000E+00 -0.00000000000E+00 -0.15901913705E+04  0.15901913705E+04  0.00000000000E+00 0. -1.
         23    2    1    2    0    0  0.14458790820E+03 -0.97658760382E+02 -0.37604745458E+03  0.42456663347E+03  0.91663741394E+02 0.  0.
          5    1    1    2  502    0  0.21977621871E+02  0.10334511998E+02 -0.94754554111E+02  0.97930248269E+02  0.47000000000E+01 0. -1.
         -5    1    1    2    0  502 -0.16656553007E+03  0.87324248384E+02 -0.10854508569E+04  0.11016329937E+04  0.47000000000E+01 0. -1.
        -11    1    3    3    0    0  0.85252238897E+02 -0.10189082666E+03 -0.21331636763E+03  0.25130371564E+03  0.00000000000E+00 0.  1.
         11    1    3    3    0    0  0.59335669301E+02  0.42320662826E+01 -0.16273108695E+03  0.17326291783E+03  0.00000000000E+00 0. -1.
<mgrwt>
<rscale>  0 0.21010620E+03</rscale>
<asrwt>0</asrwt>
<pdfrwt beam="2">  1        1 0.24464483E+00 0.21463261E+03</pdfrwt>
<pdfrwt beam="1">  1       -1 0.52213083E-02 0.21463261E+03</pdfrwt>
<totfact> 0.10331372E+03</totfact>
</mgrwt>
</event>
<event>
 7    1  0.1020736E-005  0.2209891E+03  0.7546771E-02  0.1137084E+00
         -1   -1    0    0    0  501 -0.00000000000E+00  0.00000000000E+00  0.30272886074E+03  0.30272886074E+03  0.00000000000E+00 0.  1.
          1   -1    0    0  501    0  0.00000000000E+00 -0.00000000000E+00 -0.38616252589E+03  0.38616252589E+03  0.00000000000E+00 0. -1.
         23    2    1    2    0    0 -0.94690049383E+02  0.15343919898E+03  0.23003971000E+03  0.30535293371E+03  0.88387514465E+02 0.  0.
          5    1    1    2  502    0  0.10704911668E+03 -0.83779981721E+02 -0.26432041547E+03  0.29726414307E+03  0.47000000000E+01 0. -1.
         -5    1    1    2    0  502 -0.12359067293E+02 -0.69659217259E+02 -0.49152959680E+02  0.86274309842E+02  0.47000000000E+01 0.  1.
        -11    1    3    3    0    0 -0.57491104791E+02  0.13512086439E+03  0.12649325008E+03  0.19381284126E+03  0.00000000000E+00 0.  1.
         11    1    3    3    0    0 -0.37198944592E+02  0.18318334593E+02  0.10354645992E+03  0.11154009245E+03  0.00000000000E+00 0. -1.
<mgrwt>
<rscale>  0 0.21576009E+03</rscale>
<asrwt>0</asrwt>
<pdfrwt beam="2">  1        1 0.59409620E-01 0.22098911E+03</pdfrwt>
<pdfrwt beam="1">  1       -1 0.46573671E-01 0.22098911E+03</pdfrwt>
<totfact> 0.30063870E+02</totfact>
</mgrwt>
</event>
<event>
 7    1  0.1020736E-005  0.1484776E+03  0.7546771E-02  0.1211938E+00
          1   -1    0    0  501    0  0.00000000000E+00  0.00000000000E+00  0.52435494704E+03  0.52435494704E+03  0.00000000000E+00 0. -1.
         -1   -1    0    0    0  501 -0.00000000000E+00 -0.00000000000E+00 -0.34652505430E+02  0.34652505430E+02  0.00000000000E+00 0.  1.
         23    2    1    2    0    0 -0.55868476055E+02  0.57443474765E+02  0.23131708619E+03  0.26099974194E+03  0.90510946946E+02 0.  0.
          5    1    1    2  502    0  0.22211129863E+02 -0.66737152714E+02  0.25266511371E+03  0.26231456599E+03  0.47000000000E+01 0.  1.
         -5    1    1    2    0  502  0.33657346192E+02  0.92936779486E+01  0.57202417091E+01  0.35693144548E+02  0.47000000000E+01 0.  1.
        -11    1    3    3    0    0 -0.67752234704E+02  0.71620085182E+02  0.16557015570E+03  0.19269996982E+03  0.00000000000E+00 0.  1.
         11    1    3    3    0    0  0.11883758650E+02 -0.14176610417E+02  0.65746930492E+02  0.68299772120E+02  0.00000000000E+00 0. -1.
<mgrwt>
<rscale>  0 0.14103899E+03</rscale>
<asrwt>0</asrwt>
<pdfrwt beam="1">  1        1 0.80669986E-01 0.14847762E+03</pdfrwt>
<pdfrwt beam="2">  1       -1 0.53311551E-02 0.14847762E+03</pdfrwt>
<totfact> 0.65311069E+03</totfact>
</mgrwt>
</event>
<event>
 7    1  0.1020736E-005  0.1412631E+03  0.7546771E-02  0.1226630E+00
          1   -1    0    0  501    0  0.00000000000E+00  0.00000000000E+00  0.17784425686E+03  0.17784425686E+03  0.00000000000E+00 0. -1.
         -1   -1    0    0    0  501 -0.00000000000E+00 -0.00000000000E+00 -0.10589021507E+03  0.10589021507E+03  0.00000000000E+00 0.  1.
         23    2    1    2    0    0 -0.98550978162E+01 -0.49366116985E+02 -0.32472886042E+02  0.10806365746E+03  0.89939586818E+02 0.  0.
          5    1    1    2  502    0 -0.47690288876E+01  0.84421065702E+02  0.10798661713E+03  0.13723286578E+03  0.47000000000E+01 0. -1.
         -5    1    1    2    0  502  0.14624126704E+02 -0.35054948717E+02 -0.35596892996E+01  0.38437948687E+02  0.47000000000E+01 0.  1.
        -11    1    3    3    0    0 -0.27354667773E+02  0.17745596466E+02 -0.31308383435E+01  0.32756467936E+02  0.00000000000E+00 0. -1.
         11    1    3    3    0    0  0.17499569957E+02 -0.67111713451E+02 -0.29342047699E+02  0.75307189525E+02  0.00000000000E+00 0.  1.
<mgrwt>
<rscale>  0 0.13055807E+03</rscale>
<asrwt>0</asrwt>
<pdfrwt beam="1">  1        1 0.27360655E-01 0.14126306E+03</pdfrwt>
<pdfrwt beam="2">  1       -1 0.16290802E-01 0.14126306E+03</pdfrwt>
<totfact> 0.46039785E+03</totfact>
</mgrwt>
</event>
<event>
 7    1  0.1020736E-005  0.2344046E+03  0.7546771E-02  0.1158971E+00
         -2   -1    0    0    0  501 -0.00000000000E+00  0.00000000000E+00  0.31606270177E+02  0.31606270177E+02  0.00000000000E+00 0.  1.
          2   -1    0    0  501    0  0.00000000000E+00 -0.00000000000E+00 -0.10596438829E+04  0.10596438829E+04  0.00000000000E+00 0. -1.
         23    2    1    2    0    0 -0.13794999112E+01  0.33122077502E+02 -0.13521670232E+03  0.16817123379E+03  0.94334682104E+02 0.  0.
          5    1    1    2  502    0 -0.22562232966E+02  0.78126367248E+02 -0.64756890370E+03  0.65267170818E+03  0.47000000000E+01 0. -1.
         -5    1    1    2    0  502  0.23941732878E+02 -0.11124844475E+03 -0.24525200670E+03  0.27040721111E+03  0.47000000000E+01 0.  1.
        -11    1    3    3    0    0  0.12325565664E+02 -0.24998514189E+02 -0.87199560622E+02  0.91545664306E+02  0.00000000000E+00 0. -1.
         11    1    3    3    0    0 -0.13705065576E+02  0.58120591691E+02 -0.48017141703E+02  0.76625569481E+02  0.00000000000E+00 0.  1.
<mgrwt>
<rscale>  0 0.18943655E+03</rscale>
<asrwt>0</asrwt>
<pdfrwt beam="2">  1        2 0.16302212E+00 0.23440459E+03</pdfrwt>
<pdfrwt beam="1">  1       -2 0.48625036E-02 0.23440459E+03</pdfrwt>
<totfact> 0.49062663E+03</totfact>
</mgrwt>
</event>
<event>
 7    1  0.1020736E-005  0.1325058E+03  0.7546771E-02  0.1236729E+00
          1   -1    0    0  501    0  0.00000000000E+00  0.00000000000E+00  0.97969588250E+03  0.97969588250E+03  0.00000000000E+00 0. -1.
         -1   -1    0    0    0  501 -0.00000000000E+00 -0.00000000000E+00 -0.13978109250E+02  0.13978109250E+02  0.00000000000E+00 0.  1.
         23    2    1    2    0    0 -0.14391849530E+02 -0.41576662577E+02  0.40414918005E+03  0.41668433059E+03  0.91397633578E+02 0.  0.
          5    1    1    2  502    0 -0.44987788158E+02 -0.17584725943E+02  0.20063843837E+03  0.20642431209E+03  0.47000000000E+01 0. -1.
         -5    1    1    2    0  502  0.59379637688E+02  0.59161388520E+02  0.36093015483E+03  0.37056534906E+03  0.47000000000E+01 0. -1.
        -11    1    3    3    0    0 -0.11903733450E+02  0.28526342470E+02  0.10761887650E+03  0.11196996769E+03  0.00000000000E+00 0.  1.
         11    1    3    3    0    0 -0.24881160793E+01 -0.70103005047E+02  0.29653030355E+03  0.30471436290E+03  0.00000000000E+00 0. -1.
<mgrwt>
<rscale>  0 0.12394363E+03</rscale>
<asrwt>0</asrwt>
<pdfrwt beam="1">  1        1 0.15072239E+00 0.13250579E+03</pdfrwt>
<pdfrwt beam="2">  1       -1 0.21504791E-02 0.13250579E+03</pdfrwt>
<totfact> 0.98345664E+03</totfact>
</mgrwt>
</event>
<event>
 7    1  0.1020736E-005  0.1407905E+03  0.7546771E-02  0.1222544E+00
          2   -1    0    0  501    0  0.00000000000E+00  0.00000000000E+00  0.16620366409E+03  0.16620366409E+03  0.00000000000E+00 0. -1.
         -2   -1    0    0    0  501 -0.00000000000E+00 -0.00000000000E+00 -0.97159991462E+02  0.97159991462E+02  0.00000000000E+00 0.  1.
         23    2    1    2    0    0  0.58989836125E+02  0.26810203109E+02  0.30648376649E+02  0.11743156638E+03  0.93017536164E+02 0.  0.
          5    1    1    2  502    0  0.14105816810E+02 -0.41624994962E+00 -0.35562315882E+02  0.38547576354E+02  0.47000000000E+01 0. -1.
         -5    1    1    2    0  502 -0.73095652935E+02 -0.26393953160E+02  0.73957611861E+02  0.10738451282E+03  0.47000000000E+01 0. -1.
        -11    1    3    3    0    0  0.16866374629E+02  0.26824432085E+02 -0.29969926941E+02  0.43614461714E+02  0.00000000000E+00 0.  1.
         11    1    3    3    0    0  0.42123461497E+02 -0.14228975223E-01  0.60618303590E+02  0.73817104664E+02  0.00000000000E+00 0. -1.
<mgrwt>
<rscale>  0 0.13336645E+03</rscale>
<asrwt>0</asrwt>
<pdfrwt beam="1">  1        2 0.25569795E-01 0.14079054E+03</pdfrwt>
<pdfrwt beam="2">  1       -2 0.14947691E-01 0.14079054E+03</pdfrwt>
<totfact> 0.68700249E+03</totfact>
</mgrwt>
</event>
<event>
 7    1  0.1020736E-005  0.1252833E+03  0.7546771E-02  0.1249609E+00
          2   -1    0    0  501    0  0.00000000000E+00  0.00000000000E+00  0.48725303227E+03  0.48725303227E+03  0.00000000000E+00 0. -1.
         -2   -1    0    0    0  501 -0.00000000000E+00 -0.00000000000E+00 -0.27629933837E+02  0.27629933837E+02  0.00000000000E+00 0.  1.
         23    2    1    2    0    0 -0.45988889718E+01  0.70777278135E+01  0.11138705612E+03  0.14479615324E+03  0.92128202585E+02 0.  0.
          5    1    1    2  502    0  0.51944849931E+01 -0.51408657226E+02  0.29979743694E+03  0.30425388396E+03  0.47000000000E+01 0. -1.
         -5    1    1    2    0  502 -0.59559602123E+00  0.44330929412E+02  0.48438605377E+02  0.65832928904E+02  0.47000000000E+01 0. -1.
        -11    1    3    3    0    0  0.25743268070E+02  0.29587117445E+01  0.11119569122E+03  0.11417509173E+03  0.00000000000E+00 0. -1.
         11    1    3    3    0    0 -0.30342157042E+02  0.41190160690E+01  0.19136489772E+00  0.30621061508E+02  0.00000000000E+00 0.  1.
<mgrwt>
<rscale>  0 0.11613733E+03</rscale>
<asrwt>0</asrwt>
<pdfrwt beam="1">  1        2 0.74961999E-01 0.12528331E+03</pdfrwt>
<pdfrwt beam="2">  1       -2 0.42507594E-02 0.12528331E+03</pdfrwt>
<totfact> 0.15084016E+04</totfact>
</mgrwt>
</event>
<event>
 7    1  0.1020736E-005  0.1672865E+03  0.7546771E-02  0.1207416E+00
          2   -1    0    0  501    0  0.00000000000E+00  0.00000000000E+00  0.93547859941E+03  0.93547859941E+03  0.00000000000E+00 0. -1.
         -2   -1    0    0    0  501 -0.00000000000E+00 -0.00000000000E+00 -0.25775022899E+02  0.25775022899E+02  0.00000000000E+00 0.  1.
         23    2    1    2    0    0 -0.11704142126E+02 -0.16382952548E+02  0.10938123769E+03  0.14363475699E+03  0.90891694777E+02 0.  0.
          5    1    1    2  502    0  0.52895989806E+02  0.35804784826E+02  0.73536358485E+03  0.73814745158E+03  0.47000000000E+01 0. -1.
         -5    1    1    2    0  502 -0.41191847679E+02 -0.19421832277E+02  0.64958753976E+02  0.79471413743E+02  0.47000000000E+01 0.  1.
        -11    1    3    3    0    0 -0.36727244557E+02 -0.37557990119E+02  0.93417149338E+02  0.10717395628E+03  0.00000000000E+00 0.  1.
         11    1    3    3    0    0  0.25023102431E+02  0.21175037571E+02  0.15964088355E+02  0.36460800709E+02  0.00000000000E+00 0. -1.
<mgrwt>
<rscale>  0 0.14448650E+03</rscale>
<asrwt>0</asrwt>
<pdfrwt beam="1">  1        2 0.14391976E+00 0.16728647E+03</pdfrwt>
<pdfrwt beam="2">  1       -2 0.39653889E-02 0.16728647E+03</pdfrwt>
<totfact> 0.78424903E+03</totfact>
</mgrwt>
</event>
<event>
 7    1  0.1020736E-005  0.1308559E+03  0.7546771E-02  0.1238990E+00
         -1   -1    0    0    0  501 -0.00000000000E+00  0.00000000000E+00  0.89578599161E+03  0.89578599161E+03  0.00000000000E+00 0.  1.
          1   -1    0    0  501    0  0.00000000000E+00 -0.00000000000E+00 -0.15488450286E+02  0.15488450286E+02  0.00000000000E+00 0. -1.
         23    2    1    2    0    0 -0.37721119057E+02  0.86399918662E+01  0.46896021327E+03  0.47962449556E+03  0.92835568768E+02 0.  0.
          5    1    1    2  502    0 -0.21988405764E+02  0.15221124286E+02  0.16909039649E+02  0.31987157335E+02  0.47000000000E+01 0. -1.
         -5    1    1    2    0  502  0.59709524821E+02 -0.23861116152E+02  0.39442828840E+03  0.39966278900E+03  0.47000000000E+01 0. -1.
        -11    1    3    3    0    0 -0.57514960281E+02 -0.22785973618E+02  0.33218069492E+03  0.33789226882E+03  0.00000000000E+00 0.  1.
         11    1    3    3    0    0  0.19793841223E+02  0.31425965484E+02  0.13677951835E+03  0.14173222674E+03  0.00000000000E+00 0. -1.
<mgrwt>
<rscale>  0 0.12252397E+03</rscale>
<asrwt>0</asrwt>
<pdfrwt beam="2">  1        1 0.23828392E-02 0.13085595E+03</pdfrwt>
<pdfrwt beam="1">  1       -1 0.13781319E+00 0.13085595E+03</pdfrwt>
<totfact> 0.21469043E+03</totfact>
</mgrwt>
</event>
<event>
 7    1  0.1020736E-005  0.1349579E+03  0.7546771E-02  0.1231446E+00
         -2   -1    0    0    0  501 -0.00000000000E+00  0.00000000000E+00  0.31860391696E+02  0.31860391696E+02  0.00000000000E+00 0.  1.
          2   -1    0    0  501    0  0.00000000000E+00 -0.00000000000E+00 -0.64535379107E+03  0.64535379107E+03  0.00000000000E+00 0. -1.
         23    2    1    2    0    0  0.55514682827E+02  0.46443443571E+01 -0.10059462940E+03  0.14685694846E+03  0.91346778287E+02 0.  0.
          5    1    1    2  502    0 -0.53281995315E+02  0.50944972135E+02 -0.36202510150E+03  0.36948426939E+03  0.47000000000E+01 0. -1.
         -5    1    1    2    0  502 -0.22326875116E+01 -0.55589316492E+02 -0.15087366848E+03  0.16087296492E+03  0.47000000000E+01 0.  1.
        -11    1    3    3    0    0  0.23139010249E+01  0.40226153464E+02 -0.55411067589E+02  0.68511925764E+02  0.00000000000E+00 0. -1.
         11    1    3    3    0    0  0.53200781802E+02 -0.35581809107E+02 -0.45183561812E+02  0.78345022699E+02  0.00000000000E+00 0.  1.
<mgrwt>
<rscale>  0 0.12734695E+03</rscale>
<asrwt>0</asrwt>
<pdfrwt beam="2">  1        2 0.99285197E-01 0.13495795E+03</pdfrwt>
<pdfrwt beam="1">  1       -2 0.49015988E-02 0.13495795E+03</pdfrwt>
<totfact> 0.89466921E+03</totfact>
</mgrwt>
</event>
<event>
 7    1  0.1020736E-005  0.1388773E+03  0.7546771E-02  0.1225532E+00
         -4   -1    0    0    0  501 -0.00000000000E+00  0.00000000000E+00  0.35278155515E+02  0.35278155515E+02  0.00000000000E+00 0. -1.
          4   -1    0    0  501    0  0.00000000000E+00 -0.00000000000E+00 -0.48210230940E+03  0.48210230940E+03  0.00000000000E+00 0.  1.
         23    2    1    2    0    0 -0.33667491651E+01  0.60418057676E+02 -0.12669837456E+03  0.16842858242E+03  0.93027052867E+02 0.  0.
          5    1    1    2  502    0  0.26791748785E+02  0.14647627949E+02 -0.21696102676E+03  0.21914955611E+03  0.47000000000E+01 0. -1.
         -5    1    1    2    0  502 -0.23424999620E+02 -0.75065685625E+02 -0.10316475256E+03  0.12980232639E+03  0.47000000000E+01 0. -1.
        -11    1    3    3    0    0  0.15468672800E+02  0.12223486826E+02 -0.11326605325E+03  0.11496909275E+03  0.00000000000E+00 0.  1.
         11    1    3    3    0    0 -0.18835421965E+02  0.48194570849E+02 -0.13432321313E+02  0.53459489670E+02  0.00000000000E+00 0. -1.
<mgrwt>
<rscale>  0 0.13130488E+03</rscale>
<asrwt>0</asrwt>
<pdfrwt beam="2">  1        4 0.74169582E-01 0.13887729E+03</pdfrwt>
<pdfrwt beam="1">  1       -4 0.54274088E-02 0.13887729E+03</pdfrwt>
<totfact> 0.58546658E+02</totfact>
</mgrwt>
</event>
<event>
 7    1  0.1020736E-005  0.1895359E+03  0.7546771E-02  0.1163691E+00
         -2   -1    0    0    0  501 -0.00000000000E+00  0.00000000000E+00  0.17024528374E+02  0.17024528374E+02  0.00000000000E+00 0.  1.
          2   -1    0    0  501    0  0.00000000000E+00 -0.00000000000E+00 -0.20821212401E+04  0.20821212401E+04  0.00000000000E+00 0. -1.
         23    2    1    2    0    0 -0.74888102396E+02  0.12172105710E+03 -0.66425963234E+03  0.68554455266E+03  0.91138525874E+02 0.  0.
          5    1    1    2  502    0  0.50354062912E+02 -0.12787844459E+03 -0.76618629178E+03  0.77842915667E+03  0.47000000000E+01 0.  1.
         -5    1    1    2    0  502  0.24534039484E+02  0.61573874906E+01 -0.63465078762E+03  0.63517205916E+03  0.47000000000E+01 0.  1.
        -11    1    3    3    0    0 -0.17944841976E+02  0.10710135689E+03 -0.37688767505E+03  0.39222064913E+03  0.00000000000E+00 0.  1.
         11    1    3    3    0    0 -0.56943260420E+02  0.14619700206E+02 -0.28737195730E+03  0.29332390353E+03  0.00000000000E+00 0. -1.
<mgrwt>
<rscale>  0 0.18431536E+03</rscale>
<asrwt>0</asrwt>
<pdfrwt beam="2">  1        2 0.32032651E+00 0.18953594E+03</pdfrwt>
<pdfrwt beam="1">  1       -2 0.26191569E-02 0.18953594E+03</pdfrwt>
<totfact> 0.34893664E+03</totfact>
</mgrwt>
</event>
<event>
 7    1  0.1020736E-005  0.1333505E+03  0.7546771E-02  0.1235793E+00
         -2   -1    0    0    0  501 -0.00000000000E+00  0.00000000000E+00  0.34187801423E+02  0.34187801423E+02  0.00000000000E+00 0.  1.
          2   -1    0    0  501    0  0.00000000000E+00 -0.00000000000E+00 -0.41310318722E+03  0.41310318722E+03  0.00000000000E+00 0. -1.
         23    2    1    2    0    0  0.28341444917E+02  0.36821738419E+02 -0.12989759056E+03  0.16481582209E+03  0.90176456229E+02 0.  0.
          5    1    1    2  502    0  0.40389207058E+02  0.83519456836E+01 -0.39324574977E+02  0.57180024839E+02  0.47000000000E+01 0.  1.
         -5    1    1    2    0  502 -0.68730651975E+02 -0.45173684103E+02 -0.20969322026E+03  0.22529514172E+03  0.47000000000E+01 0.  1.
        -11    1    3    3    0    0  0.22802887377E+02 -0.75421768663E+01 -0.11531460015E+03  0.11778927418E+03  0.00000000000E+00 0. -1.
         11    1    3    3    0    0  0.55385575401E+01  0.44363915285E+02 -0.14582990413E+02  0.47026547911E+02  0.00000000000E+00 0.  1.
<mgrwt>
<rscale>  0 0.12453818E+03</rscale>
<asrwt>0</asrwt>
<pdfrwt beam="2">  1        2 0.63554338E-01 0.13335051E+03</pdfrwt>
<pdfrwt beam="1">  1       -2 0.52596617E-02 0.13335051E+03</pdfrwt>
<totfact> 0.13176586E+04</totfact>
</mgrwt>
</event>
<event>
 7    1  0.1020736E-005  0.1981101E+03  0.7546771E-02  0.1156041E+00
          2   -1    0    0  501    0  0.00000000000E+00  0.00000000000E+00  0.15478591531E+04  0.15478591531E+04  0.00000000000E+00 0.  1.
         -2   -1    0    0    0  501 -0.00000000000E+00 -0.00000000000E+00 -0.25275717481E+02  0.25275717481E+02  0.00000000000E+00 0. -1.
         23    2    1    2    0    0  0.13277775321E+03 -0.77402991654E+02  0.47615580031E+03  0.50811918103E+03  0.88541521863E+02 0.  0.
          5    1    1    2  502    0 -0.14922037472E+03  0.62776361304E+02  0.72816098884E+03  0.74595449422E+03  0.47000000000E+01 0.  1.
         -5    1    1    2    0  502  0.16442621508E+02  0.14626630350E+02  0.31826664650E+03  0.31906119537E+03  0.47000000000E+01 0.  1.
        -11    1    3    3    0    0  0.13964710318E+02 -0.48010370599E+02  0.89075147784E+02  0.10214886574E+03  0.00000000000E+00 0.  1.
         11    1    3    3    0    0  0.11881304289E+03 -0.29392621055E+02  0.38708065253E+03  0.40597031529E+03  0.00000000000E+00 0. -1.
<mgrwt>
<rscale>  0 0.19270863E+03</rscale>
<asrwt>0</asrwt>
<pdfrwt beam="1">  1        2 0.23813210E+00 0.19811013E+03</pdfrwt>
<pdfrwt beam="2">  1       -2 0.38885731E-02 0.19811013E+03</pdfrwt>
<totfact> 0.36788603E+03</totfact>
</mgrwt>
</event>
<event>
 7    1  0.1020736E-005  0.1294877E+03  0.7546771E-02  0.1238627E+00
          3   -1    0    0  501    0  0.00000000000E+00  0.00000000000E+00  0.21052904643E+03  0.21052904643E+03  0.00000000000E+00 0.  1.
         -3   -1    0    0    0  501 -0.00000000000E+00 -0.00000000000E+00 -0.67005904572E+02  0.67005904572E+02  0.00000000000E+00 0. -1.
         23    2    1    2    0    0 -0.28020995427E+01  0.33692606820E+02  0.40789905894E+02  0.11224375108E+03  0.98953523020E+02 0.  0.
          5    1    1    2  502    0 -0.15366858312E+02 -0.55018480254E+02  0.11933636825E+03  0.13238743252E+03  0.47000000000E+01 0.  1.
         -5    1    1    2    0  502  0.18168957855E+02  0.21325873434E+02 -0.16603132282E+02  0.32903767396E+02  0.47000000000E+01 0.  1.
        -11    1    3    3    0    0  0.34059136085E+02 -0.12644263984E+02 -0.59423833280E+01  0.36813232433E+02  0.00000000000E+00 0. -1.
         11    1    3    3    0    0 -0.36861235628E+02  0.46336870804E+02  0.46732289222E+02  0.75430518650E+02  0.00000000000E+00 0.  1.
<mgrwt>
<rscale>  0 0.12275041E+03</rscale>
<asrwt>0</asrwt>
<pdfrwt beam="1">  1        3 0.32389084E-01 0.12948769E+03</pdfrwt>
<pdfrwt beam="2">  1       -3 0.10308601E-01 0.12948769E+03</pdfrwt>
<totfact> 0.14872592E+03</totfact>
</mgrwt>
</event>
<event>
 7    1  0.1020736E-005  0.1319298E+03  0.7546771E-02  0.1238291E+00
         -1   -1    0    0    0  501 -0.00000000000E+00  0.00000000000E+00  0.54825329559E+02  0.54825329559E+02  0.00000000000E+00 0.  1.
          1   -1    0    0  501    0  0.00000000000E+00 -0.00000000000E+00 -0.27054798184E+03  0.27054798184E+03  0.00000000000E+00 0. -1.
         23    2    1    2    0    0  0.15436527681E+02 -0.39257113668E+02 -0.44043740585E+02  0.10885745397E+03  0.90170321278E+02 0.  0.
          5    1    1    2  502    0 -0.22204107365E+02 -0.43257887506E+02 -0.68747501609E+02  0.84336090690E+02  0.47000000000E+01 0.  1.
         -5    1    1    2    0  502  0.67675796840E+01  0.82515001174E+02 -0.10293141009E+03  0.13217976675E+03  0.47000000000E+01 0.  1.
        -11    1    3    3    0    0  0.28926899960E+02 -0.64627966192E+02 -0.30678704045E+02  0.77166848046E+02  0.00000000000E+00 0. -1.
         11    1    3    3    0    0 -0.13490372279E+02  0.25370852524E+02 -0.13365036540E+02  0.31690605922E+02  0.00000000000E+00 0.  1.
<mgrwt>
<rscale>  0 0.12296085E+03</rscale>
<asrwt>0</asrwt>
<pdfrwt beam="2">  1        1 0.41622768E-01 0.13192978E+03</pdfrwt>
<pdfrwt beam="1">  1       -1 0.84346657E-02 0.13192978E+03</pdfrwt>
<totfact> 0.75187064E+03</totfact>
</mgrwt>
</event>
<event>
 7    1  0.1020736E-005  0.1716653E+03  0.7546771E-02  0.1183319E+00
          2   -1    0    0  501    0  0.00000000000E+00  0.00000000000E+00  0.81684187678E+03  0.81684187678E+03  0.00000000000E+00 0. -1.
         -2   -1    0    0    0  501 -0.00000000000E+00 -0.00000000000E+00 -0.65546025172E+02  0.65546025172E+02  0.00000000000E+00 0.  1.
         23    2    1    2    0    0  0.83846161055E+02  0.82548151880E+02  0.41025754673E+02  0.15166730748E+03  0.86460878493E+02 0.  0.
          5    1    1    2  502    0 -0.57438883174E+02  0.69444478889E+01  0.45878277143E+03  0.46244045241E+03  0.47000000000E+01 0.  1.
         -5    1    1    2    0  502 -0.26407277881E+02 -0.89492599769E+02  0.25148732550E+03  0.26828014206E+03  0.47000000000E+01 0.  1.
        -11    1    3    3    0    0  0.43887984322E+02  0.56475399075E+01  0.47308353274E+02  0.64777543673E+02  0.00000000000E+00 0. -1.
         11    1    3    3    0    0  0.39958176733E+02  0.76900611972E+02 -0.62825986005E+01  0.86889763809E+02  0.00000000000E+00 0.  1.
<mgrwt>
<rscale>  0 0.16485797E+03</rscale>
<asrwt>0</asrwt>
<pdfrwt beam="1">  1        2 0.12566797E+00 0.17166530E+03</pdfrwt>
<pdfrwt beam="2">  1       -2 0.10084005E-01 0.17166530E+03</pdfrwt>
<totfact> 0.22418858E+03</totfact>
</mgrwt>
</event>
<event>
 7    1  0.1020736E-005  0.3280955E+03  0.7546771E-02  0.1073285E+00
         -1   -1    0    0    0  501 -0.00000000000E+00  0.00000000000E+00  0.20667173164E+03  0.20667173164E+03  0.00000000000E+00 0.  1.
          1   -1    0    0  501    0  0.00000000000E+00 -0.00000000000E+00 -0.63013755445E+03  0.63013755445E+03  0.00000000000E+00 0. -1.
         23    2    1    2    0    0 -0.20375322873E+02  0.30266184536E+03 -0.20677068038E+02  0.31730432267E+03  0.90747703113E+02 0.  0.
          5    1    1    2  502    0  0.55111940800E+02 -0.26745738733E+03 -0.30228495547E+03  0.40739300971E+03  0.47000000000E+01 0.  1.
         -5    1    1    2    0  502 -0.34736617928E+02 -0.35204458031E+02 -0.10050379930E+03  0.11211195371E+03  0.47000000000E+01 0.  1.
        -11    1    3    3    0    0  0.32372950217E+02  0.58743030496E+02 -0.44256059607E+01  0.67218580212E+02  0.00000000000E+00 0.  1.
         11    1    3    3    0    0 -0.52748273089E+02  0.24391881487E+03 -0.16251462077E+02  0.25008574246E+03  0.00000000000E+00 0. -1.
<mgrwt>
<rscale>  0 0.32519072E+03</rscale>
<asrwt>0</asrwt>
<pdfrwt beam="2">  1        1 0.96944239E-01 0.32809545E+03</pdfrwt>
<pdfrwt beam="1">  1       -1 0.31795651E-01 0.32809545E+03</pdfrwt>
<totfact> 0.30422713E+02</totfact>
</mgrwt>
</event>
<event>
 7    1  0.1020736E-005  0.1369180E+03  0.7546771E-02  0.1229279E+00
         -2   -1    0    0    0  501 -0.00000000000E+00  0.00000000000E+00  0.27499100925E+02  0.27499100925E+02  0.00000000000E+00 0.  1.
          2   -1    0    0  501    0  0.00000000000E+00 -0.00000000000E+00 -0.60928409121E+03  0.60928409121E+03  0.00000000000E+00 0. -1.
         23    2    1    2    0    0 -0.46738992736E+02 -0.30658848696E+02 -0.15391338353E+03  0.18753865977E+03  0.91416195680E+02 0.  0.
          5    1    1    2  502    0  0.26167199577E+02  0.78390047467E+02 -0.22418404731E+03  0.23897761181E+03  0.47000000000E+01 0.  1.
         -5    1    1    2    0  502  0.20571793159E+02 -0.47731198771E+02 -0.20368755945E+03  0.21026692056E+03  0.47000000000E+01 0.  1.
        -11    1    3    3    0    0 -0.47405220910E+02  0.23174290596E+02 -0.66723910036E+02  0.85066931793E+02  0.00000000000E+00 0. -1.
         11    1    3    3    0    0  0.66622817367E+00 -0.53833139293E+02 -0.87189473495E+02  0.10247172798E+03  0.00000000000E+00 0.  1.
<mgrwt>
<rscale>  0 0.12877894E+03</rscale>
<asrwt>0</asrwt>
<pdfrwt beam="2">  1        2 0.93736008E-01 0.13691800E+03</pdfrwt>
<pdfrwt beam="1">  1       -2 0.42306312E-02 0.13691800E+03</pdfrwt>
<totfact> 0.11922913E+04</totfact>
</mgrwt>
</event>
<event>
 7    1  0.1020736E-005  0.1641900E+03  0.7546771E-02  0.1190532E+00
          2   -1    0    0  501    0  0.00000000000E+00  0.00000000000E+00  0.70261892357E+03  0.70261892357E+03  0.00000000000E+00 0. -1.
         -2   -1    0    0    0  501 -0.00000000000E+00 -0.00000000000E+00 -0.34672667429E+02  0.34672667429E+02  0.00000000000E+00 0.  1.
         23    2    1    2    0    0  0.10529883994E+02  0.10593463385E+03  0.24029368107E+03  0.27920307464E+03  0.94235230275E+02 0.  0.
          5    1    1    2  502    0 -0.16454322012E+02  0.22313169453E+02  0.34671658085E+02  0.44641193065E+02  0.47000000000E+01 0.  1.
         -5    1    1    2    0  502  0.59244380182E+01 -0.12824780330E+03  0.39298091699E+03  0.41344732329E+03  0.47000000000E+01 0.  1.
        -11    1    3    3    0    0  0.30431943354E+02  0.11064318258E+03  0.16362027133E+03  0.19984896852E+03  0.00000000000E+00 0.  1.
         11    1    3    3    0    0 -0.19902059360E+02 -0.47085487390E+01  0.76673409732E+02  0.79354106118E+02  0.00000000000E+00 0. -1.
<mgrwt>
<rscale>  0 0.15838525E+03</rscale>
<asrwt>0</asrwt>
<pdfrwt beam="1">  1        2 0.10809521E+00 0.16419002E+03</pdfrwt>
<pdfrwt beam="2">  1       -2 0.53342570E-02 0.16419002E+03</pdfrwt>
<totfact> 0.72045574E+03</totfact>
</mgrwt>
</event>
<event>
 6    1  0.1020736E-005  0.2263772E+03  0.7546771E-02  0.1195608E+00
          2   -1    0    0  501    0  0.00000000000E+00  0.00000000000E+00  0.42183919682E+03  0.42183919682E+03  0.00000000000E+00 0. -1.
         -2   -1    0    0    0  501 -0.00000000000E+00 -0.00000000000E+00 -0.44795494144E+02  0.44795494144E+02  0.00000000000E+00 0.  1.
          5    1    1    2  502    0 -0.76708383339E+01  0.24499612156E+02  0.33256427845E+03  0.33358681338E+03  0.47000000000E+01 0. -1.
         -5    1    1    2    0  502 -0.22913101826E+02 -0.34380613837E+02 -0.24838631803E+02  0.48436396159E+02  0.47000000000E+01 0.  1.
        -11    1    1    2    0    0  0.15147961688E+02  0.21765456140E+02  0.26109161155E+02  0.37214031232E+02  0.00000000000E+00 0.  1.
         11    1    1    2    0    0  0.15435978471E+02 -0.11884454458E+02  0.43208894871E+02  0.47397450196E+02  0.00000000000E+00 0. -1.
<mgrwt>
<rscale>  0 0.15402915E+03</rscale>
<asrwt>0</asrwt>
<pdfrwt beam="1">  1        2 0.64898335E-01 0.22637725E+03</pdfrwt>
<pdfrwt beam="2">  1       -2 0.68916148E-02 0.22637725E+03</pdfrwt>
<totfact> 0.88369633E+03</totfact>
</mgrwt>
</event>
<event>
 7    1  0.1020736E-005  0.3282245E+03  0.7546771E-02  0.1073495E+00
          1   -1    0    0  501    0  0.00000000000E+00  0.00000000000E+00  0.11689223933E+03  0.11689223933E+03  0.00000000000E+00 0. -1.
         -1   -1    0    0    0  501 -0.00000000000E+00 -0.00000000000E+00 -0.88336132545E+03  0.88336132545E+03  0.00000000000E+00 0.  1.
         23    2    1    2    0    0 -0.61774426509E+02  0.29713602559E+03 -0.37661156878E+03  0.49062602888E+03  0.82290515855E+02 0.  0.
          5    1    1    2  502    0  0.79264818073E+02 -0.98046797326E+02 -0.12307238776E+03  0.17625262687E+03  0.47000000000E+01 0.  1.
         -5    1    1    2    0  502 -0.17490391564E+02 -0.19908922826E+03 -0.26678512958E+03  0.33337490903E+03  0.47000000000E+01 0.  1.
        -11    1    3    3    0    0 -0.37161341835E+02  0.82444351492E+02 -0.64801951304E+02  0.11125344630E+03  0.00000000000E+00 0. -1.
         11    1    3    3    0    0 -0.24613084673E+02  0.21469167410E+03 -0.31180961748E+03  0.37937258258E+03  0.00000000000E+00 0.  1.
<mgrwt>
<rscale>  0 0.32472485E+03</rscale>
<asrwt>0</asrwt>
<pdfrwt beam="1">  1        1 0.17983421E-01 0.32822453E+03</pdfrwt>
<pdfrwt beam="2">  1       -1 0.13590175E+00 0.32822453E+03</pdfrwt>
<totfact> 0.14281457E+02</totfact>
</mgrwt>
</event>
<event>
 7    1  0.1020736E-005  0.1278334E+03  0.7546771E-02  0.1244318E+00
          1   -1    0    0  501    0  0.00000000000E+00  0.00000000000E+00  0.46055031169E+03  0.46055031169E+03  0.00000000000E+00 0. -1.
         -1   -1    0    0    0  501 -0.00000000000E+00 -0.00000000000E+00 -0.27879125018E+02  0.27879125018E+02  0.00000000000E+00 0.  1.
         23    2    1    2    0    0 -0.59277196072E+01  0.26104082476E+02  0.15538547043E+03  0.18309560227E+03  0.93074132655E+02 0.  0.
          5    1    1    2  502    0 -0.26339996620E+01 -0.36061350963E+02  0.28637435996E+03  0.28868620166E+03  0.47000000000E+01 0. -1.
         -5    1    1    2    0  502  0.85617192692E+01  0.99572684875E+01 -0.90886437119E+01  0.16647632778E+02  0.47000000000E+01 0. -1.
        -11    1    3    3    0    0  0.81892260101E+00  0.59080696594E+02  0.12266051084E+03  0.13614991834E+03  0.00000000000E+00 0. -1.
         11    1    3    3    0    0 -0.67466422083E+01 -0.32976614118E+02  0.32724959585E+02  0.46945683930E+02  0.00000000000E+00 0.  1.
<mgrwt>
<rscale>  0 0.11926278E+03</rscale>
<asrwt>0</asrwt>
<pdfrwt beam="1">  1        1 0.70853888E-01 0.12783342E+03</pdfrwt>
<pdfrwt beam="2">  1       -1 0.42890965E-02 0.12783342E+03</pdfrwt>
<totfact> 0.10559319E+04</totfact>
</mgrwt>
</event>
<event>
 7    1  0.1020736E-005  0.1670436E+03  0.7546771E-02  0.1190059E+00
         -1   -1    0    0    0  501 -0.00000000000E+00  0.00000000000E+00  0.37162407140E+02  0.37162407140E+02  0.00000000000E+00 0.  1.
          1   -1    0    0  501    0  0.00000000000E+00 -0.00000000000E+00 -0.61954385183E+03  0.61954385183E+03  0.00000000000E+00 0. -1.
         23    2    1    2    0    0  0.80937892162E+02 -0.75678473544E+02 -0.26120361897E+03  0.29468588263E+03  0.79588096564E+02 0.  0.
          5    1    1    2  502    0 -0.82478769825E+01  0.41782703841E+02 -0.14875049510E+02  0.45356134237E+02  0.47000000000E+01 0.  1.
         -5    1    1    2    0  502 -0.72690015179E+02  0.33895769703E+02 -0.30630277621E+03  0.31666424210E+03  0.47000000000E+01 0.  1.
        -11    1    3    3    0    0  0.41900271657E+02  0.70019823234E+01 -0.11087985098E+03  0.11873921793E+03  0.00000000000E+00 0.  1.
         11    1    3    3    0    0  0.39037620505E+02 -0.82680455868E+02 -0.15032376798E+03  0.17594666470E+03  0.00000000000E+00 0. -1.
<mgrwt>
<rscale>  0 0.15879899E+03</rscale>
<asrwt>0</asrwt>
<pdfrwt beam="2">  1        1 0.95314437E-01 0.16704358E+03</pdfrwt>
<pdfrwt beam="1">  1       -1 0.57172935E-02 0.16704358E+03</pdfrwt>
<totfact> 0.47249686E+03</totfact>
</mgrwt>
</event>
<event>
 7    1  0.1020736E-005  0.1669232E+03  0.7546771E-02  0.1205716E+00
          1   -1    0    0  501    0  0.00000000000E+00  0.00000000000E+00  0.66161857139E+02  0.66161857139E+02  0.00000000000E+00 0. -1.
         -1   -1    0    0    0  501 -0.00000000000E+00 -0.00000000000E+00 -0.27987731732E+03  0.27987731732E+03  0.00000000000E+00 0.  1.
         23    2    1    2    0    0 -0.31637092615E+02 -0.29820167698E+00 -0.12064736974E+03  0.15492398662E+03  0.91894827125E+02 0.  0.
          5    1    1    2  502    0 -0.29957540146E+02 -0.11200567933E+01  0.36560637060E+02  0.47512934249E+02  0.47000000000E+01 0. -1.
         -5    1    1    2    0  502  0.61594632761E+02  0.14182584703E+01 -0.12962872750E+03  0.14360225359E+03  0.47000000000E+01 0.  1.
        -11    1    3    3    0    0 -0.52246736499E+02  0.19366224613E+02 -0.37841552510E+02  0.67355439475E+02  0.00000000000E+00 0.  1.
         11    1    3    3    0    0  0.20609643884E+02 -0.19664426290E+02 -0.82805817227E+02  0.87568547145E+02  0.00000000000E+00 0. -1.
<mgrwt>
<rscale>  0 0.14581140E+03</rscale>
<asrwt>0</asrwt>
<pdfrwt beam="1">  1        1 0.10178747E-01 0.16692317E+03</pdfrwt>
<pdfrwt beam="2">  1       -1 0.43058050E-01 0.16692317E+03</pdfrwt>
<totfact> 0.32957111E+03</totfact>
</mgrwt>
</event>
<event>
 7    1  0.1020736E-005  0.1780801E+03  0.7546771E-02  0.1175529E+00
         -2   -1    0    0    0  501 -0.00000000000E+00  0.00000000000E+00  0.13231298300E+03  0.13231298300E+03  0.00000000000E+00 0.  1.
          2   -1    0    0  501    0  0.00000000000E+00 -0.00000000000E+00 -0.22850317807E+03  0.22850317807E+03  0.00000000000E+00 0. -1.
         23    2    1    2    0    0  0.45002134689E+02 -0.11859174239E+03  0.51176108713E+01  0.15593621983E+03  0.90557833590E+02 0.  0.
          5    1    1    2  502    0  0.26726793175E+02  0.15981945702E+02  0.14133810328E+02  0.34519540209E+02  0.47000000000E+01 0.  1.
         -5    1    1    2    0  502 -0.71728927864E+02  0.10260979669E+03 -0.11544161627E+03  0.17036040103E+03  0.47000000000E+01 0.  1.
        -11    1    3    3    0    0 -0.23101843512E+02 -0.79930739473E+01  0.88472731258E+01  0.25997281522E+02  0.00000000000E+00 0.  1.
         11    1    3    3    0    0  0.68103978202E+02 -0.11059866845E+03 -0.37296622545E+01  0.12993893831E+03  0.00000000000E+00 0. -1.
<mgrwt>
<rscale>  0 0.17224228E+03</rscale>
<asrwt>0</asrwt>
<pdfrwt beam="2">  1        2 0.35154335E-01 0.17808009E+03</pdfrwt>
<pdfrwt beam="1">  1       -2 0.20355844E-01 0.17808009E+03</pdfrwt>
<totfact> 0.29389312E+03</totfact>
</mgrwt>
</event>
<event>
 7    1  0.1020736E-005  0.1453999E+03  0.7546771E-02  0.1217066E+00
         -2   -1    0    0    0  501 -0.00000000000E+00  0.00000000000E+00  0.46858065985E+02  0.46858065985E+02  0.00000000000E+00 0. -1.
          2   -1    0    0  501    0  0.00000000000E+00 -0.00000000000E+00 -0.62648554234E+03  0.62648554234E+03  0.00000000000E+00 0.  1.
         23    2    1    2    0    0 -0.35286251200E+02 -0.65356316737E+02 -0.53071616605E+02  0.12708157319E+03  0.88411323338E+02 0.  0.
          5    1    1    2  502    0 -0.19610518955E+02 -0.24624114087E+02 -0.59939455996E+02  0.67865660192E+02  0.47000000000E+01 0.  1.
         -5    1    1    2    0  502  0.54896770155E+02  0.89980430824E+02 -0.46661640375E+03  0.47839637494E+03  0.47000000000E+01 0.  1.
        -11    1    3    3    0    0  0.19839534992E+02 -0.27145375635E+02  0.99308602220E+01  0.35058530372E+02  0.00000000000E+00 0. -1.
         11    1    3    3    0    0 -0.55125786193E+02 -0.38210941102E+02 -0.63002476827E+02  0.92023042819E+02  0.00000000000E+00 0.  1.
<mgrwt>
<rscale>  0 0.13725863E+03</rscale>
<asrwt>0</asrwt>
<pdfrwt beam="2">  1        2 0.96382382E-01 0.14539992E+03</pdfrwt>
<pdfrwt beam="1">  1       -2 0.72089339E-02 0.14539992E+03</pdfrwt>
<totfact> 0.51779299E+03</totfact>
</mgrwt>
</event>
<event>
 7    1  0.1020736E-005  0.1310731E+03  0.7546771E-02  0.1234280E+00
         -1   -1    0    0    0  501 -0.00000000000E+00  0.00000000000E+00  0.82902917323E+02  0.82902917323E+02  0.00000000000E+00 0.  1.
          1   -1    0    0  501    0  0.00000000000E+00 -0.00000000000E+00 -0.17811718867E+03  0.17811718867E+03  0.00000000000E+00 0. -1.
         23    2    1    2    0    0  0.97405781508E+01 -0.38244619961E+02 -0.59237829824E+02  0.12509935635E+03  0.10287467452E+03 0.  0.
          5    1    1    2  502    0 -0.41568240590E+01 -0.33606539733E+02 -0.51725719387E+02  0.62002570472E+02  0.47000000000E+01 0.  1.
         -5    1    1    2    0  502 -0.55837540918E+01  0.71851159694E+02  0.15749277863E+02  0.73918179174E+02  0.47000000000E+01 0.  1.
        -11    1    3    3    0    0 -0.39810986192E+02  0.18155343953E+01 -0.27514514678E+01  0.39947231092E+02  0.00000000000E+00 0. -1.
         11    1    3    3    0    0  0.49551564343E+02 -0.40060154356E+02 -0.56486378357E+02  0.85152125257E+02  0.00000000000E+00 0.  1.
<mgrwt>
<rscale>  0 0.12550634E+03</rscale>
<asrwt>0</asrwt>
<pdfrwt beam="2">  1        1 0.27402644E-01 0.13107306E+03</pdfrwt>
<pdfrwt beam="1">  1       -1 0.12754295E-01 0.13107306E+03</pdfrwt>
<totfact> 0.67043925E+03</totfact>
</mgrwt>
</event>
<event>
 7    1  0.1020736E-005  0.1775641E+03  0.7546771E-02  0.1172119E+00
          1   -1    0    0  501    0  0.00000000000E+00  0.00000000000E+00  0.86898295616E+03  0.86898295616E+03  0.00000000000E+00 0. -1.
         -1   -1    0    0    0  501 -0.00000000000E+00 -0.00000000000E+00 -0.69592279496E+02  0.69592279496E+02  0.00000000000E+00 0.  1.
         23    2    1    2    0    0  0.35608620615E+02 -0.13361858813E+03  0.63173480630E+02  0.18124785000E+03  0.98681272378E+02 0.  0.
          5    1    1    2  502    0 -0.60444889894E+02  0.12897598494E+03  0.68884512330E+03  0.70343306952E+03  0.47000000000E+01 0. -1.
         -5    1    1    2    0  502  0.24836269279E+02  0.46426031905E+01  0.47372072736E+02  0.53894316132E+02  0.47000000000E+01 0.  1.
        -11    1    3    3    0    0  0.25260502584E+02 -0.14896990443E+03  0.52992767472E+02  0.16011982645E+03  0.00000000000E+00 0.  1.
         11    1    3    3    0    0  0.10348118031E+02  0.15351316298E+02  0.10180713158E+02  0.21128023553E+02  0.00000000000E+00 0. -1.
<mgrwt>
<rscale>  0 0.17561161E+03</rscale>
<asrwt>0</asrwt>
<pdfrwt beam="1">  1        1 0.13368968E+00 0.17756410E+03</pdfrwt>
<pdfrwt beam="2">  1       -1 0.10706505E-01 0.17756410E+03</pdfrwt>
<totfact> 0.11100381E+03</totfact>
</mgrwt>
</event>
<event>
 7    1  0.1020736E-005  0.1911911E+03  0.7546771E-02  0.1162169E+00
          2   -1    0    0  501    0  0.00000000000E+00  0.00000000000E+00  0.26159653461E+03  0.26159653461E+03  0.00000000000E+00 0. -1.
         -2   -1    0    0    0  501 -0.00000000000E+00 -0.00000000000E+00 -0.15622858520E+03  0.15622858520E+03  0.00000000000E+00 0.  1.
         23    2    1    2    0    0 -0.76506429495E+02  0.12276767020E+03 -0.42341385630E+02  0.17622193833E+03  0.91303033967E+02 0.  0.
          5    1    1    2  502    0 -0.24548829332E+01 -0.35409373579E+02  0.11331571035E+03  0.11883766406E+03  0.47000000000E+01 0.  1.
         -5    1    1    2    0  502  0.78961312428E+02 -0.87358296619E+02  0.34393624683E+02  0.12276551742E+03  0.47000000000E+01 0.  1.
        -11    1    3    3    0    0 -0.24058715073E+02 -0.49063427462E+01  0.12677563434E+02  0.27633577125E+02  0.00000000000E+00 0. -1.
         11    1    3    3    0    0 -0.52447714421E+02  0.12767401294E+03 -0.55018949064E+02  0.14858836120E+03  0.00000000000E+00 0.  1.
<mgrwt>
<rscale>  0 0.18594635E+03</rscale>
<asrwt>0</asrwt>
<pdfrwt beam="1">  1        2 0.40245621E-01 0.19119113E+03</pdfrwt>
<pdfrwt beam="2">  1       -2 0.24035167E-01 0.19119113E+03</pdfrwt>
<totfact> 0.19117648E+03</totfact>
</mgrwt>
</event>
<event>
 7    1  0.1020736E-005  0.1793311E+03  0.7546771E-02  0.1185738E+00
         -1   -1    0    0    0  501 -0.00000000000E+00  0.00000000000E+00  0.62918596754E+02  0.62918596754E+02  0.00000000000E+00 0.  1.
          1   -1    0    0  501    0  0.00000000000E+00 -0.00000000000E+00 -0.42784501243E+03  0.42784501243E+03  0.00000000000E+00 0. -1.
         23    2    1    2    0    0  0.70189980249E+02 -0.29920058992E+02 -0.56201052206E+02  0.13373281317E+03  0.94361346913E+02 0.  0.
          5    1    1    2  502    0 -0.70891230458E+02  0.84874741081E+02 -0.13398529776E+03  0.17379136413E+03  0.47000000000E+01 0. -1.
         -5    1    1    2    0  502  0.70125020926E+00 -0.54954682088E+02 -0.17474006571E+03  0.18323943189E+03  0.47000000000E+01 0.  1.
        -11    1    3    3    0    0  0.31227199038E+02  0.11278717373E+02 -0.68127604492E+02  0.75787320306E+02  0.00000000000E+00 0. -1.
         11    1    3    3    0    0  0.38962781210E+02 -0.41198776365E+02  0.11926552285E+02  0.57945492862E+02  0.00000000000E+00 0.  1.
<mgrwt>
<rscale>  0 0.16264921E+03</rscale>
<asrwt>0</asrwt>
<pdfrwt beam="2">  1        1 0.65822309E-01 0.17933109E+03</pdfrwt>
<pdfrwt beam="1">  1       -1 0.96797842E-02 0.17933109E+03</pdfrwt>
<totfact> 0.34909734E+03</totfact>
</mgrwt>
</event>
<event>
 7    1  0.1020736E-005  0.2791157E+03  0.7546771E-02  0.1131607E+00
         -1   -1    0    0    0  501 -0.00000000000E+00  0.00000000000E+00  0.36411711984E+02  0.36411711984E+02  0.00000000000E+00 0.  1.
          1   -1    0    0  501    0  0.00000000000E+00 -0.00000000000E+00 -0.10629533401E+04  0.10629533401E+04  0.00000000000E+00 0. -1.
         23    2    1    2    0    0 -0.46191135330E+02  0.46674201124E+02 -0.27392557137E+03  0.29665929885E+03  0.93055998779E+02 0.  0.
          5    1    1    2  502    0 -0.90213606407E+02 -0.33467468935E+02 -0.54792619257E+03  0.55633062899E+03  0.47000000000E+01 0. -1.
         -5    1    1    2    0  502  0.13640474174E+03 -0.13206732189E+02 -0.20468986414E+03  0.24637512420E+03  0.47000000000E+01 0.  1.
        -11    1    3    3    0    0 -0.66003960107E+02  0.60559602143E+02 -0.20988963695E+03  0.22820527570E+03  0.00000000000E+00 0.  1.
         11    1    3    3    0    0  0.19812824777E+02 -0.13885401019E+02 -0.64035934427E+02  0.68454023147E+02  0.00000000000E+00 0. -1.
<mgrwt>
<rscale>  0 0.22308076E+03</rscale>
<asrwt>0</asrwt>
<pdfrwt beam="2">  1        1 0.16353126E+00 0.27911574E+03</pdfrwt>
<pdfrwt beam="1">  1       -1 0.56018026E-02 0.27911574E+03</pdfrwt>
<totfact> 0.21281493E+03</totfact>
</mgrwt>
</event>
<event>
 7    1  0.1020736E-005  0.1280134E+03  0.7546771E-02  0.1243571E+00
         -2   -1    0    0    0  501 -0.00000000000E+00  0.00000000000E+00  0.18453051553E+02  0.18453051553E+02  0.00000000000E+00 0.  1.
          2   -1    0    0  501    0  0.00000000000E+00 -0.00000000000E+00 -0.11299114372E+04  0.11299114372E+04  0.00000000000E+00 0. -1.
         23    2    1    2    0    0  0.14962362904E+02 -0.23212047988E+02 -0.15468266249E+03  0.18306287061E+03  0.93928787084E+02 0.  0.
          5    1    1    2  502    0  0.31914933156E+02  0.31555119055E+02 -0.80271470937E+03  0.80398214106E+03  0.47000000000E+01 0. -1.
         -5    1    1    2    0  502 -0.46877296059E+02 -0.83430710668E+01 -0.15406101373E+03  0.16131947704E+03  0.47000000000E+01 0. -1.
        -11    1    3    3    0    0 -0.19890889510E+02 -0.56727710023E+01  0.27511279113E+01  0.20866157316E+02  0.00000000000E+00 0.  1.
         11    1    3    3    0    0  0.34853252414E+02 -0.17539276985E+02 -0.15743379041E+03  0.16219671329E+03  0.00000000000E+00 0. -1.
<mgrwt>
<rscale>  0 0.11971325E+03</rscale>
<asrwt>0</asrwt>
<pdfrwt beam="2">  1        2 0.17383253E+00 0.12801340E+03</pdfrwt>
<pdfrwt beam="1">  1       -2 0.28389310E-02 0.12801340E+03</pdfrwt>
<totfact> 0.97347805E+03</totfact>
</mgrwt>
</event>
<event>
 7    1  0.1020736E-005  0.1331826E+03  0.7546771E-02  0.1235761E+00
          2   -1    0    0  501    0  0.00000000000E+00  0.00000000000E+00  0.17962173166E+03  0.17962173166E+03  0.00000000000E+00 0.  1.
         -2   -1    0    0    0  501 -0.00000000000E+00 -0.00000000000E+00 -0.78679548242E+02  0.78679548242E+02  0.00000000000E+00 0. -1.
         23    2    1    2    0    0  0.36140439950E+02  0.28403774458E+02  0.24720886413E+02  0.10485004384E+03  0.90936811388E+02 0.  0.
          5    1    1    2  502    0 -0.69920626326E+01  0.47635885140E+02  0.12560329491E+02  0.49979179364E+02  0.47000000000E+01 0. -1.
         -5    1    1    2    0  502 -0.29148377318E+02 -0.76039659598E+02  0.63660967513E+02  0.10347205670E+03  0.47000000000E+01 0. -1.
        -11    1    3    3    0    0  0.93792886396E-01 -0.20240429918E+02  0.37828428241E+02  0.42903074290E+02  0.00000000000E+00 0.  1.
         11    1    3    3    0    0  0.36046647064E+02  0.48644204376E+02 -0.13107541828E+02  0.61946969552E+02  0.00000000000E+00 0. -1.
<mgrwt>
<rscale>  0 0.12455834E+03</rscale>
<asrwt>0</asrwt>
<pdfrwt beam="1">  1        2 0.27634112E-01 0.13318257E+03</pdfrwt>
<pdfrwt beam="2">  1       -2 0.12104546E-01 0.13318257E+03</pdfrwt>
<totfact> 0.88369564E+03</totfact>
</mgrwt>
</event>
<event>
 7    1  0.1020736E-005  0.1297232E+03  0.7546771E-02  0.1241818E+00
          2   -1    0    0  501    0  0.00000000000E+00  0.00000000000E+00  0.16552040762E+04  0.16552040762E+04  0.00000000000E+00 0. -1.
         -2   -1    0    0    0  501 -0.00000000000E+00 -0.00000000000E+00 -0.84858460976E+01  0.84858460976E+01  0.00000000000E+00 0.  1.
         23    2    1    2    0    0  0.18792522659E+02 -0.29215417769E+02  0.48114320788E+03  0.49091832095E+03  0.91078602386E+02 0.  0.
          5    1    1    2  502    0 -0.62696479923E+02  0.18855519655E+02  0.36097198682E+03  0.36689132517E+03  0.47000000000E+01 0. -1.
         -5    1    1    2    0  502  0.43903957263E+02  0.10359898114E+02  0.80460303540E+03  0.80588027618E+03  0.47000000000E+01 0. -1.
        -11    1    3    3    0    0 -0.20411768060E+02 -0.48217691752E+02  0.30536739874E+03  0.30982387624E+03  0.00000000000E+00 0. -1.
         11    1    3    3    0    0  0.39204290719E+02  0.19002273983E+02  0.17577580913E+03  0.18109444471E+03  0.00000000000E+00 0.  1.
<mgrwt>
<rscale>  0 0.12077862E+03</rscale>
<asrwt>0</asrwt>
<pdfrwt beam="1">  1        2 0.25464653E+00 0.12972315E+03</pdfrwt>
<pdfrwt beam="2">  1       -2 0.13055161E-02 0.12972315E+03</pdfrwt>
<totfact> 0.15789383E+04</totfact>
</mgrwt>
</event>
<event>
 7    1  0.1020736E-005  0.1310654E+03  0.7546771E-02  0.1240274E+00
         -1   -1    0    0    0  501 -0.00000000000E+00  0.00000000000E+00  0.26629050551E+02  0.26629050551E+02  0.00000000000E+00 0.  1.
          1   -1    0    0  501    0  0.00000000000E+00 -0.00000000000E+00 -0.80505583667E+03  0.80505583667E+03  0.00000000000E+00 0. -1.
         23    2    1    2    0    0  0.30935175434E+02  0.24431063245E+02 -0.96201802988E+02  0.13698417786E+03  0.89196503042E+02 0.  0.
          5    1    1    2  502    0 -0.22541504172E+02 -0.11099440676E+02 -0.20487087723E+02  0.32758628742E+02  0.47000000000E+01 0. -1.
         -5    1    1    2    0  502 -0.83936712622E+01 -0.13331622569E+02 -0.66173789541E+03  0.66194208063E+03  0.47000000000E+01 0. -1.
        -11    1    3    3    0    0  0.54876639557E+02 -0.94558715841E+01 -0.49406917925E+02  0.74443956205E+02  0.00000000000E+00 0.  1.
         11    1    3    3    0    0 -0.23941464123E+02  0.33886934829E+02 -0.46794885062E+02  0.62540221653E+02  0.00000000000E+00 0. -1.
<mgrwt>
<rscale>  0 0.12172730E+03</rscale>
<asrwt>0</asrwt>
<pdfrwt beam="2">  1        1 0.12385475E+00 0.13106543E+03</pdfrwt>
<pdfrwt beam="1">  1       -1 0.40967769E-02 0.13106543E+03</pdfrwt>
<totfact> 0.52496628E+03</totfact>
</mgrwt>
</event>
<event>
 7    1  0.1020736E-005  0.1592861E+03  0.7546771E-02  0.1197169E+00
          2   -1    0    0  501    0  0.00000000000E+00  0.00000000000E+00  0.11427663836E+03  0.11427663836E+03  0.00000000000E+00 0.  1.
         -2   -1    0    0    0  501 -0.00000000000E+00 -0.00000000000E+00 -0.20274269545E+03  0.20274269545E+03  0.00000000000E+00 0. -1.
         23    2    1    2    0    0 -0.53345154109E+02 -0.83069905765E+02  0.43022191721E+00  0.13460603651E+03  0.91500192702E+02 0.  0.
          5    1    1    2  502    0 -0.33209803389E+02  0.47630712720E+02 -0.82687488330E+01  0.58839086011E+02  0.47000000000E+01 0. -1.
         -5    1    1    2    0  502  0.86554957499E+02  0.35439193046E+02 -0.80627530176E+02  0.12357421128E+03  0.47000000000E+01 0. -1.
        -11    1    3    3    0    0 -0.21472044244E+01  0.19667663663E+02 -0.99279154782E+00  0.19809419877E+02  0.00000000000E+00 0.  1.
         11    1    3    3    0    0 -0.51197949685E+02 -0.10273756943E+03  0.14230134650E+01  0.11479661664E+03  0.00000000000E+00 0. -1.
<mgrwt>
<rscale>  0 0.15272108E+03</rscale>
<asrwt>0</asrwt>
<pdfrwt beam="1">  1        2 0.17581021E-01 0.15928610E+03</pdfrwt>
<pdfrwt beam="2">  1       -2 0.31191184E-01 0.15928610E+03</pdfrwt>
<totfact> 0.29844347E+03</totfact>
</mgrwt>
</event>
<event>
 7    1  0.1020736E-005  0.1746365E+03  0.7546771E-02  0.1179174E+00
          3   -1    0    0  501    0  0.00000000000E+00  0.00000000000E+00  0.57270028494E+02  0.57270028494E+02  0.00000000000E+00 0. -1.
         -3   -1    0    0    0  501 -0.00000000000E+00 -0.00000000000E+00 -0.48875103732E+03  0.48875103732E+03  0.00000000000E+00 0.  1.
         23    2    1    2    0    0  0.37880001250E+01  0.12188366057E+03 -0.25998118077E+03  0.30125570404E+03  0.91075843142E+02 0.  0.
          5    1    1    2  502    0 -0.43429514058E+02 -0.75430779522E+01 -0.85238756545E+02  0.96076825164E+02  0.47000000000E+01 0.  1.
         -5    1    1    2    0  502  0.39641513933E+02 -0.11434058262E+03 -0.86261071517E+02  0.14868853661E+03  0.47000000000E+01 0.  1.
        -11    1    3    3    0    0  0.36426502070E+02  0.57750881867E+02 -0.18560676759E+03  0.19776735470E+03  0.00000000000E+00 0.  1.
         11    1    3    3    0    0 -0.32638501945E+02  0.64132778705E+02 -0.74374413173E+02  0.10348834934E+03  0.00000000000E+00 0. -1.
<mgrwt>
<rscale>  0 0.16873482E+03</rscale>
<asrwt>0</asrwt>
<pdfrwt beam="1">  1        3 0.88107736E-02 0.17463645E+03</pdfrwt>
<pdfrwt beam="2">  1       -3 0.75192467E-01 0.17463645E+03</pdfrwt>
<totfact> 0.37310400E+02</totfact>
</mgrwt>
</event>
<event>
 7    1  0.1020736E-005  0.1438628E+03  0.7546771E-02  0.1218634E+00
          2   -1    0    0  501    0  0.00000000000E+00  0.00000000000E+00  0.18114712384E+03  0.18114712384E+03  0.00000000000E+00 0. -1.
         -2   -1    0    0    0  501 -0.00000000000E+00 -0.00000000000E+00 -0.11785964223E+03  0.11785964223E+03  0.00000000000E+00 0.  1.
         23    2    1    2    0    0 -0.56913547393E+02  0.42795193930E+02 -0.39813393253E+02  0.12201436563E+03  0.90729370316E+02 0.  0.
          5    1    1    2  502    0  0.66015770433E+02 -0.73484376049E+02  0.41174393067E+02  0.10712355536E+03  0.47000000000E+01 0. -1.
         -5    1    1    2    0  502 -0.91022230401E+01  0.30689182119E+02  0.61926481795E+02  0.69868845066E+02  0.47000000000E+01 0. -1.
        -11    1    3    3    0    0  0.20091503205E+02  0.21673222243E+02  0.57098630438E+01  0.30099827232E+02  0.00000000000E+00 0.  1.
         11    1    3    3    0    0 -0.77005050598E+02  0.21121971687E+02 -0.45523256296E+02  0.91914538400E+02  0.00000000000E+00 0. -1.
<mgrwt>
<rscale>  0 0.13612965E+03</rscale>
<asrwt>0</asrwt>
<pdfrwt beam="1">  1        2 0.27868788E-01 0.14386285E+03</pdfrwt>
<pdfrwt beam="2">  1       -2 0.18132253E-01 0.14386285E+03</pdfrwt>
<totfact> 0.45484827E+03</totfact>
</mgrwt>
</event>
<event>
 7    1  0.1020736E-005  0.1394936E+03  0.7546771E-02  0.1225122E+00
         -1   -1    0    0    0  501 -0.00000000000E+00  0.00000000000E+00  0.21288941970E+03  0.21288941970E+03  0.00000000000E+00 0.  1.
          1   -1    0    0  501    0  0.00000000000E+00 -0.00000000000E+00 -0.85073869181E+02  0.85073869181E+02  0.00000000000E+00 0. -1.
         23    2    1    2    0    0 -0.54610390222E+02 -0.29171417849E+02  0.11245932800E+03  0.15762702055E+03  0.91465353078E+02 0.  0.
          5    1    1    2  502    0  0.10684652621E+02 -0.28449284812E+02  0.50922131311E+02  0.59486780592E+02  0.47000000000E+01 0.  1.
         -5    1    1    2    0  502  0.43925737601E+02  0.57620702661E+02 -0.35565908795E+02  0.80849487737E+02  0.47000000000E+01 0.  1.
        -11    1    3    3    0    0 -0.33573928252E+02 -0.59390573469E+02  0.94784694400E+02  0.11678436183E+03  0.00000000000E+00 0.  1.
         11    1    3    3    0    0 -0.21036461970E+02  0.30219155619E+02  0.17674633602E+02  0.40842658723E+02  0.00000000000E+00 0. -1.
<mgrwt>
<rscale>  0 0.13158517E+03</rscale>
<asrwt>0</asrwt>
<pdfrwt beam="2">  1        1 0.13088288E-01 0.13949356E+03</pdfrwt>
<pdfrwt beam="1">  1       -1 0.32752218E-01 0.13949356E+03</pdfrwt>
<totfact> 0.37714984E+03</totfact>
</mgrwt>
</event>
<event>
 7    1  0.1020736E-005  0.1398928E+03  0.7546771E-02  0.1224700E+00
          2   -1    0    0  501    0  0.00000000000E+00  0.00000000000E+00  0.24126501103E+03  0.24126501103E+03  0.00000000000E+00 0. -1.
         -2   -1    0    0    0  501 -0.00000000000E+00 -0.00000000000E+00 -0.65022134468E+02  0.65022134468E+02  0.00000000000E+00 0.  1.
         23    2    1    2    0    0  0.32011747938E+02 -0.54059556205E+02  0.72835803374E+02  0.13232445518E+03  0.90870895029E+02 0.  0.
          5    1    1    2  502    0 -0.65498767518E+02 -0.98438166327E+01  0.38216386496E+02  0.76613128568E+02  0.47000000000E+01 0.  1.
         -5    1    1    2    0  502  0.33487019580E+02  0.63903372838E+02  0.65190686689E+02  0.97349561742E+02  0.47000000000E+01 0.  1.
        -11    1    3    3    0    0  0.48023371585E+02 -0.37817002925E+02  0.86363622000E+02  0.10580664031E+03  0.00000000000E+00 0. -1.
         11    1    3    3    0    0 -0.16011623647E+02 -0.16242553280E+02 -0.13527818626E+02  0.26517814874E+02  0.00000000000E+00 0.  1.
<mgrwt>
<rscale>  0 0.13187499E+03</rscale>
<asrwt>0</asrwt>
<pdfrwt beam="1">  1        2 0.37117694E-01 0.13989280E+03</pdfrwt>
<pdfrwt beam="2">  1       -2 0.10003405E-01 0.13989280E+03</pdfrwt>
<totfact> 0.87274024E+03</totfact>
</mgrwt>
</event>
<event>
 7    1  0.1020736E-005  0.1432630E+03  0.7546771E-02  0.1219315E+00
          2   -1    0    0  501    0  0.00000000000E+00  0.00000000000E+00  0.45123989112E+02  0.45123989112E+02  0.00000000000E+00 0. -1.
         -2   -1    0    0    0  501 -0.00000000000E+00 -0.00000000000E+00 -0.38971936587E+03  0.38971936587E+03  0.00000000000E+00 0.  1.
         23    2    1    2    0    0  0.61773041736E+01  0.69714489230E+02 -0.20323612774E+03  0.23358053172E+03  0.91414835160E+02 0.  0.
          5    1    1    2  502    0 -0.72241446627E+01  0.36195742064E+02 -0.38709696137E+02  0.53692183646E+02  0.47000000000E+01 0.  1.
         -5    1    1    2    0  502  0.10468404891E+01 -0.10591023129E+03 -0.10264955288E+03  0.14757063961E+03  0.47000000000E+01 0.  1.
        -11    1    3    3    0    0  0.34489635914E+02  0.38885958601E+02 -0.17630757875E+03  0.18380972522E+03  0.00000000000E+00 0.  1.
         11    1    3    3    0    0 -0.28312331740E+02  0.30828530628E+02 -0.26928548989E+02  0.49770806502E+02  0.00000000000E+00 0. -1.
<mgrwt>
<rscale>  0 0.13564311E+03</rscale>
<asrwt>0</asrwt>
<pdfrwt beam="1">  1        2 0.69421519E-02 0.14326300E+03</pdfrwt>
<pdfrwt beam="2">  1       -2 0.59956828E-01 0.14326300E+03</pdfrwt>
<totfact> 0.26039824E+03</totfact>
</mgrwt>
</event>
<event>
 7    1  0.1020736E-005  0.1598378E+03  0.7546771E-02  0.1199752E+00
         -2   -1    0    0    0  501 -0.00000000000E+00  0.00000000000E+00  0.19670520733E+02  0.19670520733E+02  0.00000000000E+00 0.  1.
          2   -1    0    0  501    0  0.00000000000E+00 -0.00000000000E+00 -0.16508256400E+04  0.16508256400E+04  0.00000000000E+00 0. -1.
         23    2    1    2    0    0 -0.78889749386E+02  0.36016996226E+02 -0.24804445860E+03  0.27818038135E+03  0.91309662978E+02 0.  0.
          5    1    1    2  502    0  0.10141948230E+03  0.58127131363E+01 -0.11423104072E+04  0.11468281717E+04  0.47000000000E+01 0. -1.
         -5    1    1    2    0  502 -0.22529732910E+02 -0.41829709362E+02 -0.24080025346E+03  0.24548760767E+03  0.47000000000E+01 0.  1.
        -11    1    3    3    0    0 -0.88837137576E+02  0.25630057199E+02 -0.24702568647E+03  0.26376244354E+03  0.00000000000E+00 0.  1.
         11    1    3    3    0    0  0.99473881905E+01  0.10386939027E+02 -0.10187721261E+01  0.14417937814E+02  0.00000000000E+00 0. -1.
<mgrwt>
<rscale>  0 0.15058844E+03</rscale>
<asrwt>0</asrwt>
<pdfrwt beam="2">  1        2 0.25397316E+00 0.15983782E+03</pdfrwt>
<pdfrwt beam="1">  1       -2 0.30262342E-02 0.15983782E+03</pdfrwt>
<totfact> 0.47058015E+03</totfact>
</mgrwt>
</event>
<event>
 7    1  0.1020736E-005  0.1979909E+03  0.7546771E-02  0.1155576E+00
         -1   -1    0    0    0  501 -0.00000000000E+00  0.00000000000E+00  0.90507757881E+02  0.90507757881E+02  0.00000000000E+00 0.  1.
          1   -1    0    0  501    0  0.00000000000E+00 -0.00000000000E+00 -0.39857658409E+03  0.39857658409E+03  0.00000000000E+00 0. -1.
         23    2    1    2    0    0  0.18706510976E+02 -0.15248694101E+03 -0.12018200719E+03  0.21613402980E+03  0.93102111976E+02 0.  0.
          5    1    1    2  502    0 -0.48923400862E+02  0.33485323296E+02 -0.15858495737E+02  0.61549556580E+02  0.47000000000E+01 0.  1.
         -5    1    1    2    0  502  0.30216889886E+02  0.11900161771E+03 -0.17202832328E+03  0.21140075559E+03  0.47000000000E+01 0.  1.
        -11    1    3    3    0    0  0.32433318954E+02 -0.58790360406E+02 -0.98132329184E+02  0.11890408187E+03  0.00000000000E+00 0. -1.
         11    1    3    3    0    0 -0.13726807978E+02 -0.93696580604E+02 -0.22049678010E+02  0.97229947931E+02  0.00000000000E+00 0.  1.
<mgrwt>
<rscale>  0 0.19323430E+03</rscale>
<asrwt>0</asrwt>
<pdfrwt beam="2">  1        1 0.61319474E-01 0.19799095E+03</pdfrwt>
<pdfrwt beam="1">  1       -1 0.13924271E-01 0.19799095E+03</pdfrwt>
<totfact> 0.21805827E+03</totfact>
</mgrwt>
</event>
<event>
 7    1  0.1020736E-005  0.1967224E+03  0.7546771E-02  0.1157024E+00
         -2   -1    0    0    0  501 -0.00000000000E+00  0.00000000000E+00  0.16669082524E+03  0.16669082524E+03  0.00000000000E+00 0.  1.
          2   -1    0    0  501    0  0.00000000000E+00 -0.00000000000E+00 -0.22751807247E+03  0.22751807247E+03  0.00000000000E+00 0. -1.
         23    2    1    2    0    0 -0.12205656474E+03 -0.90428240774E+02  0.26455075278E+02  0.17899293461E+03  0.90903948798E+02 0.  0.
          5    1    1    2  502    0  0.14440677647E+03  0.82842284386E+02 -0.92613966340E+02  0.19056651839E+03  0.47000000000E+01 0. -1.
         -5    1    1    2    0  502 -0.22350211728E+02  0.75859563879E+01  0.53316438314E+01  0.24649444711E+02  0.47000000000E+01 0. -1.
        -11    1    3    3    0    0 -0.31101881504E+02 -0.78060349211E+02  0.23075144203E+02  0.87139012113E+02  0.00000000000E+00 0.  1.
         11    1    3    3    0    0 -0.90954683235E+02 -0.12367891563E+02  0.33799310747E+01  0.91853922497E+02  0.00000000000E+00 0. -1.
<mgrwt>
<rscale>  0 0.19160213E+03</rscale>
<asrwt>0</asrwt>
<pdfrwt beam="2">  1        2 0.35002780E-01 0.19672241E+03</pdfrwt>
<pdfrwt beam="1">  1       -2 0.25644742E-01 0.19672241E+03</pdfrwt>
<totfact> 0.19848099E+03</totfact>
</mgrwt>
</event>
<event>
 7    1  0.1020736E-005  0.2682145E+03  0.7546771E-02  0.1104400E+00
          1   -1    0    0  501    0  0.00000000000E+00  0.00000000000E+00  0.86492286078E+03  0.86492286078E+03  0.00000000000E+00 0. -1.
         -1   -1    0    0    0  501 -0.00000000000E+00 -0.00000000000E+00 -0.85588392728E+02  0.85588392728E+02  0.00000000000E+00 0.  1.
         23    2    1    2    0    0  0.23729811691E+03 -0.20534554760E+01  0.24677064790E+03  0.35422002869E+03  0.90892590940E+02 0.  0.
          5    1    1    2  502    0 -0.22696968334E+03 -0.16861913762E+02  0.52620441109E+03  0.57333474824E+03  0.47000000000E+01 0. -1.
         -5    1    1    2    0  502 -0.10328433574E+02  0.18915369238E+02  0.63594090641E+01  0.22956476584E+02  0.47000000000E+01 0. -1.
        -11    1    3    3    0    0  0.13947662682E+03  0.20925118050E+02  0.87735301125E+02  0.16609958777E+03  0.00000000000E+00 0.  1.
         11    1    3    3    0    0  0.97821490088E+02 -0.22978573526E+02  0.15903534678E+03  0.18812044091E+03  0.00000000000E+00 0. -1.
<mgrwt>
<rscale>  0 0.26461875E+03</rscale>
<asrwt>0</asrwt>
<pdfrwt beam="1">  1        1 0.13306505E+00 0.26821447E+03</pdfrwt>
<pdfrwt beam="2">  1       -1 0.13167446E-01 0.26821447E+03</pdfrwt>
<totfact> 0.80803379E+02</totfact>
</mgrwt>
</event>
<event>
 7    1  0.1020736E-005  0.1250880E+03  0.7546771E-02  0.1250362E+00
          1   -1    0    0  501    0  0.00000000000E+00  0.00000000000E+00  0.89130864776E+03  0.89130864776E+03  0.00000000000E+00 0. -1.
         -1   -1    0    0    0  501 -0.00000000000E+00 -0.00000000000E+00 -0.22516121264E+02  0.22516121264E+02  0.00000000000E+00 0.  1.
         23    2    1    2    0    0  0.43005979352E+01  0.14643802224E+01  0.10270159975E+03  0.13758877776E+03  0.91446233502E+02 0.  0.
          5    1    1    2  502    0 -0.17473965889E+02  0.38370998588E+02  0.97702253803E+02  0.10651522621E+03  0.47000000000E+01 0.  1.
         -5    1    1    2    0  502  0.13173367954E+02 -0.39835378810E+02  0.66838867294E+03  0.66972076505E+03  0.47000000000E+01 0.  1.
        -11    1    3    3    0    0 -0.38877454011E+02 -0.20609372996E+01  0.18956436652E+02  0.43301851964E+02  0.00000000000E+00 0.  1.
         11    1    3    3    0    0  0.43178051946E+02  0.35253175219E+01  0.83745163096E+02  0.94286925793E+02  0.00000000000E+00 0. -1.
<mgrwt>
<rscale>  0 0.11570097E+03</rscale>
<asrwt>0</asrwt>
<pdfrwt beam="1">  1        1 0.13712438E+00 0.12508799E+03</pdfrwt>
<pdfrwt beam="2">  1       -1 0.34640193E-02 0.12508799E+03</pdfrwt>
<totfact> 0.57225034E+03</totfact>
</mgrwt>
</event>
<event>
 7    1  0.1020736E-005  0.2395996E+03  0.7546771E-02  0.1150347E+00
         -1   -1    0    0    0  501 -0.00000000000E+00  0.00000000000E+00  0.61469434766E+02  0.61469434766E+02  0.00000000000E+00 0.  1.
          1   -1    0    0  501    0  0.00000000000E+00 -0.00000000000E+00 -0.11871955689E+04  0.11871955689E+04  0.00000000000E+00 0. -1.
         23    2    1    2    0    0  0.36459893785E+02  0.60404541565E+02 -0.18902795930E+02  0.11620490189E+03  0.90378266369E+02 0.  0.
          5    1    1    2  502    0  0.10285983035E+02 -0.13541804778E+03 -0.85043988882E+03  0.86122816002E+03  0.47000000000E+01 0. -1.
         -5    1    1    2    0  502 -0.46745876819E+02  0.75013506219E+02 -0.25638344941E+03  0.27123194178E+03  0.47000000000E+01 0.  1.
        -11    1    3    3    0    0  0.34562813997E+02  0.22410800415E+02  0.32350128249E+02  0.52377121765E+02  0.00000000000E+00 0.  1.
         11    1    3    3    0    0  0.18970797876E+01  0.37993741150E+02 -0.51252924179E+02  0.63827780121E+02  0.00000000000E+00 0. -1.
<mgrwt>
<rscale>  0 0.19928054E+03</rscale>
<asrwt>0</asrwt>
<pdfrwt beam="2">  1        1 0.18264547E+00 0.23959962E+03</pdfrwt>
<pdfrwt beam="1">  1       -1 0.94568365E-02 0.23959962E+03</pdfrwt>
<totfact> 0.78051012E+02</totfact>
</mgrwt>
</event>
<event>
 7    1  0.1020736E-005  0.1217008E+03  0.7546771E-02  0.1250750E+00
         -2   -1    0    0    0  501 -0.00000000000E+00  0.00000000000E+00  0.61461530973E+02  0.61461530973E+02  0.00000000000E+00 0.  1.
          2   -1    0    0  501    0  0.00000000000E+00 -0.00000000000E+00 -0.26416478791E+03  0.26416478791E+03  0.00000000000E+00 0. -1.
         23    2    1    2    0    0  0.29791395873E+02  0.64760835829E+01 -0.11973766953E+02  0.99376839223E+02  0.93823867712E+02 0.  0.
          5    1    1    2  502    0  0.42459501087E+02  0.81761257505E+01 -0.43431550842E+02  0.61465826875E+02  0.47000000000E+01 0. -1.
         -5    1    1    2    0  502 -0.72250896960E+02 -0.14652209333E+02 -0.14729793914E+03  0.16478365279E+03  0.47000000000E+01 0.  1.
        -11    1    3    3    0    0 -0.12185133680E+02 -0.12770209519E+02 -0.41134655919E+02  0.44761765510E+02  0.00000000000E+00 0.  1.
         11    1    3    3    0    0  0.41976529553E+02  0.19246293102E+02  0.29160888966E+02  0.54615073714E+02  0.00000000000E+00 0. -1.
<mgrwt>
<rscale>  0 0.11547754E+03</rscale>
<asrwt>0</asrwt>
<pdfrwt beam="2">  1        2 0.40640737E-01 0.12170082E+03</pdfrwt>
<pdfrwt beam="1">  1       -2 0.94556201E-02 0.12170082E+03</pdfrwt>
<totfact> 0.85675883E+03</totfact>
</mgrwt>
</event>
<event>
 7    1  0.1020736E-005  0.1344825E+03  0.7546771E-02  0.1234033E+00
          2   -1    0    0  501    0  0.00000000000E+00  0.00000000000E+00  0.22374741298E+03  0.22374741298E+03  0.00000000000E+00 0. -1.
         -2   -1    0    0    0  501 -0.00000000000E+00 -0.00000000000E+00 -0.63071024931E+02  0.63071024931E+02  0.00000000000E+00 0.  1.
         23    2    1    2    0    0  0.49564538638E+02 -0.20716597267E+01  0.59701025300E+02  0.11864720259E+03  0.89732998362E+02 0.  0.
          5    1    1    2  502    0 -0.20598059822E+02 -0.60323258693E+02  0.35636302061E+02  0.73179311505E+02  0.47000000000E+01 0.  1.
         -5    1    1    2    0  502 -0.28966478816E+02  0.62394918419E+02  0.65339060684E+02  0.94991923818E+02  0.47000000000E+01 0.  1.
        -11    1    3    3    0    0 -0.19657596469E+02 -0.20521880712E+02  0.58203048718E+01  0.29007665120E+02  0.00000000000E+00 0.  1.
         11    1    3    3    0    0  0.69222135107E+02  0.18450220985E+02  0.53880720428E+02  0.89639537466E+02  0.00000000000E+00 0. -1.
<mgrwt>
<rscale>  0 0.12566515E+03</rscale>
<asrwt>0</asrwt>
<pdfrwt beam="1">  1        2 0.34422678E-01 0.13448249E+03</pdfrwt>
<pdfrwt beam="2">  1       -2 0.97032348E-02 0.13448249E+03</pdfrwt>
<totfact> 0.98954014E+03</totfact>
</mgrwt>
</event>
<event>
 7    1  0.1020736E-005  0.1575805E+03  0.7546771E-02  0.1201714E+00
         -1   -1    0    0    0  501 -0.00000000000E+00  0.00000000000E+00  0.33741447194E+03  0.33741447194E+03  0.00000000000E+00 0.  1.
          1   -1    0    0  501    0  0.00000000000E+00 -0.00000000000E+00 -0.10739067859E+03  0.10739067859E+03  0.00000000000E+00 0. -1.
         23    2    1    2    0    0  0.80051777607E+02  0.52897846414E+02  0.25580644747E+03  0.28512930913E+03  0.81580114637E+02 0.  0.
          5    1    1    2  502    0  0.29324874227E+02 -0.16697151505E+02  0.15191871513E+02  0.37304504780E+02  0.47000000000E+01 0. -1.
         -5    1    1    2    0  502 -0.10937665183E+03 -0.36200694909E+02 -0.40974525625E+02  0.12237133663E+03  0.47000000000E+01 0. -1.
        -11    1    3    3    0    0  0.68780195550E+02  0.69391302195E+02  0.24162335510E+03  0.26062945699E+03  0.00000000000E+00 0.  1.
         11    1    3    3    0    0  0.11271582057E+02 -0.16493455781E+02  0.14183092364E+02  0.24499852136E+02  0.00000000000E+00 0. -1.
<mgrwt>
<rscale>  0 0.14899475E+03</rscale>
<asrwt>0</asrwt>
<pdfrwt beam="2">  1        1 0.16521643E-01 0.15758055E+03</pdfrwt>
<pdfrwt beam="1">  1       -1 0.51909918E-01 0.15758055E+03</pdfrwt>
<totfact> 0.12405351E+03</totfact>
</mgrwt>
</event>
<event>
 7    1  0.1020736E-005  0.1687183E+03  0.7546771E-02  0.1185638E+00
          1   -1    0    0  501    0  0.00000000000E+00  0.00000000000E+00  0.54278255023E+03  0.54278255023E+03  0.00000000000E+00 0. -1.
         -1   -1    0    0    0  501 -0.00000000000E+00 -0.00000000000E+00 -0.47915228721E+02  0.47915228721E+02  0.00000000000E+00 0.  1.
         23    2    1    2    0    0  0.11090500112E+03 -0.23291837429E+02  0.16616132470E+03  0.22122042767E+03  0.92121999698E+02 0.  0.
          5    1    1    2  502    0 -0.92598741051E+02 -0.40565336546E+02  0.17903209018E+03  0.20565663784E+03  0.47000000000E+01 0.  1.
         -5    1    1    2    0  502 -0.18306260072E+02  0.63857173975E+02  0.14967390664E+03  0.16382071345E+03  0.47000000000E+01 0.  1.
        -11    1    3    3    0    0  0.11799930714E+03 -0.42615571136E+02  0.14255019319E+03  0.18989597407E+03  0.00000000000E+00 0.  1.
         11    1    3    3    0    0 -0.70943060200E+01  0.19323733707E+02  0.23611131512E+02  0.31324453603E+02  0.00000000000E+00 0. -1.
<mgrwt>
<rscale>  0 0.16273942E+03</rscale>
<asrwt>0</asrwt>
<pdfrwt beam="1">  1        1 0.83505003E-01 0.16871835E+03</pdfrwt>
<pdfrwt beam="2">  1       -1 0.73715740E-02 0.16871835E+03</pdfrwt>
<totfact> 0.38623739E+03</totfact>
</mgrwt>
</event>
<event>
 7    1  0.1020736E-005  0.1291528E+03  0.7546771E-02  0.1242507E+00
         -1   -1    0    0    0  501 -0.00000000000E+00  0.00000000000E+00  0.48801584931E+02  0.48801584931E+02  0.00000000000E+00 0.  1.
          1   -1    0    0  501    0  0.00000000000E+00 -0.00000000000E+00 -0.30625843393E+03  0.30625843393E+03  0.00000000000E+00 0. -1.
         23    2    1    2    0    0 -0.86263162594E+01 -0.31518059032E+02 -0.47048067568E+02  0.10817482262E+03  0.91763120092E+02 0.  0.
          5    1    1    2  502    0  0.17242770402E+02 -0.29533175391E+02 -0.16894366080E+03  0.17243425444E+03  0.47000000000E+01 0.  1.
         -5    1    1    2    0  502 -0.86164541427E+01  0.61051234423E+02 -0.41465120628E+02  0.74450941802E+02  0.47000000000E+01 0.  1.
        -11    1    3    3    0    0  0.26815709077E+02 -0.43455052814E+02 -0.48940081343E+02  0.70728745431E+02  0.00000000000E+00 0. -1.
         11    1    3    3    0    0 -0.35442025336E+02  0.11936993782E+02  0.18920137750E+01  0.37446077186E+02  0.00000000000E+00 0.  1.
<mgrwt>
<rscale>  0 0.12035836E+03</rscale>
<asrwt>0</asrwt>
<pdfrwt beam="2">  1        1 0.47116681E-01 0.12915280E+03</pdfrwt>
<pdfrwt beam="1">  1       -1 0.75079363E-02 0.12915280E+03</pdfrwt>
<totfact> 0.76760877E+03</totfact>
</mgrwt>
</event>
<event>
 7    1  0.1020736E-005  0.1369860E+03  0.7546771E-02  0.1228190E+00
          2   -1    0    0  501    0  0.00000000000E+00  0.00000000000E+00  0.59864769711E+03  0.59864769711E+03  0.00000000000E+00 0.  1.
         -2   -1    0    0    0  501 -0.00000000000E+00 -0.00000000000E+00 -0.26391248469E+02  0.26391248469E+02  0.00000000000E+00 0. -1.
         23    2    1    2    0    0  0.32379792707E+02  0.45767161760E+02  0.19390809148E+03  0.22265524623E+03  0.93978330801E+02 0.  0.
          5    1    1    2  502    0 -0.10231435143E+02 -0.61245693487E+02  0.36774263009E+03  0.37297781331E+03  0.47000000000E+01 0. -1.
         -5    1    1    2    0  502 -0.22148357564E+02  0.15478531727E+02  0.10605727072E+02  0.29405886042E+02  0.47000000000E+01 0. -1.
        -11    1    3    3    0    0 -0.30298242580E+02  0.33278054257E+02  0.90914853863E+02  0.10144418688E+03  0.00000000000E+00 0. -1.
         11    1    3    3    0    0  0.62678035287E+02  0.12489107503E+02  0.10299323762E+03  0.12121105935E+03  0.00000000000E+00 0.  1.
<mgrwt>
<rscale>  0 0.12950651E+03</rscale>
<asrwt>0</asrwt>
<pdfrwt beam="1">  1        2 0.92099635E-01 0.13698599E+03</pdfrwt>
<pdfrwt beam="2">  1       -2 0.40601925E-02 0.13698599E+03</pdfrwt>
<totfact> 0.12933046E+04</totfact>
</mgrwt>
</event>
<event>
 7    1  0.1020736E-005  0.1689976E+03  0.7546771E-02  0.1185406E+00
         -1   -1    0    0    0  501 -0.00000000000E+00  0.00000000000E+00  0.30078874876E+02  0.30078874876E+02  0.00000000000E+00 0.  1.
          1   -1    0    0  501    0  0.00000000000E+00 -0.00000000000E+00 -0.11348573472E+04  0.11348573472E+04  0.00000000000E+00 0. -1.
         23    2    1    2    0    0 -0.75465720307E+02  0.85093386961E+02 -0.21944033981E+03  0.26361285900E+03  0.91660881766E+02 0.  0.
          5    1    1    2  502    0 -0.15110249919E+02  0.21791208136E+02 -0.99491816054E+02  0.10307224586E+03  0.47000000000E+01 0.  1.
         -5    1    1    2    0  502  0.90575970226E+02 -0.10688459510E+03 -0.78584631649E+03  0.79825111725E+03  0.47000000000E+01 0.  1.
        -11    1    3    3    0    0 -0.34967599288E+02  0.70718975677E+02 -0.61786829057E+02  0.10020737880E+03  0.00000000000E+00 0.  1.
         11    1    3    3    0    0 -0.40498121019E+02  0.14374411284E+02 -0.15765351075E+03  0.16340548020E+03  0.00000000000E+00 0. -1.
<mgrwt>
<rscale>  0 0.16294980E+03</rscale>
<asrwt>0</asrwt>
<pdfrwt beam="2">  1        1 0.17459345E+00 0.16899762E+03</pdfrwt>
<pdfrwt beam="1">  1       -1 0.46275189E-02 0.16899762E+03</pdfrwt>
<totfact> 0.25025688E+03</totfact>
</mgrwt>
</event>
<event>
 7    1  0.1020736E-005  0.1778912E+03  0.7546771E-02  0.1176129E+00
         -2   -1    0    0    0  501 -0.00000000000E+00  0.00000000000E+00  0.51523609321E+02  0.51523609321E+02  0.00000000000E+00 0. -1.
          2   -1    0    0  501    0  0.00000000000E+00 -0.00000000000E+00 -0.62567087164E+03  0.62567087164E+03  0.00000000000E+00 0.  1.
         23    2    1    2    0    0 -0.94093134808E+02  0.84657045214E+02 -0.14114126096E+03  0.20907114041E+03  0.88145067288E+02 0.  0.
          5    1    1    2  502    0  0.11403076463E+03 -0.38264717035E+02 -0.35704148662E+03  0.37678630152E+03  0.47000000000E+01 0.  1.
         -5    1    1    2    0  502 -0.19937629822E+02 -0.46392328179E+02 -0.75964514750E+02  0.91337039025E+02  0.47000000000E+01 0.  1.
        -11    1    3    3    0    0 -0.67459910514E+02  0.10142023133E+03 -0.10219036453E+03  0.15899614288E+03  0.00000000000E+00 0.  1.
         11    1    3    3    0    0 -0.26633224294E+02 -0.16763186115E+02 -0.38950896431E+02  0.50074997532E+02  0.00000000000E+00 0. -1.
<mgrwt>
<rscale>  0 0.17165831E+03</rscale>
<asrwt>0</asrwt>
<pdfrwt beam="2">  1        2 0.96257058E-01 0.17789116E+03</pdfrwt>
<pdfrwt beam="1">  1       -2 0.79267091E-02 0.17789116E+03</pdfrwt>
<totfact> 0.45180509E+03</totfact>
</mgrwt>
</event>
<event>
 7    1  0.1020736E-005  0.1418071E+03  0.7546771E-02  0.1223609E+00
          2   -1    0    0  501    0  0.00000000000E+00  0.00000000000E+00  0.16365782644E+04  0.16365782644E+04  0.00000000000E+00 0. -1.
         -2   -1    0    0    0  501 -0.00000000000E+00 -0.00000000000E+00 -0.15561510525E+02  0.15561510525E+02  0.00000000000E+00 0.  1.
         23    2    1    2    0    0  0.57937576087E+02  0.33564490318E+02  0.23443596017E+03  0.25832646188E+03  0.85375662514E+02 0.  0.
          5    1    1    2  502    0 -0.33542996192E+02 -0.78455902771E+02  0.67548464708E+03  0.68086860679E+03  0.47000000000E+01 0.  1.
         -5    1    1    2    0  502 -0.24394579896E+02  0.44891412452E+02  0.71109614665E+03  0.71294470628E+03  0.47000000000E+01 0.  1.
        -11    1    3    3    0    0  0.31156028991E+02  0.61803738808E+02  0.13962137409E+03  0.15583493952E+03  0.00000000000E+00 0.  1.
         11    1    3    3    0    0  0.26781547096E+02 -0.28239248490E+02  0.94814586085E+02  0.10249152235E+03  0.00000000000E+00 0. -1.
<mgrwt>
<rscale>  0 0.13262682E+03</rscale>
<asrwt>0</asrwt>
<pdfrwt beam="1">  1        2 0.25178114E+00 0.14180710E+03</pdfrwt>
<pdfrwt beam="2">  1       -2 0.23940798E-02 0.14180710E+03</pdfrwt>
<totfact> 0.67333803E+03</totfact>
</mgrwt>
</event>
<event>
 7    1  0.1020736E-005  0.2414632E+03  0.7546771E-02  0.1121583E+00
         -1   -1    0    0    0  501 -0.00000000000E+00  0.00000000000E+00  0.53906266743E+02  0.53906266743E+02  0.00000000000E+00 0.  1.
          1   -1    0    0  501    0  0.00000000000E+00 -0.00000000000E+00 -0.10372915511E+04  0.10372915511E+04  0.00000000000E+00 0. -1.
         23    2    1    2    0    0 -0.35851660923E+02 -0.20345074909E+03 -0.38779270888E+03  0.44851982321E+03  0.90051639944E+02 0.  0.
          5    1    1    2  502    0  0.58345790787E+02  0.19468472289E+03 -0.57723435800E+03  0.61198690075E+03  0.47000000000E+01 0. -1.
         -5    1    1    2    0  502 -0.22494129864E+02  0.87660262000E+01 -0.18358217434E+02  0.30691093839E+02  0.47000000000E+01 0. -1.
        -11    1    3    3    0    0  0.20215816391E+01 -0.14234605604E+03 -0.18548485998E+03  0.23381856159E+03  0.00000000000E+00 0.  1.
         11    1    3    3    0    0 -0.37873242562E+02 -0.61104693054E+02 -0.20230784890E+03  0.21470126163E+03  0.00000000000E+00 0. -1.
<mgrwt>
<rscale>  0 0.23733247E+03</rscale>
<asrwt>0</asrwt>
<pdfrwt beam="2">  1        1 0.15958330E+00 0.24146322E+03</pdfrwt>
<pdfrwt beam="1">  1       -1 0.82932724E-02 0.24146322E+03</pdfrwt>
<totfact> 0.12233090E+03</totfact>
</mgrwt>
</event>
<event>
 7    1  0.1020736E-005  0.1382473E+03  0.7546771E-02  0.1227099E+00
          1   -1    0    0  501    0  0.00000000000E+00  0.00000000000E+00  0.59934722561E+03  0.59934722561E+03  0.00000000000E+00 0. -1.
         -1   -1    0    0    0  501 -0.00000000000E+00 -0.00000000000E+00 -0.25506911191E+02  0.25506911191E+02  0.00000000000E+00 0.  1.
         23    2    1    2    0    0 -0.40389793664E+02 -0.46032909159E+02  0.24238498006E+03  0.26572330015E+03  0.90044597415E+02 0.  0.
          5    1    1    2  502    0 -0.68776630728E+01  0.79473395257E+02  0.20244073976E+03  0.21764114022E+03  0.47000000000E+01 0. -1.
         -5    1    1    2    0  502  0.47267456737E+02 -0.33440486099E+02  0.12901459460E+03  0.14148969643E+03  0.47000000000E+01 0. -1.
        -11    1    3    3    0    0 -0.17273663236E+02 -0.71581936966E+02  0.17952341076E+03  0.19403867695E+03  0.00000000000E+00 0. -1.
         11    1    3    3    0    0 -0.23116130429E+02  0.25549027808E+02  0.62861569302E+02  0.71684623198E+02  0.00000000000E+00 0.  1.
<mgrwt>
<rscale>  0 0.13024041E+03</rscale>
<asrwt>0</asrwt>
<pdfrwt beam="1">  1        1 0.92207255E-01 0.13824731E+03</pdfrwt>
<pdfrwt beam="2">  1       -1 0.39241406E-02 0.13824731E+03</pdfrwt>
<totfact> 0.85480918E+03</totfact>
</mgrwt>
</event>
<event>
 7    1  0.1020736E-005  0.1649963E+03  0.7546771E-02  0.1190347E+00
          1   -1    0    0  501    0  0.00000000000E+00  0.00000000000E+00  0.76829017054E+03  0.76829017054E+03  0.00000000000E+00 0. -1.
         -1   -1    0    0    0  501 -0.00000000000E+00 -0.00000000000E+00 -0.32382892737E+02  0.32382892737E+02  0.00000000000E+00 0.  1.
         23    2    1    2    0    0  0.64367937698E+02  0.86341787961E+02  0.24176865857E+03  0.27971553563E+03  0.90501717413E+02 0.  0.
          5    1    1    2  502    0 -0.27234136680E+02 -0.11274382143E+03  0.30478012820E+03  0.32613782979E+03  0.47000000000E+01 0.  1.
         -5    1    1    2    0  502 -0.37133801018E+02  0.26402033466E+02  0.18935849102E+03  0.19481969785E+03  0.47000000000E+01 0.  1.
        -11    1    3    3    0    0  0.46064790227E+02  0.37828061986E+02  0.21136194878E+03  0.21960601213E+03  0.00000000000E+00 0. -1.
         11    1    3    3    0    0  0.18303147471E+02  0.48513725975E+02  0.30406709795E+02  0.60109523504E+02  0.00000000000E+00 0.  1.
<mgrwt>
<rscale>  0 0.15854690E+03</rscale>
<asrwt>0</asrwt>
<pdfrwt beam="1">  1        1 0.11819847E+00 0.16499627E+03</pdfrwt>
<pdfrwt beam="2">  1       -1 0.49819841E-02 0.16499627E+03</pdfrwt>
<totfact> 0.42583801E+03</totfact>
</mgrwt>
</event>
<event>
 7    1  0.1020736E-005  0.1331097E+03  0.7546771E-02  0.1235673E+00
          1   -1    0    0  501    0  0.00000000000E+00  0.00000000000E+00  0.17851769059E+03  0.17851769059E+03  0.00000000000E+00 0. -1.
         -1   -1    0    0    0  501 -0.00000000000E+00 -0.00000000000E+00 -0.78970137820E+02  0.78970137820E+02  0.00000000000E+00 0.  1.
         23    2    1    2    0    0 -0.36073736901E+02 -0.28196487485E+02  0.26381923559E+02  0.10559513183E+03  0.91421931585E+02 0.  0.
          5    1    1    2  502    0 -0.36444811436E+02  0.14179911394E+02 -0.99264746309E+01  0.40619195786E+02  0.47000000000E+01 0. -1.
         -5    1    1    2    0  502  0.72518548337E+02  0.14016576091E+02  0.83092103837E+02  0.11127350079E+03  0.47000000000E+01 0. -1.
        -11    1    3    3    0    0  0.26350013370E+02  0.10800090810E+02  0.10073705582E+02  0.30206699758E+02  0.00000000000E+00 0.  1.
         11    1    3    3    0    0 -0.62423750271E+02 -0.38996578295E+02  0.16308217977E+02  0.75388432071E+02  0.00000000000E+00 0. -1.
<mgrwt>
<rscale>  0 0.12461467E+03</rscale>
<asrwt>0</asrwt>
<pdfrwt beam="1">  1        1 0.27464260E-01 0.13310966E+03</pdfrwt>
<pdfrwt beam="2">  1       -1 0.12149252E-01 0.13310966E+03</pdfrwt>
<totfact> 0.72149964E+03</totfact>
</mgrwt>
</event>
<event>
 7    1  0.1020736E-005  0.1283968E+03  0.7546771E-02  0.1244216E+00
          2   -1    0    0  501    0  0.00000000000E+00  0.00000000000E+00  0.75241693321E+03  0.75241693321E+03  0.00000000000E+00 0. -1.
         -2   -1    0    0    0  501 -0.00000000000E+00 -0.00000000000E+00 -0.18423408612E+02  0.18423408612E+02  0.00000000000E+00 0.  1.
         23    2    1    2    0    0  0.26277967272E+02  0.13070412340E+02  0.20176039300E+03  0.22333888899E+03  0.91168173770E+02 0.  0.
          5    1    1    2  502    0  0.22046508606E+02 -0.13381883079E+02  0.20001524396E+02  0.32973842885E+02  0.47000000000E+01 0.  1.
         -5    1    1    2    0  502 -0.48324475878E+02  0.31147073938E+00  0.51223160720E+03  0.51452760995E+03  0.47000000000E+01 0.  1.
        -11    1    3    3    0    0  0.44893690099E+01 -0.35387466182E+02  0.42698711389E+02  0.55638180696E+02  0.00000000000E+00 0.  1.
         11    1    3    3    0    0  0.21788598262E+02  0.48457878521E+02  0.15906168161E+03  0.16770070830E+03  0.00000000000E+00 0. -1.
<mgrwt>
<rscale>  0 0.11932448E+03</rscale>
<asrwt>0</asrwt>
<pdfrwt beam="1">  1        2 0.11575643E+00 0.12839679E+03</pdfrwt>
<pdfrwt beam="2">  1       -2 0.28343711E-02 0.12839679E+03</pdfrwt>
<totfact> 0.16730852E+04</totfact>
</mgrwt>
</event>
<event>
 7    1  0.1020736E-005  0.1430077E+03  0.7546771E-02  0.1219871E+00
          3   -1    0    0  501    0  0.00000000000E+00  0.00000000000E+00  0.29286010730E+03  0.29286010730E+03  0.00000000000E+00 0. -1.
         -3   -1    0    0    0  501 -0.00000000000E+00 -0.00000000000E+00 -0.59853647976E+02  0.59853647976E+02  0.00000000000E+00 0.  1.
         23    2    1    2    0    0  0.40447692231E+02 -0.56491582635E+02  0.63157633797E+02  0.13067809765E+03  0.90887643729E+02 0.  0.
          5    1    1    2  502    0 -0.36771023193E+02 -0.34717135335E+02  0.49591505912E+02  0.70984470775E+02  0.47000000000E+01 0.  1.
         -5    1    1    2    0  502 -0.36766690385E+01  0.91208717970E+02  0.12025731962E+03  0.15105118686E+03  0.47000000000E+01 0.  1.
        -11    1    3    3    0    0 -0.12027059541E+02 -0.11860377502E+02  0.59325885018E+02  0.61683704079E+02  0.00000000000E+00 0. -1.
         11    1    3    3    0    0  0.52474751773E+02 -0.44631205133E+02  0.38317487789E+01  0.68994393569E+02  0.00000000000E+00 0.  1.
<mgrwt>
<rscale>  0 0.13524720E+03</rscale>
<asrwt>0</asrwt>
<pdfrwt beam="1">  1        3 0.45055400E-01 0.14300773E+03</pdfrwt>
<pdfrwt beam="2">  1       -3 0.92082537E-02 0.14300773E+03</pdfrwt>
<totfact> 0.96813429E+02</totfact>
</mgrwt>
</event>
<event>
 7    1  0.1020736E-005  0.1256005E+03  0.7546771E-02  0.1243068E+00
          2   -1    0    0  501    0  0.00000000000E+00  0.00000000000E+00  0.10743855760E+04  0.10743855760E+04  0.00000000000E+00 0. -1.
         -2   -1    0    0    0  501 -0.00000000000E+00 -0.00000000000E+00 -0.13740026498E+02  0.13740026498E+02  0.00000000000E+00 0.  1.
         23    2    1    2    0    0  0.12098430647E+02  0.20699723778E+01  0.31428946929E+03  0.33127496420E+03  0.10399314681E+03 0.  0.
          5    1    1    2  502    0  0.46911763178E+02  0.24942330219E+02  0.46600005319E+03  0.46904261314E+03  0.47000000000E+01 0.  1.
         -5    1    1    2    0  502 -0.59010193825E+02 -0.27012302596E+02  0.28035602697E+03  0.28780802513E+03  0.47000000000E+01 0.  1.
        -11    1    3    3    0    0 -0.37784727046E+02  0.26761165771E+02  0.18105613575E+03  0.18688277043E+03  0.00000000000E+00 0. -1.
         11    1    3    3    0    0  0.49883157693E+02 -0.24691193393E+02  0.13323333355E+03  0.14439219377E+03  0.00000000000E+00 0.  1.
<mgrwt>
<rscale>  0 0.12001784E+03</rscale>
<asrwt>0</asrwt>
<pdfrwt beam="1">  1        2 0.16529002E+00 0.12560052E+03</pdfrwt>
<pdfrwt beam="2">  1       -2 0.21138511E-02 0.12560052E+03</pdfrwt>
<totfact> 0.16076328E+04</totfact>
</mgrwt>
</event>
<event>
 7    1  0.1020736E-005  0.1373612E+03  0.7546771E-02  0.1228817E+00
         -1   -1    0    0    0  501 -0.00000000000E+00  0.00000000000E+00  0.10291568772E+03  0.10291568772E+03  0.00000000000E+00 0.  1.
          1   -1    0    0  501    0  0.00000000000E+00 -0.00000000000E+00 -0.17212047569E+03  0.17212047569E+03  0.00000000000E+00 0. -1.
         23    2    1    2    0    0  0.10484299415E+02 -0.55985924725E+02  0.23026523297E+02  0.10958312515E+03  0.90740819044E+02 0.  0.
          5    1    1    2  502    0 -0.39222894861E+00  0.39548690126E+01  0.30799866217E+02  0.31408861671E+02  0.47000000000E+01 0. -1.
         -5    1    1    2    0  502 -0.10092070466E+02  0.52031055712E+02 -0.12303117748E+03  0.13404417659E+03  0.47000000000E+01 0. -1.
        -11    1    3    3    0    0  0.26585598312E+02 -0.46734049132E+02 -0.24106634222E+02  0.58923638714E+02  0.00000000000E+00 0. -1.
         11    1    3    3    0    0 -0.16101298897E+02 -0.92518755933E+01  0.47133157519E+02  0.50659486435E+02  0.00000000000E+00 0.  1.
<mgrwt>
<rscale>  0 0.12908697E+03</rscale>
<asrwt>0</asrwt>
<pdfrwt beam="2">  1        1 0.26480073E-01 0.13736118E+03</pdfrwt>
<pdfrwt beam="1">  1       -1 0.15833183E-01 0.13736118E+03</pdfrwt>
<totfact> 0.50084818E+03</totfact>
</mgrwt>
</event>
<event>
 7    1  0.1020736E-005  0.1617333E+03  0.7546771E-02  0.1193865E+00
          2   -1    0    0  501    0  0.00000000000E+00  0.00000000000E+00  0.10760220148E+04  0.10760220148E+04  0.00000000000E+00 0. -1.
         -2   -1    0    0    0  501 -0.00000000000E+00 -0.00000000000E+00 -0.27911421623E+02  0.27911421623E+02  0.00000000000E+00 0.  1.
         23    2    1    2    0    0 -0.63029392215E+02 -0.81007086433E+02  0.21739435781E+03  0.25761959572E+03  0.92588859762E+02 0.  0.
          5    1    1    2  502    0  0.11445498384E+02  0.66630161503E+02  0.72057267235E+03  0.72375247426E+03  0.47000000000E+01 0.  1.
         -5    1    1    2    0  502  0.51583893831E+02  0.14376924930E+02  0.11014356302E+03  0.12256136646E+03  0.47000000000E+01 0.  1.
        -11    1    3    3    0    0  0.23357358760E+02 -0.29569477009E+02  0.60441536131E+02  0.71225693880E+02  0.00000000000E+00 0. -1.
         11    1    3    3    0    0 -0.86386750975E+02 -0.51437609425E+02  0.15695282168E+03  0.18639390184E+03  0.00000000000E+00 0.  1.
<mgrwt>
<rscale>  0 0.15550708E+03</rscale>
<asrwt>0</asrwt>
<pdfrwt beam="1">  1        2 0.16554182E+00 0.16173328E+03</pdfrwt>
<pdfrwt beam="2">  1       -2 0.42940657E-02 0.16173328E+03</pdfrwt>
<totfact> 0.57231341E+03</totfact>
</mgrwt>
</event>
<event>
 7    1  0.1020736E-005  0.1477659E+03  0.7546771E-02  0.1212578E+00
          1   -1    0    0  501    0  0.00000000000E+00  0.00000000000E+00  0.75844205551E+03  0.75844205551E+03  0.00000000000E+00 0. -1.
         -1   -1    0    0    0  501 -0.00000000000E+00 -0.00000000000E+00 -0.42259551762E+02  0.42259551762E+02  0.00000000000E+00 0.  1.
         23    2    1    2    0    0  0.51507047632E+02  0.59640107578E+02  0.74180532101E+02  0.14191385908E+03  0.91798004702E+02 0.  0.
          5    1    1    2  502    0 -0.19868618234E+02  0.21171191957E+02  0.40979271078E+03  0.41084685367E+03  0.47000000000E+01 0. -1.
         -5    1    1    2    0  502 -0.31638429398E+02 -0.80811299535E+02  0.23220926086E+03  0.24794089453E+03  0.47000000000E+01 0. -1.
        -11    1    3    3    0    0  0.92314363732E+01  0.52903339151E+01 -0.21525962593E+02  0.24011957771E+02  0.00000000000E+00 0.  1.
         11    1    3    3    0    0  0.42275611259E+02  0.54349773663E+02  0.95706494694E+02  0.11790190130E+03  0.00000000000E+00 0. -1.
<mgrwt>
<rscale>  0 0.14055990E+03</rscale>
<asrwt>0</asrwt>
<pdfrwt beam="1">  1        1 0.11668338E+00 0.14776591E+03</pdfrwt>
<pdfrwt beam="2">  1       -1 0.65014701E-02 0.14776591E+03</pdfrwt>
<totfact> 0.29072107E+03</totfact>
</mgrwt>
</event>
<event>
 7    1  0.1020736E-005  0.1289919E+03  0.7546771E-02  0.1239404E+00
          2   -1    0    0  501    0  0.00000000000E+00  0.00000000000E+00  0.96989405374E+03  0.96989405374E+03  0.00000000000E+00 0. -1.
         -2   -1    0    0    0  501 -0.00000000000E+00 -0.00000000000E+00 -0.16850423112E+03  0.16850423112E+03  0.00000000000E+00 0.  1.
         23    2    1    2    0    0  0.51800678626E+02 -0.10521361221E+02 -0.14762881160E+03  0.18065339248E+03  0.89707150495E+02 0.  0.
          5    1    1    2  502    0 -0.40449933920E+02  0.63038277658E+02  0.55798229829E+03  0.56300653354E+03  0.47000000000E+01 0. -1.
         -5    1    1    2    0  502 -0.11350744707E+02 -0.52516916437E+02  0.39103633593E+03  0.39473835884E+03  0.47000000000E+01 0.  1.
        -11    1    3    3    0    0  0.73171687577E+02 -0.16358891184E+02 -0.80709404265E+02  0.11016223092E+03  0.00000000000E+00 0.  1.
         11    1    3    3    0    0 -0.21371008951E+02  0.58375299626E+01 -0.66919407338E+02  0.70491161560E+02  0.00000000000E+00 0. -1.
<mgrwt>
<rscale>  0 0.12226648E+03</rscale>
<asrwt>0</asrwt>
<pdfrwt beam="1">  1        2 0.14921447E+00 0.12899190E+03</pdfrwt>
<pdfrwt beam="2">  1       -2 0.25923728E-01 0.12899190E+03</pdfrwt>
<totfact> 0.37502202E+02</totfact>
</mgrwt>
</event>
<event>
 7    1  0.1020736E-005  0.1591919E+03  0.7546771E-02  0.1196894E+00
          1   -1    0    0  501    0  0.00000000000E+00  0.00000000000E+00  0.91450386858E+02  0.91450386858E+02  0.00000000000E+00 0. -1.
         -1   -1    0    0    0  501 -0.00000000000E+00 -0.00000000000E+00 -0.39398764388E+03  0.39398764388E+03  0.00000000000E+00 0.  1.
         23    2    1    2    0    0  0.42268826564E+02  0.89022165254E+02 -0.29658335303E+03  0.32613487127E+03  0.93223759611E+02 0.  0.
          5    1    1    2  502    0 -0.57984424853E+01 -0.70618326164E+02 -0.58903359394E+02  0.92261940546E+02  0.47000000000E+01 0. -1.
         -5    1    1    2    0  502 -0.36470384079E+02 -0.18403839090E+02  0.52949455399E+02  0.67041218927E+02  0.47000000000E+01 0. -1.
        -11    1    3    3    0    0  0.45937779397E+01  0.67036135882E+02 -0.26196795129E+03  0.27044806121E+03  0.00000000000E+00 0.  1.
         11    1    3    3    0    0  0.37675048624E+02  0.21986029372E+02 -0.34615401736E+02  0.55686810051E+02  0.00000000000E+00 0. -1.
<mgrwt>
<rscale>  0 0.15295003E+03</rscale>
<asrwt>0</asrwt>
<pdfrwt beam="1">  1        1 0.14069290E-01 0.15919186E+03</pdfrwt>
<pdfrwt beam="2">  1       -1 0.60613483E-01 0.15919186E+03</pdfrwt>
<totfact> 0.11427492E+03</totfact>
</mgrwt>
</event>
<event>
 7    1  0.1020736E-005  0.1290590E+03  0.7546771E-02  0.1242976E+00
         -2   -1    0    0    0  501 -0.00000000000E+00  0.00000000000E+00  0.23718249367E+02  0.23718249367E+02  0.00000000000E+00 0.  1.
          2   -1    0    0  501    0  0.00000000000E+00 -0.00000000000E+00 -0.53727371032E+03  0.53727371032E+03  0.00000000000E+00 0. -1.
         23    2    1    2    0    0 -0.91051653169E+01  0.30776710973E+02 -0.21689808229E+03  0.23747716592E+03  0.91216863909E+02 0.  0.
          5    1    1    2  502    0  0.58803836287E+02 -0.27104476611E+02 -0.90559921676E+02  0.11142590914E+03  0.47000000000E+01 0.  1.
         -5    1    1    2    0  502 -0.49698670970E+02 -0.36722343617E+01 -0.20609745699E+03  0.21208888462E+03  0.47000000000E+01 0.  1.
        -11    1    3    3    0    0  0.19563580997E+02 -0.58195863298E+01 -0.56557765011E+01  0.21179921962E+02  0.00000000000E+00 0.  1.
         11    1    3    3    0    0 -0.28668746314E+02  0.36596297302E+02 -0.21124230578E+03  0.21629724396E+03  0.00000000000E+00 0. -1.
<mgrwt>
<rscale>  0 0.12007325E+03</rscale>
<asrwt>0</asrwt>
<pdfrwt beam="2">  1        2 0.82657500E-01 0.12905898E+03</pdfrwt>
<pdfrwt beam="1">  1       -2 0.36489612E-02 0.12905898E+03</pdfrwt>
<totfact> 0.17029694E+04</totfact>
</mgrwt>
</event>
<event>
 7    1  0.1020736E-005  0.1473727E+03  0.7546771E-02  0.1216495E+00
         -1   -1    0    0    0  501 -0.00000000000E+00  0.00000000000E+00  0.64148911592E+03  0.64148911592E+03  0.00000000000E+00 0.  1.
          1   -1    0    0  501    0  0.00000000000E+00 -0.00000000000E+00 -0.29168849367E+02  0.29168849367E+02  0.00000000000E+00 0. -1.
         23    2    1    2    0    0 -0.57836851312E+02  0.52421595683E+02  0.37375462921E+03  0.39024349286E+03  0.80649462515E+02 0.  0.
          5    1    1    2  502    0 -0.48780790575E+01 -0.89690134332E+01  0.18894604350E+03  0.18928004705E+03  0.47000000000E+01 0. -1.
         -5    1    1    2    0  502  0.62714930369E+02 -0.43452582250E+02  0.49619593853E+02  0.91134425381E+02  0.47000000000E+01 0. -1.
        -11    1    3    3    0    0 -0.40093946850E+02  0.73924858494E+02  0.29180640843E+03  0.30368304081E+03  0.00000000000E+00 0.  1.
         11    1    3    3    0    0 -0.17742904462E+02 -0.21503262811E+02  0.81948220776E+02  0.86560452047E+02  0.00000000000E+00 0. -1.
<mgrwt>
<rscale>  0 0.13767280E+03</rscale>
<asrwt>0</asrwt>
<pdfrwt beam="2">  1        1 0.44875158E-02 0.14737270E+03</pdfrwt>
<pdfrwt beam="1">  1       -1 0.98690622E-01 0.14737270E+03</pdfrwt>
<totfact> 0.19591252E+03</totfact>
</mgrwt>
</event>
<event>
 7    1  0.1020736E-005  0.1256506E+03  0.7546771E-02  0.1249683E+00
         -2   -1    0    0    0  501 -0.00000000000E+00  0.00000000000E+00  0.17142780874E+02  0.17142780874E+02  0.00000000000E+00 0. -1.
          2   -1    0    0  501    0  0.00000000000E+00 -0.00000000000E+00 -0.72466337204E+03  0.72466337204E+03  0.00000000000E+00 0.  1.
         23    2    1    2    0    0 -0.55464156026E+01 -0.11632575299E+02 -0.21872450549E+03  0.23711844233E+03  0.90656863252E+02 0.  0.
          5    1    1    2  502    0 -0.58897087501E+02  0.72466345676E+01 -0.19732620860E+03  0.20610944479E+03  0.47000000000E+01 0.  1.
         -5    1    1    2    0  502  0.64443503104E+02  0.43859407309E+01 -0.29146987707E+03  0.29857826580E+03  0.47000000000E+01 0.  1.
        -11    1    3    3    0    0  0.30399267078E+00 -0.51038148141E+02 -0.10820361267E+03  0.11963697912E+03  0.00000000000E+00 0. -1.
         11    1    3    3    0    0 -0.58504082734E+01  0.39405572842E+02 -0.11052089282E+03  0.11748146321E+03  0.00000000000E+00 0.  1.
<mgrwt>
<rscale>  0 0.11609397E+03</rscale>
<asrwt>0</asrwt>
<pdfrwt beam="2">  1        2 0.11148670E+00 0.12565059E+03</pdfrwt>
<pdfrwt beam="1">  1       -2 0.26373502E-02 0.12565059E+03</pdfrwt>
<totfact> 0.19417474E+04</totfact>
</mgrwt>
</event>
<event>
 7    1  0.1020736E-005  0.1311876E+03  0.7546771E-02  0.1239077E+00
         -2   -1    0    0    0  501 -0.00000000000E+00  0.00000000000E+00  0.92364807143E+02  0.92364807143E+02  0.00000000000E+00 0.  1.
          2   -1    0    0  501    0  0.00000000000E+00 -0.00000000000E+00 -0.15344598498E+03  0.15344598498E+03  0.00000000000E+00 0. -1.
         23    2    1    2    0    0  0.19986765236E+02 -0.34505883594E+02  0.32579391831E+01  0.99695383431E+02  0.91314996153E+02 0.  0.
          5    1    1    2  502    0 -0.58564497974E+02  0.19029553349E+02 -0.80335339954E+02  0.10133006054E+03  0.47000000000E+01 0.  1.
         -5    1    1    2    0  502  0.38577732738E+02  0.15476330245E+02  0.15996222932E+02  0.44785348153E+02  0.47000000000E+01 0.  1.
        -11    1    3    3    0    0  0.30825294353E+02 -0.13939449009E+02  0.42355773365E+02  0.54208104080E+02  0.00000000000E+00 0.  1.
         11    1    3    3    0    0 -0.10838529117E+02 -0.20566434585E+02 -0.39097834182E+02  0.45487279350E+02  0.00000000000E+00 0. -1.
<mgrwt>
<rscale>  0 0.12247019E+03</rscale>
<asrwt>0</asrwt>
<pdfrwt beam="2">  1        2 0.23607075E-01 0.13118762E+03</pdfrwt>
<pdfrwt beam="1">  1       -2 0.14209970E-01 0.13118762E+03</pdfrwt>
<totfact> 0.81079389E+03</totfact>
</mgrwt>
</event>
<event>
 7    1  0.1020736E-005  0.1423700E+03  0.7546771E-02  0.1219879E+00
         -2   -1    0    0    0  501 -0.00000000000E+00  0.00000000000E+00  0.88597775085E+02  0.88597775085E+02  0.00000000000E+00 0.  1.
          2   -1    0    0  501    0  0.00000000000E+00 -0.00000000000E+00 -0.20291988963E+03  0.20291988963E+03  0.00000000000E+00 0. -1.
         23    2    1    2    0    0 -0.16646006662E+02 -0.66048816652E+02 -0.12742738471E+02  0.11662462277E+03  0.93805061343E+02 0.  0.
          5    1    1    2  502    0 -0.80464775178E+00  0.30525921147E+02 -0.12493464839E+03  0.12869823499E+03  0.47000000000E+01 0.  1.
         -5    1    1    2    0  502  0.17450654414E+02  0.35522895505E+02  0.23355272320E+02  0.46194806955E+02  0.47000000000E+01 0.  1.
        -11    1    3    3    0    0 -0.31374299772E+02 -0.22790930138E+02  0.33769023101E+02  0.51421008391E+02  0.00000000000E+00 0.  1.
         11    1    3    3    0    0  0.14728293110E+02 -0.43257886514E+02 -0.46511761572E+02  0.65203614379E+02  0.00000000000E+00 0. -1.
<mgrwt>
<rscale>  0 0.13524130E+03</rscale>
<asrwt>0</asrwt>
<pdfrwt beam="2">  1        2 0.31218444E-01 0.14236996E+03</pdfrwt>
<pdfrwt beam="1">  1       -2 0.13630427E-01 0.14236996E+03</pdfrwt>
<totfact> 0.64255590E+03</totfact>
</mgrwt>
</event>
<event>
 7    1  0.1020736E-005  0.2056662E+03  0.7546771E-02  0.1149255E+00
          1   -1    0    0  501    0  0.00000000000E+00  0.00000000000E+00  0.82075599836E+03  0.82075599836E+03  0.00000000000E+00 0. -1.
         -1   -1    0    0    0  501 -0.00000000000E+00 -0.00000000000E+00 -0.49900090715E+02  0.49900090715E+02  0.00000000000E+00 0.  1.
         23    2    1    2    0    0 -0.10309521588E+03 -0.12666382403E+03  0.25786655735E+03  0.31797474115E+03  0.89109072266E+02 0.  0.
          5    1    1    2  502    0  0.35811100610E+02  0.10132322203E+03  0.42775877624E+03  0.44107651365E+03  0.47000000000E+01 0. -1.
         -5    1    1    2    0  502  0.67284115270E+02  0.25340602000E+02  0.85230574065E+02  0.11160483427E+03  0.47000000000E+01 0. -1.
        -11    1    3    3    0    0 -0.27460179833E+02 -0.10294162923E+02  0.53211896234E+01  0.29805139251E+02  0.00000000000E+00 0.  1.
         11    1    3    3    0    0 -0.75635036048E+02 -0.11636966110E+03  0.25254536772E+03  0.28816960190E+03  0.00000000000E+00 0. -1.
<mgrwt>
<rscale>  0 0.20057500E+03</rscale>
<asrwt>0</asrwt>
<pdfrwt beam="1">  1        1 0.12627014E+00 0.20566623E+03</pdfrwt>
<pdfrwt beam="2">  1       -1 0.76769376E-02 0.20566623E+03</pdfrwt>
<totfact> 0.20221089E+03</totfact>
</mgrwt>
</event>
<event>
 7    1  0.1020736E-005  0.1355167E+03  0.7546771E-02  0.1232503E+00
         -1   -1    0    0    0  501 -0.00000000000E+00  0.00000000000E+00  0.26962468854E+02  0.26962468854E+02  0.00000000000E+00 0.  1.
          1   -1    0    0  501    0  0.00000000000E+00 -0.00000000000E+00 -0.53854492191E+03  0.53854492191E+03  0.00000000000E+00 0. -1.
         23    2    1    2    0    0  0.17267651673E+02  0.49412157591E+02 -0.18523430217E+03  0.21214086657E+03  0.89175486845E+02 0.  0.
          5    1    1    2  502    0  0.86759597428E+00  0.29705207563E+02 -0.19321809338E+02  0.35757158657E+02  0.47000000000E+01 0.  1.
         -5    1    1    2    0  502 -0.18135247647E+02 -0.79117365154E+02 -0.30702634154E+03  0.31760936554E+03  0.47000000000E+01 0.  1.
        -11    1    3    3    0    0 -0.16911961660E+00 -0.22307836451E+02 -0.15826290589E+02  0.27352141459E+02  0.00000000000E+00 0.  1.
         11    1    3    3    0    0  0.17436771289E+02  0.71719994042E+02 -0.16940801158E+03  0.18478872511E+03  0.00000000000E+00 0. -1.
<mgrwt>
<rscale>  0 0.12665638E+03</rscale>
<asrwt>0</asrwt>
<pdfrwt beam="2">  1        1 0.82853065E-01 0.13551673E+03</pdfrwt>
<pdfrwt beam="1">  1       -1 0.41480721E-02 0.13551673E+03</pdfrwt>
<totfact> 0.90841263E+03</totfact>
</mgrwt>
</event>
<event>
 7    1  0.1020736E-005  0.1514076E+03  0.7546771E-02  0.1209332E+00
          2   -1    0    0  501    0  0.00000000000E+00  0.00000000000E+00  0.13314653310E+04  0.13314653310E+04  0.00000000000E+00 0. -1.
         -2   -1    0    0    0  501 -0.00000000000E+00 -0.00000000000E+00 -0.18649404746E+02  0.18649404746E+02  0.00000000000E+00 0.  1.
         23    2    1    2    0    0 -0.96395655108E+00 -0.85426866391E+02  0.26129359156E+03  0.28774781321E+03  0.85004613411E+02 0.  0.
          5    1    1    2  502    0 -0.43000452067E+02  0.53165490701E+02  0.87192053389E+03  0.87461026503E+03  0.47000000000E+01 0. -1.
         -5    1    1    2    0  502  0.43964408618E+02  0.32261375691E+02  0.17960180080E+03  0.18775665750E+03  0.47000000000E+01 0. -1.
        -11    1    3    3    0    0  0.19629566435E+02 -0.28229045647E+02  0.21921606895E+02  0.40776902107E+02  0.00000000000E+00 0.  1.
         11    1    3    3    0    0 -0.20593522986E+02 -0.57197820744E+02  0.23937198467E+03  0.24697091110E+03  0.00000000000E+00 0. -1.
<mgrwt>
<rscale>  0 0.14301225E+03</rscale>
<asrwt>0</asrwt>
<pdfrwt beam="1">  1        2 0.20484075E+00 0.15140759E+03</pdfrwt>
<pdfrwt beam="2">  1       -2 0.28691402E-02 0.15140759E+03</pdfrwt>
<totfact> 0.74814868E+03</totfact>
</mgrwt>
</event>
<event>
 7    1  0.1020736E-005  0.1822256E+03  0.7546771E-02  0.1171154E+00
          2   -1    0    0  501    0  0.00000000000E+00  0.00000000000E+00  0.39144580317E+03  0.39144580317E+03  0.00000000000E+00 0. -1.
         -2   -1    0    0    0  501 -0.00000000000E+00 -0.00000000000E+00 -0.80031727165E+02  0.80031727165E+02  0.00000000000E+00 0.  1.
         23    2    1    2    0    0  0.12546741322E+03  0.42882412724E+02  0.88072729677E+02  0.18322845494E+03  0.90746283031E+02 0.  0.
          5    1    1    2  502    0  0.23111709456E+02 -0.75015935427E+01  0.58273240375E+02  0.63311022449E+02  0.47000000000E+01 0. -1.
         -5    1    1    2    0  502 -0.14857912268E+03 -0.35380819181E+02  0.16506810595E+03  0.22493805295E+03  0.47000000000E+01 0. -1.
        -11    1    3    3    0    0  0.41337600609E+02 -0.16904318873E+02  0.62641013064E+02  0.76931461304E+02  0.00000000000E+00 0. -1.
         11    1    3    3    0    0  0.84129812614E+02  0.59786731597E+02  0.25431716613E+02  0.10629699363E+03  0.00000000000E+00 0.  1.
<mgrwt>
<rscale>  0 0.17658056E+03</rscale>
<asrwt>0</asrwt>
<pdfrwt beam="1">  1        2 0.60222430E-01 0.18222561E+03</pdfrwt>
<pdfrwt beam="2">  1       -2 0.12312574E-01 0.18222561E+03</pdfrwt>
<totfact> 0.37969705E+03</totfact>
</mgrwt>
</event>
<event>
 7    1  0.1020736E-005  0.1539168E+03  0.7546771E-02  0.1204972E+00
         -1   -1    0    0    0  501 -0.00000000000E+00  0.00000000000E+00  0.46756544174E+03  0.46756544174E+03  0.00000000000E+00 0.  1.
          1   -1    0    0  501    0  0.00000000000E+00 -0.00000000000E+00 -0.42440522064E+02  0.42440522064E+02  0.00000000000E+00 0. -1.
         23    2    1    2    0    0  0.85522959721E+02  0.27377466071E+02  0.22063642716E+03  0.25406473394E+03  0.88344517410E+02 0.  0.
          5    1    1    2  502    0 -0.99131729300E+02  0.22643616125E+02  0.13158419247E+03  0.16636202335E+03  0.47000000000E+01 0.  1.
         -5    1    1    2    0  502  0.13608769578E+02 -0.50021082195E+02  0.72904300047E+02  0.89579206509E+02  0.47000000000E+01 0.  1.
        -11    1    3    3    0    0  0.13265060131E+02  0.13291036423E+02 -0.26419203860E+01  0.18962943147E+02  0.00000000000E+00 0. -1.
         11    1    3    3    0    0  0.72257899590E+02  0.14086429648E+02  0.22327834754E+03  0.23510179080E+03  0.00000000000E+00 0.  1.
<mgrwt>
<rscale>  0 0.14639670E+03</rscale>
<asrwt>0</asrwt>
<pdfrwt beam="2">  1        1 0.65293114E-02 0.15391676E+03</pdfrwt>
<pdfrwt beam="1">  1       -1 0.71933141E-01 0.15391676E+03</pdfrwt>
<totfact> 0.22745121E+03</totfact>
</mgrwt>
</event>
<event>
 7    1  0.1020736E-005  0.1402763E+03  0.7546771E-02  0.1225522E+00
         -1   -1    0    0    0  501 -0.00000000000E+00  0.00000000000E+00  0.78070263584E+02  0.78070263584E+02  0.00000000000E+00 0.  1.
          1   -1    0    0  501    0  0.00000000000E+00 -0.00000000000E+00 -0.23153730869E+03  0.23153730869E+03  0.00000000000E+00 0. -1.
         23    2    1    2    0    0 -0.53345102706E+02  0.34735899099E+02 -0.87566726681E+01  0.10806714464E+03  0.86888122119E+02 0.  0.
          5    1    1    2  502    0 -0.46330065494E+01  0.14485145005E+02  0.16685922454E+02  0.23060663123E+02  0.47000000000E+01 0. -1.
         -5    1    1    2    0  502  0.57978109255E+02 -0.49221044104E+02 -0.16139629489E+03  0.17847976451E+03  0.47000000000E+01 0. -1.
        -11    1    3    3    0    0 -0.42202063718E+01 -0.27828311091E+02 -0.13863089851E+01  0.28180611998E+02  0.00000000000E+00 0.  1.
         11    1    3    3    0    0 -0.49124896334E+02  0.62564210190E+02 -0.73703636830E+01  0.79886532641E+02  0.00000000000E+00 0. -1.
<mgrwt>
<rscale>  0 0.13131191E+03</rscale>
<asrwt>0</asrwt>
<pdfrwt beam="2">  1        1 0.35621125E-01 0.14027634E+03</pdfrwt>
<pdfrwt beam="1">  1       -1 0.12010810E-01 0.14027634E+03</pdfrwt>
<totfact> 0.53338582E+03</totfact>
</mgrwt>
</event>
<event>
 7    1  0.1020736E-005  0.1419195E+03  0.7546771E-02  0.1219339E+00
         -2   -1    0    0    0  501 -0.00000000000E+00  0.00000000000E+00  0.12415688509E+02  0.12415688509E+02  0.00000000000E+00 0.  1.
          2   -1    0    0  501    0  0.00000000000E+00 -0.00000000000E+00 -0.15155892952E+04  0.15155892952E+04  0.00000000000E+00 0. -1.
         23    2    1    2    0    0 -0.57225958495E+02  0.35239178309E+02 -0.44980978920E+03  0.46512376846E+03  0.97440563963E+02 0.  0.
          5    1    1    2  502    0 -0.20598208927E+02  0.32077278640E+02 -0.24797662762E+03  0.25093372803E+03  0.47000000000E+01 0.  1.
         -5    1    1    2    0  502  0.77824167422E+02 -0.67316456949E+02 -0.80538718990E+03  0.81194748726E+03  0.47000000000E+01 0.  1.
        -11    1    3    3    0    0 -0.80095981243E+02  0.46069387320E+02 -0.33139958030E+03  0.34403987630E+03  0.00000000000E+00 0.  1.
         11    1    3    3    0    0  0.22870022748E+02 -0.10830209011E+02 -0.11841020890E+03  0.12108389216E+03  0.00000000000E+00 0. -1.
<mgrwt>
<rscale>  0 0.13562547E+03</rscale>
<asrwt>0</asrwt>
<pdfrwt beam="2">  1        2 0.23316753E+00 0.14191950E+03</pdfrwt>
<pdfrwt beam="1">  1       -2 0.19101064E-02 0.14191950E+03</pdfrwt>
<totfact> 0.10807068E+04</totfact>
</mgrwt>
</event>
<event>
 7    1  0.1020736E-005  0.1305899E+03  0.7546771E-02  0.1240104E+00
         -3   -1    0    0    0  501 -0.00000000000E+00  0.00000000000E+00  0.37689307382E+02  0.37689307382E+02  0.00000000000E+00 0.  1.
          3   -1    0    0  501    0  0.00000000000E+00 -0.00000000000E+00 -0.41785746344E+03  0.41785746344E+03  0.00000000000E+00 0. -1.
         23    2    1    2    0    0 -0.33810768095E+02  0.16880113482E+02 -0.76722922364E+02  0.12519434033E+03  0.91428167239E+02 0.  0.
          5    1    1    2  502    0  0.43817044718E+02  0.21282063759E+02 -0.27994749705E+03  0.28419280559E+03  0.47000000000E+01 0. -1.
         -5    1    1    2    0  502 -0.10006276623E+02 -0.38162177240E+02 -0.23497736647E+02  0.46159624902E+02  0.47000000000E+01 0. -1.
        -11    1    3    3    0    0 -0.46765141651E+02  0.35441300331E+02 -0.16643249124E+02  0.60992310861E+02  0.00000000000E+00 0.  1.
         11    1    3    3    0    0  0.12954373556E+02 -0.18561186850E+02 -0.60079673240E+02  0.64202029470E+02  0.00000000000E+00 0. -1.
<mgrwt>
<rscale>  0 0.12183289E+03</rscale>
<asrwt>0</asrwt>
<pdfrwt beam="2">  1        3 0.64285761E-01 0.13058989E+03</pdfrwt>
<pdfrwt beam="1">  1       -3 0.57983552E-02 0.13058989E+03</pdfrwt>
<totfact> 0.98362183E+02</totfact>
</mgrwt>
</event>
<event>
 7    1  0.1020736E-005  0.1266139E+03  0.7546771E-02  0.1247752E+00
          2   -1    0    0  501    0  0.00000000000E+00  0.00000000000E+00  0.11152288995E+03  0.11152288995E+03  0.00000000000E+00 0. -1.
         -2   -1    0    0    0  501 -0.00000000000E+00 -0.00000000000E+00 -0.14914260352E+03  0.14914260352E+03  0.00000000000E+00 0.  1.
         23    2    1    2    0    0 -0.90841712033E+01 -0.17988161339E+02 -0.84479693723E+02  0.12565827197E+03  0.90813471186E+02 0.  0.
          5    1    1    2  502    0 -0.45501325816E+02 -0.28400464419E+02  0.11825389661E+02  0.55126099725E+02  0.47000000000E+01 0.  1.
         -5    1    1    2    0  502  0.54585497020E+02  0.46388625757E+02  0.35034590494E+02  0.79881121772E+02  0.47000000000E+01 0.  1.
        -11    1    3    3    0    0 -0.46345853097E+00  0.20324499155E+02 -0.83957956628E+02  0.86384249380E+02  0.00000000000E+00 0.  1.
         11    1    3    3    0    0 -0.86207126723E+01 -0.38312660493E+02 -0.52173709446E+00  0.39274022593E+02  0.00000000000E+00 0. -1.
<mgrwt>
<rscale>  0 0.11722174E+03</rscale>
<asrwt>0</asrwt>
<pdfrwt beam="1">  1        2 0.17157368E-01 0.12661395E+03</pdfrwt>
<pdfrwt beam="2">  1       -2 0.22945016E-01 0.12661395E+03</pdfrwt>
<totfact> 0.52094803E+03</totfact>
</mgrwt>
</event>
<event>
 7    1  0.1020736E-005  0.1895270E+03  0.7546771E-02  0.1162374E+00
          1   -1    0    0  501    0  0.00000000000E+00  0.00000000000E+00  0.11539721654E+04  0.11539721654E+04  0.00000000000E+00 0. -1.
         -1   -1    0    0    0  501 -0.00000000000E+00 -0.00000000000E+00 -0.29826627929E+02  0.29826627929E+02  0.00000000000E+00 0.  1.
         23    2    1    2    0    0 -0.13910321396E+03  0.30785779153E+02  0.42785307843E+03  0.46217308293E+03  0.10123355930E+03 0.  0.
          5    1    1    2  502    0  0.88891642045E+02 -0.56989979240E+02  0.60444647430E+03  0.61361813211E+03  0.47000000000E+01 0. -1.
         -5    1    1    2    0  502  0.50211571913E+02  0.26204200087E+02  0.91845984756E+02  0.10800757831E+03  0.47000000000E+01 0. -1.
        -11    1    3    3    0    0 -0.70925168956E+02  0.51258361428E+02  0.13567393701E+03  0.16144725576E+03  0.00000000000E+00 0.  1.
         11    1    3    3    0    0 -0.68178045002E+02 -0.20472582275E+02  0.29217914143E+03  0.30072582717E+03  0.00000000000E+00 0. -1.
<mgrwt>
<rscale>  0 0.18572572E+03</rscale>
<asrwt>0</asrwt>
<pdfrwt beam="1">  1        1 0.17753414E+00 0.18952698E+03</pdfrwt>
<pdfrwt beam="2">  1       -1 0.45887129E-02 0.18952698E+03</pdfrwt>
<totfact> 0.24609714E+03</totfact>
</mgrwt>
</event>
<event>
 7    1  0.1020736E-005  0.1284289E+03  0.7546771E-02  0.1244299E+00
         -1   -1    0    0    0  501 -0.00000000000E+00  0.00000000000E+00  0.13949299291E+02  0.13949299291E+02  0.00000000000E+00 0. -1.
          1   -1    0    0  501    0  0.00000000000E+00 -0.00000000000E+00 -0.89902504534E+03  0.89902504534E+03  0.00000000000E+00 0.  1.
         23    2    1    2    0    0 -0.24608774116E+02  0.16355695821E+02 -0.37757808973E+03  0.38947854632E+03  0.90858261329E+02 0.  0.
          5    1    1    2  502    0 -0.16719298905E+02  0.23870627515E+02 -0.28556930429E+02  0.41072254496E+02  0.47000000000E+01 0.  1.
         -5    1    1    2    0  502  0.41328073021E+02 -0.40226323336E+02 -0.47894072590E+03  0.48242354382E+03  0.47000000000E+01 0.  1.
        -11    1    3    3    0    0  0.29809968642E+02 -0.13868728620E+02 -0.11374746162E+03  0.11840380437E+03  0.00000000000E+00 0. -1.
         11    1    3    3    0    0 -0.54418742758E+02  0.30224424440E+02 -0.26383062811E+03  0.27107474195E+03  0.00000000000E+00 0.  1.
<mgrwt>
<rscale>  0 0.11927404E+03</rscale>
<asrwt>0</asrwt>
<pdfrwt beam="2">  1        1 0.13831153E+00 0.12842889E+03</pdfrwt>
<pdfrwt beam="1">  1       -1 0.21460463E-02 0.12842889E+03</pdfrwt>
<totfact> 0.11320407E+04</totfact>
</mgrwt>
</event>
<event>
 7    1  0.1020736E-005  0.1264397E+03  0.7546771E-02  0.1248028E+00
          1   -1    0    0  501    0  0.00000000000E+00  0.00000000000E+00  0.19607479869E+03  0.19607479869E+03  0.00000000000E+00 0. -1.
         -1   -1    0    0    0  501 -0.00000000000E+00 -0.00000000000E+00 -0.76410188290E+02  0.76410188290E+02  0.00000000000E+00 0.  1.
         23    2    1    2    0    0 -0.16847140399E+02  0.87047256178E+01 -0.74560720255E+01  0.93190053313E+02  0.90935112243E+02 0.  0.
          5    1    1    2  502    0  0.51025118164E+02 -0.42515338252E+02  0.10895174958E+03  0.12768590528E+03  0.47000000000E+01 0.  1.
         -5    1    1    2    0  502 -0.34177977765E+02  0.33810612634E+02  0.18168932852E+02  0.51609028394E+02  0.47000000000E+01 0.  1.
        -11    1    3    3    0    0 -0.39203286463E+02 -0.21259344233E+02 -0.25826762523E+02  0.51535221442E+02  0.00000000000E+00 0.  1.
         11    1    3    3    0    0  0.22356146064E+02  0.29964069851E+02  0.18370690497E+02  0.41654831871E+02  0.00000000000E+00 0. -1.
<mgrwt>
<rscale>  0 0.11705944E+03</rscale>
<asrwt>0</asrwt>
<pdfrwt beam="1">  1        1 0.30165354E-01 0.12643973E+03</pdfrwt>
<pdfrwt beam="2">  1       -1 0.11755414E-01 0.12643973E+03</pdfrwt>
<totfact> 0.67297815E+03</totfact>
</mgrwt>
</event>
<event>
 7    1  0.1020736E-005  0.1353027E+03  0.7546771E-02  0.1233089E+00
         -2   -1    0    0    0  501 -0.00000000000E+00  0.00000000000E+00  0.11434184120E+02  0.11434184120E+02  0.00000000000E+00 0.  1.
          2   -1    0    0  501    0  0.00000000000E+00 -0.00000000000E+00 -0.13835652490E+04  0.13835652490E+04  0.00000000000E+00 0. -1.
         23    2    1    2    0    0 -0.18582830994E+02  0.48335522012E+02 -0.37749176307E+03  0.39119957507E+03  0.88630875300E+02 0.  0.
          5    1    1    2  502    0 -0.39292103716E+02 -0.16941792442E+02 -0.72205853834E+03  0.72334052599E+03  0.47000000000E+01 0. -1.
         -5    1    1    2    0  502  0.57874934710E+02 -0.31393729570E+02 -0.27258076343E+03  0.28045933201E+03  0.47000000000E+01 0. -1.
        -11    1    3    3    0    0 -0.14917275653E+02 -0.21995467770E+02 -0.54703429372E+02  0.60817685753E+02  0.00000000000E+00 0.  1.
         11    1    3    3    0    0 -0.36655553417E+01  0.70330989782E+02 -0.32278833370E+03  0.33038188932E+03  0.00000000000E+00 0. -1.
<mgrwt>
<rscale>  0 0.12627571E+03</rscale>
<asrwt>0</asrwt>
<pdfrwt beam="2">  1        2 0.21285630E+00 0.13530268E+03</pdfrwt>
<pdfrwt beam="1">  1       -2 0.17591044E-02 0.13530268E+03</pdfrwt>
<totfact> 0.14251102E+04</totfact>
</mgrwt>
</event>
<event>
 7    1  0.1020736E-005  0.1113194E+03  0.7546771E-02  0.1268083E+00
         -2   -1    0    0    0  501 -0.00000000000E+00  0.00000000000E+00  0.10375270240E+02  0.10375270240E+02  0.00000000000E+00 0.  1.
          2   -1    0    0  501    0  0.00000000000E+00 -0.00000000000E+00 -0.15897570172E+04  0.15897570172E+04  0.00000000000E+00 0. -1.
         23    2    1    2    0    0 -0.66545843448E+01  0.31771694213E+01 -0.25307893921E+03  0.26916603843E+03  0.91362075687E+02 0.  0.
          5    1    1    2  502    0 -0.35550291907E+02 -0.26088291926E+02 -0.27464402356E+03  0.27820109976E+03  0.47000000000E+01 0. -1.
         -5    1    1    2    0  502  0.42204876252E+02  0.22911122505E+02 -0.10516587842E+04  0.10527651493E+04  0.47000000000E+01 0.  1.
        -11    1    3    3    0    0  0.25614779457E+02 -0.32361645367E+02 -0.87077896167E+02  0.96363649881E+02  0.00000000000E+00 0.  1.
         11    1    3    3    0    0 -0.32269363802E+02  0.35538814788E+02 -0.16600104305E+03  0.17280238855E+03  0.00000000000E+00 0. -1.
<mgrwt>
<rscale>  0 0.10604062E+03</rscale>
<asrwt>0</asrwt>
<pdfrwt beam="2">  1        2 0.24457797E+00 0.11131944E+03</pdfrwt>
<pdfrwt beam="1">  1       -2 0.15961957E-02 0.11131944E+03</pdfrwt>
<totfact> 0.12678116E+04</totfact>
</mgrwt>
</event>
<event>
 7    1  0.1020736E-005  0.1474927E+03  0.7546771E-02  0.1212978E+00
         -1   -1    0    0    0  501 -0.00000000000E+00  0.00000000000E+00  0.22005935973E+02  0.22005935973E+02  0.00000000000E+00 0.  1.
          1   -1    0    0  501    0  0.00000000000E+00 -0.00000000000E+00 -0.88279052499E+03  0.88279052499E+03  0.00000000000E+00 0. -1.
         23    2    1    2    0    0 -0.40705142562E+02 -0.67365966272E+02 -0.26726588448E+03  0.29322590842E+03  0.91407320937E+02 0.  0.
          5    1    1    2  502    0 -0.58053778941E+01 -0.15987319003E+02 -0.34282548170E+03  0.34327932895E+03  0.47000000000E+01 0.  1.
         -5    1    1    2    0  502  0.46510520456E+02  0.83353285275E+02 -0.25069322283E+03  0.26829122358E+03  0.47000000000E+01 0.  1.
        -11    1    3    3    0    0 -0.45756361356E+01  0.22392076047E+02 -0.67439163415E+02  0.71206616813E+02  0.00000000000E+00 0. -1.
         11    1    3    3    0    0 -0.36129506427E+02 -0.89758042320E+02 -0.19982672107E+03  0.22201929161E+03  0.00000000000E+00 0.  1.
<mgrwt>
<rscale>  0 0.14026106E+03</rscale>
<asrwt>0</asrwt>
<pdfrwt beam="2">  1        1 0.13581391E+00 0.14749267E+03</pdfrwt>
<pdfrwt beam="1">  1       -1 0.33855290E-02 0.14749267E+03</pdfrwt>
<totfact> 0.60540903E+03</totfact>
</mgrwt>
</event>
<event>
 7    1  0.1020736E-005  0.1270523E+03  0.7546771E-02  0.1247255E+00
         -2   -1    0    0    0  501 -0.00000000000E+00  0.00000000000E+00  0.33516419396E+02  0.33516419396E+02  0.00000000000E+00 0.  1.
          2   -1    0    0  501    0  0.00000000000E+00 -0.00000000000E+00 -0.37006991962E+03  0.37006991962E+03  0.00000000000E+00 0. -1.
         23    2    1    2    0    0 -0.21352988461E+02 -0.60438260348E+01 -0.11187326605E+03  0.14547106992E+03  0.90297987672E+02 0.  0.
          5    1    1    2  502    0  0.13157351032E+02  0.34978103378E+02 -0.69912116575E+01  0.38308623605E+02  0.47000000000E+01 0. -1.
         -5    1    1    2    0  502  0.81956374286E+01 -0.28934277343E+02 -0.21768902251E+03  0.21980664548E+03  0.47000000000E+01 0. -1.
        -11    1    3    3    0    0  0.23979713019E+02 -0.20983087397E+02 -0.84817503026E+02  0.90605327728E+02  0.00000000000E+00 0.  1.
         11    1    3    3    0    0 -0.45332701480E+02  0.14939261363E+02 -0.27055763029E+02  0.54865742195E+02  0.00000000000E+00 0. -1.
<mgrwt>
<rscale>  0 0.11751412E+03</rscale>
<asrwt>0</asrwt>
<pdfrwt beam="2">  1        2 0.56933832E-01 0.12705229E+03</pdfrwt>
<pdfrwt beam="1">  1       -2 0.51563724E-02 0.12705229E+03</pdfrwt>
<totfact> 0.15202531E+04</totfact>
</mgrwt>
</event>
<event>
 7    1  0.1020736E-005  0.1273737E+03  0.7546771E-02  0.1244998E+00
          1   -1    0    0  501    0  0.00000000000E+00  0.00000000000E+00  0.90331510036E+03  0.90331510036E+03  0.00000000000E+00 0. -1.
         -1   -1    0    0    0  501 -0.00000000000E+00 -0.00000000000E+00 -0.28382396210E+02  0.28382396210E+02  0.00000000000E+00 0.  1.
         23    2    1    2    0    0 -0.25887743378E+02  0.17512328212E+02  0.76579130375E+02  0.12324682098E+03  0.91370448052E+02 0.  0.
          5    1    1    2  502    0 -0.20308581447E+01 -0.25013933105E+02  0.75882240108E+03  0.75925183412E+03  0.47000000000E+01 0. -1.
         -5    1    1    2    0  502  0.27918601523E+02  0.75016048928E+01  0.39531172693E+02  0.49198841464E+02  0.47000000000E+01 0.  1.
        -11    1    3    3    0    0 -0.52428694586E+02  0.33698402570E+02  0.65056990383E+02  0.90093076035E+02  0.00000000000E+00 0.  1.
         11    1    3    3    0    0  0.26540951208E+02 -0.16186074358E+02  0.11522139992E+02  0.33153744949E+02  0.00000000000E+00 0. -1.
<mgrwt>
<rscale>  0 0.11885526E+03</rscale>
<asrwt>0</asrwt>
<pdfrwt beam="1">  1        1 0.13897153E+00 0.12737373E+03</pdfrwt>
<pdfrwt beam="2">  1       -1 0.43665232E-02 0.12737373E+03</pdfrwt>
<totfact> 0.39946125E+03</totfact>
</mgrwt>
</event>
<event>
 7    1  0.1020736E-005  0.1279400E+03  0.7546771E-02  0.1247200E+00
         -2   -1    0    0    0  501 -0.00000000000E+00  0.00000000000E+00  0.10386809221E+03  0.10386809221E+03  0.00000000000E+00 0. -1.
          2   -1    0    0  501    0  0.00000000000E+00 -0.00000000000E+00 -0.12547013761E+03  0.12547013761E+03  0.00000000000E+00 0.  1.
         23    2    1    2    0    0  0.26288697416E+02 -0.70799794711E+01  0.22694340023E+02  0.93946921137E+02  0.87004420583E+02 0.  0.
          5    1    1    2  502    0  0.33988929147E+02  0.44856044670E+02 -0.23086581840E+02  0.61011411302E+02  0.47000000000E+01 0. -1.
         -5    1    1    2    0  502 -0.60277626562E+02 -0.37776065198E+02 -0.21209803588E+02  0.74379897379E+02  0.47000000000E+01 0. -1.
        -11    1    3    3    0    0  0.51324137234E+02 -0.68944682518E+01 -0.10026300685E+02  0.52746824176E+02  0.00000000000E+00 0.  1.
         11    1    3    3    0    0 -0.25035439818E+02 -0.18551121928E+00  0.32720640707E+02  0.41200096961E+02  0.00000000000E+00 0. -1.
<mgrwt>
<rscale>  0 0.11754693E+03</rscale>
<asrwt>0</asrwt>
<pdfrwt beam="2">  1        2 0.19303098E-01 0.12793997E+03</pdfrwt>
<pdfrwt beam="1">  1       -2 0.15979706E-01 0.12793997E+03</pdfrwt>
<totfact> 0.83710756E+03</totfact>
</mgrwt>
</event>
<event>
 7    1  0.1020736E-005  0.1373446E+03  0.7546771E-02  0.1228756E+00
          2   -1    0    0  501    0  0.00000000000E+00  0.00000000000E+00  0.10136164453E+03  0.10136164453E+03  0.00000000000E+00 0. -1.
         -2   -1    0    0    0  501 -0.00000000000E+00 -0.00000000000E+00 -0.19008627425E+03  0.19008627425E+03  0.00000000000E+00 0.  1.
         23    2    1    2    0    0  0.46929746046E+02 -0.32187427388E+02 -0.10859843343E+03  0.15267286395E+03  0.90977756059E+02 0.  0.
          5    1    1    2  502    0 -0.23680344243E+01 -0.23327624761E+02 -0.39354811731E+02  0.46050807490E+02  0.47000000000E+01 0.  1.
         -5    1    1    2    0  502 -0.44561711622E+02  0.55515052149E+02  0.59228615445E+02  0.92724247343E+02  0.47000000000E+01 0.  1.
        -11    1    3    3    0    0 -0.13839992910E+01 -0.46133602260E+02 -0.85871736693E+02  0.97489383392E+02  0.00000000000E+00 0.  1.
         11    1    3    3    0    0  0.48313745337E+02  0.13946174872E+02 -0.22726696742E+02  0.55183480561E+02  0.00000000000E+00 0. -1.
<mgrwt>
<rscale>  0 0.12912745E+03</rscale>
<asrwt>0</asrwt>
<pdfrwt beam="1">  1        2 0.15594099E-01 0.13734463E+03</pdfrwt>
<pdfrwt beam="2">  1       -2 0.29244042E-01 0.13734463E+03</pdfrwt>
<totfact> 0.38210300E+03</totfact>
</mgrwt>
</event>
<event>
 7    1  0.1020736E-005  0.1431768E+03  0.7546771E-02  0.1218821E+00
         -2   -1    0    0    0  501 -0.00000000000E+00  0.00000000000E+00  0.18674519411E+03  0.18674519411E+03  0.00000000000E+00 0.  1.
          2   -1    0    0  501    0  0.00000000000E+00 -0.00000000000E+00 -0.11888515147E+03  0.11888515147E+03  0.00000000000E+00 0. -1.
         23    2    1    2    0    0  0.69675152187E+02  0.44109622109E+01  0.10591755238E+03  0.15748190605E+03  0.93316340528E+02 0.  0.
          5    1    1    2  502    0 -0.26259274987E+02  0.20195831064E+02  0.41997059795E+02  0.53696034738E+02  0.47000000000E+01 0. -1.
         -5    1    1    2    0  502 -0.43415877200E+02 -0.24606793275E+02 -0.80054569538E+02  0.94452404799E+02  0.47000000000E+01 0. -1.
        -11    1    3    3    0    0  0.19580553257E+02  0.26660243254E+02  0.96311082436E+02  0.10183315391E+03  0.00000000000E+00 0.  1.
         11    1    3    3    0    0  0.50094598930E+02 -0.22249281043E+02  0.96064699444E+01  0.55648752130E+02  0.00000000000E+00 0. -1.
<mgrwt>
<rscale>  0 0.13599563E+03</rscale>
<asrwt>0</asrwt>
<pdfrwt beam="2">  1        2 0.18290023E-01 0.14317677E+03</pdfrwt>
<pdfrwt beam="1">  1       -2 0.28730030E-01 0.14317677E+03</pdfrwt>
<totfact> 0.32883161E+03</totfact>
</mgrwt>
</event>
<event>
 7    1  0.1020736E-005  0.1725892E+03  0.7546771E-02  0.1181225E+00
         -2   -1    0    0    0  501 -0.00000000000E+00  0.00000000000E+00  0.44790072487E+02  0.44790072487E+02  0.00000000000E+00 0.  1.
          2   -1    0    0  501    0  0.00000000000E+00 -0.00000000000E+00 -0.58654892129E+03  0.58654892129E+03  0.00000000000E+00 0. -1.
         23    2    1    2    0    0 -0.25273313015E+02 -0.11629329092E+03 -0.22776413699E+03  0.27303784331E+03  0.92251243437E+02 0.  0.
          5    1    1    2  502    0 -0.38733251212E+01 -0.10152081544E+02 -0.14352128511E+03  0.14400873823E+03  0.47000000000E+01 0. -1.
         -5    1    1    2    0  502  0.29146638136E+02  0.12644537246E+03 -0.17047342669E+03  0.21429241223E+03  0.47000000000E+01 0. -1.
        -11    1    3    3    0    0 -0.57028488811E+02 -0.99281451528E+02 -0.17639637825E+03  0.21029678412E+03  0.00000000000E+00 0.  1.
         11    1    3    3    0    0  0.31755175796E+02 -0.17011839388E+02 -0.51367758743E+02  0.62741059184E+02  0.00000000000E+00 0. -1.
<mgrwt>
<rscale>  0 0.16680123E+03</rscale>
<asrwt>0</asrwt>
<pdfrwt beam="2">  1        2 0.90238287E-01 0.17258921E+03</pdfrwt>
<pdfrwt beam="1">  1       -2 0.68907811E-02 0.17258921E+03</pdfrwt>
<totfact> 0.60351435E+03</totfact>
</mgrwt>
</event>
<event>
 7    1  0.1020736E-005  0.1308963E+03  0.7546771E-02  0.1240083E+00
          3   -1    0    0  501    0  0.00000000000E+00  0.00000000000E+00  0.23612393325E+03  0.23612393325E+03  0.00000000000E+00 0. -1.
         -3   -1    0    0    0  501 -0.00000000000E+00 -0.00000000000E+00 -0.56092531995E+02  0.56092531995E+02  0.00000000000E+00 0.  1.
         23    2    1    2    0    0  0.15095809011E+01  0.38752999893E+02  0.63858540328E+02  0.11720227285E+03  0.90301637606E+02 0.  0.
          5    1    1    2  502    0 -0.35587516744E+02 -0.36060270975E+02  0.12863069002E+03  0.13832844576E+03  0.47000000000E+01 0. -1.
         -5    1    1    2    0  502  0.34077935843E+02 -0.26927289174E+01 -0.12457829092E+02  0.36685746633E+02  0.47000000000E+01 0. -1.
        -11    1    3    3    0    0  0.42056687319E+02  0.39463293295E+02  0.35617723768E+02  0.67784502007E+02  0.00000000000E+00 0. -1.
         11    1    3    3    0    0 -0.40547106418E+02 -0.71029340268E+00  0.28240816560E+02  0.49417770847E+02  0.00000000000E+00 0.  1.
<mgrwt>
<rscale>  0 0.12184534E+03</rscale>
<asrwt>0</asrwt>
<pdfrwt beam="1">  1        3 0.36326758E-01 0.13089627E+03</pdfrwt>
<pdfrwt beam="2">  1       -3 0.86296204E-02 0.13089627E+03</pdfrwt>
<totfact> 0.16084004E+03</totfact>
</mgrwt>
</event>
<event>
 7    1  0.1020736E-005  0.1257217E+03  0.7546771E-02  0.1250735E+00
          1   -1    0    0  501    0  0.00000000000E+00  0.00000000000E+00  0.27012555794E+03  0.27012555794E+03  0.00000000000E+00 0. -1.
         -1   -1    0    0    0  501 -0.00000000000E+00 -0.00000000000E+00 -0.57606192138E+02  0.57606192138E+02  0.00000000000E+00 0.  1.
         23    2    1    2    0    0 -0.67604398102E+01  0.11621655956E+02  0.10966778226E+02  0.90183022028E+02  0.88498253112E+02 0.  0.
          5    1    1    2  502    0 -0.15225655066E+02 -0.54443297018E+02  0.17142607790E+03  0.18056822352E+03  0.47000000000E+01 0.  1.
         -5    1    1    2    0  502  0.21986094876E+02  0.42821641062E+02  0.30126509681E+02  0.56980504532E+02  0.47000000000E+01 0.  1.
        -11    1    3    3    0    0 -0.56051570346E+01  0.50322811061E+02  0.35301610486E+01  0.50756922045E+02  0.00000000000E+00 0.  1.
         11    1    3    3    0    0 -0.11552827756E+01 -0.38701155106E+02  0.74366171774E+01  0.39426099983E+02  0.00000000000E+00 0. -1.
<mgrwt>
<rscale>  0 0.11548622E+03</rscale>
<asrwt>0</asrwt>
<pdfrwt beam="1">  1        1 0.41557777E-01 0.12572173E+03</pdfrwt>
<pdfrwt beam="2">  1       -1 0.88624913E-02 0.12572173E+03</pdfrwt>
<totfact> 0.69664677E+03</totfact>
</mgrwt>
</event>
<event>
 7    1  0.1020736E-005  0.3747953E+03  0.7546771E-02  0.1092405E+00
         -2   -1    0    0    0  501 -0.00000000000E+00  0.00000000000E+00  0.45378344535E+03  0.45378344535E+03  0.00000000000E+00 0.  1.
          2   -1    0    0  501    0  0.00000000000E+00 -0.00000000000E+00 -0.14614359916E+03  0.14614359916E+03  0.00000000000E+00 0. -1.
         23    2    1    2    0    0  0.89560263096E+02  0.15355372829E+02  0.14047512263E+03  0.18954237344E+03  0.89085481698E+02 0.  0.
          5    1    1    2  502    0  0.28379776242E+02  0.11469327898E+03 -0.52302600602E+02  0.12929660465E+03  0.47000000000E+01 0. -1.
         -5    1    1    2    0  502 -0.11794003934E+03 -0.13004865181E+03  0.21946732416E+03  0.28108806643E+03  0.47000000000E+01 0.  1.
        -11    1    3    3    0    0 -0.16900780740E+02  0.10185634495E+02  0.31019832355E+02  0.36764297070E+02  0.00000000000E+00 0. -1.
         11    1    3    3    0    0  0.10646104384E+03  0.51697383347E+01  0.10945529028E+03  0.15277807637E+03  0.00000000000E+00 0.  1.
<mgrwt>
<rscale>  0 0.28609595E+03</rscale>
<asrwt>0</asrwt>
<pdfrwt beam="2">  1        2 0.22483631E-01 0.37479532E+03</pdfrwt>
<pdfrwt beam="1">  1       -2 0.69812837E-01 0.37479532E+03</pdfrwt>
<totfact> 0.46740422E+02</totfact>
</mgrwt>
</event>
<event>
 7    1  0.1020736E-005  0.1336906E+03  0.7546771E-02  0.1238104E+00
          2   -1    0    0  501    0  0.00000000000E+00  0.00000000000E+00  0.40489832189E+02  0.40489832189E+02  0.00000000000E+00 0. -1.
         -2   -1    0    0    0  501 -0.00000000000E+00 -0.00000000000E+00 -0.38528465009E+03  0.38528465009E+03  0.00000000000E+00 0.  1.
         23    2    1    2    0    0  0.20773104463E+02 -0.42627575940E+02 -0.23116330485E+03  0.25031709259E+03  0.83507731598E+02 0.  0.
          5    1    1    2  502    0 -0.12119130767E+02  0.86724908757E+02 -0.83932794900E+02  0.12138734361E+03  0.47000000000E+01 0. -1.
         -5    1    1    2    0  502 -0.86539736963E+01 -0.44097332817E+02 -0.29698718148E+02  0.54070046069E+02  0.47000000000E+01 0. -1.
        -11    1    3    3    0    0  0.13288322994E+01 -0.65065796696E+02 -0.13881519584E+03  0.15331334675E+03  0.00000000000E+00 0.  1.
         11    1    3    3    0    0  0.19444272164E+02  0.22438220756E+02 -0.92348109009E+02  0.97003745846E+02  0.00000000000E+00 0. -1.
<mgrwt>
<rscale>  0 0.12307782E+03</rscale>
<asrwt>0</asrwt>
<pdfrwt beam="1">  1        2 0.62292049E-02 0.13369059E+03</pdfrwt>
<pdfrwt beam="2">  1       -2 0.59274563E-01 0.13369059E+03</pdfrwt>
<totfact> 0.30487975E+03</totfact>
</mgrwt>
</event>
<event>
 7    1  0.1020736E-005  0.1339064E+03  0.7546771E-02  0.1233906E+00
          2   -1    0    0  501    0  0.00000000000E+00  0.00000000000E+00  0.36097892899E+03  0.36097892899E+03  0.00000000000E+00 0. -1.
         -2   -1    0    0    0  501 -0.00000000000E+00 -0.00000000000E+00 -0.40659320303E+02  0.40659320303E+02  0.00000000000E+00 0.  1.
         23    2    1    2    0    0  0.39084114385E+02 -0.27914918886E+02  0.10362074865E+03  0.14690444960E+03  0.92395059760E+02 0.  0.
          5    1    1    2  502    0  0.42803099820E+02  0.23436325945E+02  0.10692363434E+03  0.11762703902E+03  0.47000000000E+01 0.  1.
         -5    1    1    2    0  502 -0.81887214205E+02  0.44785929413E+01  0.10977522569E+03  0.13710676067E+03  0.47000000000E+01 0.  1.
        -11    1    3    3    0    0  0.65155368138E+02 -0.26857430398E+02  0.47421129867E+02  0.84942963939E+02  0.00000000000E+00 0.  1.
         11    1    3    3    0    0 -0.26071253753E+02 -0.10574884881E+01  0.56199618780E+02  0.61961485660E+02  0.00000000000E+00 0. -1.
<mgrwt>
<rscale>  0 0.12574707E+03</rscale>
<asrwt>0</asrwt>
<pdfrwt beam="1">  1        2 0.55535218E-01 0.13390636E+03</pdfrwt>
<pdfrwt beam="2">  1       -2 0.62552803E-02 0.13390636E+03</pdfrwt>
<totfact> 0.11710335E+04</totfact>
</mgrwt>
</event>
<event>
 7    1  0.1020736E-005  0.7021127E+03  0.7546771E-02  0.1016798E+00
          1   -1    0    0  501    0  0.00000000000E+00  0.00000000000E+00  0.29909812202E+03  0.29909812202E+03  0.00000000000E+00 0. -1.
         -1   -1    0    0    0  501 -0.00000000000E+00 -0.00000000000E+00 -0.64899693400E+03  0.64899693400E+03  0.00000000000E+00 0.  1.
         23    2    1    2    0    0 -0.69552001527E+02  0.11599913167E+03 -0.13760085359E+03  0.21458793023E+03  0.93918610645E+02 0.  0.
          5    1    1    2  502    0  0.23223994642E+03  0.39081713992E+02 -0.38409421189E+03  0.45056989102E+03  0.47000000000E+01 0. -1.
         -5    1    1    2    0  502 -0.16268794489E+03 -0.15508084566E+03  0.17179625350E+03  0.28293723477E+03  0.47000000000E+01 0.  1.
        -11    1    3    3    0    0  0.11514476819E+02  0.54795707172E+02 -0.20636888352E+02  0.59674398713E+02  0.00000000000E+00 0. -1.
         11    1    3    3    0    0 -0.81066478346E+02  0.61203424500E+02 -0.11696396524E+03  0.15491353152E+03  0.00000000000E+00 0.  1.
<mgrwt>
<rscale>  0 0.48860094E+03</rscale>
<asrwt>0</asrwt>
<pdfrwt beam="1">  1        1 0.46015096E-01 0.70211273E+03</pdfrwt>
<pdfrwt beam="2">  1       -1 0.99845681E-01 0.70211273E+03</pdfrwt>
<totfact> 0.85923091E+01</totfact>
</mgrwt>
</event>
<event>
 7    1  0.1020736E-005  0.1282025E+03  0.7546771E-02  0.1244798E+00
          2   -1    0    0  501    0  0.00000000000E+00  0.00000000000E+00  0.13479426547E+04  0.13479426547E+04  0.00000000000E+00 0. -1.
         -2   -1    0    0    0  501 -0.00000000000E+00 -0.00000000000E+00 -0.11799919283E+02  0.11799919283E+02  0.00000000000E+00 0.  1.
         23    2    1    2    0    0 -0.27167537722E+02  0.85940404088E+01  0.27695259881E+03  0.29282194854E+03  0.90719451736E+02 0.  0.
          5    1    1    2  502    0  0.74993018401E+02 -0.71020142924E+01  0.77772154938E+03  0.78137525542E+03  0.47000000000E+01 0.  1.
         -5    1    1    2    0  502 -0.47825480679E+02 -0.14920261164E+01  0.28146858727E+03  0.28554537006E+03  0.47000000000E+01 0.  1.
        -11    1    3    3    0    0  0.82936315554E+01  0.38497653516E+02  0.66225646199E+02  0.77049918008E+02  0.00000000000E+00 0.  1.
         11    1    3    3    0    0 -0.35461169277E+02 -0.29903613107E+02  0.21072695261E+03  0.21577203053E+03  0.00000000000E+00 0. -1.
<mgrwt>
<rscale>  0 0.11897483E+03</rscale>
<asrwt>0</asrwt>
<pdfrwt beam="1">  1        2 0.20737567E+00 0.12820248E+03</pdfrwt>
<pdfrwt beam="2">  1       -2 0.18153733E-02 0.12820248E+03</pdfrwt>
<totfact> 0.14180302E+04</totfact>
</mgrwt>
</event>
<event>
 7    1  0.1020736E-005  0.1382492E+03  0.7546771E-02  0.1226866E+00
          4   -1    0    0  501    0  0.00000000000E+00  0.00000000000E+00  0.65943005860E+02  0.65943005860E+02  0.00000000000E+00 0.  1.
         -4   -1    0    0    0  501 -0.00000000000E+00 -0.00000000000E+00 -0.29917143357E+03  0.29917143357E+03  0.00000000000E+00 0. -1.
         23    2    1    2    0    0 -0.34666587003E+02 -0.47805173870E+02 -0.19175570183E+03  0.22077863941E+03  0.92118681789E+02 0.  0.
          5    1    1    2  502    0  0.74236987645E+02  0.77553484298E+01 -0.45758339071E+02  0.87676629488E+02  0.47000000000E+01 0.  1.
         -5    1    1    2    0  502 -0.39570400642E+02  0.40049825440E+02  0.42856131880E+01  0.56659170530E+02  0.47000000000E+01 0.  1.
        -11    1    3    3    0    0 -0.54111320766E+02 -0.49598234606E+02 -0.85247361085E+02  0.11249503315E+03  0.00000000000E+00 0.  1.
         11    1    3    3    0    0  0.19444733764E+02  0.17930607366E+01 -0.10650834074E+03  0.10828360626E+03  0.00000000000E+00 0. -1.
<mgrwt>
<rscale>  0 0.13039835E+03</rscale>
<asrwt>0</asrwt>
<pdfrwt beam="1">  1        4 0.10145078E-01 0.13824918E+03</pdfrwt>
<pdfrwt beam="2">  1       -4 0.46026375E-01 0.13824918E+03</pdfrwt>
<totfact> 0.56577490E+02</totfact>
</mgrwt>
</event>
<event>
 7    1  0.1020736E-005  0.1404691E+03  0.7546771E-02  0.1218828E+00
          1   -1    0    0  501    0  0.00000000000E+00  0.00000000000E+00  0.17628534563E+04  0.17628534563E+04  0.00000000000E+00 0. -1.
         -1   -1    0    0    0  501 -0.00000000000E+00 -0.00000000000E+00 -0.12301438396E+02  0.12301438396E+02  0.00000000000E+00 0.  1.
         23    2    1    2    0    0  0.59552891733E+02 -0.23974496228E+02  0.43616719401E+03  0.45328536809E+03  0.10537779849E+03 0.  0.
          5    1    1    2  502    0 -0.58212060379E+02  0.68845099170E+02  0.10271690779E+04  0.10311288456E+04  0.47000000000E+01 0. -1.
         -5    1    1    2    0  502 -0.13408313542E+01 -0.44870602942E+02  0.28721574601E+03  0.29074068101E+03  0.47000000000E+01 0. -1.
        -11    1    3    3    0    0  0.47878103572E+02  0.33166186079E+02  0.14360559328E+03  0.15496733566E+03  0.00000000000E+00 0.  1.
         11    1    3    3    0    0  0.11674788162E+02 -0.57140682307E+02  0.29256160073E+03  0.29831803243E+03  0.00000000000E+00 0. -1.
<mgrwt>
<rscale>  0 0.13599039E+03</rscale>
<asrwt>0</asrwt>
<pdfrwt beam="1">  1        1 0.27120802E+00 0.14046914E+03</pdfrwt>
<pdfrwt beam="2">  1       -1 0.18925304E-02 0.14046914E+03</pdfrwt>
<totfact> 0.35482366E+03</totfact>
</mgrwt>
</event>
<event>
 7    1  0.1020736E-005  0.1544568E+03  0.7546771E-02  0.1204444E+00
         -1   -1    0    0    0  501 -0.00000000000E+00  0.00000000000E+00  0.25579581935E+02  0.25579581935E+02  0.00000000000E+00 0.  1.
          1   -1    0    0  501    0  0.00000000000E+00 -0.00000000000E+00 -0.11045801938E+04  0.11045801938E+04  0.00000000000E+00 0. -1.
         23    2    1    2    0    0 -0.19361139764E+02  0.88645309203E+02 -0.19122956406E+03  0.22905249614E+03  0.87541163126E+02 0.  0.
          5    1    1    2  502    0  0.43338377209E+02 -0.11124724881E+03 -0.63375851117E+03  0.64492333326E+03  0.47000000000E+01 0.  1.
         -5    1    1    2    0  502 -0.23977237445E+02  0.22601939604E+02 -0.25401253667E+03  0.25618394636E+03  0.47000000000E+01 0.  1.
        -11    1    3    3    0    0  0.29558885709E+02  0.65378459422E+02 -0.11462829775E+03  0.13523208689E+03  0.00000000000E+00 0. -1.
         11    1    3    3    0    0 -0.48920025473E+02  0.23266849781E+02 -0.76601266309E+02  0.93820409246E+02  0.00000000000E+00 0.  1.
<mgrwt>
<rscale>  0 0.14681392E+03</rscale>
<asrwt>0</asrwt>
<pdfrwt beam="2">  1        1 0.16993537E+00 0.15445678E+03</pdfrwt>
<pdfrwt beam="1">  1       -1 0.39353213E-02 0.15445678E+03</pdfrwt>
<totfact> 0.33338060E+03</totfact>
</mgrwt>
</event>
<event>
 7    1  0.1020736E-005  0.1273199E+03  0.7546771E-02  0.1245295E+00
         -1   -1    0    0    0  501 -0.00000000000E+00  0.00000000000E+00  0.12589631447E+02  0.12589631447E+02  0.00000000000E+00 0.  1.
          1   -1    0    0  501    0  0.00000000000E+00 -0.00000000000E+00 -0.99238147352E+03  0.99238147352E+03  0.00000000000E+00 0. -1.
         23    2    1    2    0    0 -0.24182079333E+02  0.14186567014E+00 -0.40545589893E+03  0.41669214900E+03  0.93021868234E+02 0.  0.
          5    1    1    2  502    0  0.12810478504E+02 -0.26754687397E+02 -0.54813755485E+03  0.54895973503E+03  0.47000000000E+01 0. -1.
         -5    1    1    2    0  502  0.11371600829E+02  0.26612821727E+02 -0.26198388293E+02  0.39319220934E+02  0.47000000000E+01 0. -1.
        -11    1    3    3    0    0 -0.10042593221E+02  0.45148991261E+02 -0.15193062148E+03  0.15881498303E+03  0.00000000000E+00 0.  1.
         11    1    3    3    0    0 -0.14139486112E+02 -0.45007125591E+02 -0.25352527745E+03  0.25787716597E+03  0.00000000000E+00 0. -1.
<mgrwt>
<rscale>  0 0.11867756E+03</rscale>
<asrwt>0</asrwt>
<pdfrwt beam="2">  1        1 0.15267416E+00 0.12731989E+03</pdfrwt>
<pdfrwt beam="1">  1       -1 0.19368653E-02 0.12731989E+03</pdfrwt>
<totfact> 0.11165317E+04</totfact>
</mgrwt>
</event>
<event>
 7    1  0.1020736E-005  0.1203687E+03  0.7546771E-02  0.1242698E+00
          1   -1    0    0  501    0  0.00000000000E+00  0.00000000000E+00  0.38878391153E+03  0.38878391153E+03  0.00000000000E+00 0. -1.
         -1   -1    0    0    0  501 -0.00000000000E+00 -0.00000000000E+00 -0.41365278863E+02  0.41365278863E+02  0.00000000000E+00 0.  1.
         23    2    1    2    0    0 -0.10896279624E+02 -0.15163020222E+02  0.10505806431E+03  0.15976805951E+03  0.11891168938E+03 0.  0.
          5    1    1    2  502    0 -0.15956212502E+02 -0.59344793170E+00  0.23801464160E+03  0.23859591889E+03  0.47000000000E+01 0. -1.
         -5    1    1    2    0  502  0.26852492126E+02  0.15756468154E+02  0.43459267621E+01  0.31785211994E+02  0.47000000000E+01 0.  1.
        -11    1    3    3    0    0 -0.38194680621E+02 -0.48512902505E+02  0.98387758966E+02  0.11615716272E+03  0.00000000000E+00 0. -1.
         11    1    3    3    0    0  0.27298400997E+02  0.33349882283E+02  0.66703053450E+01  0.43610896788E+02  0.00000000000E+00 0.  1.
<mgrwt>
<rscale>  0 0.12024229E+03</rscale>
<asrwt>0</asrwt>
<pdfrwt beam="1">  1        1 0.59812907E-01 0.12036875E+03</pdfrwt>
<pdfrwt beam="2">  1       -1 0.63638893E-02 0.12036875E+03</pdfrwt>
<totfact> 0.72704159E+03</totfact>
</mgrwt>
</event>
<event>
 7    1  0.1020736E-005  0.1375255E+03  0.7546771E-02  0.1228034E+00
          2   -1    0    0  501    0  0.00000000000E+00  0.00000000000E+00  0.22881413701E+03  0.22881413701E+03  0.00000000000E+00 0. -1.
         -2   -1    0    0    0  501 -0.00000000000E+00 -0.00000000000E+00 -0.67434545810E+02  0.67434545810E+02  0.00000000000E+00 0.  1.
         23    2    1    2    0    0  0.80962855467E+01 -0.56775300457E+02  0.50903953600E+02  0.11984536015E+03  0.92101646432E+02 0.  0.
          5    1    1    2  502    0  0.34482909432E+02  0.26121319262E+02 -0.10233415882E+02  0.44701310535E+02  0.47000000000E+01 0.  1.
         -5    1    1    2    0  502 -0.42579194979E+02  0.30653981194E+02  0.12070905348E+03  0.13170201214E+03  0.47000000000E+01 0.  1.
        -11    1    3    3    0    0 -0.17790812439E+02  0.71866358529E+01  0.46962373301E+02  0.50730910184E+02  0.00000000000E+00 0. -1.
         11    1    3    3    0    0  0.25887097986E+02 -0.63961936309E+02  0.39415802990E+01  0.69114449964E+02  0.00000000000E+00 0.  1.
<mgrwt>
<rscale>  0 0.12961114E+03</rscale>
<asrwt>0</asrwt>
<pdfrwt beam="1">  1        2 0.35202174E-01 0.13752551E+03</pdfrwt>
<pdfrwt beam="2">  1       -2 0.10374546E-01 0.13752551E+03</pdfrwt>
<totfact> 0.87109062E+03</totfact>
</mgrwt>
</event>
<event>
 7    1  0.1020736E-005  0.1298632E+03  0.7546771E-02  0.1242186E+00
          2   -1    0    0  501    0  0.00000000000E+00  0.00000000000E+00  0.15163047569E+04  0.15163047569E+04  0.00000000000E+00 0. -1.
         -2   -1    0    0    0  501 -0.00000000000E+00 -0.00000000000E+00 -0.96152378550E+01  0.96152378550E+01  0.00000000000E+00 0.  1.
         23    2    1    2    0    0 -0.19322530435E+02 -0.28824079893E+02  0.39191001637E+03  0.40360194890E+03  0.89982689792E+02 0.  0.
          5    1    1    2  502    0  0.29954041380E+02  0.41324441991E+02  0.17420390297E+03  0.18158756541E+03  0.47000000000E+01 0. -1.
         -5    1    1    2    0  502 -0.10631510945E+02 -0.12500362098E+02  0.94057559975E+03  0.94073048049E+03  0.47000000000E+01 0. -1.
        -11    1    3    3    0    0 -0.53747021492E+02 -0.16626037717E+02  0.18063319745E+03  0.18919175317E+03  0.00000000000E+00 0.  1.
         11    1    3    3    0    0  0.34424491057E+02 -0.12198042176E+02  0.21127681892E+03  0.21441019572E+03  0.00000000000E+00 0. -1.
<mgrwt>
<rscale>  0 0.12055390E+03</rscale>
<asrwt>0</asrwt>
<pdfrwt beam="1">  1        2 0.23327746E+00 0.12986322E+03</pdfrwt>
<pdfrwt beam="2">  1       -2 0.14792686E-02 0.12986322E+03</pdfrwt>
<totfact> 0.15557332E+04</totfact>
</mgrwt>
</event>
<event>
 7    1  0.1020736E-005  0.1340023E+03  0.7546771E-02  0.1233250E+00
          1   -1    0    0  501    0  0.00000000000E+00  0.00000000000E+00  0.18465802874E+03  0.18465802874E+03  0.00000000000E+00 0. -1.
         -1   -1    0    0    0  501 -0.00000000000E+00 -0.00000000000E+00 -0.93447695135E+02  0.93447695135E+02  0.00000000000E+00 0.  1.
         23    2    1    2    0    0 -0.44846545727E+02 -0.17930753937E+02 -0.15955896051E+02  0.10652127653E+03  0.93592024947E+02 0.  0.
          5    1    1    2  502    0  0.29410848394E+02 -0.44242072292E+02  0.90791842319E+02  0.10529770936E+03  0.47000000000E+01 0. -1.
         -5    1    1    2    0  502  0.15435697333E+02  0.62172826230E+02  0.16374387342E+02  0.66286737998E+02  0.47000000000E+01 0. -1.
        -11    1    3    3    0    0  0.24238953375E+02 -0.12138355153E+02 -0.24662997517E+02  0.36648737673E+02  0.00000000000E+00 0.  1.
         11    1    3    3    0    0 -0.69085499102E+02 -0.57923987842E+01  0.87071014665E+01  0.69872538853E+02  0.00000000000E+00 0. -1.
<mgrwt>
<rscale>  0 0.12617154E+03</rscale>
<asrwt>0</asrwt>
<pdfrwt beam="1">  1        1 0.28408927E-01 0.13400232E+03</pdfrwt>
<pdfrwt beam="2">  1       -1 0.14376569E-01 0.13400232E+03</pdfrwt>
<totfact> 0.53288297E+03</totfact>
</mgrwt>
</event>
<event>
 7    1  0.1020736E-005  0.1275044E+03  0.7546771E-02  0.1247758E+00
         -1   -1    0    0    0  501 -0.00000000000E+00  0.00000000000E+00  0.71659951458E+02  0.71659951458E+02  0.00000000000E+00 0.  1.
          1   -1    0    0  501    0  0.00000000000E+00 -0.00000000000E+00 -0.18365837060E+03  0.18365837060E+03  0.00000000000E+00 0. -1.
         23    2    1    2    0    0  0.24153351164E+02  0.70438511173E+01 -0.92069745035E+01  0.91539625738E+02  0.87531334330E+02 0.  0.
          5    1    1    2  502    0 -0.16539799974E+02  0.49741334216E+02 -0.84509217223E+01  0.53303596414E+02  0.47000000000E+01 0.  1.
         -5    1    1    2    0  502 -0.76135511904E+01 -0.56785185333E+02 -0.94340522912E+02  0.11047509990E+03  0.47000000000E+01 0.  1.
        -11    1    3    3    0    0  0.88629033044E+01 -0.29820543950E+02 -0.32776549409E+02  0.45189800704E+02  0.00000000000E+00 0. -1.
         11    1    3    3    0    0  0.15290447860E+02  0.36864395068E+02  0.23569574905E+02  0.46349825034E+02  0.00000000000E+00 0.  1.
<mgrwt>
<rscale>  0 0.11721799E+03</rscale>
<asrwt>0</asrwt>
<pdfrwt beam="2">  1        1 0.28255134E-01 0.12750443E+03</pdfrwt>
<pdfrwt beam="1">  1       -1 0.11024608E-01 0.12750443E+03</pdfrwt>
<totfact> 0.80604985E+03</totfact>
</mgrwt>
</event>
<event>
 7    1  0.1020736E-005  0.1457452E+03  0.7546771E-02  0.1216338E+00
         -2   -1    0    0    0  501 -0.00000000000E+00  0.00000000000E+00  0.15068183465E+02  0.15068183465E+02  0.00000000000E+00 0. -1.
          2   -1    0    0  501    0  0.00000000000E+00 -0.00000000000E+00 -0.15743164404E+04  0.15743164404E+04  0.00000000000E+00 0.  1.
         23    2    1    2    0    0  0.22233821397E+02  0.71567983734E+02 -0.30114740679E+03  0.32286994738E+03  0.89100635228E+02 0.  0.
          5    1    1    2  502    0  0.12708133898E+02 -0.99115267931E+02 -0.79878869266E+03  0.80502844579E+03  0.47000000000E+01 0. -1.
         -5    1    1    2    0  502 -0.34941955295E+02  0.27547284197E+02 -0.45931215744E+03  0.46148623065E+03  0.47000000000E+01 0. -1.
        -11    1    3    3    0    0  0.21853540120E+02  0.66908939575E+01 -0.10647333631E+02  0.25213309802E+02  0.00000000000E+00 0. -1.
         11    1    3    3    0    0  0.38028127765E+00  0.64877089777E+02 -0.29050007316E+03  0.29765663758E+03  0.00000000000E+00 0.  1.
<mgrwt>
<rscale>  0 0.13778731E+03</rscale>
<asrwt>0</asrwt>
<pdfrwt beam="2">  1        2 0.24220247E+00 0.14574525E+03</pdfrwt>
<pdfrwt beam="1">  1       -2 0.23181827E-02 0.14574525E+03</pdfrwt>
<totfact> 0.76067315E+03</totfact>
</mgrwt>
</event>
<event>
 7    1  0.3293272E-005  0.1352961E+03  0.7546771E-02  0.1244408E+00
         -2   -1    0    0    0  501 -0.00000000000E+00  0.00000000000E+00  0.68669608964E+02  0.68669608964E+02  0.00000000000E+00 0.  1.
          2   -1    0    0  501    0  0.00000000000E+00 -0.00000000000E+00 -0.18785552080E+03  0.18785552080E+03  0.00000000000E+00 0. -1.
         23    2    1    2    0    0 -0.91192921896E+01  0.50959767985E+02 -0.89981889186E+01  0.82036241872E+02  0.62999350263E+02 0.  0.
          5    1    1    2  502    0 -0.57921042472E+02 -0.23523149914E+02 -0.49789956955E+02  0.80058201057E+02  0.47000000000E+01 0. -1.
         -5    1    1    2    0  502  0.67040334661E+02 -0.27436618072E+02 -0.60397765960E+02  0.94430686833E+02  0.47000000000E+01 0. -1.
        -11    1    3    3    0    0  0.14968840641E+02  0.22760824258E+02 -0.29092294697E+02  0.39855776517E+02  0.00000000000E+00 0. -1.
         11    1    3    3    0    0 -0.24088132830E+02  0.28198943727E+02  0.20094105778E+02  0.42180465355E+02  0.00000000000E+00 0.  1.
<mgrwt>
<rscale>  0 0.11920881E+03</rscale>
<asrwt>0</asrwt>
<pdfrwt beam="2">  1        2 0.28900849E-01 0.13529611E+03</pdfrwt>
<pdfrwt beam="1">  1       -2 0.10564555E-01 0.13529611E+03</pdfrwt>
<totfact> 0.10458287E+04</totfact>
</mgrwt>
</event>
<event>
 7    1  0.1020736E-005  0.1339862E+03  0.7546771E-02  0.1234278E+00
         -2   -1    0    0    0  501 -0.00000000000E+00  0.00000000000E+00  0.29891544161E+02  0.29891544161E+02  0.00000000000E+00 0.  1.
          2   -1    0    0  501    0  0.00000000000E+00 -0.00000000000E+00 -0.61934601901E+03  0.61934601901E+03  0.00000000000E+00 0. -1.
         23    2    1    2    0    0 -0.48268366916E+02 -0.80808083114E+00 -0.10743030996E+03  0.14893806582E+03  0.91163521834E+02 0.  0.
          5    1    1    2  502    0  0.55014703354E+02  0.55714755154E+02 -0.27726510927E+03  0.28814715398E+03  0.47000000000E+01 0.  1.
         -5    1    1    2    0  502 -0.67463364375E+01 -0.54906674323E+02 -0.20475905562E+03  0.21215234337E+03  0.47000000000E+01 0.  1.
        -11    1    3    3    0    0 -0.23518895785E+02 -0.31395439484E+02 -0.54170831099E+01  0.39599960464E+02  0.00000000000E+00 0.  1.
         11    1    3    3    0    0 -0.24749471131E+02  0.30587358653E+02 -0.10201322685E+03  0.10933810536E+03  0.00000000000E+00 0. -1.
<mgrwt>
<rscale>  0 0.12550735E+03</rscale>
<asrwt>0</asrwt>
<pdfrwt beam="2">  1        2 0.95283991E-01 0.13398616E+03</pdfrwt>
<pdfrwt beam="1">  1       -2 0.45986997E-02 0.13398616E+03</pdfrwt>
<totfact> 0.10316587E+04</totfact>
</mgrwt>
</event>
<event>
 7    1  0.1020736E-005  0.1281114E+03  0.7546771E-02  0.1245619E+00
         -2   -1    0    0    0  501 -0.00000000000E+00  0.00000000000E+00  0.77478550411E+02  0.77478550411E+02  0.00000000000E+00 0.  1.
          2   -1    0    0  501    0  0.00000000000E+00 -0.00000000000E+00 -0.22181787113E+03  0.22181787113E+03  0.00000000000E+00 0. -1.
         23    2    1    2    0    0  0.38601838666E+01 -0.27762449946E+02  0.14914576965E+02  0.94908733103E+02  0.89440306164E+02 0.  0.
          5    1    1    2  502    0 -0.11885519153E+02  0.73888791766E+02 -0.12650269709E+03  0.14705727281E+03  0.47000000000E+01 0. -1.
         -5    1    1    2    0  502  0.80253352867E+01 -0.46126341820E+02 -0.32751200589E+02  0.57330415629E+02  0.47000000000E+01 0. -1.
        -11    1    3    3    0    0 -0.24276010905E+01 -0.43209551897E+02  0.43787310872E+02  0.61565308539E+02  0.00000000000E+00 0.  1.
         11    1    3    3    0    0  0.62877849571E+01  0.15447101951E+02 -0.28872733907E+02  0.33343424564E+02  0.00000000000E+00 0. -1.
<mgrwt>
<rscale>  0 0.11848404E+03</rscale>
<asrwt>0</asrwt>
<pdfrwt beam="2">  1        2 0.34125826E-01 0.12811137E+03</pdfrwt>
<pdfrwt beam="1">  1       -2 0.11919777E-01 0.12811137E+03</pdfrwt>
<totfact> 0.71901511E+03</totfact>
</mgrwt>
</event>
<event>
 7    1  0.1020736E-005  0.1366253E+03  0.7546771E-02  0.1229745E+00
         -4   -1    0    0    0  501 -0.00000000000E+00  0.00000000000E+00  0.45573712967E+03  0.45573712967E+03  0.00000000000E+00 0.  1.
          4   -1    0    0  501    0  0.00000000000E+00 -0.00000000000E+00 -0.34118909391E+02  0.34118909391E+02  0.00000000000E+00 0. -1.
         23    2    1    2    0    0 -0.30132166267E+02  0.46195114865E+02  0.23905560935E+03  0.26183066156E+03  0.91464610042E+02 0.  0.
          5    1    1    2  502    0  0.13897163101E+02 -0.76159252970E+02  0.17690619350E+03  0.19316121312E+03  0.47000000000E+01 0.  1.
         -5    1    1    2    0  502  0.16235003167E+02  0.29964138106E+02  0.56564174351E+01  0.34864164387E+02  0.47000000000E+01 0.  1.
        -11    1    3    3    0    0  0.18635766683E+02  0.22158264772E+02  0.17787353323E+02  0.33980441960E+02  0.00000000000E+00 0.  1.
         11    1    3    3    0    0 -0.48767932950E+02  0.24036850093E+02  0.22126825603E+03  0.22785021960E+03  0.00000000000E+00 0. -1.
<mgrwt>
<rscale>  0 0.12846893E+03</rscale>
<asrwt>0</asrwt>
<pdfrwt beam="2">  1        4 0.52490633E-02 0.13662528E+03</pdfrwt>
<pdfrwt beam="1">  1       -4 0.70113400E-01 0.13662528E+03</pdfrwt>
<totfact> 0.69588575E+02</totfact>
</mgrwt>
</event>
<event>
 7    1  0.1020736E-005  0.1275701E+03  0.7546771E-02  0.1242454E+00
          2   -1    0    0  501    0  0.00000000000E+00  0.00000000000E+00  0.44221401966E+03  0.44221401966E+03  0.00000000000E+00 0. -1.
         -2   -1    0    0    0  501 -0.00000000000E+00 -0.00000000000E+00 -0.42293000542E+02  0.42293000542E+02  0.00000000000E+00 0.  1.
         23    2    1    2    0    0 -0.23752831746E+02  0.95097993804E+01  0.51650020824E+02  0.11360701271E+03  0.97898903901E+02 0.  0.
          5    1    1    2  502    0  0.47177144356E+02 -0.23917584796E+02  0.55533882559E+02  0.76836423161E+02  0.47000000000E+01 0. -1.
         -5    1    1    2    0  502 -0.23424312610E+02  0.14407785415E+02  0.29273711574E+03  0.29406358433E+03  0.47000000000E+01 0. -1.
        -11    1    3    3    0    0  0.28865288899E+02  0.34931128152E+01  0.53195839594E+02  0.60623461551E+02  0.00000000000E+00 0.  1.
         11    1    3    3    0    0 -0.52618120646E+02  0.60166865652E+01 -0.15458187698E+01  0.52983551157E+02  0.00000000000E+00 0. -1.
<mgrwt>
<rscale>  0 0.12039070E+03</rscale>
<asrwt>0</asrwt>
<pdfrwt beam="1">  1        2 0.68032923E-01 0.12757009E+03</pdfrwt>
<pdfrwt beam="2">  1       -2 0.65066157E-02 0.12757009E+03</pdfrwt>
<totfact> 0.88479527E+03</totfact>
</mgrwt>
</event>
<event>
 7    1  0.1020736E-005  0.1272348E+03  0.7546771E-02  0.1246980E+00
         -4   -1    0    0    0  501 -0.00000000000E+00  0.00000000000E+00  0.53426080380E+02  0.53426080380E+02  0.00000000000E+00 0.  1.
          4   -1    0    0  501    0  0.00000000000E+00 -0.00000000000E+00 -0.24147851813E+03  0.24147851813E+03  0.00000000000E+00 0. -1.
         23    2    1    2    0    0  0.95257677604E+01  0.21776242025E+02 -0.44832956725E+02  0.10333083557E+03  0.90012902422E+02 0.  0.
          5    1    1    2  502    0 -0.25975892489E+01 -0.11342169771E+02 -0.16528988417E+03  0.16576558175E+03  0.47000000000E+01 0.  1.
         -5    1    1    2    0  502 -0.69281785115E+01 -0.10434072254E+02  0.22070403145E+02  0.25808181188E+02  0.47000000000E+01 0.  1.
        -11    1    3    3    0    0  0.21032198634E+02  0.48015918528E+02 -0.28433150085E+01  0.52497297566E+02  0.00000000000E+00 0.  1.
         11    1    3    3    0    0 -0.11506430874E+02 -0.26239676503E+02 -0.41989641717E+02  0.50833538003E+02  0.00000000000E+00 0. -1.
<mgrwt>
<rscale>  0 0.11767647E+03</rscale>
<asrwt>0</asrwt>
<pdfrwt beam="2">  1        4 0.37150540E-01 0.12723477E+03</pdfrwt>
<pdfrwt beam="1">  1       -4 0.82193972E-02 0.12723477E+03</pdfrwt>
<totfact> 0.12077357E+03</totfact>
</mgrwt>
</event>
<event>
 7    1  0.1020736E-005  0.1285701E+03  0.7546771E-02  0.1241104E+00
          1   -1    0    0  501    0  0.00000000000E+00  0.00000000000E+00  0.33138579427E+02  0.33138579427E+02  0.00000000000E+00 0. -1.
         -1   -1    0    0    0  501 -0.00000000000E+00 -0.00000000000E+00 -0.40021263514E+03  0.40021263514E+03  0.00000000000E+00 0.  1.
         23    2    1    2    0    0 -0.29560829830E+02  0.55516896018E+01 -0.15372404190E+03  0.18425583278E+03  0.97028176008E+02 0.  0.
          5    1    1    2  502    0 -0.24166901393E+02 -0.86735839247E+01 -0.18731677183E+03  0.18912676487E+03  0.47000000000E+01 0.  1.
         -5    1    1    2    0  502  0.53727731223E+02  0.31218943229E+01 -0.26033241985E+02  0.59968616916E+02  0.47000000000E+01 0.  1.
        -11    1    3    3    0    0  0.11515168952E+02  0.42265883885E+02 -0.89456944376E+02  0.99606972415E+02  0.00000000000E+00 0.  1.
         11    1    3    3    0    0 -0.41075998783E+02 -0.36714194283E+02 -0.64267097523E+02  0.84648860370E+02  0.00000000000E+00 0. -1.
<mgrwt>
<rscale>  0 0.12121615E+03</rscale>
<asrwt>0</asrwt>
<pdfrwt beam="1">  1        1 0.50982422E-02 0.12857014E+03</pdfrwt>
<pdfrwt beam="2">  1       -1 0.61571184E-01 0.12857014E+03</pdfrwt>
<totfact> 0.42706560E+03</totfact>
</mgrwt>
</event>
<event>
 7    1  0.1020736E-005  0.1380459E+03  0.7546771E-02  0.1227838E+00
          1   -1    0    0  501    0  0.00000000000E+00  0.00000000000E+00  0.84406217141E+03  0.84406217141E+03  0.00000000000E+00 0. -1.
         -1   -1    0    0    0  501 -0.00000000000E+00 -0.00000000000E+00 -0.19024270832E+02  0.19024270832E+02  0.00000000000E+00 0.  1.
         23    2    1    2    0    0 -0.57030180784E+02 -0.13412614351E+02  0.25995886787E+03  0.28138980913E+03  0.90384024876E+02 0.  0.
          5    1    1    2  502    0  0.32990759557E+01  0.45233573004E+02  0.76030406963E+02  0.88654795763E+02  0.47000000000E+01 0.  1.
         -5    1    1    2    0  502  0.53731104829E+02 -0.31820958652E+02  0.48904862575E+03  0.49304183736E+03  0.47000000000E+01 0.  1.
        -11    1    3    3    0    0  0.79108987730E+01 -0.36290988442E+02  0.11621687511E+03  0.12200811539E+03  0.00000000000E+00 0.  1.
         11    1    3    3    0    0 -0.64941079557E+02  0.22878374090E+02  0.14374199276E+03  0.15938169373E+03  0.00000000000E+00 0. -1.
<mgrwt>
<rscale>  0 0.12974252E+03</rscale>
<asrwt>0</asrwt>
<pdfrwt beam="1">  1        1 0.12985569E+00 0.13804586E+03</pdfrwt>
<pdfrwt beam="2">  1       -1 0.29268116E-02 0.13804586E+03</pdfrwt>
<totfact> 0.80052748E+03</totfact>
</mgrwt>
</event>
<event>
 7    1  0.1020736E-005  0.1275221E+03  0.7546771E-02  0.1245964E+00
          3   -1    0    0  501    0  0.00000000000E+00  0.00000000000E+00  0.29583756178E+03  0.29583756178E+03  0.00000000000E+00 0. -1.
         -3   -1    0    0    0  501 -0.00000000000E+00 -0.00000000000E+00 -0.41930831553E+02  0.41930831553E+02  0.00000000000E+00 0.  1.
         23    2    1    2    0    0 -0.25244007263E+02 -0.25728422347E+01  0.93534778216E+02  0.13287560704E+03  0.90902655573E+02 0.  0.
          5    1    1    2  502    0  0.25077029937E+02  0.33724878926E+02  0.85779355443E+00  0.42297171286E+02  0.47000000000E+01 0.  1.
         -5    1    1    2    0  502  0.16697732584E+00 -0.31152036691E+02  0.15951415845E+03  0.16259561501E+03  0.47000000000E+01 0.  1.
        -11    1    3    3    0    0 -0.50617422698E+02 -0.82272328976E+01  0.20281838430E+02  0.55146747972E+02  0.00000000000E+00 0.  1.
         11    1    3    3    0    0  0.25373415435E+02  0.56543906629E+01  0.73252939786E+02  0.77728859067E+02  0.00000000000E+00 0. -1.
<mgrwt>
<rscale>  0 0.11827872E+03</rscale>
<asrwt>0</asrwt>
<pdfrwt beam="1">  1        3 0.45513470E-01 0.12752212E+03</pdfrwt>
<pdfrwt beam="2">  1       -3 0.64508973E-02 0.12752212E+03</pdfrwt>
<totfact> 0.16594458E+03</totfact>
</mgrwt>
</event>
<event>
 6    1  0.1020736E-005  0.6961073E+03  0.7546771E-02  0.9723912E-01
          2   -1    0    0  501    0  0.00000000000E+00  0.00000000000E+00  0.13656116120E+04  0.13656116120E+04  0.00000000000E+00 0. -1.
         -2   -1    0    0    0  501 -0.00000000000E+00 -0.00000000000E+00 -0.88708496389E+02  0.88708496389E+02  0.00000000000E+00 0.  1.
          5    1    1    2  502    0  0.15963654924E+01  0.65282278647E+01  0.12951136593E+04  0.12951396244E+04  0.47000000000E+01 0. -1.
         -5    1    1    2    0  502 -0.12306924668E+02  0.16021685260E+02  0.11044132253E+02  0.23499311704E+02  0.47000000000E+01 0.  1.
        -11    1    1    2    0    0  0.59567799059E+02 -0.48117719808E+02 -0.24198403423E+02  0.80306913603E+02  0.00000000000E+00 0.  1.
         11    1    1    2    0    0 -0.48857239883E+02  0.25567806683E+02 -0.50562725775E+01  0.55374258640E+02  0.00000000000E+00 0. -1.
<mgrwt>
<rscale>  0 0.69610733E+03</rscale>
<asrwt>0</asrwt>
<pdfrwt beam="1">  1        2 0.21009408E+00 0.69610733E+03</pdfrwt>
<pdfrwt beam="2">  1       -2 0.13647462E-01 0.69610733E+03</pdfrwt>
<totfact> 0.62987586E+02</totfact>
</mgrwt>
</event>
<event>
 7    1  0.1020736E-005  0.1278401E+03  0.7546771E-02  0.1246179E+00
         -1   -1    0    0    0  501 -0.00000000000E+00  0.00000000000E+00  0.17426742170E+03  0.17426742170E+03  0.00000000000E+00 0.  1.
          1   -1    0    0  501    0  0.00000000000E+00 -0.00000000000E+00 -0.75645472702E+02  0.75645472702E+02  0.00000000000E+00 0. -1.
         23    2    1    2    0    0  0.23113181720E+02  0.13563149861E+02  0.88254673259E+01  0.93687087678E+02  0.89337580674E+02 0.  0.
          5    1    1    2  502    0 -0.75845093522E+01  0.55407327460E+02  0.30743818963E+02  0.63990383049E+02  0.47000000000E+01 0.  1.
         -5    1    1    2    0  502 -0.15528672368E+02 -0.68970477320E+02  0.59052662710E+02  0.92235423675E+02  0.47000000000E+01 0.  1.
        -11    1    3    3    0    0  0.50309828897E+02 -0.73666914125E+00  0.27888346211E+02  0.57527223290E+02  0.00000000000E+00 0.  1.
         11    1    3    3    0    0 -0.27196647177E+02  0.14299819002E+02 -0.19062878885E+02  0.36159864388E+02  0.00000000000E+00 0. -1.
<mgrwt>
<rscale>  0 0.11815073E+03</rscale>
<asrwt>0</asrwt>
<pdfrwt beam="2">  1        1 0.11637765E-01 0.12784011E+03</pdfrwt>
<pdfrwt beam="1">  1       -1 0.26810373E-01 0.12784011E+03</pdfrwt>
<totfact> 0.61185867E+03</totfact>
</mgrwt>
</event>
<event>
 7    1  0.1020736E-005  0.1315869E+03  0.7546771E-02  0.1238025E+00
          1   -1    0    0  501    0  0.00000000000E+00  0.00000000000E+00  0.11692954433E+04  0.11692954433E+04  0.00000000000E+00 0. -1.
         -1   -1    0    0    0  501 -0.00000000000E+00 -0.00000000000E+00 -0.13767342221E+02  0.13767342221E+02  0.00000000000E+00 0.  1.
         23    2    1    2    0    0  0.32007958140E+01 -0.40978541687E+02  0.27825228746E+03  0.29597318556E+03  0.92121143748E+02 0.  0.
          5    1    1    2  502    0 -0.36368331531E+02  0.95197773199E+01  0.80288039558E+02  0.88778043427E+02  0.47000000000E+01 0. -1.
         -5    1    1    2    0  502  0.33167535717E+02  0.31458764367E+02  0.79698777403E+03  0.79831155650E+03  0.47000000000E+01 0. -1.
        -11    1    3    3    0    0  0.19528383783E+02  0.13417255408E+02  0.18433335619E+02  0.30019466650E+02  0.00000000000E+00 0.  1.
         11    1    3    3    0    0 -0.16327587969E+02 -0.54395797095E+02  0.25981895184E+03  0.26595371892E+03  0.00000000000E+00 0. -1.
<mgrwt>
<rscale>  0 0.12312761E+03</rscale>
<asrwt>0</asrwt>
<pdfrwt beam="1">  1        1 0.17989153E+00 0.13158687E+03</pdfrwt>
<pdfrwt beam="2">  1       -1 0.21180536E-02 0.13158687E+03</pdfrwt>
<totfact> 0.73669456E+03</totfact>
</mgrwt>
</event>
<event>
 7    1  0.1020736E-005  0.2495512E+03  0.7546771E-02  0.1116237E+00
          1   -1    0    0  501    0  0.00000000000E+00  0.00000000000E+00  0.10935506091E+04  0.10935506091E+04  0.00000000000E+00 0. -1.
         -1   -1    0    0    0  501 -0.00000000000E+00 -0.00000000000E+00 -0.57033091677E+02  0.57033091677E+02  0.00000000000E+00 0.  1.
         23    2    1    2    0    0  0.72509473335E+02 -0.20345442533E+03  0.35546021653E+03  0.42524594076E+03  0.88491907459E+02 0.  0.
          5    1    1    2  502    0 -0.54633883598E+02  0.71904179380E+02  0.12910097154E+03  0.15762050343E+03  0.47000000000E+01 0. -1.
         -5    1    1    2    0  502 -0.17875589737E+02  0.13155024595E+03  0.55195632931E+03  0.56771725654E+03  0.47000000000E+01 0. -1.
        -11    1    3    3    0    0  0.11592221017E+02 -0.20457320590E+02  0.11304947060E+03  0.11546888913E+03  0.00000000000E+00 0. -1.
         11    1    3    3    0    0  0.60917252317E+02 -0.18299710474E+03  0.24241074593E+03  0.30977705163E+03  0.00000000000E+00 0.  1.
<mgrwt>
<rscale>  0 0.24541526E+03</rscale>
<asrwt>0</asrwt>
<pdfrwt beam="1">  1        1 0.16823854E+00 0.24955124E+03</pdfrwt>
<pdfrwt beam="2">  1       -1 0.87743226E-02 0.24955124E+03</pdfrwt>
<totfact> 0.10205253E+03</totfact>
</mgrwt>
</event>
<event>
 7    1  0.1020736E-005  0.1299226E+03  0.7546771E-02  0.1242970E+00
         -1   -1    0    0    0  501 -0.00000000000E+00  0.00000000000E+00  0.77468115520E+02  0.77468115520E+02  0.00000000000E+00 0.  1.
          1   -1    0    0  501    0  0.00000000000E+00 -0.00000000000E+00 -0.20572688468E+03  0.20572688468E+03  0.00000000000E+00 0. -1.
         23    2    1    2    0    0  0.11897094844E+02 -0.33369403240E+02  0.77414281333E+01  0.95110097306E+02  0.87925780984E+02 0.  0.
          5    1    1    2  502    0 -0.23111297142E+02  0.69178160392E+02 -0.13090475816E+03  0.14992630069E+03  0.47000000000E+01 0. -1.
         -5    1    1    2    0  502  0.11214202297E+02 -0.35808757153E+02 -0.50954391344E+01  0.38158602201E+02  0.47000000000E+01 0. -1.
        -11    1    3    3    0    0 -0.27770557143E+02 -0.23924138962E+02 -0.23674043586E+02  0.43635176278E+02  0.00000000000E+00 0. -1.
         11    1    3    3    0    0  0.39667651987E+02 -0.94452642777E+01  0.31415471719E+02  0.51474921028E+02  0.00000000000E+00 0.  1.
<mgrwt>
<rscale>  0 0.12007685E+03</rscale>
<asrwt>0</asrwt>
<pdfrwt beam="2">  1        1 0.31650290E-01 0.12992258E+03</pdfrwt>
<pdfrwt beam="1">  1       -1 0.11918172E-01 0.12992258E+03</pdfrwt>
<totfact> 0.62193650E+03</totfact>
</mgrwt>
</event>
<event>
 7    1  0.1020736E-005  0.1386089E+03  0.7546771E-02  0.1226345E+00
         -2   -1    0    0    0  501 -0.00000000000E+00  0.00000000000E+00  0.24260439652E+02  0.24260439652E+02  0.00000000000E+00 0.  1.
          2   -1    0    0  501    0  0.00000000000E+00 -0.00000000000E+00 -0.67203731260E+03  0.67203731260E+03  0.00000000000E+00 0. -1.
         23    2    1    2    0    0 -0.54604028146E+02 -0.24616421851E+02 -0.20778148218E+03  0.23498616784E+03  0.91966225449E+02 0.  0.
          5    1    1    2  502    0  0.77142194025E+02  0.38114246647E+02 -0.41781764723E+03  0.42661140424E+03  0.47000000000E+01 0. -1.
         -5    1    1    2    0  502 -0.22538165879E+02 -0.13497824796E+02 -0.22177743542E+02  0.34700180173E+02  0.47000000000E+01 0. -1.
        -11    1    3    3    0    0 -0.56056775017E+02 -0.53377020690E+02 -0.12184062328E+03  0.14434890316E+03  0.00000000000E+00 0.  1.
         11    1    3    3    0    0  0.14527468706E+01  0.28760598839E+02 -0.85940858903E+02  0.90637264677E+02  0.00000000000E+00 0. -1.
<mgrwt>
<rscale>  0 0.13075125E+03</rscale>
<asrwt>0</asrwt>
<pdfrwt beam="2">  1        2 0.10339034E+00 0.13860892E+03</pdfrwt>
<pdfrwt beam="1">  1       -2 0.37323761E-02 0.13860892E+03</pdfrwt>
<totfact> 0.12833366E+04</totfact>
</mgrwt>
</event>
<event>
 7    1  0.1020736E-005  0.1955516E+03  0.7546771E-02  0.1157939E+00
          1   -1    0    0  501    0  0.00000000000E+00  0.00000000000E+00  0.32265750714E+03  0.32265750714E+03  0.00000000000E+00 0. -1.
         -1   -1    0    0    0  501 -0.00000000000E+00 -0.00000000000E+00 -0.12332607415E+03  0.12332607415E+03  0.00000000000E+00 0.  1.
         23    2    1    2    0    0  0.11704693780E+03 -0.94362140811E+02  0.14668228072E+02  0.17702090994E+03  0.92287845220E+02 0.  0.
          5    1    1    2  502    0 -0.71063368659E+02 -0.17567022589E+02  0.83730771429E+02  0.11131727059E+03  0.47000000000E+01 0.  1.
         -5    1    1    2    0  502 -0.45983569137E+02  0.11192916340E+03  0.10093243348E+03  0.15764540075E+03  0.47000000000E+01 0.  1.
        -11    1    3    3    0    0  0.36344867426E+02 -0.36636786557E+02 -0.38561798966E+02  0.64422168987E+02  0.00000000000E+00 0.  1.
         11    1    3    3    0    0  0.80702070370E+02 -0.57725354253E+02  0.53230027039E+02  0.11259874095E+03  0.00000000000E+00 0. -1.
<mgrwt>
<rscale>  0 0.19058035E+03</rscale>
<asrwt>0</asrwt>
<pdfrwt beam="1">  1        1 0.49639616E-01 0.19555158E+03</pdfrwt>
<pdfrwt beam="2">  1       -1 0.18973242E-01 0.19555158E+03</pdfrwt>
<totfact> 0.17403590E+03</totfact>
</mgrwt>
</event>
<event>
 7    1  0.1020736E-005  0.1271429E+03  0.7546771E-02  0.1246117E+00
         -2   -1    0    0    0  501 -0.00000000000E+00  0.00000000000E+00  0.47318124211E+02  0.47318124211E+02  0.00000000000E+00 0.  1.
          2   -1    0    0  501    0  0.00000000000E+00 -0.00000000000E+00 -0.30260972544E+03  0.30260972544E+03  0.00000000000E+00 0. -1.
         23    2    1    2    0    0 -0.11583817348E+02 -0.20143280844E+02 -0.47079863842E+02  0.10596586243E+03  0.92045172791E+02 0.  0.
          5    1    1    2  502    0 -0.39129384872E+01  0.15413498945E+01  0.16622667438E+02  0.17778917848E+02  0.47000000000E+01 0.  1.
         -5    1    1    2    0  502  0.15496755835E+02  0.18601930950E+02 -0.22483440483E+03  0.22618306937E+03  0.47000000000E+01 0.  1.
        -11    1    3    3    0    0  0.36509919299E+02 -0.22670190677E+02 -0.74931670910E+01  0.43624067963E+02  0.00000000000E+00 0.  1.
         11    1    3    3    0    0 -0.48093736647E+02  0.25269098330E+01 -0.39586696751E+02  0.62341794469E+02  0.00000000000E+00 0. -1.
<mgrwt>
<rscale>  0 0.11818798E+03</rscale>
<asrwt>0</asrwt>
<pdfrwt beam="2">  1        2 0.46555342E-01 0.12714293E+03</pdfrwt>
<pdfrwt beam="1">  1       -2 0.72797114E-02 0.12714293E+03</pdfrwt>
<totfact> 0.11154779E+04</totfact>
</mgrwt>
</event>
<event>
 7    1  0.1020736E-005  0.1304402E+03  0.7546771E-02  0.1239789E+00
          1   -1    0    0  501    0  0.00000000000E+00  0.00000000000E+00  0.64811469268E+02  0.64811469268E+02  0.00000000000E+00 0. -1.
         -1   -1    0    0    0  501 -0.00000000000E+00 -0.00000000000E+00 -0.20692929205E+03  0.20692929205E+03  0.00000000000E+00 0.  1.
         23    2    1    2    0    0  0.18698944654E+02 -0.35195659292E+02 -0.75816162094E+02  0.12541732558E+03  0.91613482392E+02 0.  0.
          5    1    1    2  502    0  0.75353130165E+01 -0.43385278396E+02 -0.82289066495E+01  0.45042959810E+02  0.47000000000E+01 0. -1.
         -5    1    1    2    0  502 -0.26234257670E+02  0.78580937688E+02 -0.58072754042E+02  0.10128047593E+03  0.47000000000E+01 0.  1.
        -11    1    3    3    0    0  0.22140914295E+02 -0.55780872185E+02 -0.16067085436E+02  0.62127908559E+02  0.00000000000E+00 0. -1.
         11    1    3    3    0    0 -0.34419696413E+01  0.20585212893E+02 -0.59749076659E+02  0.63289417018E+02  0.00000000000E+00 0.  1.
<mgrwt>
<rscale>  0 0.12202745E+03</rscale>
<asrwt>0</asrwt>
<pdfrwt beam="1">  1        1 0.99709954E-02 0.13044017E+03</pdfrwt>
<pdfrwt beam="2">  1       -1 0.31835275E-01 0.13044017E+03</pdfrwt>
<totfact> 0.56368286E+03</totfact>
</mgrwt>
</event>
<event>
 7    1  0.1020736E-005  0.2182171E+03  0.7546771E-02  0.1138545E+00
          2   -1    0    0  501    0  0.00000000000E+00  0.00000000000E+00  0.20036803289E+04  0.20036803289E+04  0.00000000000E+00 0.  1.
         -2   -1    0    0    0  501 -0.00000000000E+00 -0.00000000000E+00 -0.28587544630E+02  0.28587544630E+02  0.00000000000E+00 0. -1.
         23    2    1    2    0    0 -0.17630461003E+03 -0.30152323400E+02  0.46798998421E+03  0.50944892868E+03  0.92363994528E+02 0.  0.
          5    1    1    2  502    0 -0.10106332006E+02  0.76681305467E+01  0.21582331139E+02  0.25472047230E+02  0.47000000000E+01 0. -1.
         -5    1    1    2    0  502  0.18641094204E+03  0.22484192854E+02  0.14855204689E+04  0.14973468976E+04  0.47000000000E+01 0. -1.
        -11    1    3    3    0    0 -0.11247318798E+03 -0.60591899327E+02  0.25853979665E+03  0.28838242445E+03  0.00000000000E+00 0. -1.
         11    1    3    3    0    0 -0.63831422054E+02  0.30439575927E+02  0.20945018756E+03  0.22106650423E+03  0.00000000000E+00 0.  1.
<mgrwt>
<rscale>  0 0.21386023E+03</rscale>
<asrwt>0</asrwt>
<pdfrwt beam="1">  1        2 0.30825840E+00 0.21821707E+03</pdfrwt>
<pdfrwt beam="2">  1       -2 0.43980854E-02 0.21821707E+03</pdfrwt>
<totfact> 0.17673730E+03</totfact>
</mgrwt>
</event>
<event>
 7    1  0.1020736E-005  0.1400688E+03  0.7546771E-02  0.1224694E+00
          2   -1    0    0  501    0  0.00000000000E+00  0.00000000000E+00  0.17089876153E+04  0.17089876153E+04  0.00000000000E+00 0. -1.
         -2   -1    0    0    0  501 -0.00000000000E+00 -0.00000000000E+00 -0.16402037602E+02  0.16402037602E+02  0.00000000000E+00 0.  1.
         23    2    1    2    0    0 -0.59597169663E+02  0.21051826424E+02  0.21844750354E+03  0.24461204746E+03  0.90115148181E+02 0.  0.
          5    1    1    2  502    0  0.49713467595E+01 -0.12011932240E+01  0.16550386546E+01  0.71404696423E+01  0.47000000000E+01 0. -1.
         -5    1    1    2    0  502  0.54625822904E+02 -0.19850633200E+02  0.14724830355E+04  0.14736371358E+04  0.47000000000E+01 0. -1.
        -11    1    3    3    0    0 -0.62736714968E+02  0.48909305508E+02  0.13633155626E+03  0.15784267104E+03  0.00000000000E+00 0.  1.
         11    1    3    3    0    0  0.31395453044E+01 -0.27857479084E+02  0.82115947288E+02  0.86769376422E+02  0.00000000000E+00 0. -1.
<mgrwt>
<rscale>  0 0.13187871E+03</rscale>
<asrwt>0</asrwt>
<pdfrwt beam="1">  1        2 0.26292103E+00 0.14006875E+03</pdfrwt>
<pdfrwt beam="2">  1       -2 0.25233917E-02 0.14006875E+03</pdfrwt>
<totfact> 0.57212663E+03</totfact>
</mgrwt>
</event>
<event>
 7    1  0.1020736E-005  0.1688142E+03  0.7546771E-02  0.1186093E+00
          2   -1    0    0  501    0  0.00000000000E+00  0.00000000000E+00  0.23739420872E+04  0.23739420872E+04  0.00000000000E+00 0. -1.
         -2   -1    0    0    0  501 -0.00000000000E+00 -0.00000000000E+00 -0.15282888470E+02  0.15282888470E+02  0.00000000000E+00 0.  1.
         23    2    1    2    0    0  0.98132988753E+02 -0.56952839864E+02  0.43810600733E+03  0.46126678041E+03  0.89198988806E+02 0.  0.
          5    1    1    2  502    0 -0.21334613419E+02  0.75729114501E+02  0.12974517002E+04  0.12998434786E+04  0.47000000000E+01 0.  1.
         -5    1    1    2    0  502 -0.76798375334E+02 -0.18776274637E+02  0.62310149120E+03  0.62811471665E+03  0.47000000000E+01 0.  1.
        -11    1    3    3    0    0  0.49226284868E+02 -0.18055642109E+01  0.68440883352E+02  0.84324620948E+02  0.00000000000E+00 0. -1.
         11    1    3    3    0    0  0.48906703885E+02 -0.55147275653E+02  0.36966512397E+03  0.37694215946E+03  0.00000000000E+00 0.  1.
<mgrwt>
<rscale>  0 0.16232798E+03</rscale>
<asrwt>0</asrwt>
<pdfrwt beam="1">  1        2 0.36522157E+00 0.16881422E+03</pdfrwt>
<pdfrwt beam="2">  1       -2 0.23512155E-02 0.16881422E+03</pdfrwt>
<totfact> 0.28757049E+03</totfact>
</mgrwt>
</event>
<event>
 7    1  0.1020736E-005  0.1335783E+03  0.7546771E-02  0.1236822E+00
         -1   -1    0    0    0  501 -0.00000000000E+00  0.00000000000E+00  0.71768277538E+02  0.71768277538E+02  0.00000000000E+00 0.  1.
          1   -1    0    0  501    0  0.00000000000E+00 -0.00000000000E+00 -0.21337998644E+03  0.21337998644E+03  0.00000000000E+00 0. -1.
         23    2    1    2    0    0  0.31344959220E+02 -0.35149452955E+02 -0.12925865893E+02  0.99667229860E+02  0.86882036045E+02 0.  0.
          5    1    1    2  502    0  0.10361825364E+02 -0.32580675396E+02 -0.91028232303E+02  0.97350382179E+02  0.47000000000E+01 0. -1.
         -5    1    1    2    0  502 -0.41706784584E+02  0.67730128351E+02 -0.37657610702E+02  0.88130651935E+02  0.47000000000E+01 0. -1.
        -11    1    3    3    0    0  0.51116790815E+01 -0.36258307300E+02  0.31341682580E+02  0.48198497676E+02  0.00000000000E+00 0.  1.
         11    1    3    3    0    0  0.26233280139E+02  0.11088543448E+01 -0.44267548473E+02  0.51468732184E+02  0.00000000000E+00 0. -1.
<mgrwt>
<rscale>  0 0.12388515E+03</rscale>
<asrwt>0</asrwt>
<pdfrwt beam="2">  1        1 0.32827690E-01 0.13357832E+03</pdfrwt>
<pdfrwt beam="1">  1       -1 0.11041274E-01 0.13357832E+03</pdfrwt>
<totfact> 0.66977035E+03</totfact>
</mgrwt>
</event>
<event>
 7    1  0.1020736E-005  0.2240830E+03  0.7546771E-02  0.1133993E+00
         -3   -1    0    0    0  501 -0.00000000000E+00  0.00000000000E+00  0.22581805156E+03  0.22581805156E+03  0.00000000000E+00 0.  1.
          3   -1    0    0  501    0  0.00000000000E+00 -0.00000000000E+00 -0.20841270720E+03  0.20841270720E+03  0.00000000000E+00 0. -1.
         23    2    1    2    0    0 -0.18175306285E+03 -0.39422922740E+02  0.30027048829E+02  0.20979258340E+03  0.92319887877E+02 0.  0.
          5    1    1    2  502    0  0.12952813010E+03  0.40047474206E+02  0.48349726157E+02  0.14401778604E+03  0.47000000000E+01 0.  1.
         -5    1    1    2    0  502  0.52224932747E+02 -0.62455146597E+00 -0.60971430619E+02  0.80420389310E+02  0.47000000000E+01 0.  1.
        -11    1    3    3    0    0 -0.35134022826E+02  0.22523401169E+02 -0.15050160268E+02  0.44364518303E+02  0.00000000000E+00 0. -1.
         11    1    3    3    0    0 -0.14661904002E+03 -0.61946323909E+02  0.45077209097E+02  0.16542806510E+03  0.00000000000E+00 0.  1.
<mgrwt>
<rscale>  0 0.21985207E+03</rscale>
<asrwt>0</asrwt>
<pdfrwt beam="2">  1        3 0.32063494E-01 0.22408299E+03</pdfrwt>
<pdfrwt beam="1">  1       -3 0.34741239E-01 0.22408299E+03</pdfrwt>
<totfact> 0.19064589E+02</totfact>
</mgrwt>
</event>
<event>
 7    1  0.1020736E-005  0.2793914E+03  0.7546771E-02  0.1096022E+00
         -3   -1    0    0    0  501 -0.00000000000E+00  0.00000000000E+00  0.28837228230E+03  0.28837228230E+03  0.00000000000E+00 0.  1.
          3   -1    0    0  501    0  0.00000000000E+00 -0.00000000000E+00 -0.67672562129E+02  0.67672562129E+02  0.00000000000E+00 0. -1.
         23    2    1    2    0    0 -0.37886959080E+02  0.52559825931E+00  0.59648787932E+02  0.11503593092E+03  0.90772185047E+02 0.  0.
          5    1    1    2  502    0 -0.55502676363E+02  0.47227804951E+02  0.80383271849E+02  0.10860282242E+03  0.47000000000E+01 0. -1.
         -5    1    1    2    0  502  0.93389635443E+02 -0.47753403210E+02  0.80667660392E+02  0.13240609110E+03  0.47000000000E+01 0.  1.
        -11    1    3    3    0    0  0.10683208280E+02 -0.26860911646E+02  0.50982079537E+02  0.58607268726E+02  0.00000000000E+00 0.  1.
         11    1    3    3    0    0 -0.48570167360E+02  0.27386509905E+02  0.86667083952E+01  0.56428662190E+02  0.00000000000E+00 0. -1.
<mgrwt>
<rscale>  0 0.27939142E+03</rscale>
<asrwt>0</asrwt>
<pdfrwt beam="2">  1        3 0.10411164E-01 0.27939142E+03</pdfrwt>
<pdfrwt beam="1">  1       -3 0.44364966E-01 0.27939142E+03</pdfrwt>
<totfact> 0.89062144E+02</totfact>
</mgrwt>
</event>
<event>
 7    1  0.1020736E-005  0.1199403E+03  0.7546771E-02  0.1254773E+00
          1   -1    0    0  501    0  0.00000000000E+00  0.00000000000E+00  0.30944238774E+02  0.30944238774E+02  0.00000000000E+00 0. -1.
         -1   -1    0    0    0  501 -0.00000000000E+00 -0.00000000000E+00 -0.38462784150E+03  0.38462784150E+03  0.00000000000E+00 0.  1.
         23    2    1    2    0    0 -0.12991696655E+00 -0.69972544914E+01 -0.19178792109E+03  0.21408786925E+03  0.94879031602E+02 0.  0.
          5    1    1    2  502    0 -0.12760660950E+02  0.50426731538E+02 -0.26365203306E+02  0.58505586629E+02  0.47000000000E+01 0. -1.
         -5    1    1    2    0  502  0.12890577916E+02 -0.43429477047E+02 -0.13553047834E+03  0.14297862440E+03  0.47000000000E+01 0.  1.
        -11    1    3    3    0    0 -0.19316406929E+02 -0.45193631953E+02 -0.74478336962E+02  0.89233461339E+02  0.00000000000E+00 0.  1.
         11    1    3    3    0    0  0.19186489962E+02  0.38196377462E+02 -0.11730958412E+03  0.12485440791E+03  0.00000000000E+00 0. -1.
<mgrwt>
<rscale>  0 0.11319076E+03</rscale>
<asrwt>0</asrwt>
<pdfrwt beam="1">  1        1 0.47606520E-02 0.11994030E+03</pdfrwt>
<pdfrwt beam="2">  1       -1 0.59173515E-01 0.11994030E+03</pdfrwt>
<totfact> 0.50315827E+03</totfact>
</mgrwt>
</event>
<event>
 7    1  0.1020736E-005  0.1444974E+03  0.7546771E-02  0.1213473E+00
         -1   -1    0    0    0  501 -0.00000000000E+00  0.00000000000E+00  0.93231647829E+02  0.93231647829E+02  0.00000000000E+00 0.  1.
          1   -1    0    0  501    0  0.00000000000E+00 -0.00000000000E+00 -0.30603586633E+03  0.30603586633E+03  0.00000000000E+00 0. -1.
         23    2    1    2    0    0  0.70696087058E+02 -0.15858096982E+02  0.16728660175E+02  0.12803913810E+03  0.10423414435E+03 0.  0.
          5    1    1    2  502    0  0.45489424491E+01 -0.66476767433E+01 -0.17557998919E+03  0.17582749242E+03  0.47000000000E+01 0. -1.
         -5    1    1    2    0  502 -0.75245029507E+02  0.22505773725E+02 -0.53952889483E+02  0.95400883645E+02  0.47000000000E+01 0. -1.
        -11    1    3    3    0    0  0.15187686683E+02  0.15378049524E+01 -0.42417588249E+02  0.45080843645E+02  0.00000000000E+00 0. -1.
         11    1    3    3    0    0  0.55508400375E+02 -0.17395901934E+02  0.59146248424E+02  0.82958294456E+02  0.00000000000E+00 0.  1.
<mgrwt>
<rscale>  0 0.13989299E+03</rscale>
<asrwt>0</asrwt>
<pdfrwt beam="2">  1        1 0.47082441E-01 0.14449737E+03</pdfrwt>
<pdfrwt beam="1">  1       -1 0.14343330E-01 0.14449737E+03</pdfrwt>
<totfact> 0.28699263E+03</totfact>
</mgrwt>
</event>
<event>
 7    1  0.1020736E-005  0.1671812E+03  0.7546771E-02  0.1186989E+00
         -1   -1    0    0    0  501 -0.00000000000E+00  0.00000000000E+00  0.34497724024E+03  0.34497724024E+03  0.00000000000E+00 0.  1.
          1   -1    0    0  501    0  0.00000000000E+00 -0.00000000000E+00 -0.73943848021E+02  0.73943848021E+02  0.00000000000E+00 0. -1.
         23    2    1    2    0    0 -0.57118643264E+01 -0.11089337781E+03  0.16877677045E+03  0.22294669359E+03  0.94285011014E+02 0.  0.
          5    1    1    2  502    0  0.54969383070E+02  0.89245808262E+02  0.36972460878E+02  0.11124522565E+03  0.47000000000E+01 0.  1.
         -5    1    1    2    0  502 -0.49257518743E+02  0.21647569544E+02  0.65284160892E+02  0.84729169023E+02  0.47000000000E+01 0.  1.
        -11    1    3    3    0    0  0.23257627507E+02 -0.17486462655E+01  0.47419383804E+01  0.23800440765E+02  0.00000000000E+00 0.  1.
         11    1    3    3    0    0 -0.28969491833E+02 -0.10914473154E+03  0.16403483207E+03  0.19914625282E+03  0.00000000000E+00 0. -1.
<mgrwt>
<rscale>  0 0.16152240E+03</rscale>
<asrwt>0</asrwt>
<pdfrwt beam="2">  1        1 0.11375977E-01 0.16718118E+03</pdfrwt>
<pdfrwt beam="1">  1       -1 0.53073421E-01 0.16718118E+03</pdfrwt>
<totfact> 0.19435186E+03</totfact>
</mgrwt>
</event>
<event>
 7    1  0.1020736E-005  0.1270434E+03  0.7546771E-02  0.1248487E+00
         -1   -1    0    0    0  501 -0.00000000000E+00  0.00000000000E+00  0.87502142112E+02  0.87502142112E+02  0.00000000000E+00 0.  1.
          1   -1    0    0  501    0  0.00000000000E+00 -0.00000000000E+00 -0.17627998004E+03  0.17627998004E+03  0.00000000000E+00 0. -1.
         23    2    1    2    0    0 -0.20957070245E+02 -0.95147943924E+01  0.24051621967E+02  0.93868844746E+02  0.87767587349E+02 0.  0.
          5    1    1    2  502    0 -0.33466921620E+02 -0.86965057453E+01  0.82328592705E+01  0.35854344600E+02  0.47000000000E+01 0.  1.
         -5    1    1    2    0  502  0.54423991865E+02  0.18211300138E+02 -0.12106231916E+03  0.13405893280E+03  0.47000000000E+01 0.  1.
        -11    1    3    3    0    0 -0.40770527801E+02  0.25925662027E+02  0.22339113919E+02  0.53229802737E+02  0.00000000000E+00 0.  1.
         11    1    3    3    0    0  0.19813457556E+02 -0.35440456420E+02  0.17125080478E+01  0.40639042009E+02  0.00000000000E+00 0. -1.
<mgrwt>
<rscale>  0 0.11679067E+03</rscale>
<asrwt>0</asrwt>
<pdfrwt beam="2">  1        1 0.27119997E-01 0.12704344E+03</pdfrwt>
<pdfrwt beam="1">  1       -1 0.13461868E-01 0.12704344E+03</pdfrwt>
<totfact> 0.62327278E+03</totfact>
</mgrwt>
</event>
<event>
 7    1  0.1020736E-005  0.1308401E+03  0.7546771E-02  0.1240374E+00
          1   -1    0    0  501    0  0.00000000000E+00  0.00000000000E+00  0.48421970312E+03  0.48421970312E+03  0.00000000000E+00 0. -1.
         -1   -1    0    0    0  501 -0.00000000000E+00 -0.00000000000E+00 -0.37636914099E+02  0.37636914099E+02  0.00000000000E+00 0.  1.
         23    2    1    2    0    0 -0.37794133194E+02 -0.80028397881E+01  0.62467735465E+02  0.11606910917E+03  0.89874235356E+02 0.  0.
          5    1    1    2  502    0  0.28664995343E+02 -0.12552848075E+02  0.13405375068E+02  0.34366408505E+02  0.47000000000E+01 0.  1.
         -5    1    1    2    0  502  0.91291378515E+01  0.20555687863E+02  0.37070967849E+03  0.37142109954E+03  0.47000000000E+01 0.  1.
        -11    1    3    3    0    0  0.85376323187E+01 -0.26816868035E+02 -0.83681158932E+01  0.29360874313E+02  0.00000000000E+00 0.  1.
         11    1    3    3    0    0 -0.46331765513E+02  0.18814028247E+02  0.70835851358E+02  0.86708234857E+02  0.00000000000E+00 0. -1.
<mgrwt>
<rscale>  0 0.12166582E+03</rscale>
<asrwt>0</asrwt>
<pdfrwt beam="1">  1        1 0.74495334E-01 0.13084008E+03</pdfrwt>
<pdfrwt beam="2">  1       -1 0.57902948E-02 0.13084008E+03</pdfrwt>
<totfact> 0.63639103E+03</totfact>
</mgrwt>
</event>
<event>
 7    1  0.1020736E-005  0.2265905E+03  0.7546771E-02  0.1132292E+00
         -1   -1    0    0    0  501 -0.00000000000E+00  0.00000000000E+00  0.11015423732E+03  0.11015423732E+03  0.00000000000E+00 0.  1.
          1   -1    0    0  501    0  0.00000000000E+00 -0.00000000000E+00 -0.65115537834E+03  0.65115537834E+03  0.00000000000E+00 0. -1.
         23    2    1    2    0    0 -0.16474510937E+03  0.92583044600E+02 -0.42331174112E+02  0.21357335959E+03  0.90050432626E+02 0.  0.
          5    1    1    2  502    0  0.18269256608E+03 -0.66452641994E+02 -0.42278795499E+03  0.46536466584E+03  0.47000000000E+01 0.  1.
         -5    1    1    2    0  502 -0.17947456719E+02 -0.26130402606E+02 -0.75882011924E+02  0.82371590228E+02  0.47000000000E+01 0.  1.
        -11    1    3    3    0    0 -0.63818958287E+02  0.45466790313E+02  0.26406244113E+02  0.82688440464E+02  0.00000000000E+00 0.  1.
         11    1    3    3    0    0 -0.10092615108E+03  0.47116254287E+02 -0.68737418225E+02  0.13088491912E+03  0.00000000000E+00 0. -1.
<mgrwt>
<rscale>  0 0.22214800E+03</rscale>
<asrwt>0</asrwt>
<pdfrwt beam="2">  1        1 0.10017775E+00 0.22659053E+03</pdfrwt>
<pdfrwt beam="1">  1       -1 0.16946805E-01 0.22659053E+03</pdfrwt>
<totfact> 0.83008372E+02</totfact>
</mgrwt>
</event>
<event>
 7    1  0.1020736E-005  0.1437696E+03  0.7546771E-02  0.1217879E+00
          2   -1    0    0  501    0  0.00000000000E+00  0.00000000000E+00  0.15339485287E+04  0.15339485287E+04  0.00000000000E+00 0. -1.
         -2   -1    0    0    0  501 -0.00000000000E+00 -0.00000000000E+00 -0.11125465936E+02  0.11125465936E+02  0.00000000000E+00 0.  1.
         23    2    1    2    0    0 -0.71005035726E+02 -0.17894010543E+01  0.66416434210E+03  0.67446242967E+03  0.93489992316E+02 0.  0.
          5    1    1    2  502    0  0.33185319474E+02  0.13041089131E+02  0.79334391098E+03  0.79415866584E+03  0.47000000000E+01 0.  1.
         -5    1    1    2    0  502  0.37819716253E+02 -0.11251688077E+02  0.65314809709E+02  0.76452899156E+02  0.47000000000E+01 0.  1.
        -11    1    3    3    0    0 -0.83035160436E+02  0.26075719291E+02  0.48609155824E+03  0.49382161151E+03  0.00000000000E+00 0.  1.
         11    1    3    3    0    0  0.12030124710E+02 -0.27865120345E+02  0.17807278387E+03  0.18064081816E+03  0.00000000000E+00 0. -1.
<mgrwt>
<rscale>  0 0.13667130E+03</rscale>
<asrwt>0</asrwt>
<pdfrwt beam="1">  1        2 0.23599191E+00 0.14376960E+03</pdfrwt>
<pdfrwt beam="2">  1       -2 0.17116114E-02 0.14376960E+03</pdfrwt>
<totfact> 0.12402154E+04</totfact>
</mgrwt>
</event>
<event>
 7    1  0.1020736E-005  0.1704212E+03  0.7546771E-02  0.1183755E+00
         -2   -1    0    0    0  501 -0.00000000000E+00  0.00000000000E+00  0.15948248530E+03  0.15948248530E+03  0.00000000000E+00 0.  1.
          2   -1    0    0  501    0  0.00000000000E+00 -0.00000000000E+00 -0.16098358165E+03  0.16098358165E+03  0.00000000000E+00 0. -1.
         23    2    1    2    0    0 -0.11578426003E+03 -0.15601950890E+01  0.18227548466E+02  0.14890669950E+03  0.91828822026E+02 0.  0.
          5    1    1    2  502    0  0.33254226155E+02  0.48550221360E+02 -0.43758685543E+02  0.73483876543E+02  0.47000000000E+01 0.  1.
         -5    1    1    2    0  502  0.82530033874E+02 -0.46990026271E+02  0.24030040726E+02  0.98075490911E+02  0.47000000000E+01 0.  1.
        -11    1    3    3    0    0 -0.17967557677E+02  0.14917844690E+02  0.40951378878E+02  0.47142238503E+02  0.00000000000E+00 0.  1.
         11    1    3    3    0    0 -0.97816702352E+02 -0.16478039779E+02 -0.22723830412E+02  0.10176446100E+03  0.00000000000E+00 0. -1.
<mgrwt>
<rscale>  0 0.16445677E+03</rscale>
<asrwt>0</asrwt>
<pdfrwt beam="2">  1        2 0.24766705E-01 0.17042123E+03</pdfrwt>
<pdfrwt beam="1">  1       -2 0.24535767E-01 0.17042123E+03</pdfrwt>
<totfact> 0.31158506E+03</totfact>
</mgrwt>
</event>
<event>
 7    1  0.1020736E-005  0.1446014E+03  0.7546771E-02  0.1222398E+00
         -2   -1    0    0    0  501 -0.00000000000E+00  0.00000000000E+00  0.16879060359E+03  0.16879060359E+03  0.00000000000E+00 0.  1.
          2   -1    0    0  501    0  0.00000000000E+00 -0.00000000000E+00 -0.95223364793E+02  0.95223364793E+02  0.00000000000E+00 0. -1.
         23    2    1    2    0    0 -0.64535436938E+02  0.33559094659E+02  0.54196634127E+02  0.11812088036E+03  0.75658652986E+02 0.  0.
          5    1    1    2  502    0 -0.37803962307E+02 -0.81938708534E+01  0.28886073005E+01  0.39073176705E+02  0.47000000000E+01 0. -1.
         -5    1    1    2    0  502  0.10233939925E+03 -0.25365223806E+02  0.16481997371E+02  0.10681991132E+03  0.47000000000E+01 0. -1.
        -11    1    3    3    0    0 -0.15010122378E+02  0.99001984899E+01  0.60274267579E+02  0.62899165624E+02  0.00000000000E+00 0.  1.
         11    1    3    3    0    0 -0.49525314560E+02  0.23658896169E+02 -0.60776334527E+01  0.55221714738E+02  0.00000000000E+00 0. -1.
<mgrwt>
<rscale>  0 0.13346851E+03</rscale>
<asrwt>0</asrwt>
<pdfrwt beam="2">  1        2 0.14649748E-01 0.14460143E+03</pdfrwt>
<pdfrwt beam="1">  1       -2 0.25967785E-01 0.14460143E+03</pdfrwt>
<totfact> 0.50923399E+03</totfact>
</mgrwt>
</event>
<event>
 7    1  0.1020736E-005  0.1401716E+03  0.7546771E-02  0.1224146E+00
          2   -1    0    0  501    0  0.00000000000E+00  0.00000000000E+00  0.13139933205E+03  0.13139933205E+03  0.00000000000E+00 0. -1.
         -2   -1    0    0    0  501 -0.00000000000E+00 -0.00000000000E+00 -0.23291007147E+03  0.23291007147E+03  0.00000000000E+00 0.  1.
         23    2    1    2    0    0  0.38560077132E+02  0.50353365720E+02 -0.17404874307E+03  0.20648091922E+03  0.91208903339E+02 0.  0.
          5    1    1    2  502    0  0.14023735444E+02 -0.60288961433E+02 -0.63347485458E+01  0.62399063019E+02  0.47000000000E+01 0.  1.
         -5    1    1    2    0  502 -0.52583812576E+02  0.99355957126E+01  0.78872752200E+02  0.95429421285E+02  0.47000000000E+01 0.  1.
        -11    1    3    3    0    0 -0.27512647137E+02  0.17092391737E+02 -0.28199929527E+02  0.42945682357E+02  0.00000000000E+00 0. -1.
         11    1    3    3    0    0  0.66072724269E+02  0.33260973983E+02 -0.14584881355E+03  0.16353523686E+03  0.00000000000E+00 0.  1.
<mgrwt>
<rscale>  0 0.13225604E+03</rscale>
<asrwt>0</asrwt>
<pdfrwt beam="1">  1        2 0.20215282E-01 0.14017157E+03</pdfrwt>
<pdfrwt beam="2">  1       -2 0.35832319E-01 0.14017157E+03</pdfrwt>
<totfact> 0.19607502E+03</totfact>
</mgrwt>
</event>
<event>
 7    1  0.1020736E-005  0.1460449E+03  0.7546771E-02  0.1213259E+00
         -1   -1    0    0    0  501 -0.00000000000E+00  0.00000000000E+00  0.48944485168E+02  0.48944485168E+02  0.00000000000E+00 0.  1.
          1   -1    0    0  501    0  0.00000000000E+00 -0.00000000000E+00 -0.38180982676E+03  0.38180982676E+03  0.00000000000E+00 0. -1.
         23    2    1    2    0    0  0.65970805829E+02  0.36766952941E+02 -0.11701430955E+03  0.17013817831E+03  0.97727657445E+02 0.  0.
          5    1    1    2  502    0 -0.86884025189E+02  0.16553184938E+02 -0.13205926172E+03  0.15901125863E+03  0.47000000000E+01 0. -1.
         -5    1    1    2    0  502  0.20913219360E+02 -0.53320137880E+02 -0.83791770323E+02  0.10160487499E+03  0.47000000000E+01 0. -1.
        -11    1    3    3    0    0  0.32522994672E+02 -0.14442549213E+02 -0.10074669331E+03  0.10684675298E+03  0.00000000000E+00 0. -1.
         11    1    3    3    0    0  0.33447811157E+02  0.51209502155E+02 -0.16267616240E+02  0.63291425330E+02  0.00000000000E+00 0.  1.
<mgrwt>
<rscale>  0 0.14005222E+03</rscale>
<asrwt>0</asrwt>
<pdfrwt beam="2">  1        1 0.58739973E-01 0.14604486E+03</pdfrwt>
<pdfrwt beam="1">  1       -1 0.75299208E-02 0.14604486E+03</pdfrwt>
<totfact> 0.58512034E+03</totfact>
</mgrwt>
</event>
<event>
 7    1  0.1020736E-005  0.1478353E+03  0.7546771E-02  0.1212822E+00
         -3   -1    0    0    0  501 -0.00000000000E+00  0.00000000000E+00  0.95055194356E+02  0.95055194356E+02  0.00000000000E+00 0.  1.
          3   -1    0    0  501    0  0.00000000000E+00 -0.00000000000E+00 -0.26983085743E+03  0.26983085743E+03  0.00000000000E+00 0. -1.
         23    2    1    2    0    0 -0.60986483610E+02 -0.50117836831E+02  0.18447582619E+02  0.12159509766E+03  0.90630600344E+02 0.  0.
          5    1    1    2  502    0  0.49564532407E+02  0.57662290567E+02 -0.20865906729E+03  0.22213122020E+03  0.47000000000E+01 0.  1.
         -5    1    1    2    0  502  0.11421951203E+02 -0.75444537358E+01  0.15435821596E+02  0.21159733925E+02  0.47000000000E+01 0.  1.
        -11    1    3    3    0    0 -0.47144748793E+02 -0.44677889455E+02 -0.29541466275E+02  0.71354322746E+02  0.00000000000E+00 0. -1.
         11    1    3    3    0    0 -0.13841734817E+02 -0.54399473765E+01  0.47989048894E+02  0.50240774914E+02  0.00000000000E+00 0.  1.
<mgrwt>
<rscale>  0 0.14037780E+03</rscale>
<asrwt>0</asrwt>
<pdfrwt beam="2">  1        3 0.41512439E-01 0.14783527E+03</pdfrwt>
<pdfrwt beam="1">  1       -3 0.14623876E-01 0.14783527E+03</pdfrwt>
<totfact> 0.52590862E+02</totfact>
</mgrwt>
</event>
<event>
 7    1  0.1020736E-005  0.2352648E+03  0.7546771E-02  0.1125583E+00
         -2   -1    0    0    0  501 -0.00000000000E+00  0.00000000000E+00  0.69512474211E+02  0.69512474211E+02  0.00000000000E+00 0.  1.
          2   -1    0    0  501    0  0.00000000000E+00 -0.00000000000E+00 -0.82098488653E+03  0.82098488653E+03  0.00000000000E+00 0. -1.
         23    2    1    2    0    0  0.19661455634E+03 -0.32664429563E+02 -0.23146886748E+03  0.31974943444E+03  0.94538962822E+02 0.  0.
          5    1    1    2  502    0 -0.36054696672E+02 -0.43977033540E+02 -0.13725984112E+03  0.14864815712E+03  0.47000000000E+01 0. -1.
         -5    1    1    2    0  502 -0.16055985967E+03  0.76641463103E+02 -0.38274370372E+03  0.42209976918E+03  0.47000000000E+01 0. -1.
        -11    1    3    3    0    0  0.15391747217E+03 -0.39545224877E+02 -0.22582253677E+03  0.27613444400E+03  0.00000000000E+00 0. -1.
         11    1    3    3    0    0  0.42697084172E+02  0.68807953138E+01 -0.56463307076E+01  0.43614990444E+02  0.00000000000E+00 0.  1.
<mgrwt>
<rscale>  0 0.23150814E+03</rscale>
<asrwt>0</asrwt>
<pdfrwt beam="2">  1        2 0.12630536E+00 0.23526476E+03</pdfrwt>
<pdfrwt beam="1">  1       -2 0.10694227E-01 0.23526476E+03</pdfrwt>
<totfact> 0.20386133E+03</totfact>
</mgrwt>
</event>
<event>
 7    1  0.1020736E-005  0.1537820E+03  0.7546771E-02  0.1204109E+00
          2   -1    0    0  501    0  0.00000000000E+00  0.00000000000E+00  0.10444753594E+03  0.10444753594E+03  0.00000000000E+00 0. -1.
         -2   -1    0    0    0  501 -0.00000000000E+00 -0.00000000000E+00 -0.19167151404E+03  0.19167151404E+03  0.00000000000E+00 0.  1.
         23    2    1    2    0    0 -0.88027770466E+02 -0.16575699258E+02 -0.48734241053E+02  0.13759348482E+03  0.92375855255E+02 0.  0.
          5    1    1    2  502    0 -0.24597626021E+01 -0.43926335751E+02 -0.49158759479E+01  0.44517740744E+02  0.47000000000E+01 0. -1.
         -5    1    1    2    0  502  0.90487533068E+02  0.60502035009E+02 -0.33573861099E+02  0.11400782443E+03  0.47000000000E+01 0. -1.
        -11    1    3    3    0    0 -0.30488665076E+02 -0.37714016115E+02 -0.57993957308E+02  0.75598973498E+02  0.00000000000E+00 0.  1.
         11    1    3    3    0    0 -0.57539105390E+02  0.21138316857E+02  0.92597162551E+01  0.61994511320E+02  0.00000000000E+00 0. -1.
<mgrwt>
<rscale>  0 0.14707931E+03</rscale>
<asrwt>0</asrwt>
<pdfrwt beam="1">  1        2 0.16068852E-01 0.15378197E+03</pdfrwt>
<pdfrwt beam="2">  1       -2 0.29487925E-01 0.15378197E+03</pdfrwt>
<totfact> 0.36591746E+03</totfact>
</mgrwt>
</event>
<event>
 7    1  0.1020736E-005  0.1374627E+03  0.7546771E-02  0.1227697E+00
          2   -1    0    0  501    0  0.00000000000E+00  0.00000000000E+00  0.61347164330E+03  0.61347164330E+03  0.00000000000E+00 0.  1.
         -2   -1    0    0    0  501 -0.00000000000E+00 -0.00000000000E+00 -0.25098372235E+02  0.25098372235E+02  0.00000000000E+00 0. -1.
         23    2    1    2    0    0 -0.41482935645E+00 -0.57203121276E+02  0.29352577310E+03  0.31325320439E+03  0.93262111396E+02 0.  0.
          5    1    1    2  502    0 -0.11032306074E+02  0.63945053388E+02  0.55389523024E+02  0.85444548632E+02  0.47000000000E+01 0. -1.
         -5    1    1    2    0  502  0.11447135430E+02 -0.67419321118E+01  0.23945797495E+03  0.23987226251E+03  0.47000000000E+01 0. -1.
        -11    1    3    3    0    0 -0.38444458615E+02 -0.42094386789E+02  0.23516051386E+03  0.24197186009E+03  0.00000000000E+00 0.  1.
         11    1    3    3    0    0  0.38029629259E+02 -0.15108734487E+02  0.58365259239E+02  0.71281344301E+02  0.00000000000E+00 0. -1.
<mgrwt>
<rscale>  0 0.12983781E+03</rscale>
<asrwt>0</asrwt>
<pdfrwt beam="1">  1        2 0.94380241E-01 0.13746265E+03</pdfrwt>
<pdfrwt beam="2">  1       -2 0.38612885E-02 0.13746265E+03</pdfrwt>
<totfact> 0.13554911E+04</totfact>
</mgrwt>
</event>
<event>
 7    1  0.1020736E-005  0.1449629E+03  0.7546771E-02  0.1216583E+00
          2   -1    0    0  501    0  0.00000000000E+00  0.00000000000E+00  0.26603218508E+02  0.26603218508E+02  0.00000000000E+00 0. -1.
         -2   -1    0    0    0  501 -0.00000000000E+00 -0.00000000000E+00 -0.67274905119E+03  0.67274905119E+03  0.00000000000E+00 0.  1.
         23    2    1    2    0    0 -0.72023313827E+02  0.14158878899E+02 -0.35695167823E+03  0.37585959992E+03  0.92022316197E+02 0.  0.
          5    1    1    2  502    0 -0.26235282533E+02 -0.13695026831E+02 -0.15049936456E+03  0.15345355175E+03  0.47000000000E+01 0. -1.
         -5    1    1    2    0  502  0.98258596360E+02 -0.46385206833E+00 -0.13869478990E+03  0.17003911804E+03  0.47000000000E+01 0. -1.
        -11    1    3    3    0    0 -0.53595045744E+02 -0.19685472799E+02 -0.30954153876E+03  0.31476326181E+03  0.00000000000E+00 0. -1.
         11    1    3    3    0    0 -0.18428268083E+02  0.33844351698E+02 -0.47410139468E+02  0.61096338112E+02  0.00000000000E+00 0.  1.
<mgrwt>
<rscale>  0 0.13760911E+03</rscale>
<asrwt>0</asrwt>
<pdfrwt beam="1">  1        2 0.40928030E-02 0.14496292E+03</pdfrwt>
<pdfrwt beam="2">  1       -2 0.10349985E+00 0.14496292E+03</pdfrwt>
<totfact> 0.15722802E+03</totfact>
</mgrwt>
</event>
<event>
 7    1  0.1020736E-005  0.2808590E+03  0.7546771E-02  0.1095221E+00
          2   -1    0    0  501    0  0.00000000000E+00  0.00000000000E+00  0.67209113576E+03  0.67209113576E+03  0.00000000000E+00 0. -1.
         -2   -1    0    0    0  501 -0.00000000000E+00 -0.00000000000E+00 -0.29341923127E+02  0.29341923127E+02  0.00000000000E+00 0.  1.
         23    2    1    2    0    0  0.11764650556E+02 -0.16349901315E+02  0.20312077091E+02  0.67076194706E+02  0.60670496494E+02 0.  0.
          5    1    1    2  502    0 -0.14393144408E+02  0.79435236696E+01  0.62401538149E+03  0.62424958832E+03  0.47000000000E+01 0. -1.
         -5    1    1    2    0  502  0.26284938519E+01  0.84063776451E+01 -0.15782459538E+01  0.10107275861E+02  0.47000000000E+01 0.  1.
        -11    1    3    3    0    0 -0.46948270845E+01 -0.10913954839E+02  0.39482355920E+02  0.41231204695E+02  0.00000000000E+00 0. -1.
         11    1    3    3    0    0  0.16459477641E+02 -0.54359464755E+01 -0.19170278829E+02  0.25844990011E+02  0.00000000000E+00 0.  1.
<mgrwt>
<rscale>  0 0.28085901E+03</rscale>
<asrwt>0</asrwt>
<pdfrwt beam="1">  1        2 0.10339862E+00 0.28085901E+03</pdfrwt>
<pdfrwt beam="2">  1       -2 0.45141425E-02 0.28085901E+03</pdfrwt>
<totfact> 0.10052727E+04</totfact>
</mgrwt>
</event>
<event>
 7    1  0.1020736E-005  0.1258977E+03  0.7546771E-02  0.1271583E+00
         -1   -1    0    0    0  501 -0.00000000000E+00  0.00000000000E+00  0.96026093040E+02  0.96026093040E+02  0.00000000000E+00 0.  1.
          1   -1    0    0  501    0  0.00000000000E+00 -0.00000000000E+00 -0.89771475284E+02  0.89771475284E+02  0.00000000000E+00 0. -1.
         23    2    1    2    0    0  0.11854377932E+00  0.15013023616E+02  0.88554704643E+01  0.59872974615E+02  0.57279567050E+02 0.  0.
          5    1    1    2  502    0 -0.19873943866E+02 -0.15634297516E+02 -0.59868887770E+02  0.65159639551E+02  0.47000000000E+01 0.  1.
         -5    1    1    2    0  502  0.19755400087E+02  0.62127390049E+00  0.57268035062E+02  0.60764954157E+02  0.47000000000E+01 0.  1.
        -11    1    3    3    0    0 -0.16149334317E+02 -0.12023008868E+02  0.18015913387E+02  0.27017158923E+02  0.00000000000E+00 0. -1.
         11    1    3    3    0    0  0.16267878096E+02  0.27036032484E+02 -0.91604429227E+01  0.32855815692E+02  0.00000000000E+00 0.  1.
<mgrwt>
<rscale>  0 0.10426064E+03</rscale>
<asrwt>0</asrwt>
<pdfrwt beam="2">  1        1 0.13810996E-01 0.12589773E+03</pdfrwt>
<pdfrwt beam="1">  1       -1 0.14773245E-01 0.12589773E+03</pdfrwt>
<totfact> 0.12711087E+04</totfact>
</mgrwt>
</event>
<event>
 7    1  0.1020736E-005  0.1781061E+03  0.7546771E-02  0.1175538E+00
          1   -1    0    0  501    0  0.00000000000E+00  0.00000000000E+00  0.39876458006E+03  0.39876458006E+03  0.00000000000E+00 0. -1.
         -1   -1    0    0    0  501 -0.00000000000E+00 -0.00000000000E+00 -0.69987919112E+02  0.69987919112E+02  0.00000000000E+00 0.  1.
         23    2    1    2    0    0  0.63751106848E+02  0.10969536508E+03  0.14419984190E+03  0.21225614990E+03  0.90342692118E+02 0.  0.
          5    1    1    2  502    0 -0.62010713628E+02 -0.12520243735E+03  0.19287403741E+03  0.23820886472E+03  0.47000000000E+01 0.  1.
         -5    1    1    2    0  502 -0.17403932194E+01  0.15507072269E+02 -0.82972183648E+01  0.18287484559E+02  0.47000000000E+01 0.  1.
        -11    1    3    3    0    0  0.81183091383E+02  0.62363504294E+02  0.11504074160E+03  0.15399439348E+03  0.00000000000E+00 0.  1.
         11    1    3    3    0    0 -0.17431984536E+02  0.47331860788E+02  0.29159100300E+02  0.58261756417E+02  0.00000000000E+00 0. -1.
<mgrwt>
<rscale>  0 0.17223378E+03</rscale>
<asrwt>0</asrwt>
<pdfrwt beam="1">  1        1 0.61348396E-01 0.17810608E+03</pdfrwt>
<pdfrwt beam="2">  1       -1 0.10767372E-01 0.17810608E+03</pdfrwt>
<totfact> 0.32413573E+03</totfact>
</mgrwt>
</event>
<event>
 7    1  0.1020736E-005  0.3444478E+03  0.7546771E-02  0.1066047E+00
         -2   -1    0    0    0  501 -0.00000000000E+00  0.00000000000E+00  0.33546733830E+03  0.33546733830E+03  0.00000000000E+00 0.  1.
          2   -1    0    0  501    0  0.00000000000E+00 -0.00000000000E+00 -0.46965208345E+03  0.46965208345E+03  0.00000000000E+00 0. -1.
         23    2    1    2    0    0 -0.12249113960E+03  0.29667019565E+03  0.14282024252E+03  0.36310578595E+03  0.91819964332E+02 0.  0.
          5    1    1    2  502    0  0.22121222098E+02 -0.50566483758E+02  0.35715288002E+01  0.55508229702E+02  0.47000000000E+01 0. -1.
         -5    1    1    2    0  502  0.10036991750E+03 -0.24610371190E+03 -0.28057651646E+03  0.38650540609E+03  0.47000000000E+01 0. -1.
        -11    1    3    3    0    0 -0.58144563017E+02  0.55112659211E+02  0.58823255832E+02  0.99389993664E+02  0.00000000000E+00 0.  1.
         11    1    3    3    0    0 -0.64346576580E+02  0.24155753644E+03  0.83996986683E+02  0.26371579229E+03  0.00000000000E+00 0. -1.
<mgrwt>
<rscale>  0 0.34176430E+03</rscale>
<asrwt>0</asrwt>
<pdfrwt beam="2">  1        2 0.72254166E-01 0.34444781E+03</pdfrwt>
<pdfrwt beam="1">  1       -2 0.51610360E-01 0.34444781E+03</pdfrwt>
<totfact> 0.24146030E+02</totfact>
</mgrwt>
</event>
<event>
 7    1  0.1020736E-005  0.1322845E+03  0.7546771E-02  0.1237350E+00
          2   -1    0    0  501    0  0.00000000000E+00  0.00000000000E+00  0.81758454945E+02  0.81758454945E+02  0.00000000000E+00 0. -1.
         -2   -1    0    0    0  501 -0.00000000000E+00 -0.00000000000E+00 -0.22169998087E+03  0.22169998087E+03  0.00000000000E+00 0.  1.
         23    2    1    2    0    0  0.39221582068E+02 -0.18350590038E+02 -0.13843668148E+03  0.17116534026E+03  0.90872340517E+02 0.  0.
          5    1    1    2  502    0  0.11706965593E+02  0.15604738931E+02  0.53496856057E+02  0.57136367827E+02  0.47000000000E+01 0. -1.
         -5    1    1    2    0  502 -0.50928547660E+02  0.27458511075E+01 -0.55001700499E+02  0.75156727728E+02  0.47000000000E+01 0. -1.
        -11    1    3    3    0    0  0.58435433351E+02  0.15888237836E+02 -0.72932072337E+02  0.94795691610E+02  0.00000000000E+00 0. -1.
         11    1    3    3    0    0 -0.19213851283E+02 -0.34238827874E+02 -0.65504609143E+02  0.76369648646E+02  0.00000000000E+00 0.  1.
<mgrwt>
<rscale>  0 0.12355158E+03</rscale>
<asrwt>0</asrwt>
<pdfrwt beam="1">  1        2 0.12578224E-01 0.13228454E+03</pdfrwt>
<pdfrwt beam="2">  1       -2 0.34107689E-01 0.13228454E+03</pdfrwt>
<totfact> 0.37168033E+03</totfact>
</mgrwt>
</event>
<event>
 7    1  0.1020736E-005  0.1433168E+03  0.7546771E-02  0.1218769E+00
         -4   -1    0    0    0  501 -0.00000000000E+00  0.00000000000E+00  0.47980380195E+02  0.47980380195E+02  0.00000000000E+00 0.  1.
          4   -1    0    0  501    0  0.00000000000E+00 -0.00000000000E+00 -0.45863254466E+03  0.45863254466E+03  0.00000000000E+00 0. -1.
         23    2    1    2    0    0  0.68443203494E+02 -0.15212861929E+02 -0.66929615032E+02  0.13420869984E+03  0.92825096139E+02 0.  0.
          5    1    1    2  502    0 -0.58680101477E+02  0.52483773993E+02 -0.31334018139E+03  0.32311307636E+03  0.47000000000E+01 0. -1.
         -5    1    1    2    0  502 -0.97631020169E+01 -0.37270912064E+02 -0.30382368039E+02  0.49291148645E+02  0.47000000000E+01 0. -1.
        -11    1    3    3    0    0  0.91512641952E+02 -0.74580276468E+01 -0.49851518138E+02  0.10447659869E+03  0.00000000000E+00 0. -1.
         11    1    3    3    0    0 -0.23069438458E+02 -0.77548342818E+01 -0.17078096893E+02  0.29732101154E+02  0.00000000000E+00 0.  1.
<mgrwt>
<rscale>  0 0.13603316E+03</rscale>
<asrwt>0</asrwt>
<pdfrwt beam="2">  1        4 0.70558854E-01 0.14331684E+03</pdfrwt>
<pdfrwt beam="1">  1       -4 0.73815969E-02 0.14331684E+03</pdfrwt>
<totfact> 0.39734111E+02</totfact>
</mgrwt>
</event>
<event>
 7    1  0.1020736E-005  0.1272107E+03  0.7546771E-02  0.1246748E+00
          2   -1    0    0  501    0  0.00000000000E+00  0.00000000000E+00  0.47502213548E+02  0.47502213548E+02  0.00000000000E+00 0.  1.
         -2   -1    0    0    0  501 -0.00000000000E+00 -0.00000000000E+00 -0.25716741416E+03  0.25716741416E+03  0.00000000000E+00 0. -1.
         23    2    1    2    0    0 -0.12053922558E+02  0.20074485390E+02 -0.96136612490E+02  0.13416652734E+03  0.90609749936E+02 0.  0.
          5    1    1    2  502    0  0.25358976730E+02  0.28674180778E+02 -0.11337287266E+03  0.11975301499E+03  0.47000000000E+01 0.  1.
         -5    1    1    2    0  502 -0.13305054172E+02 -0.48748666168E+02 -0.15571546937E+00  0.50750085389E+02  0.47000000000E+01 0.  1.
        -11    1    3    3    0    0  0.11076285504E+02  0.28166345083E+02 -0.10409193371E+03  0.10840275715E+03  0.00000000000E+00 0. -1.
         11    1    3    3    0    0 -0.23130208061E+02 -0.80918596927E+01  0.79553212171E+01  0.25763770180E+02  0.00000000000E+00 0.  1.
<mgrwt>
<rscale>  0 0.11781374E+03</rscale>
<asrwt>0</asrwt>
<pdfrwt beam="1">  1        2 0.73080330E-02 0.12721072E+03</pdfrwt>
<pdfrwt beam="2">  1       -2 0.39564217E-01 0.12721072E+03</pdfrwt>
<totfact> 0.54842904E+03</totfact>
</mgrwt>
</event>
<event>
 7    1  0.1020736E-005  0.1339092E+03  0.7546771E-02  0.1234889E+00
         -1   -1    0    0    0  501 -0.00000000000E+00  0.00000000000E+00  0.53249492783E+02  0.53249492783E+02  0.00000000000E+00 0.  1.
          1   -1    0    0  501    0  0.00000000000E+00 -0.00000000000E+00 -0.32933594089E+03  0.32933594089E+03  0.00000000000E+00 0. -1.
         23    2    1    2    0    0  0.47577670222E+02  0.65565598997E+01 -0.36996113952E+02  0.10854920007E+03  0.90042174602E+02 0.  0.
          5    1    1    2  502    0  0.32337458275E+01 -0.56546549392E+02 -0.14617503499E+03  0.15683494577E+03  0.47000000000E+01 0. -1.
         -5    1    1    2    0  502 -0.50811416050E+02  0.49989989492E+02 -0.92915299161E+02  0.11720128783E+03  0.47000000000E+01 0. -1.
        -11    1    3    3    0    0 -0.10778659341E+02  0.18620165049E+02  0.17549168938E+02  0.27764426414E+02  0.00000000000E+00 0.  1.
         11    1    3    3    0    0  0.58356329563E+02 -0.12063605150E+02 -0.54545282890E+02  0.80784773658E+02  0.00000000000E+00 0. -1.
<mgrwt>
<rscale>  0 0.12511549E+03</rscale>
<asrwt>0</asrwt>
<pdfrwt beam="2">  1        1 0.50667068E-01 0.13390918E+03</pdfrwt>
<pdfrwt beam="1">  1       -1 0.81922297E-02 0.13390918E+03</pdfrwt>
<totfact> 0.61665268E+03</totfact>
</mgrwt>
</event>
<event>
 7    1  0.1020736E-005  0.1436899E+03  0.7546771E-02  0.1218216E+00
          1   -1    0    0  501    0  0.00000000000E+00  0.00000000000E+00  0.77626799263E+03  0.77626799263E+03  0.00000000000E+00 0. -1.
         -1   -1    0    0    0  501 -0.00000000000E+00 -0.00000000000E+00 -0.22244092593E+02  0.22244092593E+02  0.00000000000E+00 0.  1.
         23    2    1    2    0    0 -0.28408046134E+02 -0.64929154248E+02  0.28579690128E+03  0.30873324316E+03  0.92809129381E+02 0.  0.
          5    1    1    2  502    0  0.62440624029E+02  0.65294078936E+01  0.32864663366E+03  0.33462242082E+03  0.47000000000E+01 0.  1.
         -5    1    1    2    0  502 -0.34032577895E+02  0.58399746355E+02  0.13958036510E+03  0.15515642125E+03  0.47000000000E+01 0.  1.
        -11    1    3    3    0    0  0.28250535789E+01 -0.72688183330E+02  0.25103176705E+03  0.26135895047E+03  0.00000000000E+00 0. -1.
         11    1    3    3    0    0 -0.31233099713E+02  0.77590290821E+01  0.34765134229E+02  0.47374292691E+02  0.00000000000E+00 0.  1.
<mgrwt>
<rscale>  0 0.13642909E+03</rscale>
<asrwt>0</asrwt>
<pdfrwt beam="1">  1        1 0.11942582E+00 0.14368992E+03</pdfrwt>
<pdfrwt beam="2">  1       -1 0.34221687E-02 0.14368992E+03</pdfrwt>
<totfact> 0.72502800E+03</totfact>
</mgrwt>
</event>
<event>
 7    1  0.1020736E-005  0.1721920E+03  0.7546771E-02  0.1181589E+00
          2   -1    0    0  501    0  0.00000000000E+00  0.00000000000E+00  0.14336413771E+03  0.14336413771E+03  0.00000000000E+00 0. -1.
         -2   -1    0    0    0  501 -0.00000000000E+00 -0.00000000000E+00 -0.21572989192E+03  0.21572989192E+03  0.00000000000E+00 0.  1.
         23    2    1    2    0    0 -0.11096800362E+03  0.41368333941E+02 -0.10555028102E+03  0.18373356210E+03  0.92692627198E+02 0.  0.
          5    1    1    2  502    0  0.49455274185E+02 -0.79342997644E+01  0.77479870532E+02  0.92379638423E+02  0.47000000000E+01 0. -1.
         -5    1    1    2    0  502  0.61512729432E+02 -0.33434034177E+02 -0.44295343718E+02  0.82980829103E+02  0.47000000000E+01 0. -1.
        -11    1    3    3    0    0 -0.34486193610E+02 -0.17560766874E+02  0.25613301731E+01  0.38784513599E+02  0.00000000000E+00 0. -1.
         11    1    3    3    0    0 -0.76481810007E+02  0.58929100815E+02 -0.10811161120E+03  0.14494904850E+03  0.00000000000E+00 0.  1.
<mgrwt>
<rscale>  0 0.16646175E+03</rscale>
<asrwt>0</asrwt>
<pdfrwt beam="1">  1        2 0.22056021E-01 0.17219199E+03</pdfrwt>
<pdfrwt beam="2">  1       -2 0.33189214E-01 0.17219199E+03</pdfrwt>
<totfact> 0.20647904E+03</totfact>
</mgrwt>
</event>
<event>
 7    1  0.1020736E-005  0.1853630E+03  0.7546771E-02  0.1168309E+00
          2   -1    0    0  501    0  0.00000000000E+00  0.00000000000E+00  0.17062182708E+04  0.17062182708E+04  0.00000000000E+00 0. -1.
         -2   -1    0    0    0  501 -0.00000000000E+00 -0.00000000000E+00 -0.19059610034E+02  0.19059610034E+02  0.00000000000E+00 0.  1.
         23    2    1    2    0    0  0.87238436225E+02  0.10547113326E+03  0.56924714994E+03  0.59210287766E+03  0.88367388279E+02 0.  0.
          5    1    1    2  502    0  0.14682148777E+02 -0.24446934042E+02  0.53940421175E+03  0.54017794450E+03  0.47000000000E+01 0. -1.
         -5    1    1    2    0  502 -0.10192058500E+03 -0.81024199216E+02  0.57850729908E+03  0.59299705867E+03  0.47000000000E+01 0. -1.
        -11    1    3    3    0    0  0.62117258704E+02  0.87556450874E+02  0.53639889548E+03  0.54703606918E+03  0.00000000000E+00 0. -1.
         11    1    3    3    0    0  0.25121177521E+02  0.17914682384E+02  0.32848254466E+02  0.45066808478E+02  0.00000000000E+00 0.  1.
<mgrwt>
<rscale>  0 0.17947835E+03</rscale>
<asrwt>0</asrwt>
<pdfrwt beam="1">  1        2 0.26249500E+00 0.18536300E+03</pdfrwt>
<pdfrwt beam="2">  1       -2 0.29322490E-02 0.18536300E+03</pdfrwt>
<totfact> 0.46253792E+03</totfact>
</mgrwt>
</event>
<event>
 7    1  0.1020736E-005  0.1300147E+03  0.7546771E-02  0.1241462E+00
          3   -1    0    0  501    0  0.00000000000E+00  0.00000000000E+00  0.54837284823E+03  0.54837284823E+03  0.00000000000E+00 0. -1.
         -3   -1    0    0    0  501 -0.00000000000E+00 -0.00000000000E+00 -0.33956615202E+02  0.33956615202E+02  0.00000000000E+00 0.  1.
         23    2    1    2    0    0 -0.33120916094E+02  0.13471768867E+02  0.72050472388E+02  0.12125322233E+03  0.90733619544E+02 0.  0.
          5    1    1    2  502    0 -0.66565068933E+01  0.51332671279E+02  0.14245459190E+03  0.15164020898E+03  0.47000000000E+01 0. -1.
         -5    1    1    2    0  502  0.39777422988E+02 -0.64804440145E+02  0.29991116873E+03  0.30943603212E+03  0.47000000000E+01 0. -1.
        -11    1    3    3    0    0  0.16157809186E+02  0.25550312555E+02  0.62775044791E+02  0.69674956174E+02  0.00000000000E+00 0.  1.
         11    1    3    3    0    0 -0.49278725281E+02 -0.12078543688E+02  0.92754275977E+01  0.51578266160E+02  0.00000000000E+00 0. -1.
<mgrwt>
<rscale>  0 0.12099659E+03</rscale>
<asrwt>0</asrwt>
<pdfrwt beam="1">  1        3 0.84365047E-01 0.13001475E+03</pdfrwt>
<pdfrwt beam="2">  1       -3 0.52240950E-02 0.13001475E+03</pdfrwt>
<totfact> 0.64954279E+02</totfact>
</mgrwt>
</event>
<event>
 7    1  0.1020736E-005  0.1416234E+03  0.7546771E-02  0.1222114E+00
          1   -1    0    0  501    0  0.00000000000E+00  0.00000000000E+00  0.81378644180E+03  0.81378644180E+03  0.00000000000E+00 0. -1.
         -1   -1    0    0    0  501 -0.00000000000E+00 -0.00000000000E+00 -0.21163702855E+02  0.21163702855E+02  0.00000000000E+00 0.  1.
         23    2    1    2    0    0 -0.39510594048E+02 -0.53572355703E+02  0.24905292621E+03  0.27323372433E+03  0.90544042978E+02 0.  0.
          5    1    1    2  502    0  0.36699341698E+02 -0.31552067134E+02  0.11701312387E+03  0.12671438663E+03  0.47000000000E+01 0. -1.
         -5    1    1    2    0  502  0.28112523501E+01  0.85124422837E+02  0.42655668886E+03  0.43500203369E+03  0.47000000000E+01 0. -1.
        -11    1    3    3    0    0  0.50760676779E+01 -0.38996187349E+02  0.30673931396E+02  0.49873431385E+02  0.00000000000E+00 0.  1.
         11    1    3    3    0    0 -0.44586661726E+02 -0.14576168355E+02  0.21837899481E+03  0.22336029294E+03  0.00000000000E+00 0. -1.
<mgrwt>
<rscale>  0 0.13366687E+03</rscale>
<asrwt>0</asrwt>
<pdfrwt beam="1">  1        1 0.12519789E+00 0.14162343E+03</pdfrwt>
<pdfrwt beam="2">  1       -1 0.32559549E-02 0.14162343E+03</pdfrwt>
<totfact> 0.72573412E+03</totfact>
</mgrwt>
</event>
<event>
 7    1  0.1020736E-005  0.1301343E+03  0.7546771E-02  0.1242550E+00
          2   -1    0    0  501    0  0.00000000000E+00  0.00000000000E+00  0.67432327523E+03  0.67432327523E+03  0.00000000000E+00 0. -1.
         -2   -1    0    0    0  501 -0.00000000000E+00 -0.00000000000E+00 -0.18876095486E+02  0.18876095486E+02  0.00000000000E+00 0.  1.
         23    2    1    2    0    0 -0.30385112905E+02  0.19699055714E+02  0.25734514154E+03  0.27436744990E+03  0.87975381819E+02 0.  0.
          5    1    1    2  502    0 -0.34668685984E+01 -0.98567666115E+01  0.37761267129E+03  0.37778644040E+03  0.47000000000E+01 0.  1.
         -5    1    1    2    0  502  0.33851981504E+02 -0.98422891025E+01  0.20489366905E+02  0.41045480417E+02  0.47000000000E+01 0.  1.
        -11    1    3    3    0    0 -0.16886860893E+02 -0.31746325649E+02  0.15396090455E+03  0.15810425482E+03  0.00000000000E+00 0. -1.
         11    1    3    3    0    0 -0.13498252012E+02  0.51445381363E+02  0.10338423699E+03  0.11626319508E+03  0.00000000000E+00 0.  1.
<mgrwt>
<rscale>  0 0.12033192E+03</rscale>
<asrwt>0</asrwt>
<pdfrwt beam="1">  1        2 0.10374202E+00 0.13013433E+03</pdfrwt>
<pdfrwt beam="2">  1       -2 0.29040152E-02 0.13013433E+03</pdfrwt>
<totfact> 0.18418030E+04</totfact>
</mgrwt>
</event>
<event>
 7    1  0.1020736E-005  0.1290903E+03  0.7546771E-02  0.1238015E+00
         -1   -1    0    0    0  501 -0.00000000000E+00  0.00000000000E+00  0.36544786062E+02  0.36544786062E+02  0.00000000000E+00 0.  1.
          1   -1    0    0  501    0  0.00000000000E+00 -0.00000000000E+00 -0.10110822243E+04  0.10110822243E+04  0.00000000000E+00 0. -1.
         23    2    1    2    0    0 -0.47341927842E+02 -0.14271933537E+02 -0.57118464367E+02  0.12117037843E+03  0.94735396858E+02 0.  0.
          5    1    1    2  502    0  0.64287721686E+02  0.41737230664E+02 -0.36072730887E+03  0.36881050548E+03  0.47000000000E+01 0. -1.
         -5    1    1    2    0  502 -0.16945793844E+02 -0.27465297127E+02 -0.55669166504E+03  0.55764612650E+03  0.47000000000E+01 0.  1.
        -11    1    3    3    0    0 -0.31672010525E+02 -0.13379510328E+02 -0.83596058009E+02  0.90390422402E+02  0.00000000000E+00 0. -1.
         11    1    3    3    0    0 -0.15669917317E+02 -0.89242320898E+00  0.26477593641E+02  0.30779956025E+02  0.00000000000E+00 0.  1.
<mgrwt>
<rscale>  0 0.12313382E+03</rscale>
<asrwt>0</asrwt>
<pdfrwt beam="2">  1        1 0.15555110E+00 0.12909035E+03</pdfrwt>
<pdfrwt beam="1">  1       -1 0.56222753E-02 0.12909035E+03</pdfrwt>
<totfact> 0.22868743E+03</totfact>
</mgrwt>
</event>
<event>
 7    1  0.1020736E-005  0.1928852E+03  0.7546771E-02  0.1161142E+00
          1   -1    0    0  501    0  0.00000000000E+00  0.00000000000E+00  0.57761133749E+02  0.57761133749E+02  0.00000000000E+00 0. -1.
         -1   -1    0    0    0  501 -0.00000000000E+00 -0.00000000000E+00 -0.62626201567E+03  0.62626201567E+03  0.00000000000E+00 0.  1.
         23    2    1    2    0    0 -0.28753077971E+02  0.14406004429E+03 -0.36895683652E+03  0.40649385285E+03  0.86764447426E+02 0.  0.
          5    1    1    2  502    0 -0.35642816416E+02 -0.11642604311E+03 -0.11417689068E+03  0.16698468864E+03  0.47000000000E+01 0. -1.
         -5    1    1    2    0  502  0.64395894388E+02 -0.27634001181E+02 -0.85367154725E+02  0.11054460792E+03  0.47000000000E+01 0. -1.
        -11    1    3    3    0    0  0.81683382688E+01  0.12721547820E+03 -0.30716592794E+03  0.33256789823E+03  0.00000000000E+00 0.  1.
         11    1    3    3    0    0 -0.36921416240E+02  0.16844566089E+02 -0.61790908579E+02  0.73925954623E+02  0.00000000000E+00 0. -1.
<mgrwt>
<rscale>  0 0.18705781E+03</rscale>
<asrwt>0</asrwt>
<pdfrwt beam="1">  1        1 0.88863282E-02 0.19288516E+03</pdfrwt>
<pdfrwt beam="2">  1       -1 0.96348003E-01 0.19288516E+03</pdfrwt>
<totfact> 0.82064953E+02</totfact>
</mgrwt>
</event>
<event>
 7    1  0.1020736E-005  0.1453327E+03  0.7546771E-02  0.1215718E+00
          2   -1    0    0  501    0  0.00000000000E+00  0.00000000000E+00  0.10813722725E+04  0.10813722725E+04  0.00000000000E+00 0. -1.
         -2   -1    0    0    0  501 -0.00000000000E+00 -0.00000000000E+00 -0.16198096378E+02  0.16198096378E+02  0.00000000000E+00 0.  1.
         23    2    1    2    0    0  0.29625480588E+02  0.67945793238E+02  0.44976209436E+03  0.46523057313E+03  0.93055062955E+02 0.  0.
          5    1    1    2  502    0 -0.39859680030E+02 -0.53197352138E+01  0.49037234676E+03  0.49204087446E+03  0.47000000000E+01 0. -1.
         -5    1    1    2    0  502  0.10234199443E+02 -0.62626058024E+02  0.12503973500E+03  0.14029892127E+03  0.47000000000E+01 0. -1.
        -11    1    3    3    0    0 -0.10539277278E+02 -0.60276012893E+01  0.59759267582E+01  0.13532185466E+02  0.00000000000E+00 0.  1.
         11    1    3    3    0    0  0.40164757866E+02  0.73973394528E+02  0.44378616760E+03  0.45169838767E+03  0.00000000000E+00 0. -1.
<mgrwt>
<rscale>  0 0.13823901E+03</rscale>
<asrwt>0</asrwt>
<pdfrwt beam="1">  1        2 0.16636491E+00 0.14533268E+03</pdfrwt>
<pdfrwt beam="2">  1       -2 0.24920157E-02 0.14533268E+03</pdfrwt>
<totfact> 0.12645746E+04</totfact>
</mgrwt>
</event>
<event>
 7    1  0.1020736E-005  0.2127344E+03  0.7546771E-02  0.1143065E+00
          1   -1    0    0  501    0  0.00000000000E+00  0.00000000000E+00  0.36819255995E+03  0.36819255995E+03  0.00000000000E+00 0. -1.
         -1   -1    0    0    0  501 -0.00000000000E+00 -0.00000000000E+00 -0.13981943140E+03  0.13981943140E+03  0.00000000000E+00 0.  1.
         23    2    1    2    0    0 -0.11091715932E+03 -0.13164098312E+03 -0.14201341987E+01  0.19486524682E+03  0.91315294289E+02 0.  0.
          5    1    1    2  502    0  0.33389003794E+02  0.42851853000E+02  0.17458169165E+03  0.18289878059E+03  0.47000000000E+01 0.  1.
         -5    1    1    2    0  502  0.77528155523E+02  0.88789130116E+02  0.55211571097E+02  0.13024796393E+03  0.47000000000E+01 0.  1.
        -11    1    3    3    0    0 -0.92192180369E+02 -0.12891111689E+03 -0.29299484036E+02  0.16117051202E+03  0.00000000000E+00 0.  1.
         11    1    3    3    0    0 -0.18724978949E+02 -0.27298662258E+01  0.27879349837E+02  0.33694734805E+02  0.00000000000E+00 0. -1.
<mgrwt>
<rscale>  0 0.20811772E+03</rscale>
<asrwt>0</asrwt>
<pdfrwt beam="1">  1        1 0.56645009E-01 0.21273444E+03</pdfrwt>
<pdfrwt beam="2">  1       -1 0.21510682E-01 0.21273444E+03</pdfrwt>
<totfact> 0.12033720E+03</totfact>
</mgrwt>
</event>
<event>
 7    1  0.1020736E-005  0.1328219E+03  0.7546771E-02  0.1236557E+00
         -3   -1    0    0    0  501 -0.00000000000E+00  0.00000000000E+00  0.12406746863E+03  0.12406746863E+03  0.00000000000E+00 0.  1.
          3   -1    0    0  501    0  0.00000000000E+00 -0.00000000000E+00 -0.11054757157E+03  0.11054757157E+03  0.00000000000E+00 0. -1.
         23    2    1    2    0    0 -0.44001695017E+02 -0.90145847518E+01  0.12044506692E+02  0.10178496460E+03  0.90541134153E+02 0.  0.
          5    1    1    2  502    0  0.35876533562E+02  0.61999949932E+02 -0.20576211934E+02  0.74676568947E+02  0.47000000000E+01 0.  1.
         -5    1    1    2    0  502  0.81251614551E+01 -0.52985365181E+02  0.22051602307E+02  0.58153506655E+02  0.47000000000E+01 0.  1.
        -11    1    3    3    0    0  0.21867220140E+02 -0.94579562866E+01 -0.17530761626E+02  0.29579652753E+02  0.00000000000E+00 0. -1.
         11    1    3    3    0    0 -0.65868915157E+02  0.44337153477E+00  0.29575268318E+02  0.72205311843E+02  0.00000000000E+00 0.  1.
<mgrwt>
<rscale>  0 0.12405309E+03</rscale>
<asrwt>0</asrwt>
<pdfrwt beam="2">  1        3 0.17007319E-01 0.13282188E+03</pdfrwt>
<pdfrwt beam="1">  1       -3 0.19087303E-01 0.13282188E+03</pdfrwt>
<totfact> 0.16647289E+03</totfact>
</mgrwt>
</event>
<event>
 7    1  0.1020736E-005  0.1285966E+03  0.7546771E-02  0.1243744E+00
          2   -1    0    0  501    0  0.00000000000E+00  0.00000000000E+00  0.12074889240E+03  0.12074889240E+03  0.00000000000E+00 0. -1.
         -2   -1    0    0    0  501 -0.00000000000E+00 -0.00000000000E+00 -0.10749097166E+03  0.10749097166E+03  0.00000000000E+00 0.  1.
         23    2    1    2    0    0  0.96551737158E+01  0.28604478874E+02 -0.12622468609E+02  0.97064835143E+02  0.91382804271E+02 0.  0.
          5    1    1    2  502    0  0.22427880680E+02 -0.34806604836E+02 -0.39824961783E+02  0.57642234109E+02  0.47000000000E+01 0.  1.
         -5    1    1    2    0  502 -0.32083054396E+02  0.62021259624E+01  0.65705351133E+02  0.73532794815E+02  0.47000000000E+01 0.  1.
        -11    1    3    3    0    0 -0.17862041804E+02 -0.24201552785E+02  0.12322235751E+02  0.32505463979E+02  0.00000000000E+00 0. -1.
         11    1    3    3    0    0  0.27517215519E+02  0.52806031658E+02 -0.24944704360E+02  0.64559371164E+02  0.00000000000E+00 0.  1.
<mgrwt>
<rscale>  0 0.11960843E+03</rscale>
<asrwt>0</asrwt>
<pdfrwt beam="1">  1        2 0.18576753E-01 0.12859663E+03</pdfrwt>
<pdfrwt beam="2">  1       -2 0.16537072E-01 0.12859663E+03</pdfrwt>
<totfact> 0.82673322E+03</totfact>
</mgrwt>
</event>
<event>
 7    1  0.1020736E-005  0.1253818E+03  0.7546771E-02  0.1249812E+00
         -2   -1    0    0    0  501 -0.00000000000E+00  0.00000000000E+00  0.57855253567E+02  0.57855253567E+02  0.00000000000E+00 0.  1.
          2   -1    0    0  501    0  0.00000000000E+00 -0.00000000000E+00 -0.22907524499E+03  0.22907524499E+03  0.00000000000E+00 0. -1.
         23    2    1    2    0    0 -0.69551059026E+01  0.68769765806E+01 -0.26949899265E+02  0.95790627731E+02  0.91399567754E+02 0.  0.
          5    1    1    2  502    0  0.35201583839E+02 -0.68217849485E+00 -0.15569373368E+03  0.15969422526E+03  0.47000000000E+01 0. -1.
         -5    1    1    2    0  502 -0.28246477936E+02 -0.61947980857E+01  0.11423641530E+02  0.31445645564E+02  0.47000000000E+01 0. -1.
        -11    1    3    3    0    0 -0.85570558759E+01 -0.19400608140E+02  0.27845131551E+02  0.34999402175E+02  0.00000000000E+00 0.  1.
         11    1    3    3    0    0  0.16019499733E+01  0.26277584720E+02 -0.54795030817E+02  0.60791225556E+02  0.00000000000E+00 0. -1.
<mgrwt>
<rscale>  0 0.11601924E+03</rscale>
<asrwt>0</asrwt>
<pdfrwt beam="2">  1        2 0.35242346E-01 0.12538178E+03</pdfrwt>
<pdfrwt beam="1">  1       -2 0.89008081E-02 0.12538178E+03</pdfrwt>
<totfact> 0.10978983E+04</totfact>
</mgrwt>
</event>
<event>
 7    1  0.1020736E-005  0.1372931E+03  0.7546771E-02  0.1229263E+00
         -1   -1    0    0    0  501 -0.00000000000E+00  0.00000000000E+00  0.67091423131E+02  0.67091423131E+02  0.00000000000E+00 0. -1.
          1   -1    0    0  501    0  0.00000000000E+00 -0.00000000000E+00 -0.30170484513E+03  0.30170484513E+03  0.00000000000E+00 0.  1.
         23    2    1    2    0    0  0.29236816892E+02  0.48680777679E+02 -0.11641194994E+02  0.10694514560E+03  0.89872894523E+02 0.  0.
          5    1    1    2  502    0 -0.13487311064E+01  0.41360458112E+02 -0.85443536353E+02  0.95053639990E+02  0.47000000000E+01 0.  1.
         -5    1    1    2    0  502 -0.27888085786E+02 -0.90041235791E+02 -0.13752869065E+03  0.16679748267E+03  0.47000000000E+01 0.  1.
        -11    1    3    3    0    0  0.33272566361E+02  0.18389360596E+02 -0.46843768670E+02  0.60328856434E+02  0.00000000000E+00 0.  1.
         11    1    3    3    0    0 -0.40357494693E+01  0.30291417083E+02  0.35202573675E+02  0.46616289171E+02  0.00000000000E+00 0. -1.
<mgrwt>
<rscale>  0 0.12878929E+03</rscale>
<asrwt>0</asrwt>
<pdfrwt beam="2">  1        1 0.46416130E-01 0.13729310E+03</pdfrwt>
<pdfrwt beam="1">  1       -1 0.10321757E-01 0.13729310E+03</pdfrwt>
<totfact> 0.48462042E+03</totfact>
</mgrwt>
</event>
<event>
 7    1  0.1020736E-005  0.1788966E+03  0.7546771E-02  0.1177742E+00
         -1   -1    0    0    0  501 -0.00000000000E+00  0.00000000000E+00  0.58794798654E+03  0.58794798654E+03  0.00000000000E+00 0.  1.
          1   -1    0    0  501    0  0.00000000000E+00 -0.00000000000E+00 -0.46571248631E+02  0.46571248631E+02  0.00000000000E+00 0. -1.
         23    2    1    2    0    0 -0.78114890292E+02  0.75185548858E+02  0.30340177580E+03  0.33680110279E+03  0.98120040966E+02 0.  0.
          5    1    1    2  502    0  0.30748201558E+02 -0.19780742260E+01  0.20014004394E+03  0.20255244226E+03  0.47000000000E+01 0. -1.
         -5    1    1    2    0  502  0.47366688735E+02 -0.73207474632E+02  0.37834918169E+02  0.95165690122E+02  0.47000000000E+01 0.  1.
        -11    1    3    3    0    0 -0.59267797894E+01  0.31427894893E+02  0.13247836490E+02  0.34617112354E+02  0.00000000000E+00 0.  1.
         11    1    3    3    0    0 -0.72188110503E+02  0.43757653965E+02  0.29015393931E+03  0.30218399043E+03  0.00000000000E+00 0. -1.
<mgrwt>
<rscale>  0 0.17010165E+03</rscale>
<asrwt>0</asrwt>
<pdfrwt beam="2">  1        1 0.71648079E-02 0.17889663E+03</pdfrwt>
<pdfrwt beam="1">  1       -1 0.90453531E-01 0.17889663E+03</pdfrwt>
<totfact> 0.12567032E+03</totfact>
</mgrwt>
</event>
<event>
 7    1  0.1020736E-005  0.1324251E+03  0.7546771E-02  0.1237222E+00
          2   -1    0    0  501    0  0.00000000000E+00  0.00000000000E+00  0.39660468068E+03  0.39660468068E+03  0.00000000000E+00 0. -1.
         -2   -1    0    0    0  501 -0.00000000000E+00 -0.00000000000E+00 -0.44652735525E+02  0.44652735525E+02  0.00000000000E+00 0.  1.
         23    2    1    2    0    0 -0.27257510575E+02 -0.34182621730E+02  0.51728919567E+02  0.11312592464E+03  0.90609989482E+02 0.  0.
          5    1    1    2  502    0  0.71157963997E+02  0.31376715091E+02  0.24659729483E+03  0.25861219984E+03  0.47000000000E+01 0. -1.
         -5    1    1    2    0  502 -0.43900453421E+02  0.28059066391E+01  0.53625730754E+02  0.69519291722E+02  0.47000000000E+01 0. -1.
        -11    1    3    3    0    0  0.28061823831E+02 -0.26708582351E+02  0.40765872252E+02  0.56237626803E+02  0.00000000000E+00 0.  1.
         11    1    3    3    0    0 -0.55319334407E+02 -0.74740393787E+01  0.10963047315E+02  0.56888297832E+02  0.00000000000E+00 0. -1.
<mgrwt>
<rscale>  0 0.12363285E+03</rscale>
<asrwt>0</asrwt>
<pdfrwt beam="1">  1        2 0.61016102E-01 0.13242511E+03</pdfrwt>
<pdfrwt beam="2">  1       -2 0.68696519E-02 0.13242511E+03</pdfrwt>
<totfact> 0.91771763E+03</totfact>
</mgrwt>
</event>
<event>
 7    1  0.1020736E-005  0.1883005E+03  0.7546771E-02  0.1164745E+00
          3   -1    0    0  501    0  0.00000000000E+00  0.00000000000E+00  0.14424838022E+03  0.14424838022E+03  0.00000000000E+00 0. -1.
         -3   -1    0    0    0  501 -0.00000000000E+00 -0.00000000000E+00 -0.30748981288E+03  0.30748981288E+03  0.00000000000E+00 0.  1.
         23    2    1    2    0    0 -0.11450651160E+03 -0.81969581337E+02 -0.19814243867E+03  0.26023057831E+03  0.92891196685E+02 0.  0.
          5    1    1    2  502    0  0.13523019793E+03  0.72588893059E+02  0.52592040887E+02  0.16230947782E+03  0.47000000000E+01 0. -1.
         -5    1    1    2    0  502 -0.20723686331E+02  0.93806882786E+01 -0.17691034870E+02  0.29198136969E+02  0.47000000000E+01 0. -1.
        -11    1    3    3    0    0 -0.13969860486E+02 -0.60093907452E+02 -0.47774440480E+02  0.78030967430E+02  0.00000000000E+00 0.  1.
         11    1    3    3    0    0 -0.10053665111E+03 -0.21875673885E+02 -0.15036799819E+03  0.18219961088E+03  0.00000000000E+00 0. -1.
<mgrwt>
<rscale>  0 0.18319647E+03</rscale>
<asrwt>0</asrwt>
<pdfrwt beam="1">  1        3 0.22192058E-01 0.18830052E+03</pdfrwt>
<pdfrwt beam="2">  1       -3 0.47306125E-01 0.18830052E+03</pdfrwt>
<totfact> 0.20189521E+02</totfact>
</mgrwt>
</event>
<event>
 7    1  0.1020736E-005  0.1413387E+03  0.7546771E-02  0.1223237E+00
         -1   -1    0    0    0  501 -0.00000000000E+00  0.00000000000E+00  0.19194139526E+03  0.19194139526E+03  0.00000000000E+00 0.  1.
          1   -1    0    0  501    0  0.00000000000E+00 -0.00000000000E+00 -0.92989077681E+02  0.92989077681E+02  0.00000000000E+00 0. -1.
         23    2    1    2    0    0 -0.26493390238E+02  0.60409839990E+02  0.91461647084E+02  0.14339342710E+03  0.88573097231E+02 0.  0.
          5    1    1    2  502    0  0.24846280876E+01  0.87779726350E+01  0.53794286778E+02  0.54764417921E+02  0.47000000000E+01 0.  1.
         -5    1    1    2    0  502  0.24008762150E+02 -0.69187812625E+02 -0.46303616283E+02  0.86772627923E+02  0.47000000000E+01 0.  1.
        -11    1    3    3    0    0 -0.31129617270E+02 -0.44018095811E+01  0.29490727035E+00  0.31440673805E+02  0.00000000000E+00 0. -1.
         11    1    3    3    0    0  0.46362270324E+01  0.64811649571E+02  0.91166739814E+02  0.11195275329E+03  0.00000000000E+00 0.  1.
<mgrwt>
<rscale>  0 0.13288469E+03</rscale>
<asrwt>0</asrwt>
<pdfrwt beam="2">  1        1 0.14306012E-01 0.14133869E+03</pdfrwt>
<pdfrwt beam="1">  1       -1 0.29529445E-01 0.14133869E+03</pdfrwt>
<totfact> 0.40039726E+03</totfact>
</mgrwt>
</event>
<event>
 7    1  0.1020736E-005  0.1300274E+03  0.7546771E-02  0.1240417E+00
         -2   -1    0    0    0  501 -0.00000000000E+00  0.00000000000E+00  0.84764337609E+02  0.84764337609E+02  0.00000000000E+00 0. -1.
          2   -1    0    0  501    0  0.00000000000E+00 -0.00000000000E+00 -0.17188140225E+03  0.17188140225E+03  0.00000000000E+00 0.  1.
         23    2    1    2    0    0 -0.31809738786E+02  0.16485336367E+02  0.97140500084E+00  0.99589387557E+02  0.92916503859E+02 0.  0.
          5    1    1    2  502    0 -0.47465692246E+02 -0.90276941587E+01 -0.21255489263E+02  0.52994122561E+02  0.47000000000E+01 0. -1.
         -5    1    1    2    0  502  0.79275431032E+02 -0.74576422082E+01 -0.66832980380E+02  0.10406222974E+03  0.47000000000E+01 0. -1.
        -11    1    3    3    0    0  0.52217879427E+01  0.33320362492E+02 -0.32554638210E+02  0.46875559675E+02  0.00000000000E+00 0.  1.
         11    1    3    3    0    0 -0.37031526729E+02 -0.16835026125E+02  0.33526043211E+02  0.52713827881E+02  0.00000000000E+00 0. -1.
<mgrwt>
<rscale>  0 0.12163938E+03</rscale>
<asrwt>0</asrwt>
<pdfrwt beam="2">  1        2 0.26443293E-01 0.13002738E+03</pdfrwt>
<pdfrwt beam="1">  1       -2 0.13040667E-01 0.13002738E+03</pdfrwt>
<totfact> 0.82143116E+03</totfact>
</mgrwt>
</event>
<event>
 7    1  0.1020736E-005  0.2098832E+03  0.7546771E-02  0.1146844E+00
          2   -1    0    0  501    0  0.00000000000E+00  0.00000000000E+00  0.13240317577E+04  0.13240317577E+04  0.00000000000E+00 0. -1.
         -2   -1    0    0    0  501 -0.00000000000E+00 -0.00000000000E+00 -0.30000541116E+02  0.30000541116E+02  0.00000000000E+00 0.  1.
         23    2    1    2    0    0 -0.70450320624E+02  0.14485778126E+03  0.52025829996E+03  0.55229950517E+03  0.91755219302E+02 0.  0.
          5    1    1    2  502    0  0.68124772411E+02 -0.17040055605E+03  0.68938570065E+03  0.71340876668E+03  0.47000000000E+01 0. -1.
         -5    1    1    2    0  502  0.23255482124E+01  0.25542774793E+02  0.84387215930E+02  0.88324026918E+02  0.47000000000E+01 0.  1.
        -11    1    3    3    0    0 -0.15358911984E+02  0.58511178388E+02  0.80073768885E+02  0.10035568064E+03  0.00000000000E+00 0.  1.
         11    1    3    3    0    0 -0.55091408639E+02  0.86346602869E+02  0.44018453108E+03  0.45194382453E+03  0.00000000000E+00 0. -1.
<mgrwt>
<rscale>  0 0.20346954E+03</rscale>
<asrwt>0</asrwt>
<pdfrwt beam="1">  1        2 0.20369715E+00 0.20988317E+03</pdfrwt>
<pdfrwt beam="2">  1       -2 0.46154689E-02 0.20988317E+03</pdfrwt>
<totfact> 0.37487162E+03</totfact>
</mgrwt>
</event>
<event>
 7    1  0.1020736E-005  0.1502694E+03  0.7546771E-02  0.1209537E+00
         -2   -1    0    0    0  501 -0.00000000000E+00  0.00000000000E+00  0.49708460973E+02  0.49708460973E+02  0.00000000000E+00 0.  1.
          2   -1    0    0  501    0  0.00000000000E+00 -0.00000000000E+00 -0.46975434871E+03  0.46975434871E+03  0.00000000000E+00 0. -1.
         23    2    1    2    0    0 -0.28959607938E+02 -0.78206360038E+02 -0.76852384961E+02  0.14481274059E+03  0.90053023932E+02 0.  0.
          5    1    1    2  502    0  0.23746370089E+02  0.11256403716E+03 -0.26763852528E+03  0.29135377596E+03  0.47000000000E+01 0. -1.
         -5    1    1    2    0  502  0.52132378492E+01 -0.34357677119E+02 -0.75554977503E+02  0.83296293143E+02  0.47000000000E+01 0. -1.
        -11    1    3    3    0    0 -0.52052846998E+02 -0.14498190821E+02 -0.43041557820E+02  0.69081633719E+02  0.00000000000E+00 0. -1.
         11    1    3    3    0    0  0.23093239060E+02 -0.63708169217E+02 -0.33810827141E+02  0.75731106866E+02  0.00000000000E+00 0.  1.
<mgrwt>
<rscale>  0 0.14285553E+03</rscale>
<asrwt>0</asrwt>
<pdfrwt beam="2">  1        2 0.72269897E-01 0.15026940E+03</pdfrwt>
<pdfrwt beam="1">  1       -2 0.76474558E-02 0.15026940E+03</pdfrwt>
<totfact> 0.65365735E+03</totfact>
</mgrwt>
</event>
<event>
 7    1  0.1020736E-005  0.1254728E+03  0.7546771E-02  0.1248245E+00
          1   -1    0    0  501    0  0.00000000000E+00  0.00000000000E+00  0.46404665600E+02  0.46404665600E+02  0.00000000000E+00 0. -1.
         -1   -1    0    0    0  501 -0.00000000000E+00 -0.00000000000E+00 -0.29500624183E+03  0.29500624183E+03  0.00000000000E+00 0.  1.
         23    2    1    2    0    0  0.10791620701E+02  0.10336163668E+01 -0.16632683285E+03  0.19136904192E+03  0.94021101043E+02 0.  0.
          5    1    1    2  502    0  0.22941054574E+02 -0.44299854364E+02  0.11056769590E+01  0.50120670418E+02  0.47000000000E+01 0.  1.
         -5    1    1    2    0  502 -0.33732675275E+02  0.43266237997E+02 -0.83380420341E+02  0.99921195089E+02  0.47000000000E+01 0.  1.
        -11    1    3    3    0    0 -0.32331763471E+02  0.12705422598E+01 -0.18267233152E+02  0.37157085648E+02  0.00000000000E+00 0. -1.
         11    1    3    3    0    0  0.43123384172E+02 -0.23692589298E+00 -0.14805959970E+03  0.15421195628E+03  0.00000000000E+00 0.  1.
<mgrwt>
<rscale>  0 0.11693259E+03</rscale>
<asrwt>0</asrwt>
<pdfrwt beam="1">  1        1 0.71391794E-02 0.12547282E+03</pdfrwt>
<pdfrwt beam="2">  1       -1 0.45385575E-01 0.12547282E+03</pdfrwt>
<totfact> 0.47429446E+03</totfact>
</mgrwt>
</event>
<event>
 7    1  0.1020736E-005  0.2273655E+03  0.7546771E-02  0.1131627E+00
          3   -1    0    0  501    0  0.00000000000E+00  0.00000000000E+00  0.16079685182E+03  0.16079685182E+03  0.00000000000E+00 0. -1.
         -3   -1    0    0    0  501 -0.00000000000E+00 -0.00000000000E+00 -0.34121446695E+03  0.34121446695E+03  0.00000000000E+00 0.  1.
         23    2    1    2    0    0  0.94323578642E+02  0.16484648913E+03 -0.17623045283E+03  0.27460724811E+03  0.90998163404E+02 0.  0.
          5    1    1    2  502    0 -0.10792569775E+03 -0.13989037951E+03 -0.40225728581E+02  0.18126630617E+03  0.47000000000E+01 0. -1.
         -5    1    1    2    0  502  0.13602119107E+02 -0.24956109627E+02  0.36038566289E+02  0.46137764490E+02  0.47000000000E+01 0. -1.
        -11    1    3    3    0    0  0.33096241593E+01  0.93982613022E+02 -0.64630067645E+02  0.11410841690E+03  0.00000000000E+00 0. -1.
         11    1    3    3    0    0  0.91013954483E+02  0.70863876110E+02 -0.11160038518E+03  0.16049883122E+03  0.00000000000E+00 0.  1.
<mgrwt>
<rscale>  0 0.22305274E+03</rscale>
<asrwt>0</asrwt>
<pdfrwt beam="1">  1        3 0.24737977E-01 0.22736552E+03</pdfrwt>
<pdfrwt beam="2">  1       -3 0.52494533E-01 0.22736552E+03</pdfrwt>
<totfact> 0.13705341E+02</totfact>
</mgrwt>
</event>
<event>
 7    1  0.1020736E-005  0.1306872E+03  0.7546771E-02  0.1239984E+00
          4   -1    0    0  501    0  0.00000000000E+00  0.00000000000E+00  0.18133475650E+03  0.18133475650E+03  0.00000000000E+00 0. -1.
         -4   -1    0    0    0  501 -0.00000000000E+00 -0.00000000000E+00 -0.74298906545E+02  0.74298906545E+02  0.00000000000E+00 0.  1.
         23    2    1    2    0    0  0.13203247357E+02 -0.35768184514E+02  0.27717251293E+02  0.10275925541E+03  0.91310074954E+02 0.  0.
          5    1    1    2  502    0 -0.14103762163E+01 -0.46846351088E+02  0.28425816030E+02  0.55015332301E+02  0.47000000000E+01 0. -1.
         -5    1    1    2    0  502 -0.11792871140E+02  0.82614535601E+02  0.50892782637E+02  0.97859075342E+02  0.47000000000E+01 0. -1.
        -11    1    3    3    0    0  0.24520078651E+02  0.18564043486E+02  0.35217914076E+02  0.46756383943E+02  0.00000000000E+00 0.  1.
         11    1    3    3    0    0 -0.11316831294E+02 -0.54332227999E+02 -0.75006627825E+01  0.56002871463E+02  0.00000000000E+00 0. -1.
<mgrwt>
<rscale>  0 0.12190721E+03</rscale>
<asrwt>0</asrwt>
<pdfrwt beam="1">  1        4 0.27897655E-01 0.13068720E+03</pdfrwt>
<pdfrwt beam="2">  1       -4 0.11430601E-01 0.13068720E+03</pdfrwt>
<totfact> 0.12055037E+03</totfact>
</mgrwt>
</event>
<event>
 7    1  0.1020736E-005  0.1308182E+03  0.7546771E-02  0.1238533E+00
          2   -1    0    0  501    0  0.00000000000E+00  0.00000000000E+00  0.65087041067E+02  0.65087041067E+02  0.00000000000E+00 0. -1.
         -2   -1    0    0    0  501 -0.00000000000E+00 -0.00000000000E+00 -0.21227397958E+03  0.21227397958E+03  0.00000000000E+00 0.  1.
         23    2    1    2    0    0 -0.95903924466E+01 -0.37356668943E+02 -0.85194721067E+02  0.13259764432E+03  0.94002651244E+02 0.  0.
          5    1    1    2  502    0 -0.29737639313E+02 -0.25126568296E+02 -0.58848754331E+02  0.70717307022E+02  0.47000000000E+01 0. -1.
         -5    1    1    2    0  502  0.39328031759E+02  0.62483237240E+02 -0.31434631131E+01  0.74046069297E+02  0.47000000000E+01 0. -1.
        -11    1    3    3    0    0 -0.74950729845E+01 -0.58032988072E+02 -0.16454394469E+02  0.60784462825E+02  0.00000000000E+00 0. -1.
         11    1    3    3    0    0 -0.20953194621E+01  0.20676319128E+02 -0.68740326598E+02  0.71813181500E+02  0.00000000000E+00 0.  1.
<mgrwt>
<rscale>  0 0.12280953E+03</rscale>
<asrwt>0</asrwt>
<pdfrwt beam="1">  1        2 0.10013391E-01 0.13081819E+03</pdfrwt>
<pdfrwt beam="2">  1       -2 0.32657535E-01 0.13081819E+03</pdfrwt>
<totfact> 0.52992124E+03</totfact>
</mgrwt>
</event>
<event>
 7    1  0.1020736E-005  0.1517982E+03  0.7546771E-02  0.1206465E+00
          2   -1    0    0  501    0  0.00000000000E+00  0.00000000000E+00  0.22036717625E+03  0.22036717625E+03  0.00000000000E+00 0. -1.
         -2   -1    0    0    0  501 -0.00000000000E+00 -0.00000000000E+00 -0.12561703559E+03  0.12561703559E+03  0.00000000000E+00 0.  1.
         23    2    1    2    0    0  0.48009340167E+02 -0.71514194176E+02 -0.49609696272E+02  0.13650277982E+03  0.93555920291E+02 0.  0.
          5    1    1    2  502    0 -0.36698403431E+02  0.92104646634E+02  0.48125269250E+02  0.11030942973E+03  0.47000000000E+01 0.  1.
         -5    1    1    2    0  502 -0.11310936736E+02 -0.20590452458E+02  0.96234567685E+02  0.99172002298E+02  0.47000000000E+01 0.  1.
        -11    1    3    3    0    0 -0.16743011192E+02  0.44655465209E+01 -0.30179806135E+02  0.34800721657E+02  0.00000000000E+00 0.  1.
         11    1    3    3    0    0  0.64752351360E+02 -0.75979740697E+02 -0.19429890137E+02  0.10170205816E+03  0.00000000000E+00 0. -1.
<mgrwt>
<rscale>  0 0.14522626E+03</rscale>
<asrwt>0</asrwt>
<pdfrwt beam="1">  1        2 0.33902642E-01 0.15179825E+03</pdfrwt>
<pdfrwt beam="2">  1       -2 0.19325698E-01 0.15179825E+03</pdfrwt>
<totfact> 0.33137999E+03</totfact>
</mgrwt>
</event>
<event>
 7    1  0.1020736E-005  0.1312509E+03  0.7546771E-02  0.1226035E+00
         -1   -1    0    0    0  501 -0.00000000000E+00  0.00000000000E+00  0.48555747491E+02  0.48555747491E+02  0.00000000000E+00 0.  1.
          1   -1    0    0  501    0  0.00000000000E+00 -0.00000000000E+00 -0.35200507259E+03  0.35200507259E+03  0.00000000000E+00 0. -1.
         23    2    1    2    0    0 -0.15897484262E+01  0.36028464579E+02 -0.14628583675E+03  0.19653587070E+03  0.12619914769E+03 0.  0.
          5    1    1    2  502    0 -0.95313682355E+01  0.26139807366E+02  0.61346110895E+01  0.28876633509E+02  0.47000000000E+01 0.  1.
         -5    1    1    2    0  502  0.11121116662E+02 -0.62168271946E+02 -0.16329809944E+03  0.17514831587E+03  0.47000000000E+01 0.  1.
        -11    1    3    3    0    0 -0.10735980877E+02 -0.40688504744E+02 -0.15912138296E+02  0.44989019203E+02  0.00000000000E+00 0.  1.
         11    1    3    3    0    0  0.91462324508E+01  0.76716969324E+02 -0.13037369846E+03  0.15154685150E+03  0.00000000000E+00 0. -1.
<mgrwt>
<rscale>  0 0.13096205E+03</rscale>
<asrwt>0</asrwt>
<pdfrwt beam="2">  1        1 0.54154626E-01 0.13125091E+03</pdfrwt>
<pdfrwt beam="1">  1       -1 0.74701151E-02 0.13125091E+03</pdfrwt>
<totfact> 0.65143871E+03</totfact>
</mgrwt>
</event>
<event>
 7    1  0.1020736E-005  0.2189790E+03  0.7546771E-02  0.1138470E+00
          1   -1    0    0  501    0  0.00000000000E+00  0.00000000000E+00  0.49909667080E+03  0.49909667080E+03  0.00000000000E+00 0. -1.
         -1   -1    0    0    0  501 -0.00000000000E+00 -0.00000000000E+00 -0.87987885344E+02  0.87987885344E+02  0.00000000000E+00 0.  1.
         23    2    1    2    0    0  0.12522871129E+03 -0.12900788211E+03  0.18085002832E+03  0.26932538523E+03  0.86626592963E+02 0.  0.
          5    1    1    2  502    0  0.25528735625E+02  0.16928955188E+02  0.29754937269E+02  0.42962217799E+02  0.47000000000E+01 0.  1.
         -5    1    1    2    0  502 -0.15075744691E+03  0.11207892693E+03  0.20050381987E+03  0.27479695312E+03  0.47000000000E+01 0.  1.
        -11    1    3    3    0    0  0.12705242808E+02 -0.69517054466E+02  0.81415643304E+02  0.10780793584E+03  0.00000000000E+00 0.  1.
         11    1    3    3    0    0  0.11252346848E+03 -0.59490827648E+02  0.99434385011E+02  0.16151744938E+03  0.00000000000E+00 0. -1.
<mgrwt>
<rscale>  0 0.21395741E+03</rscale>
<asrwt>0</asrwt>
<pdfrwt beam="1">  1        1 0.76784101E-01 0.21897898E+03</pdfrwt>
<pdfrwt beam="2">  1       -1 0.13536598E-01 0.21897898E+03</pdfrwt>
<totfact> 0.17061199E+03</totfact>
</mgrwt>
</event>
<event>
 7    1  0.1020736E-005  0.1507303E+03  0.7546771E-02  0.1208537E+00
         -2   -1    0    0    0  501 -0.00000000000E+00  0.00000000000E+00  0.19251068222E+02  0.19251068222E+02  0.00000000000E+00 0. -1.
          2   -1    0    0  501    0  0.00000000000E+00 -0.00000000000E+00 -0.12969677409E+04  0.12969677409E+04  0.00000000000E+00 0.  1.
         23    2    1    2    0    0 -0.73713834382E+02  0.40759729573E+02 -0.26905482909E+03  0.29635689376E+03  0.91333578126E+02 0.  0.
          5    1    1    2  502    0  0.79452776395E+02 -0.72649651050E+02 -0.89844844872E+03  0.90488807069E+03  0.47000000000E+01 0. -1.
         -5    1    1    2    0  502 -0.57389420129E+01  0.31889921477E+02 -0.11021339484E+03  0.11497384463E+03  0.47000000000E+01 0. -1.
        -11    1    3    3    0    0 -0.78818878273E+02  0.27772846860E+01 -0.22245670677E+03  0.23602354812E+03  0.00000000000E+00 0. -1.
         11    1    3    3    0    0  0.51050438914E+01  0.37982444887E+02 -0.46598122316E+02  0.60333345640E+02  0.00000000000E+00 0.  1.
<mgrwt>
<rscale>  0 0.14362180E+03</rscale>
<asrwt>0</asrwt>
<pdfrwt beam="2">  1        2 0.19953364E+00 0.15073026E+03</pdfrwt>
<pdfrwt beam="1">  1       -2 0.29617007E-02 0.15073026E+03</pdfrwt>
<totfact> 0.74514781E+03</totfact>
</mgrwt>
</event>
<event>
 7    1  0.1020736E-005  0.1397477E+03  0.7546771E-02  0.1224077E+00
          1   -1    0    0  501    0  0.00000000000E+00  0.00000000000E+00  0.10905489559E+03  0.10905489559E+03  0.00000000000E+00 0. -1.
         -1   -1    0    0    0  501 -0.00000000000E+00 -0.00000000000E+00 -0.15776253145E+03  0.15776253145E+03  0.00000000000E+00 0.  1.
         23    2    1    2    0    0  0.62451864425E+02 -0.18529660394E+01 -0.58748245921E+02  0.12670950522E+03  0.93275256428E+02 0.  0.
          5    1    1    2  502    0 -0.23003314108E+02 -0.97279671828E+01  0.65876908353E+02  0.70609084824E+02  0.47000000000E+01 0. -1.
         -5    1    1    2    0  502 -0.39448550317E+02  0.11580933222E+02 -0.55836298292E+02  0.69498836993E+02  0.47000000000E+01 0. -1.
        -11    1    3    3    0    0  0.45526454526E+02 -0.29650085096E+02 -0.73151281860E+02  0.91120226326E+02  0.00000000000E+00 0.  1.
         11    1    3    3    0    0  0.16925409899E+02  0.27797119057E+02  0.14403035939E+02  0.35589278897E+02  0.00000000000E+00 0. -1.
<mgrwt>
<rscale>  0 0.13230363E+03</rscale>
<asrwt>0</asrwt>
<pdfrwt beam="1">  1        1 0.16777676E-01 0.13974769E+03</pdfrwt>
<pdfrwt beam="2">  1       -1 0.24271159E-01 0.13974769E+03</pdfrwt>
<totfact> 0.45069546E+03</totfact>
</mgrwt>
</event>
<event>
 7    1  0.1020736E-005  0.1443459E+03  0.7546771E-02  0.1213811E+00
         -1   -1    0    0    0  501 -0.00000000000E+00  0.00000000000E+00  0.13187571163E+03  0.13187571163E+03  0.00000000000E+00 0.  1.
          1   -1    0    0  501    0  0.00000000000E+00 -0.00000000000E+00 -0.15990661568E+03  0.15990661568E+03  0.00000000000E+00 0. -1.
         23    2    1    2    0    0  0.79422402247E+02  0.36224771547E+02  0.39447234748E+02  0.13244291688E+03  0.91459771764E+02 0.  0.
          5    1    1    2  502    0 -0.12113309681E+02  0.31671804795E+02 -0.52174230892E+02  0.62402530875E+02  0.47000000000E+01 0. -1.
         -5    1    1    2    0  502 -0.67309092566E+02 -0.67896576342E+02 -0.15303907908E+02  0.96936879557E+02  0.47000000000E+01 0.  1.
        -11    1    3    3    0    0  0.99648550606E+02  0.23274350258E+02  0.33834007701E+02  0.10777879706E+03  0.00000000000E+00 0.  1.
         11    1    3    3    0    0 -0.20226148359E+02  0.12950421289E+02  0.56132270470E+01  0.24664119828E+02  0.00000000000E+00 0. -1.
<mgrwt>
<rscale>  0 0.13964251E+03</rscale>
<asrwt>0</asrwt>
<pdfrwt beam="2">  1        1 0.24601018E-01 0.14434593E+03</pdfrwt>
<pdfrwt beam="1">  1       -1 0.20288571E-01 0.14434593E+03</pdfrwt>
<totfact> 0.37124855E+03</totfact>
</mgrwt>
</event>
<event>
 7    1  0.1020736E-005  0.1378203E+03  0.7546771E-02  0.1228453E+00
          1   -1    0    0  501    0  0.00000000000E+00  0.00000000000E+00  0.13046962588E+02  0.13046962588E+02  0.00000000000E+00 0. -1.
         -1   -1    0    0    0  501 -0.00000000000E+00 -0.00000000000E+00 -0.11643206362E+04  0.11643206362E+04  0.00000000000E+00 0.  1.
         23    2    1    2    0    0  0.21119485608E+02 -0.54021586630E+02 -0.43321221214E+03  0.44619955779E+03  0.89760014104E+02 0.  0.
          5    1    1    2  502    0 -0.46550093236E+02  0.90791789871E+01 -0.98331494752E+02  0.10927266599E+03  0.47000000000E+01 0.  1.
         -5    1    1    2    0  502  0.25430607628E+02  0.44942407643E+02 -0.61972996674E+03  0.62189537503E+03  0.47000000000E+01 0.  1.
        -11    1    3    3    0    0 -0.32687503571E+02 -0.81540524180E+01 -0.18812394966E+03  0.19111667090E+03  0.00000000000E+00 0.  1.
         11    1    3    3    0    0  0.53806989179E+02 -0.45867534212E+02 -0.24508826248E+03  0.25508288689E+03  0.00000000000E+00 0. -1.
<mgrwt>
<rscale>  0 0.12932993E+03</rscale>
<asrwt>0</asrwt>
<pdfrwt beam="1">  1        1 0.20072240E-02 0.13782032E+03</pdfrwt>
<pdfrwt beam="2">  1       -1 0.17912634E+00 0.13782032E+03</pdfrwt>
<totfact> 0.13630534E+03</totfact>
</mgrwt>
</event>
<event>
 7    1  0.1020736E-005  0.1758430E+03  0.7546771E-02  0.1179710E+00
         -2   -1    0    0    0  501 -0.00000000000E+00  0.00000000000E+00  0.14608544124E+03  0.14608544124E+03  0.00000000000E+00 0.  1.
          2   -1    0    0  501    0  0.00000000000E+00 -0.00000000000E+00 -0.18240411009E+03  0.18240411009E+03  0.00000000000E+00 0. -1.
         23    2    1    2    0    0  0.45375493849E+02  0.11504947632E+03  0.67351266334E+01  0.14745260586E+03  0.80009946885E+02 0.  0.
          5    1    1    2  502    0 -0.28625067639E+02 -0.12849396937E+03 -0.67618950079E+02  0.14806926444E+03  0.47000000000E+01 0.  1.
         -5    1    1    2    0  502 -0.16750426211E+02  0.13444493047E+02  0.24565154597E+02  0.32967681021E+02  0.47000000000E+01 0.  1.
        -11    1    3    3    0    0  0.52658996547E+02  0.27919976004E+02 -0.15878682159E+01  0.59623957457E+02  0.00000000000E+00 0.  1.
         11    1    3    3    0    0 -0.72835026974E+01  0.87129500320E+02  0.83229948492E+01  0.87828648406E+02  0.00000000000E+00 0. -1.
<mgrwt>
<rscale>  0 0.16822614E+03</rscale>
<asrwt>0</asrwt>
<pdfrwt beam="2">  1        2 0.28062171E-01 0.17584296E+03</pdfrwt>
<pdfrwt beam="1">  1       -2 0.22474683E-01 0.17584296E+03</pdfrwt>
<totfact> 0.31662825E+03</totfact>
</mgrwt>
</event>
<event>
 7    1  0.1020736E-005  0.3650858E+03  0.7546771E-02  0.1057492E+00
         -2   -1    0    0    0  501 -0.00000000000E+00  0.00000000000E+00  0.46210319067E+03  0.46210319067E+03  0.00000000000E+00 0.  1.
          2   -1    0    0  501    0  0.00000000000E+00 -0.00000000000E+00 -0.29275616445E+03  0.29275616445E+03  0.00000000000E+00 0. -1.
         23    2    1    2    0    0  0.12283089086E+03  0.32027284176E+03  0.15849856299E+03  0.38961236978E+03  0.94941473014E+02 0.  0.
          5    1    1    2  502    0 -0.13475194817E+03 -0.31975535893E+03  0.22729551153E+02  0.34776471873E+03  0.47000000000E+01 0.  1.
         -5    1    1    2    0  502  0.11921057306E+02 -0.51748283694E+00 -0.11881087917E+02  0.17482266611E+02  0.47000000000E+01 0.  1.
        -11    1    3    3    0    0  0.76146377542E+02  0.15730004009E+03  0.12975650165E+03  0.21766562233E+03  0.00000000000E+00 0. -1.
         11    1    3    3    0    0  0.46684513321E+02  0.16297280168E+03  0.28742061341E+02  0.17194674746E+03  0.00000000000E+00 0.  1.
<mgrwt>
<rscale>  0 0.36277140E+03</rscale>
<asrwt>0</asrwt>
<pdfrwt beam="2">  1        2 0.45039410E-01 0.36508584E+03</pdfrwt>
<pdfrwt beam="1">  1       -2 0.71092798E-01 0.36508584E+03</pdfrwt>
<totfact> 0.20756037E+02</totfact>
</mgrwt>
</event>
<event>
 7    1  0.1020736E-005  0.1697350E+03  0.7546771E-02  0.1185408E+00
          1   -1    0    0  501    0  0.00000000000E+00  0.00000000000E+00  0.12976459221E+04  0.12976459221E+04  0.00000000000E+00 0. -1.
         -1   -1    0    0    0  501 -0.00000000000E+00 -0.00000000000E+00 -0.21920262808E+02  0.21920262808E+02  0.00000000000E+00 0.  1.
         23    2    1    2    0    0 -0.95788909526E+02 -0.63330779125E+02  0.35209190075E+03  0.38046593009E+03  0.87174047821E+02 0.  0.
          5    1    1    2  502    0  0.71244265454E+02 -0.12947080848E+02  0.23887855939E+03  0.24965662098E+03  0.47000000000E+01 0. -1.
         -5    1    1    2    0  502  0.24544644072E+02  0.76277859973E+02  0.68475519910E+03  0.68944363379E+03  0.47000000000E+01 0. -1.
        -11    1    3    3    0    0 -0.64434943371E+02 -0.46439125888E+01  0.94865792771E+02  0.11477345725E+03  0.00000000000E+00 0.  1.
         11    1    3    3    0    0 -0.31353966155E+02 -0.58686866536E+02  0.25722610798E+03  0.26569247284E+03  0.00000000000E+00 0. -1.
<mgrwt>
<rscale>  0 0.16294795E+03</rscale>
<asrwt>0</asrwt>
<pdfrwt beam="1">  1        1 0.19963777E+00 0.16973500E+03</pdfrwt>
<pdfrwt beam="2">  1       -1 0.33723491E-02 0.16973500E+03</pdfrwt>
<totfact> 0.30857478E+03</totfact>
</mgrwt>
</event>
<event>
 7    1  0.1020736E-005  0.1567593E+03  0.7546771E-02  0.1199954E+00
          1   -1    0    0  501    0  0.00000000000E+00  0.00000000000E+00  0.57281228066E+03  0.57281228066E+03  0.00000000000E+00 0. -1.
         -1   -1    0    0    0  501 -0.00000000000E+00 -0.00000000000E+00 -0.37664090230E+02  0.37664090230E+02  0.00000000000E+00 0.  1.
         23    2    1    2    0    0  0.94600668654E+02  0.48022376866E+00  0.19552776868E+03  0.23642354858E+03  0.93356675569E+02 0.  0.
          5    1    1    2  502    0 -0.11990420036E+03 -0.23345575138E+02  0.25973770104E+03  0.28706758174E+03  0.47000000000E+01 0.  1.
         -5    1    1    2    0  502  0.25303531704E+02  0.22865351369E+02  0.79882720707E+02  0.86985240572E+02  0.47000000000E+01 0.  1.
        -11    1    3    3    0    0  0.43814045974E+02  0.46002414883E+02  0.11005561871E+03  0.12707530055E+03  0.00000000000E+00 0.  1.
         11    1    3    3    0    0  0.50786622680E+02 -0.45522191115E+02  0.85472149974E+02  0.10934824803E+03  0.00000000000E+00 0. -1.
<mgrwt>
<rscale>  0 0.15042298E+03</rscale>
<asrwt>0</asrwt>
<pdfrwt beam="1">  1        1 0.88124960E-01 0.15675932E+03</pdfrwt>
<pdfrwt beam="2">  1       -1 0.57944758E-02 0.15675932E+03</pdfrwt>
<totfact> 0.51408212E+03</totfact>
</mgrwt>
</event>
<event>
 7    1  0.1020736E-005  0.1352091E+03  0.7546771E-02  0.1232014E+00
         -2   -1    0    0    0  501 -0.00000000000E+00  0.00000000000E+00  0.56265739383E+02  0.56265739383E+02  0.00000000000E+00 0.  1.
          2   -1    0    0  501    0  0.00000000000E+00 -0.00000000000E+00 -0.26396065869E+03  0.26396065869E+03  0.00000000000E+00 0. -1.
         23    2    1    2    0    0 -0.22133190175E+02 -0.46569743910E+02 -0.64907692676E+02  0.12358028033E+03  0.91654012257E+02 0.  0.
          5    1    1    2  502    0  0.28684828796E+02 -0.33430466385E+02 -0.17194501191E+02  0.47520062678E+02  0.47000000000E+01 0. -1.
         -5    1    1    2    0  502 -0.65516386210E+01  0.80000210294E+02 -0.12559272544E+03  0.14912605506E+03  0.47000000000E+01 0. -1.
        -11    1    3    3    0    0  0.17941283793E+02 -0.53357274204E+02 -0.60592962463E+02  0.82706683374E+02  0.00000000000E+00 0. -1.
         11    1    3    3    0    0 -0.40074473968E+02  0.67875302947E+01 -0.43147302132E+01  0.40873596956E+02  0.00000000000E+00 0.  1.
<mgrwt>
<rscale>  0 0.12697532E+03</rscale>
<asrwt>0</asrwt>
<pdfrwt beam="2">  1        2 0.40609333E-01 0.13520911E+03</pdfrwt>
<pdfrwt beam="1">  1       -2 0.86562674E-02 0.13520911E+03</pdfrwt>
<totfact> 0.99169167E+03</totfact>
</mgrwt>
</event>
<event>
 7    1  0.1020736E-005  0.1631672E+03  0.7546771E-02  0.1198733E+00
          2   -1    0    0  501    0  0.00000000000E+00  0.00000000000E+00  0.44792217042E+04  0.44792217042E+04  0.00000000000E+00 0. -1.
         -2   -1    0    0    0  501 -0.00000000000E+00 -0.00000000000E+00 -0.10262852876E+02  0.10262852876E+02  0.00000000000E+00 0.  1.
         23    2    1    2    0    0 -0.20471742439E+02  0.74878488393E+02  0.41615296239E+03  0.43339541693E+03  0.92856981683E+02 0.  0.
          5    1    1    2  502    0  0.72216116009E+01 -0.94070652249E+02  0.39219937309E+04  0.39231311926E+04  0.47000000000E+01 0. -1.
         -5    1    1    2    0  502  0.13250130838E+02  0.19192163856E+02  0.13081215805E+03  0.13295794754E+03  0.47000000000E+01 0.  1.
        -11    1    3    3    0    0 -0.38753220829E+02  0.10213758377E+01  0.82175574831E+02  0.90860774991E+02  0.00000000000E+00 0.  1.
         11    1    3    3    0    0  0.18281478391E+02  0.73857112556E+02  0.33397738756E+03  0.34253464194E+03  0.00000000000E+00 0. -1.
<mgrwt>
<rscale>  0 0.15142517E+03</rscale>
<asrwt>0</asrwt>
<pdfrwt beam="1">  1        2 0.68910947E+00 0.16316721E+03</pdfrwt>
<pdfrwt beam="2">  1       -2 0.15789040E-02 0.16316721E+03</pdfrwt>
<totfact> 0.20525750E+02</totfact>
</mgrwt>
</event>
<event>
 7    1  0.1020736E-005  0.1337857E+03  0.7546771E-02  0.1235041E+00
          2   -1    0    0  501    0  0.00000000000E+00  0.00000000000E+00  0.13957852964E+03  0.13957852964E+03  0.00000000000E+00 0. -1.
         -2   -1    0    0    0  501 -0.00000000000E+00 -0.00000000000E+00 -0.11224721838E+03  0.11224721838E+03  0.00000000000E+00 0.  1.
         23    2    1    2    0    0 -0.32049882764E+02  0.35219830095E+02 -0.29908240560E+02  0.10630952689E+03  0.90219627780E+02 0.  0.
          5    1    1    2  502    0 -0.82578314674E+01  0.43616637923E+02  0.13430882581E+02  0.46616322154E+02  0.47000000000E+01 0.  1.
         -5    1    1    2    0  502  0.40307714232E+02 -0.78836468018E+02  0.43808669241E+02  0.98899898973E+02  0.47000000000E+01 0.  1.
        -11    1    3    3    0    0  0.13592055847E+02 -0.20006921020E+02 -0.24549781358E+02  0.34463206983E+02  0.00000000000E+00 0.  1.
         11    1    3    3    0    0 -0.45641938611E+02  0.55226751115E+02 -0.53584592023E+01  0.71846319905E+02  0.00000000000E+00 0. -1.
<mgrwt>
<rscale>  0 0.12501842E+03</rscale>
<asrwt>0</asrwt>
<pdfrwt beam="1">  1        2 0.21473620E-01 0.13378567E+03</pdfrwt>
<pdfrwt beam="2">  1       -2 0.17268803E-01 0.13378567E+03</pdfrwt>
<totfact> 0.65530391E+03</totfact>
</mgrwt>
</event>
<event>
 7    1  0.1020736E-005  0.4667634E+03  0.7546771E-02  0.1022838E+00
          2   -1    0    0  501    0  0.00000000000E+00  0.00000000000E+00  0.34515449182E+03  0.34515449182E+03  0.00000000000E+00 0. -1.
         -2   -1    0    0    0  501 -0.00000000000E+00 -0.00000000000E+00 -0.15780473855E+03  0.15780473855E+03  0.00000000000E+00 0.  1.
         23    2    1    2    0    0 -0.15791414627E+03  0.20521198852E+02  0.11350381400E+02  0.18461607758E+03  0.92716059815E+02 0.  0.
          5    1    1    2  502    0  0.10136563587E+03 -0.39346601197E+02  0.21909942188E+03  0.24464217509E+03  0.47000000000E+01 0. -1.
         -5    1    1    2    0  502  0.56548510403E+02  0.18825402345E+02 -0.43100050015E+02  0.73700977697E+02  0.47000000000E+01 0.  1.
        -11    1    3    3    0    0 -0.14762551113E+03  0.33740322524E+02 -0.16279712951E+02  0.15230472729E+03  0.00000000000E+00 0.  1.
         11    1    3    3    0    0 -0.10288635141E+02 -0.13219123672E+02  0.27630094352E+02  0.32311350291E+02  0.00000000000E+00 0. -1.
<mgrwt>
<rscale>  0 0.46676338E+03</rscale>
<asrwt>0</asrwt>
<pdfrwt beam="1">  1        2 0.53100691E-01 0.46676338E+03</pdfrwt>
<pdfrwt beam="2">  1       -2 0.24277652E-01 0.46676338E+03</pdfrwt>
<totfact> 0.14145646E+03</totfact>
</mgrwt>
</event>
<event>
 7    1  0.1020736E-005  0.1280542E+03  0.7546771E-02  0.1244830E+00
         -2   -1    0    0    0  501 -0.00000000000E+00  0.00000000000E+00  0.10238461570E+03  0.10238461570E+03  0.00000000000E+00 0.  1.
          2   -1    0    0  501    0  0.00000000000E+00 -0.00000000000E+00 -0.12567237655E+03  0.12567237655E+03  0.00000000000E+00 0. -1.
         23    2    1    2    0    0  0.27240165869E+02  0.56435620816E+01  0.96185236657E+01  0.95842400204E+02  0.91210598341E+02 0.  0.
          5    1    1    2  502    0 -0.75286300337E+01 -0.11031888506E+02 -0.79694618042E+02  0.80942602992E+02  0.47000000000E+01 0.  1.
         -5    1    1    2    0  502 -0.19711535835E+02  0.53883264247E+01  0.46788333535E+02  0.51271989054E+02  0.47000000000E+01 0.  1.
        -11    1    3    3    0    0  0.16840829265E+01 -0.32807075149E+02 -0.22308910515E+02  0.39709291149E+02  0.00000000000E+00 0. -1.
         11    1    3    3    0    0  0.25556082942E+02  0.38450637231E+02  0.31927434181E+02  0.56133109055E+02  0.00000000000E+00 0.  1.
<mgrwt>
<rscale>  0 0.11895569E+03</rscale>
<asrwt>0</asrwt>
<pdfrwt beam="2">  1        2 0.19334212E-01 0.12805419E+03</pdfrwt>
<pdfrwt beam="1">  1       -2 0.15751479E-01 0.12805419E+03</pdfrwt>
<totfact> 0.85561174E+03</totfact>
</mgrwt>
</event>
<event>
 7    1  0.1020736E-005  0.1552987E+03  0.7546771E-02  0.1202267E+00
          2   -1    0    0  501    0  0.00000000000E+00  0.00000000000E+00  0.79296633228E+02  0.79296633228E+02  0.00000000000E+00 0.  1.
         -2   -1    0    0    0  501 -0.00000000000E+00 -0.00000000000E+00 -0.26296181546E+03  0.26296181546E+03  0.00000000000E+00 0. -1.
         23    2    1    2    0    0 -0.63701586056E+02 -0.66605469267E+02 -0.11032690895E+03  0.17051393374E+03  0.91699477413E+02 0.  0.
          5    1    1    2  502    0 -0.11589028956E+02  0.73809786708E+02 -0.57328962288E+02  0.94291516708E+02  0.47000000000E+01 0. -1.
         -5    1    1    2    0  502  0.75290615012E+02 -0.72043174418E+01 -0.16009310997E+02  0.77452998246E+02  0.47000000000E+01 0. -1.
        -11    1    3    3    0    0 -0.34818242644E+01 -0.41992932542E+02  0.34409650212E+00  0.42138437158E+02  0.00000000000E+00 0.  1.
         11    1    3    3    0    0 -0.60219761792E+02 -0.24612536724E+02 -0.11067100545E+03  0.12837549658E+03  0.00000000000E+00 0. -1.
<mgrwt>
<rscale>  0 0.14854950E+03</rscale>
<asrwt>0</asrwt>
<pdfrwt beam="1">  1        2 0.12199482E-01 0.15529867E+03</pdfrwt>
<pdfrwt beam="2">  1       -2 0.40455663E-01 0.15529867E+03</pdfrwt>
<totfact> 0.28287325E+03</totfact>
</mgrwt>
</event>
<event>
 7    1  0.1020736E-005  0.1628652E+03  0.7546771E-02  0.1192685E+00
          2   -1    0    0  501    0  0.00000000000E+00  0.00000000000E+00  0.64774729173E+03  0.64774729173E+03  0.00000000000E+00 0. -1.
         -2   -1    0    0    0  501 -0.00000000000E+00 -0.00000000000E+00 -0.36578966609E+02  0.36578966609E+02  0.00000000000E+00 0.  1.
         23    2    1    2    0    0 -0.25273833762E+02 -0.10129660468E+03  0.21489393141E+03  0.25588903625E+03  0.91651668401E+02 0.  0.
          5    1    1    2  502    0 -0.20394506295E+01  0.10581259077E+03  0.16916160103E+03  0.19959509260E+03  0.47000000000E+01 0. -1.
         -5    1    1    2    0  502  0.27313284391E+02 -0.45159860880E+01  0.22711279268E+03  0.22884212950E+03  0.47000000000E+01 0. -1.
        -11    1    3    3    0    0 -0.23959635541E+02 -0.16699093308E+02  0.13962446266E+03  0.14264611605E+03  0.00000000000E+00 0. -1.
         11    1    3    3    0    0 -0.13141982209E+01 -0.84597511375E+02  0.75269468756E+02  0.11324292020E+03  0.00000000000E+00 0.  1.
<mgrwt>
<rscale>  0 0.15651834E+03</rscale>
<asrwt>0</asrwt>
<pdfrwt beam="1">  1        2 0.99653421E-01 0.16286515E+03</pdfrwt>
<pdfrwt beam="2">  1       -2 0.56275338E-02 0.16286515E+03</pdfrwt>
<totfact> 0.73110998E+03</totfact>
</mgrwt>
</event>
<event>
 7    1  0.1020736E-005  0.1577752E+03  0.7546771E-02  0.1199230E+00
          2   -1    0    0  501    0  0.00000000000E+00  0.00000000000E+00  0.67491943971E+02  0.67491943971E+02  0.00000000000E+00 0. -1.
         -2   -1    0    0    0  501 -0.00000000000E+00 -0.00000000000E+00 -0.33345716831E+03  0.33345716831E+03  0.00000000000E+00 0.  1.
         23    2    1    2    0    0 -0.96126597884E+02  0.49510738059E+01 -0.17284464082E+03  0.21774306915E+03  0.90950197079E+02 0.  0.
          5    1    1    2  502    0  0.12330731850E+03 -0.22006523480E+02 -0.74140593491E+02  0.14562932217E+03  0.47000000000E+01 0. -1.
         -5    1    1    2    0  502 -0.27180720621E+02  0.17055449675E+02 -0.18979990031E+02  0.37576720967E+02  0.47000000000E+01 0. -1.
        -11    1    3    3    0    0 -0.38552865962E+02  0.65466578966E+01 -0.15126399957E+03  0.15623693471E+03  0.00000000000E+00 0.  1.
         11    1    3    3    0    0 -0.57573731922E+02 -0.15955840907E+01 -0.21580641251E+02  0.61506134432E+02  0.00000000000E+00 0. -1.
<mgrwt>
<rscale>  0 0.15101593E+03</rscale>
<asrwt>0</asrwt>
<pdfrwt beam="1">  1        2 0.10383376E-01 0.15777519E+03</pdfrwt>
<pdfrwt beam="2">  1       -2 0.51301103E-01 0.15777519E+03</pdfrwt>
<totfact> 0.21690872E+03</totfact>
</mgrwt>
</event>
<event>
 7    1  0.1020736E-005  0.1546424E+03  0.7546771E-02  0.1203790E+00
          1   -1    0    0  501    0  0.00000000000E+00  0.00000000000E+00  0.29316221490E+03  0.29316221490E+03  0.00000000000E+00 0. -1.
         -1   -1    0    0    0  501 -0.00000000000E+00 -0.00000000000E+00 -0.67874767392E+02  0.67874767392E+02  0.00000000000E+00 0.  1.
         23    2    1    2    0    0 -0.88855303601E+02  0.19784866947E+02  0.97763898513E+02  0.16059612338E+03  0.89143867170E+02 0.  0.
          5    1    1    2  502    0  0.28663477198E+02  0.51728867652E+02  0.64347920772E+02  0.87522657532E+02  0.47000000000E+01 0.  1.
         -5    1    1    2    0  502  0.60191826403E+02 -0.71513734599E+02  0.63175628226E+02  0.11291820138E+03  0.47000000000E+01 0.  1.
        -11    1    3    3    0    0 -0.50206102594E+02 -0.33738805735E+02  0.56301592202E+02  0.82636729331E+02  0.00000000000E+00 0.  1.
         11    1    3    3    0    0 -0.38649201007E+02  0.53523672682E+02  0.41462306311E+02  0.77959394049E+02  0.00000000000E+00 0. -1.
<mgrwt>
<rscale>  0 0.14733213E+03</rscale>
<asrwt>0</asrwt>
<pdfrwt beam="1">  1        1 0.45101878E-01 0.15464243E+03</pdfrwt>
<pdfrwt beam="2">  1       -1 0.10442272E-01 0.15464243E+03</pdfrwt>
<totfact> 0.49660519E+03</totfact>
</mgrwt>
</event>
<event>
 7    1  0.1020736E-005  0.1328537E+03  0.7546771E-02  0.1236186E+00
          2   -1    0    0  501    0  0.00000000000E+00  0.00000000000E+00  0.33941751071E+02  0.33941751071E+02  0.00000000000E+00 0. -1.
         -2   -1    0    0    0  501 -0.00000000000E+00 -0.00000000000E+00 -0.45440371474E+03  0.45440371474E+03  0.00000000000E+00 0.  1.
         23    2    1    2    0    0 -0.37807109671E+02  0.24403531732E+02 -0.26489360991E+03  0.28376879155E+03  0.91275366814E+02 0.  0.
          5    1    1    2  502    0 -0.33863161372E+02  0.27798316622E+02 -0.51754511724E+02  0.67971167335E+02  0.47000000000E+01 0.  1.
         -5    1    1    2    0  502  0.71670271043E+02 -0.52201848353E+02 -0.10381384204E+03  0.13660550692E+03  0.47000000000E+01 0.  1.
        -11    1    3    3    0    0 -0.15482672082E+01 -0.29126063716E+02 -0.14137354229E+03  0.14435097221E+03  0.00000000000E+00 0.  1.
         11    1    3    3    0    0 -0.36258842463E+02  0.53529595448E+02 -0.12352006762E+03  0.13941781934E+03  0.00000000000E+00 0. -1.
<mgrwt>
<rscale>  0 0.12428816E+03</rscale>
<asrwt>0</asrwt>
<pdfrwt beam="1">  1        2 0.52218080E-02 0.13285369E+03</pdfrwt>
<pdfrwt beam="2">  1       -2 0.69908261E-01 0.13285369E+03</pdfrwt>
<totfact> 0.27136093E+03</totfact>
</mgrwt>
</event>
<event>
 7    1  0.1020736E-005  0.1261186E+03  0.7546771E-02  0.1248705E+00
         -4   -1    0    0    0  501 -0.00000000000E+00  0.00000000000E+00  0.29662272928E+02  0.29662272928E+02  0.00000000000E+00 0.  1.
          4   -1    0    0  501    0  0.00000000000E+00 -0.00000000000E+00 -0.87950273468E+03  0.87950273468E+03  0.00000000000E+00 0. -1.
         23    2    1    2    0    0 -0.91749769986E+01 -0.14034249107E+02 -0.61840223348E+02  0.11113600859E+03  0.90806711375E+02 0.  0.
          5    1    1    2  502    0 -0.24539363176E+01 -0.55253564610E+02 -0.32534930312E+03  0.33005035562E+03  0.47000000000E+01 0. -1.
         -5    1    1    2    0  502  0.11628913316E+02  0.69287813717E+02 -0.46265093528E+03  0.46797864340E+03  0.47000000000E+01 0. -1.
        -11    1    3    3    0    0 -0.13533552337E+02 -0.25083760057E+02 -0.82511275084E+02  0.87295260887E+02  0.00000000000E+00 0. -1.
         11    1    3    3    0    0  0.43585753384E+01  0.11049510949E+02  0.20671051736E+02  0.23840747703E+02  0.00000000000E+00 0.  1.
<mgrwt>
<rscale>  0 0.11666322E+03</rscale>
<asrwt>0</asrwt>
<pdfrwt beam="2">  1        4 0.13530811E+00 0.12611862E+03</pdfrwt>
<pdfrwt beam="1">  1       -4 0.45634268E-02 0.12611862E+03</pdfrwt>
<totfact> 0.18899353E+02</totfact>
</mgrwt>
</event>
<event>
 7    1  0.1020736E-005  0.1243273E+03  0.7546771E-02  0.1250786E+00
          2   -1    0    0  501    0  0.00000000000E+00  0.00000000000E+00  0.12536321502E+04  0.12536321502E+04  0.00000000000E+00 0. -1.
         -2   -1    0    0    0  501 -0.00000000000E+00 -0.00000000000E+00 -0.48459970086E+02  0.48459970086E+02  0.00000000000E+00 0.  1.
         23    2    1    2    0    0 -0.19068792140E+02 -0.41044497229E+00  0.19724319273E+01  0.92486018176E+02  0.90476437660E+02 0.  0.
          5    1    1    2  502    0  0.81296640461E+01 -0.40708054275E+02  0.10414515137E+04  0.10422891070E+04  0.47000000000E+01 0. -1.
         -5    1    1    2    0  502  0.10939128094E+02  0.41118499248E+02  0.16174823453E+03  0.16731699519E+03  0.47000000000E+01 0.  1.
        -11    1    3    3    0    0  0.16092403343E+02  0.44252166360E+01  0.38250927035E+02  0.41733456682E+02  0.00000000000E+00 0. -1.
         11    1    3    3    0    0 -0.35161195483E+02 -0.48356616083E+01 -0.36278495107E+02  0.50752561494E+02  0.00000000000E+00 0.  1.
<mgrwt>
<rscale>  0 0.11545675E+03</rscale>
<asrwt>0</asrwt>
<pdfrwt beam="1">  1        2 0.19286646E+00 0.12432734E+03</pdfrwt>
<pdfrwt beam="2">  1       -2 0.74553810E-02 0.12432734E+03</pdfrwt>
<totfact> 0.19620679E+03</totfact>
</mgrwt>
</event>
<event>
 7    1  0.1020736E-005  0.1271956E+03  0.7546771E-02  0.1246053E+00
          3   -1    0    0  501    0  0.00000000000E+00  0.00000000000E+00  0.83718138877E+02  0.83718138877E+02  0.00000000000E+00 0. -1.
         -3   -1    0    0    0  501 -0.00000000000E+00 -0.00000000000E+00 -0.16050739027E+03  0.16050739027E+03  0.00000000000E+00 0.  1.
         23    2    1    2    0    0  0.23516678729E+02 -0.42248174148E+00 -0.67900183623E+02  0.11671970942E+03  0.91977404624E+02 0.  0.
          5    1    1    2  502    0 -0.94779385168E+01 -0.55416315673E+02 -0.32488860278E+02  0.65103113624E+02  0.47000000000E+01 0.  1.
         -5    1    1    2    0  502 -0.14038740212E+02  0.55838797415E+02  0.23599792503E+02  0.62402706109E+02  0.47000000000E+01 0.  1.
        -11    1    3    3    0    0  0.46791000930E+02 -0.29626407480E+02 -0.52545624734E+02  0.76342415909E+02  0.00000000000E+00 0.  1.
         11    1    3    3    0    0 -0.23274322201E+02  0.29203925739E+02 -0.15354558889E+02  0.40377293509E+02  0.00000000000E+00 0. -1.
<mgrwt>
<rscale>  0 0.11822602E+03</rscale>
<asrwt>0</asrwt>
<pdfrwt beam="1">  1        3 0.12879714E-01 0.12719559E+03</pdfrwt>
<pdfrwt beam="2">  1       -3 0.24693445E-01 0.12719559E+03</pdfrwt>
<totfact> 0.16808131E+03</totfact>
</mgrwt>
</event>
<event>
 7    1  0.1020736E-005  0.1262834E+03  0.7546771E-02  0.1249668E+00
          2   -1    0    0  501    0  0.00000000000E+00  0.00000000000E+00  0.11157346155E+03  0.11157346155E+03  0.00000000000E+00 0. -1.
         -2   -1    0    0    0  501 -0.00000000000E+00 -0.00000000000E+00 -0.11677984109E+03  0.11677984109E+03  0.00000000000E+00 0.  1.
         23    2    1    2    0    0  0.17843489167E+02 -0.14380925020E+01 -0.37967306764E+02  0.97889609796E+02  0.88433031766E+02 0.  0.
          5    1    1    2  502    0 -0.32836676152E+02 -0.28628817906E+02  0.68418099420E+02  0.81246432806E+02  0.47000000000E+01 0.  1.
         -5    1    1    2    0  502  0.14993186985E+02  0.30066910409E+02 -0.35657172192E+02  0.49217260044E+02  0.47000000000E+01 0.  1.
        -11    1    3    3    0    0 -0.29919616050E+02 -0.91242637784E+01 -0.38377494146E+02  0.49510278438E+02  0.00000000000E+00 0.  1.
         11    1    3    3    0    0  0.47763105218E+02  0.76861712764E+01  0.41018738160E+00  0.48379331358E+02  0.00000000000E+00 0. -1.
<mgrwt>
<rscale>  0 0.11610301E+03</rscale>
<asrwt>0</asrwt>
<pdfrwt beam="1">  1        2 0.17165148E-01 0.12628340E+03</pdfrwt>
<pdfrwt beam="2">  1       -2 0.17966129E-01 0.12628340E+03</pdfrwt>
<totfact> 0.78768514E+03</totfact>
</mgrwt>
</event>
<event>
 7    1  0.1020736E-005  0.4066757E+03  0.7546771E-02  0.1096311E+00
          2   -1    0    0  501    0  0.00000000000E+00  0.00000000000E+00  0.22229776805E+04  0.22229776805E+04  0.00000000000E+00 0.  1.
         -2   -1    0    0    0  501 -0.00000000000E+00 -0.00000000000E+00 -0.22536979835E+03  0.22536979835E+03  0.00000000000E+00 0. -1.
         23    2    1    2    0    0  0.29585388823E+00 -0.83608631237E+01 -0.19690969912E+03  0.21646652773E+03  0.89522826484E+02 0.  0.
          5    1    1    2  502    0  0.10453390740E+03 -0.51684573876E+02  0.19962549464E+04  0.19996636052E+04  0.47000000000E+01 0.  1.
         -5    1    1    2    0  502 -0.10482976128E+03  0.60045437000E+02  0.19826263481E+03  0.23221734585E+03  0.47000000000E+01 0. -1.
        -11    1    3    3    0    0 -0.15716487067E+02  0.37461836105E+02 -0.10373795197E+03  0.11140897544E+03  0.00000000000E+00 0.  1.
         11    1    3    3    0    0  0.16012340955E+02 -0.45822699228E+02 -0.93171747147E+02  0.10505755229E+03  0.00000000000E+00 0. -1.
<mgrwt>
<rscale>  0 0.27886352E+03</rscale>
<asrwt>0</asrwt>
<pdfrwt beam="1">  1        2 0.34199655E+00 0.40667575E+03</pdfrwt>
<pdfrwt beam="2">  1       -2 0.34672278E-01 0.40667575E+03</pdfrwt>
<totfact> 0.43004844E+01</totfact>
</mgrwt>
</event>
<event>
 7    1  0.1020736E-005  0.4115155E+03  0.7546771E-02  0.1040606E+00
          1   -1    0    0  501    0  0.00000000000E+00  0.00000000000E+00  0.14829771199E+04  0.14829771199E+04  0.00000000000E+00 0. -1.
         -1   -1    0    0    0  501 -0.00000000000E+00 -0.00000000000E+00 -0.13406388270E+03  0.13406388270E+03  0.00000000000E+00 0.  1.
         23    2    1    2    0    0 -0.28623289502E+03  0.26793862391E+03  0.33867716169E+03  0.52620555860E+03  0.92030938706E+02 0.  0.
          5    1    1    2  502    0  0.30355133921E+02 -0.24777071503E+02  0.31863114026E+02  0.50721646889E+02  0.47000000000E+01 0.  1.
         -5    1    1    2    0  502  0.25587776110E+03 -0.24316155240E+03  0.97837296152E+03  0.10401137972E+04  0.47000000000E+01 0.  1.
        -11    1    3    3    0    0 -0.27338320633E+02  0.49764614543E+02  0.17196377506E+02  0.59326351944E+02  0.00000000000E+00 0.  1.
         11    1    3    3    0    0 -0.25889457439E+03  0.21817400936E+03  0.32148078418E+03  0.46687920666E+03  0.00000000000E+00 0. -1.
<mgrwt>
<rscale>  0 0.40930091E+03</rscale>
<asrwt>0</asrwt>
<pdfrwt beam="1">  1        1 0.22815031E+00 0.41151554E+03</pdfrwt>
<pdfrwt beam="2">  1       -1 0.20625214E-01 0.41151554E+03</pdfrwt>
<totfact> 0.13832347E+02</totfact>
</mgrwt>
</event>
<event>
 7    1  0.1020736E-005  0.2790539E+03  0.7546771E-02  0.1098121E+00
         -2   -1    0    0    0  501 -0.00000000000E+00  0.00000000000E+00  0.49156156887E+02  0.49156156887E+02  0.00000000000E+00 0.  1.
          2   -1    0    0  501    0  0.00000000000E+00 -0.00000000000E+00 -0.15290951103E+04  0.15290951103E+04  0.00000000000E+00 0. -1.
         23    2    1    2    0    0  0.24867829462E+03 -0.20191838483E+02 -0.62896810317E+03  0.68269421163E+03  0.90674733150E+02 0.  0.
          5    1    1    2  502    0 -0.19039761355E+03 -0.11788390934E+02 -0.44551560789E+03  0.48466118503E+03  0.47000000000E+01 0.  1.
         -5    1    1    2    0  502 -0.58280681076E+02  0.31980229417E+02 -0.40545524232E+03  0.41089587049E+03  0.47000000000E+01 0.  1.
        -11    1    3    3    0    0  0.19585866608E+03 -0.41060644063E+02 -0.55115182014E+03  0.58635733339E+03  0.00000000000E+00 0. -1.
         11    1    3    3    0    0  0.52819628543E+02  0.20868805579E+02 -0.77816283025E+02  0.96336878243E+02  0.00000000000E+00 0.  1.
<mgrwt>
<rscale>  0 0.27559221E+03</rscale>
<asrwt>0</asrwt>
<pdfrwt beam="2">  1        2 0.23524543E+00 0.27905385E+03</pdfrwt>
<pdfrwt beam="1">  1       -2 0.75624849E-02 0.27905385E+03</pdfrwt>
<totfact> 0.13599676E+03</totfact>
</mgrwt>
</event>
<event>
 7    1  0.1020736E-005  0.1449271E+03  0.7546771E-02  0.1216236E+00
          1   -1    0    0  501    0  0.00000000000E+00  0.00000000000E+00  0.42966546658E+03  0.42966546658E+03  0.00000000000E+00 0. -1.
         -1   -1    0    0    0  501 -0.00000000000E+00 -0.00000000000E+00 -0.59488030129E+02  0.59488030129E+02  0.00000000000E+00 0.  1.
         23    2    1    2    0    0 -0.26774714588E+02 -0.68276237523E+02  0.34579751562E+02  0.12359957256E+03  0.93287540261E+02 0.  0.
          5    1    1    2  502    0 -0.85042392744E+01 -0.16160837698E+02  0.20585025398E+03  0.20671214726E+03  0.47000000000E+01 0. -1.
         -5    1    1    2    0  502  0.35278953863E+02  0.84437075221E+02  0.12974743091E+03  0.15884177689E+03  0.47000000000E+01 0. -1.
        -11    1    3    3    0    0  0.65088271814E+01  0.19830324845E+02  0.18826180415E+02  0.28107502268E+02  0.00000000000E+00 0. -1.
         11    1    3    3    0    0 -0.33283541770E+02 -0.88106562368E+02  0.15753571147E+02  0.95492070294E+02  0.00000000000E+00 0.  1.
<mgrwt>
<rscale>  0 0.13786111E+03</rscale>
<asrwt>0</asrwt>
<pdfrwt beam="1">  1        1 0.66102378E-01 0.14492710E+03</pdfrwt>
<pdfrwt beam="2">  1       -1 0.91520049E-02 0.14492710E+03</pdfrwt>
<totfact> 0.37487666E+03</totfact>
</mgrwt>
</event>
<event>
 6    1  0.1020736E-005  0.1500999E+03  0.7546771E-02  0.1217516E+00
          2   -1    0    0  501    0  0.00000000000E+00  0.00000000000E+00  0.13404430343E+04  0.13404430343E+04  0.00000000000E+00 0. -1.
         -2   -1    0    0    0  501 -0.00000000000E+00 -0.00000000000E+00 -0.12124214945E+02  0.12124214945E+02  0.00000000000E+00 0.  1.
          5    1    1    2  502    0  0.61112912433E+02  0.73857526501E+02  0.79861399578E+03  0.80436069430E+03  0.47000000000E+01 0. -1.
         -5    1    1    2    0  502 -0.24600849219E+02  0.71464083352E+01  0.41061563986E+02  0.48625250348E+02  0.47000000000E+01 0.  1.
        -11    1    1    2    0    0 -0.23377395314E+02 -0.15580673353E+01  0.11358612046E+03  0.11597731221E+03  0.00000000000E+00 0. -1.
         11    1    1    2    0    0 -0.13134667900E+02 -0.79445867501E+02  0.37505713915E+03  0.38360399240E+03  0.00000000000E+00 0.  1.
<mgrwt>
<rscale>  0 0.13693350E+03</rscale>
<asrwt>0</asrwt>
<pdfrwt beam="1">  1        2 0.20622189E+00 0.15009989E+03</pdfrwt>
<pdfrwt beam="2">  1       -2 0.18652649E-02 0.15009989E+03</pdfrwt>
<totfact> 0.13878939E+04</totfact>
</mgrwt>
</event>
<event>
 7    1  0.1020736E-005  0.2194413E+03  0.7546771E-02  0.1137855E+00
          2   -1    0    0  501    0  0.00000000000E+00  0.00000000000E+00  0.61680928661E+03  0.61680928661E+03  0.00000000000E+00 0. -1.
         -2   -1    0    0    0  501 -0.00000000000E+00 -0.00000000000E+00 -0.12086244344E+03  0.12086244344E+03  0.00000000000E+00 0.  1.
         23    2    1    2    0    0 -0.48180603421E+02  0.17383469592E+03  0.66240895636E+01  0.20139638829E+03  0.89312678842E+02 0.  0.
          5    1    1    2  502    0  0.68189994519E+02 -0.16975955878E+03  0.34587497767E+03  0.39130521761E+03  0.47000000000E+01 0. -1.
         -5    1    1    2    0  502 -0.20009391098E+02 -0.40751371353E+01  0.14344777594E+03  0.14497012416E+03  0.47000000000E+01 0. -1.
        -11    1    3    3    0    0 -0.28163546336E+02  0.28979801374E+01 -0.55898211886E+01  0.28858789510E+02  0.00000000000E+00 0. -1.
         11    1    3    3    0    0 -0.20017057086E+02  0.17093671578E+03  0.12213910752E+02  0.17253759878E+03  0.00000000000E+00 0.  1.
<mgrwt>
<rscale>  0 0.21475483E+03</rscale>
<asrwt>0</asrwt>
<pdfrwt beam="1">  1        2 0.94893735E-01 0.21944130E+03</pdfrwt>
<pdfrwt beam="2">  1       -2 0.18594222E-01 0.21944130E+03</pdfrwt>
<totfact> 0.11635676E+03</totfact>
</mgrwt>
</event>
<event>
 7    1  0.1020736E-005  0.1531751E+03  0.7546771E-02  0.1204941E+00
         -2   -1    0    0    0  501 -0.00000000000E+00  0.00000000000E+00  0.44240855584E+02  0.44240855584E+02  0.00000000000E+00 0.  1.
          2   -1    0    0  501    0  0.00000000000E+00 -0.00000000000E+00 -0.44688814715E+03  0.44688814715E+03  0.00000000000E+00 0. -1.
         23    2    1    2    0    0  0.21824501021E+02  0.86985900113E+02 -0.17532065580E+03  0.21701222939E+03  0.91181794735E+02 0.  0.
          5    1    1    2  502    0  0.46031753287E+02 -0.24129195896E+02 -0.12841795414E+03  0.13861602127E+03  0.47000000000E+01 0. -1.
         -5    1    1    2    0  502 -0.67856254308E+02 -0.62856704218E+02 -0.98908681630E+02  0.13550075209E+03  0.47000000000E+01 0.  1.
        -11    1    3    3    0    0 -0.33627831711E+02  0.34562965440E+02 -0.93028595005E+02  0.10478429813E+03  0.00000000000E+00 0. -1.
         11    1    3    3    0    0  0.55452332733E+02  0.52422934674E+02 -0.82292060792E+02  0.11222793126E+03  0.00000000000E+00 0.  1.
<mgrwt>
<rscale>  0 0.14642120E+03</rscale>
<asrwt>0</asrwt>
<pdfrwt beam="2">  1        2 0.68752026E-01 0.15317508E+03</pdfrwt>
<pdfrwt beam="1">  1       -2 0.68062852E-02 0.15317508E+03</pdfrwt>
<totfact> 0.82654927E+03</totfact>
</mgrwt>
</event>
<event>
 7    1  0.1020736E-005  0.1363737E+03  0.7546771E-02  0.1227649E+00
          2   -1    0    0  501    0  0.00000000000E+00  0.00000000000E+00  0.21605785429E+03  0.21605785429E+03  0.00000000000E+00 0. -1.
         -2   -1    0    0    0  501 -0.00000000000E+00 -0.00000000000E+00 -0.82031518733E+02  0.82031518733E+02  0.00000000000E+00 0.  1.
         23    2    1    2    0    0  0.36227977686E+02  0.40754759108E+02  0.80756390358E+01  0.11245165242E+03  0.98013985884E+02 0.  0.
          5    1    1    2  502    0  0.31114324329E+01 -0.61501931945E+02  0.12665390756E+03  0.14090944236E+03  0.47000000000E+01 0. -1.
         -5    1    1    2    0  502 -0.39339410119E+02  0.20747172837E+02 -0.70321103967E+00  0.44728278247E+02  0.47000000000E+01 0. -1.
        -11    1    3    3    0    0  0.50197753665E+02 -0.16092725002E+02  0.10961153084E+02  0.53841778833E+02  0.00000000000E+00 0.  1.
         11    1    3    3    0    0 -0.13969775979E+02  0.56847484110E+02 -0.28855140484E+01  0.58609873586E+02  0.00000000000E+00 0. -1.
<mgrwt>
<rscale>  0 0.12986997E+03</rscale>
<asrwt>0</asrwt>
<pdfrwt beam="1">  1        2 0.33239670E-01 0.13637370E+03</pdfrwt>
<pdfrwt beam="2">  1       -2 0.12620234E-01 0.13637370E+03</pdfrwt>
<totfact> 0.67798562E+03</totfact>
</mgrwt>
</event>
<event>
 7    1  0.1020736E-005  0.1315146E+03  0.7546771E-02  0.1243398E+00
          2   -1    0    0  501    0  0.00000000000E+00  0.00000000000E+00  0.53150354476E+03  0.53150354476E+03  0.00000000000E+00 0. -1.
         -2   -1    0    0    0  501 -0.00000000000E+00 -0.00000000000E+00 -0.23238449239E+02  0.23238449239E+02  0.00000000000E+00 0.  1.
         23    2    1    2    0    0  0.59339671301E+01 -0.40440835213E+02  0.19735175212E+03  0.21715762274E+03  0.80864367501E+02 0.  0.
          5    1    1    2  502    0  0.57485890765E+02  0.25880890613E+02  0.11694451907E+03  0.13293817615E+03  0.47000000000E+01 0. -1.
         -5    1    1    2    0  502 -0.63419857895E+02  0.14559944599E+02  0.19396882434E+03  0.20464619512E+03  0.47000000000E+01 0. -1.
        -11    1    3    3    0    0  0.36310874070E+02 -0.86930244054E+01  0.44362046823E+02  0.57983096221E+02  0.00000000000E+00 0.  1.
         11    1    3    3    0    0 -0.30376906940E+02 -0.31747810807E+02  0.15298970529E+03  0.15917452652E+03  0.00000000000E+00 0. -1.
<mgrwt>
<rscale>  0 0.11981787E+03</rscale>
<asrwt>0</asrwt>
<pdfrwt beam="1">  1        2 0.81769767E-01 0.13151464E+03</pdfrwt>
<pdfrwt beam="2">  1       -2 0.35751465E-02 0.13151464E+03</pdfrwt>
<totfact> 0.17791756E+04</totfact>
</mgrwt>
</event>
<event>
 7    1  0.1020736E-005  0.1474435E+03  0.7546771E-02  0.1213010E+00
          2   -1    0    0  501    0  0.00000000000E+00  0.00000000000E+00  0.12011729758E+03  0.12011729758E+03  0.00000000000E+00 0.  1.
         -2   -1    0    0    0  501 -0.00000000000E+00 -0.00000000000E+00 -0.27927843115E+03  0.27927843115E+03  0.00000000000E+00 0. -1.
         23    2    1    2    0    0  0.80544765493E+01 -0.77779978509E+02 -0.21103320427E+03  0.24309377897E+03  0.91896531042E+02 0.  0.
          5    1    1    2  502    0  0.42054540077E+02  0.70205028116E+02  0.63980989615E+02  0.10398551508E+03  0.47000000000E+01 0. -1.
         -5    1    1    2    0  502 -0.50109016626E+02  0.75749503930E+01 -0.12108918909E+02  0.52316434682E+02  0.47000000000E+01 0. -1.
        -11    1    3    3    0    0  0.41344752556E+02 -0.55521252113E+02 -0.78596603137E+02  0.10473501814E+03  0.00000000000E+00 0.  1.
         11    1    3    3    0    0 -0.33290276006E+02 -0.22258726396E+02 -0.13243660113E+03  0.13835876083E+03  0.00000000000E+00 0. -1.
<mgrwt>
<rscale>  0 0.14023707E+03</rscale>
<asrwt>0</asrwt>
<pdfrwt beam="1">  1        2 0.18479584E-01 0.14744351E+03</pdfrwt>
<pdfrwt beam="2">  1       -2 0.42965913E-01 0.14744351E+03</pdfrwt>
<totfact> 0.15444812E+03</totfact>
</mgrwt>
</event>
<event>
 7    1  0.1020736E-005  0.1278460E+03  0.7546771E-02  0.1244600E+00
          1   -1    0    0  501    0  0.00000000000E+00  0.00000000000E+00  0.12211690312E+04  0.12211690312E+04  0.00000000000E+00 0.  1.
         -1   -1    0    0    0  501 -0.00000000000E+00 -0.00000000000E+00 -0.13665763132E+02  0.13665763132E+02  0.00000000000E+00 0. -1.
         23    2    1    2    0    0 -0.25132782878E+02  0.94746712388E+01  0.23485699686E+03  0.25382237595E+03  0.92447625105E+02 0.  0.
          5    1    1    2  502    0 -0.32367825939E+02  0.90182818648E+00  0.75203074996E+03  0.75274220577E+03  0.47000000000E+01 0.  1.
         -5    1    1    2    0  502  0.57500608817E+02 -0.10376499425E+02  0.22061552125E+03  0.22827021263E+03  0.47000000000E+01 0.  1.
        -11    1    3    3    0    0  0.26931488812E+02 -0.12276559580E+02  0.14290848157E+03  0.14594126596E+03  0.00000000000E+00 0.  1.
         11    1    3    3    0    0 -0.52064271690E+02  0.21751230819E+02  0.91948515292E+02  0.10788110999E+03  0.00000000000E+00 0. -1.
<mgrwt>
<rscale>  0 0.11909362E+03</rscale>
<asrwt>0</asrwt>
<pdfrwt beam="1">  1        1 0.18787207E+00 0.12784599E+03</pdfrwt>
<pdfrwt beam="2">  1       -1 0.21024261E-02 0.12784599E+03</pdfrwt>
<totfact> 0.68531345E+03</totfact>
</mgrwt>
</event>
<event>
 7    1  0.1020736E-005  0.1627459E+03  0.7546771E-02  0.1194403E+00
         -2   -1    0    0    0  501 -0.00000000000E+00  0.00000000000E+00  0.56769699086E+02  0.56769699086E+02  0.00000000000E+00 0. -1.
          2   -1    0    0  501    0  0.00000000000E+00 -0.00000000000E+00 -0.40458533469E+03  0.40458533469E+03  0.00000000000E+00 0.  1.
         23    2    1    2    0    0 -0.49352220568E+02 -0.91793040012E+02 -0.11127543124E+03  0.17423571365E+03  0.84346063591E+02 0.  0.
          5    1    1    2  502    0  0.43041959239E+02 -0.14174872840E+02 -0.12510486780E+03  0.13314223681E+03  0.47000000000E+01 0.  1.
         -5    1    1    2    0  502  0.63102613294E+01  0.10596791285E+03 -0.11143533657E+03  0.15397708333E+03  0.47000000000E+01 0.  1.
        -11    1    3    3    0    0  0.12152296991E+02 -0.55866173088E+02 -0.74985961456E+02  0.94295291680E+02  0.00000000000E+00 0.  1.
         11    1    3    3    0    0 -0.61504517559E+02 -0.35926866924E+02 -0.36289469781E+02  0.79940421967E+02  0.00000000000E+00 0. -1.
<mgrwt>
<rscale>  0 0.15504894E+03</rscale>
<asrwt>0</asrwt>
<pdfrwt beam="2">  1        2 0.62243896E-01 0.16274592E+03</pdfrwt>
<pdfrwt beam="1">  1       -2 0.87338001E-02 0.16274592E+03</pdfrwt>
<totfact> 0.62815922E+03</totfact>
</mgrwt>
</event>
<event>
 7    1  0.1020736E-005  0.2748439E+03  0.7546771E-02  0.1100543E+00
         -2   -1    0    0    0  501 -0.00000000000E+00  0.00000000000E+00  0.49048764999E+03  0.49048764999E+03  0.00000000000E+00 0.  1.
          2   -1    0    0  501    0  0.00000000000E+00 -0.00000000000E+00 -0.21619329982E+03  0.21619329982E+03  0.00000000000E+00 0. -1.
         23    2    1    2    0    0  0.17155254867E+03 -0.17458984981E+03  0.33559685498E+03  0.42508337692E+03  0.90325719726E+02 0.  0.
          5    1    1    2  502    0  0.15816613848E+02 -0.16641152366E+01 -0.96281249183E+01  0.19176166003E+02  0.47000000000E+01 0. -1.
         -5    1    1    2    0  502 -0.18736916252E+03  0.17625396505E+03 -0.51674379889E+02  0.26242140689E+03  0.47000000000E+01 0. -1.
        -11    1    3    3    0    0  0.83890989679E+02 -0.99114437329E+02  0.24815653121E+03  0.28007683556E+03  0.00000000000E+00 0.  1.
         11    1    3    3    0    0  0.87661558995E+02 -0.75475412481E+02  0.87440323776E+02  0.14500654136E+03  0.00000000000E+00 0. -1.
<mgrwt>
<rscale>  0 0.27129051E+03</rscale>
<asrwt>0</asrwt>
<pdfrwt beam="2">  1        2 0.33260508E-01 0.27484395E+03</pdfrwt>
<pdfrwt beam="1">  1       -2 0.75459638E-01 0.27484395E+03</pdfrwt>
<totfact> 0.25486225E+02</totfact>
</mgrwt>
</event>
<event>
 7    1  0.1020736E-005  0.1271789E+03  0.7546771E-02  0.1246864E+00
          1   -1    0    0  501    0  0.00000000000E+00  0.00000000000E+00  0.17002040312E+03  0.17002040312E+03  0.00000000000E+00 0. -1.
         -1   -1    0    0    0  501 -0.00000000000E+00 -0.00000000000E+00 -0.92457786020E+02  0.92457786020E+02  0.00000000000E+00 0.  1.
         23    2    1    2    0    0  0.79813240046E+01 -0.22019754473E+02 -0.27624589007E+02  0.97436293522E+02  0.90455194751E+02 0.  0.
          5    1    1    2  502    0  0.42288436298E+02 -0.26418543034E+02  0.71735984378E+02  0.87489386301E+02  0.47000000000E+01 0. -1.
         -5    1    1    2    0  502 -0.50269760302E+02  0.48438297508E+02  0.33451221728E+02  0.77552509317E+02  0.47000000000E+01 0. -1.
        -11    1    3    3    0    0  0.38117720433E+02  0.14965711987E+02  0.24766483918E+01  0.41025198763E+02  0.00000000000E+00 0. -1.
         11    1    3    3    0    0 -0.30136396428E+02 -0.36985466460E+02 -0.30101237399E+02  0.56411094759E+02  0.00000000000E+00 0.  1.
<mgrwt>
<rscale>  0 0.11774503E+03</rscale>
<asrwt>0</asrwt>
<pdfrwt beam="1">  1        1 0.26156985E-01 0.12717893E+03</pdfrwt>
<pdfrwt beam="2">  1       -1 0.14224275E-01 0.12717893E+03</pdfrwt>
<totfact> 0.59856139E+03</totfact>
</mgrwt>
</event>
<event>
 7    1  0.1020736E-005  0.1385077E+03  0.7546771E-02  0.1226877E+00
         -1   -1    0    0    0  501 -0.00000000000E+00  0.00000000000E+00  0.46491916020E+02  0.46491916020E+02  0.00000000000E+00 0.  1.
          1   -1    0    0  501    0  0.00000000000E+00 -0.00000000000E+00 -0.45694985519E+03  0.45694985519E+03  0.00000000000E+00 0. -1.
         23    2    1    2    0    0 -0.27244434256E+02  0.53077340941E+02 -0.54886355268E+02  0.12184574991E+03  0.90963792016E+02 0.  0.
          5    1    1    2  502    0  0.24134169337E+02 -0.45567020733E+02 -0.36478479264E+03  0.36844110310E+03  0.47000000000E+01 0. -1.
         -5    1    1    2    0  502  0.31102649189E+01 -0.75103202081E+01  0.92132087419E+01  0.13154918199E+02  0.47000000000E+01 0. -1.
        -11    1    3    3    0    0 -0.28130196048E+02  0.75184546975E+02 -0.58630768122E+02  0.99406191981E+02  0.00000000000E+00 0.  1.
         11    1    3    3    0    0  0.88576179137E+00 -0.22107206034E+02  0.37444128537E+01  0.22439557932E+02  0.00000000000E+00 0. -1.
<mgrwt>
<rscale>  0 0.13039058E+03</rscale>
<asrwt>0</asrwt>
<pdfrwt beam="2">  1        1 0.70299980E-01 0.13850766E+03</pdfrwt>
<pdfrwt beam="1">  1       -1 0.71526023E-02 0.13850766E+03</pdfrwt>
<totfact> 0.50175890E+03</totfact>
</mgrwt>
</event>
<event>
 7    1  0.1020736E-005  0.1469739E+03  0.7546771E-02  0.1213258E+00
         -3   -1    0    0    0  501 -0.00000000000E+00  0.00000000000E+00  0.13717785538E+03  0.13717785538E+03  0.00000000000E+00 0.  1.
          3   -1    0    0  501    0  0.00000000000E+00 -0.00000000000E+00 -0.13134592654E+03  0.13134592654E+03  0.00000000000E+00 0. -1.
         23    2    1    2    0    0  0.40958011067E+00  0.77286269273E+02 -0.37000098302E+01  0.12124114826E+03  0.93340188470E+02 0.  0.
          5    1    1    2  502    0  0.60583342028E+02 -0.48861505240E+02 -0.55194672516E+01  0.78168680073E+02  0.47000000000E+01 0.  1.
         -5    1    1    2    0  502 -0.60992922139E+02 -0.28424764032E+02  0.15051405921E+02  0.69113953595E+02  0.47000000000E+01 0.  1.
        -11    1    3    3    0    0 -0.31833002322E+02  0.44722548300E+02  0.31650028103E+02  0.63365374158E+02  0.00000000000E+00 0.  1.
         11    1    3    3    0    0  0.32242582432E+02  0.32563720972E+02 -0.35350037933E+02  0.57875774097E+02  0.00000000000E+00 0. -1.
<mgrwt>
<rscale>  0 0.14005287E+03</rscale>
<asrwt>0</asrwt>
<pdfrwt beam="2">  1        3 0.20207066E-01 0.14697386E+03</pdfrwt>
<pdfrwt beam="1">  1       -3 0.21104285E-01 0.14697386E+03</pdfrwt>
<totfact> 0.10486892E+03</totfact>
</mgrwt>
</event>
<event>
 7    1  0.1020736E-005  0.1451475E+03  0.7546771E-02  0.1218104E+00
         -1   -1    0    0    0  501 -0.00000000000E+00  0.00000000000E+00  0.32794705113E+02  0.32794705113E+02  0.00000000000E+00 0.  1.
          1   -1    0    0  501    0  0.00000000000E+00 -0.00000000000E+00 -0.52325401364E+03  0.52325401364E+03  0.00000000000E+00 0. -1.
         23    2    1    2    0    0  0.59171429689E+02 -0.44044075662E+02 -0.17247190759E+03  0.20650076801E+03  0.86341586671E+02 0.  0.
          5    1    1    2  502    0  0.33611354152E+02  0.24593195462E+02 -0.49969757227E+02  0.65219744160E+02  0.47000000000E+01 0.  1.
         -5    1    1    2    0  502 -0.92782783841E+02  0.19450880200E+02 -0.26801764371E+03  0.28432820658E+03  0.47000000000E+01 0.  1.
        -11    1    3    3    0    0  0.24019706749E+02  0.29944888719E+01  0.10606543913E+00  0.24205877918E+02  0.00000000000E+00 0.  1.
         11    1    3    3    0    0  0.35151722940E+02 -0.47038564534E+02 -0.17257797303E+03  0.18229489009E+03  0.00000000000E+00 0. -1.
<mgrwt>
<rscale>  0 0.13650985E+03</rscale>
<asrwt>0</asrwt>
<pdfrwt beam="2">  1        1 0.80500616E-01 0.14514745E+03</pdfrwt>
<pdfrwt beam="1">  1       -1 0.50453393E-02 0.14514745E+03</pdfrwt>
<totfact> 0.70981195E+03</totfact>
</mgrwt>
</event>
<event>
 7    1  0.1020736E-005  0.1262288E+03  0.7546771E-02  0.1242223E+00
         -1   -1    0    0    0  501 -0.00000000000E+00  0.00000000000E+00  0.19908170446E+02  0.19908170446E+02  0.00000000000E+00 0.  1.
          1   -1    0    0  501    0  0.00000000000E+00 -0.00000000000E+00 -0.74936533171E+03  0.74936533171E+03  0.00000000000E+00 0. -1.
         23    2    1    2    0    0 -0.53937974388E+01  0.16681031116E+02 -0.21077093306E+03  0.23544852074E+03  0.10346144135E+03 0.  0.
          5    1    1    2  502    0  0.64583032816E+02 -0.90619706236E+01 -0.23741149905E+03  0.24625067984E+03  0.47000000000E+01 0. -1.
         -5    1    1    2    0  502 -0.59189235378E+02 -0.76190604926E+01 -0.28127472916E+03  0.28757430158E+03  0.47000000000E+01 0. -1.
        -11    1    3    3    0    0  0.40681354303E+02  0.10216311876E+02 -0.16475390310E+03  0.17000939445E+03  0.00000000000E+00 0. -1.
         11    1    3    3    0    0 -0.46075151741E+02  0.64647192404E+01 -0.46017029963E+02  0.65439126289E+02  0.00000000000E+00 0.  1.
<mgrwt>
<rscale>  0 0.12053140E+03</rscale>
<asrwt>0</asrwt>
<pdfrwt beam="2">  1        1 0.11528697E+00 0.12622879E+03</pdfrwt>
<pdfrwt beam="1">  1       -1 0.30627955E-02 0.12622879E+03</pdfrwt>
<totfact> 0.89127071E+03</totfact>
</mgrwt>
</event>
<event>
 7    1  0.1020736E-005  0.1281168E+03  0.7546771E-02  0.1241130E+00
         -1   -1    0    0    0  501 -0.00000000000E+00  0.00000000000E+00  0.70723829950E+02  0.70723829950E+02  0.00000000000E+00 0.  1.
          1   -1    0    0  501    0  0.00000000000E+00 -0.00000000000E+00 -0.21084351168E+03  0.21084351168E+03  0.00000000000E+00 0. -1.
         23    2    1    2    0    0  0.20728347951E+02 -0.18707591616E+02 -0.17246288759E+02  0.10405172748E+03  0.98740514090E+02 0.  0.
          5    1    1    2  502    0 -0.20223712205E+02 -0.16354555714E+02 -0.13692159528E+03  0.13944921399E+03  0.47000000000E+01 0. -1.
         -5    1    1    2    0  502 -0.50463574596E+00  0.35062147330E+02  0.14048202314E+02  0.38066400157E+02  0.47000000000E+01 0. -1.
        -11    1    3    3    0    0  0.77989639221E+01 -0.83673044183E+01 -0.58495915117E+02  0.59603755812E+02  0.00000000000E+00 0. -1.
         11    1    3    3    0    0  0.12929384029E+02 -0.10340287198E+02  0.41249626358E+02  0.44447971668E+02  0.00000000000E+00 0.  1.
<mgrwt>
<rscale>  0 0.12120059E+03</rscale>
<asrwt>0</asrwt>
<pdfrwt beam="2">  1        1 0.32437463E-01 0.12811683E+03</pdfrwt>
<pdfrwt beam="1">  1       -1 0.10880589E-01 0.12811683E+03</pdfrwt>
<totfact> 0.69319432E+03</totfact>
</mgrwt>
</event>
<event>
 7    1  0.1020736E-005  0.1505459E+03  0.7546771E-02  0.1211925E+00
         -1   -1    0    0    0  501 -0.00000000000E+00  0.00000000000E+00  0.67615437120E+02  0.67615437120E+02  0.00000000000E+00 0.  1.
          1   -1    0    0  501    0  0.00000000000E+00 -0.00000000000E+00 -0.27192056613E+03  0.27192056613E+03  0.00000000000E+00 0. -1.
         23    2    1    2    0    0 -0.81189731504E+02  0.21158833466E+02 -0.58342059574E+02  0.12984743344E+03  0.80106749537E+02 0.  0.
          5    1    1    2  502    0  0.32156617118E+02  0.13164822417E+02 -0.14548384331E+03  0.14964958816E+03  0.47000000000E+01 0. -1.
         -5    1    1    2    0  502  0.49033114386E+02 -0.34323655883E+02 -0.47922613338E+00  0.60038981648E+02  0.47000000000E+01 0. -1.
        -11    1    3    3    0    0 -0.84873358150E+02  0.34340793364E+02 -0.26698701187E+02  0.95370842806E+02  0.00000000000E+00 0.  1.
         11    1    3    3    0    0  0.36836266453E+01 -0.13181959898E+02 -0.31643358387E+02  0.34476590638E+02  0.00000000000E+00 0. -1.
<mgrwt>
<rscale>  0 0.14104852E+03</rscale>
<asrwt>0</asrwt>
<pdfrwt beam="2">  1        1 0.41833934E-01 0.15054594E+03</pdfrwt>
<pdfrwt beam="1">  1       -1 0.10402375E-01 0.15054594E+03</pdfrwt>
<totfact> 0.54754956E+03</totfact>
</mgrwt>
</event>
<event>
 7    1  0.1020736E-005  0.1408328E+03  0.7546771E-02  0.1225623E+00
          1   -1    0    0  501    0  0.00000000000E+00  0.00000000000E+00  0.13894374633E+04  0.13894374633E+04  0.00000000000E+00 0. -1.
         -1   -1    0    0    0  501 -0.00000000000E+00 -0.00000000000E+00 -0.13475221542E+02  0.13475221542E+02  0.00000000000E+00 0.  1.
         23    2    1    2    0    0  0.25821944785E+02 -0.59521991771E+02  0.31010576160E+03  0.32779226412E+03  0.84098422695E+02 0.  0.
          5    1    1    2  502    0  0.39445288084E+01  0.42507308954E+02  0.10238943959E+03  0.11103205826E+03  0.47000000000E+01 0. -1.
         -5    1    1    2    0  502 -0.29766473593E+02  0.17014682817E+02  0.96346704054E+03  0.96408836244E+03  0.47000000000E+01 0. -1.
        -11    1    3    3    0    0  0.49721023716E+02 -0.17077680664E+02  0.20977423109E+03  0.21626154398E+03  0.00000000000E+00 0. -1.
         11    1    3    3    0    0 -0.23899078931E+02 -0.42444311107E+02  0.10033153051E+03  0.11153072014E+03  0.00000000000E+00 0.  1.
<mgrwt>
<rscale>  0 0.13124327E+03</rscale>
<asrwt>0</asrwt>
<pdfrwt beam="1">  1        1 0.21375950E+00 0.14083282E+03</pdfrwt>
<pdfrwt beam="2">  1       -1 0.20731121E-02 0.14083282E+03</pdfrwt>
<totfact> 0.54194456E+03</totfact>
</mgrwt>
</event>
<event>
 7    1  0.1020736E-005  0.1345065E+03  0.7546771E-02  0.1245196E+00
          2   -1    0    0  501    0  0.00000000000E+00  0.00000000000E+00  0.53965499557E+03  0.53965499557E+03  0.00000000000E+00 0. -1.
         -2   -1    0    0    0  501 -0.00000000000E+00 -0.00000000000E+00 -0.24983473098E+02  0.24983473098E+02  0.00000000000E+00 0.  1.
         23    2    1    2    0    0  0.37144966514E+02 -0.16602348219E+02  0.10243349123E+03  0.13101168904E+03  0.70824120445E+02 0.  0.
          5    1    1    2  502    0 -0.13496764271E+02  0.52782968167E+02  0.36636344645E+03  0.37042201509E+03  0.47000000000E+01 0. -1.
         -5    1    1    2    0  502 -0.23648202244E+02 -0.36180619948E+02  0.45874584802E+02  0.63204764536E+02  0.47000000000E+01 0.  1.
        -11    1    3    3    0    0  0.16364933419E+02  0.21244150812E+02  0.93457820707E+01  0.28398391363E+02  0.00000000000E+00 0. -1.
         11    1    3    3    0    0  0.20780033096E+02 -0.37846499031E+02  0.93087709156E+02  0.10261329768E+03  0.00000000000E+00 0.  1.
<mgrwt>
<rscale>  0 0.11873666E+03</rscale>
<asrwt>0</asrwt>
<pdfrwt beam="1">  1        2 0.83023837E-01 0.13450647E+03</pdfrwt>
<pdfrwt beam="2">  1       -2 0.38436116E-02 0.13450647E+03</pdfrwt>
<totfact> 0.15743953E+04</totfact>
</mgrwt>
</event>
<event>
 7    1  0.1020736E-005  0.1735526E+03  0.7546771E-02  0.1201934E+00
          1   -1    0    0  501    0  0.00000000000E+00  0.00000000000E+00  0.59660812001E+03  0.59660812001E+03  0.00000000000E+00 0. -1.
         -1   -1    0    0    0  501 -0.00000000000E+00 -0.00000000000E+00 -0.34071274940E+02  0.34071274940E+02  0.00000000000E+00 0.  1.
         23    2    1    2    0    0 -0.29587322655E+02 -0.22787566972E+01  0.10232068324E+03  0.13882635082E+03  0.89009162852E+02 0.  0.
          5    1    1    2  502    0 -0.36403870118E+02 -0.64234550062E+02  0.26709035568E+03  0.27714737465E+03  0.47000000000E+01 0. -1.
         -5    1    1    2    0  502  0.65991192773E+02  0.66513306759E+02  0.19312580616E+03  0.21470566947E+03  0.47000000000E+01 0.  1.
        -11    1    3    3    0    0 -0.14558899350E+02  0.27678098045E+02  0.12345695067E+00  0.31273853349E+02  0.00000000000E+00 0.  1.
         11    1    3    3    0    0 -0.15028423305E+02 -0.29956854742E+02  0.10219722628E+03  0.10755249748E+03  0.00000000000E+00 0. -1.
<mgrwt>
<rscale>  0 0.14881736E+03</rscale>
<asrwt>0</asrwt>
<pdfrwt beam="1">  1        1 0.91785857E-01 0.17355259E+03</pdfrwt>
<pdfrwt beam="2">  1       -1 0.52417350E-02 0.17355259E+03</pdfrwt>
<totfact> 0.56756471E+03</totfact>
</mgrwt>
</event>
<event>
 7    1  0.1020736E-005  0.1990360E+03  0.7546771E-02  0.1155072E+00
         -2   -1    0    0    0  501 -0.00000000000E+00  0.00000000000E+00  0.24178815626E+02  0.24178815626E+02  0.00000000000E+00 0. -1.
          2   -1    0    0  501    0  0.00000000000E+00 -0.00000000000E+00 -0.14800998193E+04  0.14800998193E+04  0.00000000000E+00 0.  1.
         23    2    1    2    0    0 -0.13336467572E+03 -0.78776993517E+02 -0.65537969384E+03  0.67936547447E+03  0.89570940399E+02 0.  0.
          5    1    1    2  502    0  0.65467737574E+02  0.10603882305E+03 -0.46299576385E+03  0.47949705317E+03  0.47000000000E+01 0. -1.
         -5    1    1    2    0  502  0.67896938147E+02 -0.27261829534E+02 -0.33754554603E+03  0.34541610733E+03  0.47000000000E+01 0. -1.
        -11    1    3    3    0    0 -0.71398760111E+02 -0.13413934820E+02 -0.43929387211E+03  0.44526039871E+03  0.00000000000E+00 0.  1.
         11    1    3    3    0    0 -0.61965915611E+02 -0.65363058696E+02 -0.21608582173E+03  0.23410507575E+03  0.00000000000E+00 0. -1.
<mgrwt>
<rscale>  0 0.19380625E+03</rscale>
<asrwt>0</asrwt>
<pdfrwt beam="2">  1        2 0.22770777E+00 0.19903601E+03</pdfrwt>
<pdfrwt beam="1">  1       -2 0.37198161E-02 0.19903601E+03</pdfrwt>
<totfact> 0.42697585E+03</totfact>
</mgrwt>
</event>
<event>
 7    1  0.1020736E-005  0.1316610E+03  0.7546771E-02  0.1240244E+00
         -1   -1    0    0    0  501 -0.00000000000E+00  0.00000000000E+00  0.16480558394E+03  0.16480558394E+03  0.00000000000E+00 0.  1.
          1   -1    0    0  501    0  0.00000000000E+00 -0.00000000000E+00 -0.78811770998E+02  0.78811770998E+02  0.00000000000E+00 0. -1.
         23    2    1    2    0    0 -0.39358303774E+02  0.12617676811E+02  0.34969926560E+02  0.10241520192E+03  0.86935010074E+02 0.  0.
          5    1    1    2  502    0 -0.39694271560E+02 -0.22609389279E+02  0.39462604409E+02  0.60549209945E+02  0.47000000000E+01 0. -1.
         -5    1    1    2    0  502  0.79052575334E+02  0.99917124676E+01  0.11561281970E+02  0.80652943069E+02  0.47000000000E+01 0. -1.
        -11    1    3    3    0    0  0.15188555286E+01  0.34619584513E+02  0.43082451280E+02  0.55289421793E+02  0.00000000000E+00 0.  1.
         11    1    3    3    0    0 -0.40877159303E+02 -0.22001907702E+02 -0.81125247204E+01  0.47125780126E+02  0.00000000000E+00 0. -1.
<mgrwt>
<rscale>  0 0.12174586E+03</rscale>
<asrwt>0</asrwt>
<pdfrwt beam="2">  1        1 0.12124888E-01 0.13166097E+03</pdfrwt>
<pdfrwt beam="1">  1       -1 0.25354705E-01 0.13166097E+03</pdfrwt>
<totfact> 0.63710303E+03</totfact>
</mgrwt>
</event>
<event>
 7    1  0.1020736E-005  0.1480210E+03  0.7546771E-02  0.1212104E+00
          2   -1    0    0  501    0  0.00000000000E+00  0.00000000000E+00  0.50954235343E+03  0.50954235343E+03  0.00000000000E+00 0.  1.
         -2   -1    0    0    0  501 -0.00000000000E+00 -0.00000000000E+00 -0.37446724347E+02  0.37446724347E+02  0.00000000000E+00 0. -1.
         23    2    1    2    0    0 -0.52742188886E+02 -0.59190185787E+02  0.15454772305E+03  0.19663657553E+03  0.92172271080E+02 0.  0.
          5    1    1    2  502    0  0.75076700703E+02  0.47203554851E+02  0.11077369068E+03  0.14197741766E+03  0.47000000000E+01 0.  1.
         -5    1    1    2    0  502 -0.22334511817E+02  0.11986630936E+02  0.20677421535E+03  0.20837508458E+03  0.47000000000E+01 0.  1.
        -11    1    3    3    0    0 -0.33997715212E+02  0.12639035286E+02  0.94283999686E+02  0.10102010913E+03  0.00000000000E+00 0. -1.
         11    1    3    3    0    0 -0.18744473674E+02 -0.71829221072E+02  0.60263723361E+02  0.95616466398E+02  0.00000000000E+00 0.  1.
<mgrwt>
<rscale>  0 0.14091433E+03</rscale>
<asrwt>0</asrwt>
<pdfrwt beam="1">  1        2 0.78391126E-01 0.14802096E+03</pdfrwt>
<pdfrwt beam="2">  1       -2 0.57610349E-02 0.14802096E+03</pdfrwt>
<totfact> 0.92106641E+03</totfact>
</mgrwt>
</event>
<event>
 7    1  0.1020736E-005  0.1920995E+03  0.7546771E-02  0.1161294E+00
          2   -1    0    0  501    0  0.00000000000E+00  0.00000000000E+00  0.20806677382E+03  0.20806677382E+03  0.00000000000E+00 0. -1.
         -2   -1    0    0    0  501 -0.00000000000E+00 -0.00000000000E+00 -0.18551071374E+03  0.18551071374E+03  0.00000000000E+00 0.  1.
         23    2    1    2    0    0 -0.14290828224E+03  0.29222357577E+02 -0.63017758608E+02  0.18327987072E+03  0.91343033641E+02 0.  0.
          5    1    1    2  502    0  0.40505539752E+02 -0.52934114529E+02  0.80968668668E+02  0.10497968631E+03  0.47000000000E+01 0.  1.
         -5    1    1    2    0  502  0.10240274249E+03  0.23711756951E+02  0.46051500174E+01  0.10531793054E+03  0.47000000000E+01 0.  1.
        -11    1    3    3    0    0 -0.12242374974E+03  0.94236728533E+01 -0.83241613899E+02  0.14834266546E+03  0.00000000000E+00 0.  1.
         11    1    3    3    0    0 -0.20484532498E+02  0.19798684724E+02  0.20223855290E+02  0.34937205258E+02  0.00000000000E+00 0. -1.
<mgrwt>
<rscale>  0 0.18689310E+03</rscale>
<asrwt>0</asrwt>
<pdfrwt beam="1">  1        2 0.32010273E-01 0.19209948E+03</pdfrwt>
<pdfrwt beam="2">  1       -2 0.28540110E-01 0.19209948E+03</pdfrwt>
<totfact> 0.18062631E+03</totfact>
</mgrwt>
</event>
<event>
 7    1  0.1020736E-005  0.1596946E+03  0.7546771E-02  0.1197881E+00
          2   -1    0    0  501    0  0.00000000000E+00  0.00000000000E+00  0.40921092989E+03  0.40921092989E+03  0.00000000000E+00 0. -1.
         -2   -1    0    0    0  501 -0.00000000000E+00 -0.00000000000E+00 -0.59129633592E+02  0.59129633592E+02  0.00000000000E+00 0.  1.
         23    2    1    2    0    0  0.98775097581E+02 -0.10963917178E+02  0.78140490011E+02  0.15297699677E+03  0.86135346869E+02 0.  0.
          5    1    1    2  502    0 -0.10049925531E+03  0.29281342394E+01  0.28325755432E+03  0.30060872637E+03  0.47000000000E+01 0.  1.
         -5    1    1    2    0  502  0.17241577321E+01  0.80357829382E+01 -0.11316748036E+02  0.14754840339E+02  0.47000000000E+01 0.  1.
        -11    1    3    3    0    0  0.25680655892E+02  0.23124319596E+02  0.61621791728E+02  0.70650374801E+02  0.00000000000E+00 0. -1.
         11    1    3    3    0    0  0.73094441690E+02 -0.34088236773E+02  0.16518698283E+02  0.82326621971E+02  0.00000000000E+00 0.  1.
<mgrwt>
<rscale>  0 0.15212866E+03</rscale>
<asrwt>0</asrwt>
<pdfrwt beam="1">  1        2 0.62955526E-01 0.15969464E+03</pdfrwt>
<pdfrwt beam="2">  1       -2 0.90968669E-02 0.15969464E+03</pdfrwt>
<totfact> 0.58164434E+03</totfact>
</mgrwt>
</event>
<event>
 7    1  0.1020736E-005  0.1269619E+03  0.7546771E-02  0.1241387E+00
          2   -1    0    0  501    0  0.00000000000E+00  0.00000000000E+00  0.67754385391E+03  0.67754385391E+03  0.00000000000E+00 0. -1.
         -2   -1    0    0    0  501 -0.00000000000E+00 -0.00000000000E+00 -0.24518770664E+02  0.24518770664E+02  0.00000000000E+00 0.  1.
         23    2    1    2    0    0 -0.39297796027E+01 -0.21849904646E+02  0.14850055321E+03  0.18180853566E+03  0.10251374461E+03 0.  0.
          5    1    1    2  502    0 -0.55224459049E+00 -0.43468484664E+02  0.84614103181E+02  0.95244163025E+02  0.47000000000E+01 0. -1.
         -5    1    1    2    0  502  0.44820241932E+01  0.65318389310E+02  0.41991042686E+03  0.42500992589E+03  0.47000000000E+01 0. -1.
        -11    1    3    3    0    0 -0.45827494948E+01  0.17406365476E+02 -0.85483920406E+01  0.19926318237E+02  0.00000000000E+00 0.  1.
         11    1    3    3    0    0  0.65296989205E+00 -0.39256270122E+02  0.15704894525E+03  0.16188221742E+03  0.00000000000E+00 0. -1.
<mgrwt>
<rscale>  0 0.12104269E+03</rscale>
<asrwt>0</asrwt>
<pdfrwt beam="1">  1        2 0.10423750E+00 0.12696187E+03</pdfrwt>
<pdfrwt beam="2">  1       -2 0.37721191E-02 0.12696187E+03</pdfrwt>
<totfact> 0.12436088E+04</totfact>
</mgrwt>
</event>
<event>
 7    1  0.1020736E-005  0.1374230E+03  0.7546771E-02  0.1229885E+00
          1   -1    0    0  501    0  0.00000000000E+00  0.00000000000E+00  0.10482577080E+03  0.10482577080E+03  0.00000000000E+00 0. -1.
         -1   -1    0    0    0  501 -0.00000000000E+00 -0.00000000000E+00 -0.14999281829E+03  0.14999281829E+03  0.00000000000E+00 0.  1.
         23    2    1    2    0    0 -0.27443296689E+02  0.50061368127E+02 -0.52727407027E+02  0.11718781586E+03  0.87712767733E+02 0.  0.
          5    1    1    2  502    0 -0.20758340749E+02 -0.39397506793E+01 -0.46724099267E+02  0.51494288988E+02  0.47000000000E+01 0.  1.
         -5    1    1    2    0  502  0.48201637438E+02 -0.46121617448E+02  0.54284458807E+02  0.86136484231E+02  0.47000000000E+01 0.  1.
        -11    1    3    3    0    0 -0.19523089446E+02  0.74598265646E+02 -0.48405109003E+02  0.91044532161E+02  0.00000000000E+00 0.  1.
         11    1    3    3    0    0 -0.79202072425E+01 -0.24536897519E+02 -0.43222980243E+01  0.26143283704E+02  0.00000000000E+00 0. -1.
<mgrwt>
<rscale>  0 0.12837639E+03</rscale>
<asrwt>0</asrwt>
<pdfrwt beam="1">  1        1 0.16127042E-01 0.13742296E+03</pdfrwt>
<pdfrwt beam="2">  1       -1 0.23075818E-01 0.13742296E+03</pdfrwt>
<totfact> 0.51450765E+03</totfact>
</mgrwt>
</event>
<event>
 7    1  0.1116312E-005  0.2127161E+03  0.7546771E-02  0.1143121E+00
          2   -1    0    0  501    0  0.00000000000E+00  0.00000000000E+00  0.59372655584E+03  0.59372655584E+03  0.00000000000E+00 0. -1.
         -2   -1    0    0    0  501 -0.00000000000E+00 -0.00000000000E+00 -0.74317985497E+02  0.74317985497E+02  0.00000000000E+00 0.  1.
         23    2    1    2    0    0 -0.56448340602E+02 -0.16259534597E+03  0.16728990129E+03  0.25666186621E+03  0.90916119606E+02 0.  0.
          5    1    1    2  502    0  0.49132866636E+02  0.13905887263E+03  0.16008621208E+03  0.21771792287E+03  0.47000000000E+01 0. -1.
         -5    1    1    2    0  502  0.73154739666E+01  0.23536473337E+02  0.19203245697E+03  0.19366475226E+03  0.47000000000E+01 0. -1.
        -11    1    3    3    0    0 -0.31163947609E+02 -0.67712226596E+02  0.13334743637E+03  0.15276673737E+03  0.00000000000E+00 0.  1.
         11    1    3    3    0    0 -0.25284392993E+02 -0.94883119372E+02  0.33942464922E+02  0.10389512884E+03  0.00000000000E+00 0. -1.
<mgrwt>
<rscale>  0 0.20804871E+03</rscale>
<asrwt>0</asrwt>
<pdfrwt beam="1">  1        2 0.91342544E-01 0.21271612E+03</pdfrwt>
<pdfrwt beam="2">  1       -2 0.11433537E-01 0.21271612E+03</pdfrwt>
<totfact> 0.27083618E+03</totfact>
</mgrwt>
</event>
<event>
 7    1  0.1020736E-005  0.2396301E+03  0.7546771E-02  0.1122815E+00
         -1   -1    0    0    0  501 -0.00000000000E+00  0.00000000000E+00  0.60946033811E+02  0.60946033811E+02  0.00000000000E+00 0.  1.
          1   -1    0    0  501    0  0.00000000000E+00 -0.00000000000E+00 -0.12152835900E+04  0.12152835900E+04  0.00000000000E+00 0. -1.
         23    2    1    2    0    0  0.20085566741E+03  0.38140446205E+02 -0.22778516563E+03  0.31919153356E+03  0.90550873259E+02 0.  0.
          5    1    1    2  502    0 -0.16281304652E+02 -0.54411904427E+01 -0.35640012775E+03  0.35684426364E+03  0.47000000000E+01 0.  1.
         -5    1    1    2    0  502 -0.18457436275E+03 -0.32699255763E+02 -0.57015226278E+03  0.60019382658E+03  0.47000000000E+01 0.  1.
        -11    1    3    3    0    0  0.34290468023E+02 -0.79730601892E+01 -0.25632837960E+01  0.35298389621E+02  0.00000000000E+00 0.  1.
         11    1    3    3    0    0  0.16656519938E+03  0.46113506395E+02 -0.22522188183E+03  0.28389314393E+03  0.00000000000E+00 0. -1.
<mgrwt>
<rscale>  0 0.23551803E+03</rscale>
<asrwt>0</asrwt>
<pdfrwt beam="2">  1        1 0.18696671E+00 0.23963008E+03</pdfrwt>
<pdfrwt beam="1">  1       -1 0.93763126E-02 0.23963008E+03</pdfrwt>
<totfact> 0.75595649E+02</totfact>
</mgrwt>
</event>
<event>
 7    1  0.1020736E-005  0.1250807E+03  0.7546771E-02  0.1248496E+00
          1   -1    0    0  501    0  0.00000000000E+00  0.00000000000E+00  0.19134413993E+04  0.19134413993E+04  0.00000000000E+00 0. -1.
         -1   -1    0    0    0  501 -0.00000000000E+00 -0.00000000000E+00 -0.18334493801E+02  0.18334493801E+02  0.00000000000E+00 0.  1.
         23    2    1    2    0    0  0.80716688021E+01 -0.30683501941E+02  0.12392924490E+03  0.15618711804E+03  0.89606523042E+02 0.  0.
          5    1    1    2  502    0 -0.29189734707E+02  0.31506662756E+01  0.16251344439E+04  0.16254064162E+04  0.47000000000E+01 0. -1.
         -5    1    1    2    0  502  0.21118065905E+02  0.27532835665E+02  0.14604321670E+03  0.15018235879E+03  0.47000000000E+01 0.  1.
        -11    1    3    3    0    0  0.24843772387E+02  0.25267968901E+02  0.35122058336E+02  0.49892306627E+02  0.00000000000E+00 0. -1.
         11    1    3    3    0    0 -0.16772103585E+02 -0.55951470842E+02  0.88807186560E+02  0.10629481141E+03  0.00000000000E+00 0.  1.
<mgrwt>
<rscale>  0 0.11678569E+03</rscale>
<asrwt>0</asrwt>
<pdfrwt beam="1">  1        1 0.29437544E+00 0.12508074E+03</pdfrwt>
<pdfrwt beam="2">  1       -1 0.28206929E-02 0.12508074E+03</pdfrwt>
<totfact> 0.15974425E+03</totfact>
</mgrwt>
</event>
<event>
 7    1  0.1020736E-005  0.1525791E+03  0.7546771E-02  0.1206033E+00
         -1   -1    0    0    0  501 -0.00000000000E+00  0.00000000000E+00  0.72915531300E+02  0.72915531300E+02  0.00000000000E+00 0.  1.
          1   -1    0    0  501    0  0.00000000000E+00 -0.00000000000E+00 -0.27022473515E+03  0.27022473515E+03  0.00000000000E+00 0. -1.
         23    2    1    2    0    0  0.77535084134E+02  0.40565783987E+02 -0.70377943354E+02  0.14466623967E+03  0.91203036609E+02 0.  0.
          5    1    1    2  502    0 -0.14498185678E+02  0.32293409048E+02  0.39076388809E+01  0.35922434459E+02  0.47000000000E+01 0.  1.
         -5    1    1    2    0  502 -0.63036898456E+02 -0.72859193034E+02 -0.13083889938E+03  0.16255159232E+03  0.47000000000E+01 0.  1.
        -11    1    3    3    0    0  0.17950114793E+02  0.44182889738E+01 -0.72622008931E+02  0.74937868129E+02  0.00000000000E+00 0. -1.
         11    1    3    3    0    0  0.59584969341E+02  0.36147495013E+02  0.22440655774E+01  0.69728371539E+02  0.00000000000E+00 0.  1.
<mgrwt>
<rscale>  0 0.14556347E+03</rscale>
<asrwt>0</asrwt>
<pdfrwt beam="2">  1        1 0.41573036E-01 0.15257914E+03</pdfrwt>
<pdfrwt beam="1">  1       -1 0.11217774E-01 0.15257914E+03</pdfrwt>
<totfact> 0.49174791E+03</totfact>
</mgrwt>
</event>
<event>
 7    1  0.1020736E-005  0.1347588E+03  0.7546771E-02  0.1235617E+00
          1   -1    0    0  501    0  0.00000000000E+00  0.00000000000E+00  0.27698613318E+03  0.27698613318E+03  0.00000000000E+00 0. -1.
         -1   -1    0    0    0  501 -0.00000000000E+00 -0.00000000000E+00 -0.77824964627E+02  0.77824964627E+02  0.00000000000E+00 0.  1.
         23    2    1    2    0    0 -0.28508698950E+02 -0.41513549385E+02 -0.16980630280E+02  0.10010105333E+03  0.84827816047E+02 0.  0.
          5    1    1    2  502    0 -0.20218488268E+01 -0.41993457480E+02  0.44812210626E+02  0.61625989363E+02  0.47000000000E+01 0. -1.
         -5    1    1    2    0  502  0.30530547777E+02  0.83507006864E+02  0.17132958821E+03  0.19308405511E+03  0.47000000000E+01 0. -1.
        -11    1    3    3    0    0 -0.27679721690E+02 -0.63701133332E+02 -0.28515046266E+02  0.75080684894E+02  0.00000000000E+00 0.  1.
         11    1    3    3    0    0 -0.82897726047E+00  0.22187583947E+02  0.11534415986E+02  0.25020368439E+02  0.00000000000E+00 0. -1.
<mgrwt>
<rscale>  0 0.12465003E+03</rscale>
<asrwt>0</asrwt>
<pdfrwt beam="1">  1        1 0.42613251E-01 0.13475878E+03</pdfrwt>
<pdfrwt beam="2">  1       -1 0.11973072E-01 0.13475878E+03</pdfrwt>
<totfact> 0.42844824E+03</totfact>
</mgrwt>
</event>
<event>
 7    1  0.1020736E-005  0.1275696E+03  0.7546771E-02  0.1246587E+00
          1   -1    0    0  501    0  0.00000000000E+00  0.00000000000E+00  0.48740612249E+02  0.48740612249E+02  0.00000000000E+00 0. -1.
         -1   -1    0    0    0  501 -0.00000000000E+00 -0.00000000000E+00 -0.24984219420E+03  0.24984219420E+03  0.00000000000E+00 0.  1.
         23    2    1    2    0    0 -0.86170645560E+00  0.25468877272E+02 -0.87464515304E+02  0.12773964347E+03  0.89543111560E+02 0.  0.
          5    1    1    2  502    0 -0.46536895515E+02 -0.44406472939E+02 -0.26457840684E+02  0.69711726537E+02  0.47000000000E+01 0.  1.
         -5    1    1    2    0  502  0.47398601971E+02  0.18937595667E+02 -0.87179225965E+02  0.10113143645E+03  0.47000000000E+01 0.  1.
        -11    1    3    3    0    0  0.39585702596E+02  0.11578676064E+02 -0.70607883583E+02  0.81771430301E+02  0.00000000000E+00 0. -1.
         11    1    3    3    0    0 -0.40447409051E+02  0.13890201208E+02 -0.16856631721E+02  0.45968213165E+02  0.00000000000E+00 0.  1.
<mgrwt>
<rscale>  0 0.11790884E+03</rscale>
<asrwt>0</asrwt>
<pdfrwt beam="1">  1        1 0.74985558E-02 0.12756960E+03</pdfrwt>
<pdfrwt beam="2">  1       -1 0.38437260E-01 0.12756960E+03</pdfrwt>
<totfact> 0.59583356E+03</totfact>
</mgrwt>
</event>
<event>
 7    1  0.1020736E-005  0.1482180E+03  0.7546771E-02  0.1207719E+00
          2   -1    0    0  501    0  0.00000000000E+00  0.00000000000E+00  0.60518232582E+02  0.60518232582E+02  0.00000000000E+00 0. -1.
         -2   -1    0    0    0  501 -0.00000000000E+00 -0.00000000000E+00 -0.32943402049E+03  0.32943402049E+03  0.00000000000E+00 0.  1.
         23    2    1    2    0    0  0.96538491612E+02  0.10140689543E+02 -0.14513802831E+03  0.19684729789E+03  0.90891679910E+02 0.  0.
          5    1    1    2  502    0 -0.45648983455E+01 -0.48123935838E+02 -0.38720774000E+02  0.62113926269E+02  0.47000000000E+01 0. -1.
         -5    1    1    2    0  502 -0.91973593266E+02  0.37983246295E+02 -0.85056985599E+02  0.13099102892E+03  0.47000000000E+01 0.  1.
        -11    1    3    3    0    0  0.36584405336E+02  0.41153193381E+02 -0.10433306373E+03  0.11797199763E+03  0.00000000000E+00 0.  1.
         11    1    3    3    0    0  0.59954086275E+02 -0.31012503838E+02 -0.40804964583E+02  0.78875300253E+02  0.00000000000E+00 0. -1.
<mgrwt>
<rscale>  0 0.14425232E+03</rscale>
<asrwt>0</asrwt>
<pdfrwt beam="1">  1        2 0.93104974E-02 0.14821805E+03</pdfrwt>
<pdfrwt beam="2">  1       -2 0.50682156E-01 0.14821805E+03</pdfrwt>
<totfact> 0.25335417E+03</totfact>
</mgrwt>
</event>
<event>
 7    1  0.1020736E-005  0.1319478E+03  0.7546771E-02  0.1239032E+00
         -2   -1    0    0    0  501 -0.00000000000E+00  0.00000000000E+00  0.20352204646E+02  0.20352204646E+02  0.00000000000E+00 0.  1.
          2   -1    0    0  501    0  0.00000000000E+00 -0.00000000000E+00 -0.67058698868E+03  0.67058698868E+03  0.00000000000E+00 0. -1.
         23    2    1    2    0    0  0.33242230378E+02 -0.26134565826E+02 -0.21821707252E+03  0.23922077232E+03  0.88429778698E+02 0.  0.
          5    1    1    2  502    0 -0.74663430603E+02  0.37259892598E+02 -0.33947986259E+03  0.34961635341E+03  0.47000000000E+01 0.  1.
         -5    1    1    2    0  502  0.41421200225E+02 -0.11125326772E+02 -0.92537848929E+02  0.10210206760E+03  0.47000000000E+01 0.  1.
        -11    1    3    3    0    0 -0.46839711199E+01 -0.34662842648E+02 -0.18442666255E+03  0.18771426718E+03  0.00000000000E+00 0. -1.
         11    1    3    3    0    0  0.37926201498E+02  0.85282768221E+01 -0.33790409971E+02  0.51506505139E+02  0.00000000000E+00 0.  1.
<mgrwt>
<rscale>  0 0.12249833E+03</rscale>
<asrwt>0</asrwt>
<pdfrwt beam="2">  1        2 0.10316723E+00 0.13194783E+03</pdfrwt>
<pdfrwt beam="1">  1       -2 0.31311083E-02 0.13194783E+03</pdfrwt>
<totfact> 0.16615990E+04</totfact>
</mgrwt>
</event>
<event>
 7    1  0.1020736E-005  0.1278317E+03  0.7546771E-02  0.1245536E+00
          2   -1    0    0  501    0  0.00000000000E+00  0.00000000000E+00  0.30210866100E+03  0.30210866100E+03  0.00000000000E+00 0. -1.
         -2   -1    0    0    0  501 -0.00000000000E+00 -0.00000000000E+00 -0.40924880282E+02  0.40924880282E+02  0.00000000000E+00 0.  1.
         23    2    1    2    0    0  0.20992765101E+01  0.26685502119E+02  0.10742325886E+03  0.14307543172E+03  0.90632773508E+02 0.  0.
          5    1    1    2  502    0  0.64050770650E+01  0.22136066723E+02  0.14798831128E+03  0.14984545618E+03  0.47000000000E+01 0. -1.
         -5    1    1    2    0  502 -0.85043535751E+01 -0.48821568842E+02  0.57722105817E+01  0.50112653382E+02  0.47000000000E+01 0. -1.
        -11    1    3    3    0    0  0.21877949629E+02  0.54814555561E+02  0.57056160875E+02  0.82089497958E+02  0.00000000000E+00 0.  1.
         11    1    3    3    0    0 -0.19778673119E+02 -0.28129053442E+02  0.50367097982E+02  0.60985933763E+02  0.00000000000E+00 0. -1.
<mgrwt>
<rscale>  0 0.11853331E+03</rscale>
<asrwt>0</asrwt>
<pdfrwt beam="1">  1        2 0.46478254E-01 0.12783172E+03</pdfrwt>
<pdfrwt beam="2">  1       -2 0.62961356E-02 0.12783172E+03</pdfrwt>
<totfact> 0.13949296E+04</totfact>
</mgrwt>
</event>
<event>
 7    1  0.1020736E-005  0.1145994E+03  0.7546771E-02  0.1262356E+00
          2   -1    0    0  501    0  0.00000000000E+00  0.00000000000E+00  0.31786582445E+03  0.31786582445E+03  0.00000000000E+00 0. -1.
         -2   -1    0    0    0  501 -0.00000000000E+00 -0.00000000000E+00 -0.34260386858E+02  0.34260386858E+02  0.00000000000E+00 0.  1.
         23    2    1    2    0    0  0.83032717228E+01  0.14188041395E+02  0.13507573519E+03  0.16452534642E+03  0.92481838962E+02 0.  0.
          5    1    1    2  502    0 -0.60268420469E+02 -0.18772026762E+01  0.69883455156E+02  0.92420742803E+02  0.47000000000E+01 0. -1.
         -5    1    1    2    0  502  0.51965148746E+02 -0.12310838719E+02  0.78646247252E+02  0.95180122089E+02  0.47000000000E+01 0.  1.
        -11    1    3    3    0    0  0.19556852911E+02 -0.33371002413E+02  0.90330662424E+02  0.98263537855E+02  0.00000000000E+00 0.  1.
         11    1    3    3    0    0 -0.11253581189E+02  0.47559043808E+02  0.44745072763E+02  0.66261808563E+02  0.00000000000E+00 0. -1.
<mgrwt>
<rscale>  0 0.10904092E+03</rscale>
<asrwt>0</asrwt>
<pdfrwt beam="1">  1        2 0.48902433E-01 0.11459935E+03</pdfrwt>
<pdfrwt beam="2">  1       -2 0.52708289E-02 0.11459935E+03</pdfrwt>
<totfact> 0.17119090E+04</totfact>
</mgrwt>
</event>
<event>
 7    1  0.1020736E-005  0.1548889E+03  0.7546771E-02  0.1202630E+00
          1   -1    0    0  501    0  0.00000000000E+00  0.00000000000E+00  0.72664515409E+02  0.72664515409E+02  0.00000000000E+00 0. -1.
         -1   -1    0    0    0  501 -0.00000000000E+00 -0.00000000000E+00 -0.30210312104E+03  0.30210312104E+03  0.00000000000E+00 0.  1.
         23    2    1    2    0    0  0.91220121524E+02 -0.67219138167E+01 -0.15678965294E+03  0.20368745648E+03  0.92408278642E+02 0.  0.
          5    1    1    2  502    0 -0.11408666793E+03  0.12186484329E+02 -0.24681317776E+02  0.11745439816E+03  0.47000000000E+01 0.  1.
         -5    1    1    2    0  502  0.22866546407E+02 -0.54645705121E+01 -0.47967634917E+02  0.53625781812E+02  0.47000000000E+01 0.  1.
        -11    1    3    3    0    0  0.76095238263E+02  0.30954988872E+02 -0.13386689378E+03  0.15706381465E+03  0.00000000000E+00 0.  1.
         11    1    3    3    0    0  0.15124883261E+02 -0.37676902689E+02 -0.22922759162E+02  0.46623641830E+02  0.00000000000E+00 0. -1.
<mgrwt>
<rscale>  0 0.14825826E+03</rscale>
<asrwt>0</asrwt>
<pdfrwt beam="1">  1        1 0.11179156E-01 0.15488886E+03</pdfrwt>
<pdfrwt beam="2">  1       -1 0.46477404E-01 0.15488886E+03</pdfrwt>
<totfact> 0.25280183E+03</totfact>
</mgrwt>
</event>
<event>
 7    1  0.1020736E-005  0.1722667E+03  0.7546771E-02  0.1181418E+00
          1   -1    0    0  501    0  0.00000000000E+00  0.00000000000E+00  0.81642781315E+03  0.81642781315E+03  0.00000000000E+00 0. -1.
         -1   -1    0    0    0  501 -0.00000000000E+00 -0.00000000000E+00 -0.33575934004E+02  0.33575934004E+02  0.00000000000E+00 0.  1.
         23    2    1    2    0    0  0.85174225723E+02  0.82416415355E+02  0.27342715352E+03  0.31224045134E+03  0.93191077482E+02 0.  0.
          5    1    1    2  502    0 -0.10971538069E+03 -0.43911350758E+02  0.43060535037E+03  0.44655204540E+03  0.47000000000E+01 0.  1.
         -5    1    1    2    0  502  0.24541154965E+02 -0.38505064596E+02  0.78819375260E+02  0.91211250419E+02  0.47000000000E+01 0.  1.
        -11    1    3    3    0    0  0.64895412426E+02  0.37985975800E+02  0.68984684284E+02  0.10204526239E+03  0.00000000000E+00 0.  1.
         11    1    3    3    0    0  0.20278813297E+02  0.44430439555E+02  0.20444246923E+03  0.21019518894E+03  0.00000000000E+00 0. -1.
<mgrwt>
<rscale>  0 0.16662108E+03</rscale>
<asrwt>0</asrwt>
<pdfrwt beam="1">  1        1 0.12560426E+00 0.17226669E+03</pdfrwt>
<pdfrwt beam="2">  1       -1 0.51655289E-02 0.17226669E+03</pdfrwt>
<totfact> 0.36860812E+03</totfact>
</mgrwt>
</event>
<event>
 7    1  0.1020736E-005  0.2598583E+03  0.7546771E-02  0.1109302E+00
          1   -1    0    0  501    0  0.00000000000E+00  0.00000000000E+00  0.43277631488E+03  0.43277631488E+03  0.00000000000E+00 0. -1.
         -1   -1    0    0    0  501 -0.00000000000E+00 -0.00000000000E+00 -0.17567909694E+03  0.17567909694E+03  0.00000000000E+00 0.  1.
         23    2    1    2    0    0 -0.21581192130E+03 -0.72981570155E+02  0.51382797047E+01  0.24650285401E+03  0.94000851905E+02 0.  0.
          5    1    1    2  502    0  0.15484640168E+03  0.96315577868E+02  0.13154047026E+03  0.22489794123E+03  0.47000000000E+01 0. -1.
         -5    1    1    2    0  502  0.60965519617E+02 -0.23334007712E+02  0.12041846797E+03  0.13705461658E+03  0.47000000000E+01 0. -1.
        -11    1    3    3    0    0 -0.12922093026E+03 -0.27957751789E+02  0.46987219301E+02  0.14031209314E+03  0.00000000000E+00 0. -1.
         11    1    3    3    0    0 -0.86590991040E+02 -0.45023818367E+02 -0.41848939597E+02  0.10619076087E+03  0.00000000000E+00 0.  1.
<mgrwt>
<rscale>  0 0.25643917E+03</rscale>
<asrwt>0</asrwt>
<pdfrwt beam="1">  1        1 0.66580971E-01 0.25985832E+03</pdfrwt>
<pdfrwt beam="2">  1       -1 0.27027553E-01 0.25985832E+03</pdfrwt>
<totfact> 0.67019461E+02</totfact>
</mgrwt>
</event>
<event>
 7    1  0.1020736E-005  0.1850741E+03  0.7546771E-02  0.1168612E+00
          2   -1    0    0  501    0  0.00000000000E+00  0.00000000000E+00  0.75135965923E+03  0.75135965923E+03  0.00000000000E+00 0. -1.
         -2   -1    0    0    0  501 -0.00000000000E+00 -0.00000000000E+00 -0.41405023153E+02  0.41405023153E+02  0.00000000000E+00 0.  1.
         23    2    1    2    0    0  0.13641222530E+03  0.43636461870E+01  0.39988291876E+03  0.43165959996E+03  0.88296800093E+02 0.  0.
          5    1    1    2  502    0 -0.29889700405E+02 -0.25319145792E+01 -0.28641734205E+01  0.30497512540E+02  0.47000000000E+01 0.  1.
         -5    1    1    2    0  502 -0.10652252489E+03 -0.18317316078E+01  0.31293589074E+03  0.33060756988E+03  0.47000000000E+01 0.  1.
        -11    1    3    3    0    0  0.11307959394E+02  0.15138085416E+02  0.86709520511E+01  0.20789828888E+02  0.00000000000E+00 0.  1.
         11    1    3    3    0    0  0.12510426590E+03 -0.10774439229E+02  0.39121196671E+03  0.41086977108E+03  0.00000000000E+00 0. -1.
<mgrwt>
<rscale>  0 0.17916712E+03</rscale>
<asrwt>0</asrwt>
<pdfrwt beam="1">  1        2 0.11559378E+00 0.18507407E+03</pdfrwt>
<pdfrwt beam="2">  1       -2 0.63700041E-02 0.18507407E+03</pdfrwt>
<totfact> 0.50954338E+03</totfact>
</mgrwt>
</event>
<event>
 7    1  0.1020736E-005  0.1595299E+03  0.7546771E-02  0.1196753E+00
          1   -1    0    0  501    0  0.00000000000E+00  0.00000000000E+00  0.16044398482E+03  0.16044398482E+03  0.00000000000E+00 0. -1.
         -1   -1    0    0    0  501 -0.00000000000E+00 -0.00000000000E+00 -0.13638996875E+03  0.13638996875E+03  0.00000000000E+00 0.  1.
         23    2    1    2    0    0  0.95620015096E+02 -0.26111506826E+02 -0.18013888651E+01  0.13522243376E+03  0.91961206570E+02 0.  0.
          5    1    1    2  502    0 -0.11606323878E+03  0.51101254187E+02  0.20821372109E+02  0.12859872904E+03  0.47000000000E+01 0.  1.
         -5    1    1    2    0  502  0.20443223683E+02 -0.24989747360E+02  0.50340328294E+01  0.33012790767E+02  0.47000000000E+01 0.  1.
        -11    1    3    3    0    0  0.46251333590E+02 -0.46889653369E+02 -0.32544140537E+02  0.73463913150E+02  0.00000000000E+00 0.  1.
         11    1    3    3    0    0  0.49368681506E+02  0.20778146542E+02  0.30742751672E+02  0.61758520608E+02  0.00000000000E+00 0. -1.
<mgrwt>
<rscale>  0 0.15306788E+03</rscale>
<asrwt>0</asrwt>
<pdfrwt beam="1">  1        1 0.24683690E-01 0.15952988E+03</pdfrwt>
<pdfrwt beam="2">  1       -1 0.20983072E-01 0.15952988E+03</pdfrwt>
<totfact> 0.35193204E+03</totfact>
</mgrwt>
</event>
<event>
 7    1  0.1020736E-005  0.1286646E+03  0.7546771E-02  0.1244835E+00
         -4   -1    0    0    0  501 -0.00000000000E+00  0.00000000000E+00  0.19858534607E+02  0.19858534607E+02  0.00000000000E+00 0. -1.
          4   -1    0    0  501    0  0.00000000000E+00 -0.00000000000E+00 -0.77694888489E+03  0.77694888489E+03  0.00000000000E+00 0.  1.
         23    2    1    2    0    0 -0.27156881584E+02 -0.13831350292E+02 -0.15624497292E+03  0.18234037708E+03  0.88919733946E+02 0.  0.
          5    1    1    2  502    0  0.58007489345E+02  0.16200835627E+02 -0.13896868954E+03  0.15153125937E+03  0.47000000000E+01 0.  1.
         -5    1    1    2    0  502 -0.30850607762E+02 -0.23694853352E+01 -0.46187668783E+03  0.46293578304E+03  0.47000000000E+01 0.  1.
        -11    1    3    3    0    0 -0.56506478655E+02  0.54197439536E+01 -0.11450747432E+03  0.12780578011E+03  0.00000000000E+00 0.  1.
         11    1    3    3    0    0  0.29349597071E+02 -0.19251094245E+02 -0.41737498593E+02  0.54534596970E+02  0.00000000000E+00 0. -1.
<mgrwt>
<rscale>  0 0.11895243E+03</rscale>
<asrwt>0</asrwt>
<pdfrwt beam="2">  1        4 0.11953061E+00 0.12866460E+03</pdfrwt>
<pdfrwt beam="1">  1       -4 0.30551589E-02 0.12866460E+03</pdfrwt>
<totfact> 0.48368063E+02</totfact>
</mgrwt>
</event>
<event>
 7    1  0.1020736E-005  0.1379947E+03  0.7546771E-02  0.1227599E+00
          1   -1    0    0  501    0  0.00000000000E+00  0.00000000000E+00  0.11580741907E+03  0.11580741907E+03  0.00000000000E+00 0. -1.
         -1   -1    0    0    0  501 -0.00000000000E+00 -0.00000000000E+00 -0.13287346284E+03  0.13287346284E+03  0.00000000000E+00 0.  1.
         23    2    1    2    0    0  0.45046692276E+02 -0.37157144664E+02 -0.22088092222E+02  0.11059486235E+03  0.91287906519E+02 0.  0.
          5    1    1    2  502    0 -0.64076820602E+02 -0.23443656523E+02  0.22570546522E+02  0.72020577198E+02  0.47000000000E+01 0.  1.
         -5    1    1    2    0  502  0.19030128326E+02  0.60600801187E+02 -0.17548498072E+02  0.66065442352E+02  0.47000000000E+01 0.  1.
        -11    1    3    3    0    0 -0.23419232525E+02  0.89333167865E+01  0.33988756159E+00  0.25067511333E+02  0.00000000000E+00 0.  1.
         11    1    3    3    0    0  0.68465924801E+02 -0.46090461451E+02 -0.22427979783E+02  0.85527351022E+02  0.00000000000E+00 0. -1.
<mgrwt>
<rscale>  0 0.12990345E+03</rscale>
<asrwt>0</asrwt>
<pdfrwt beam="1">  1        1 0.17816526E-01 0.13799467E+03</pdfrwt>
<pdfrwt beam="2">  1       -1 0.20442071E-01 0.13799467E+03</pdfrwt>
<totfact> 0.55096133E+03</totfact>
</mgrwt>
</event>
<event>
 7    1  0.1020736E-005  0.3173770E+03  0.7546771E-02  0.1078304E+00
         -2   -1    0    0    0  501 -0.00000000000E+00  0.00000000000E+00  0.37283358794E+02  0.37283358794E+02  0.00000000000E+00 0.  1.
          2   -1    0    0  501    0  0.00000000000E+00 -0.00000000000E+00 -0.30048211598E+04  0.30048211598E+04  0.00000000000E+00 0. -1.
         23    2    1    2    0    0  0.27280751682E+03 -0.10334903057E+03 -0.90011232147E+03  0.95046012143E+03  0.89818081766E+02 0.  0.
          5    1    1    2  502    0 -0.12934279970E+03 -0.15285144291E+02 -0.77780962285E+03  0.78865270866E+03  0.47000000000E+01 0. -1.
         -5    1    1    2    0  502 -0.14346471712E+03  0.11863417486E+03 -0.12896158567E+04  0.13029916885E+04  0.47000000000E+01 0. -1.
        -11    1    3    3    0    0  0.17599902497E+03 -0.97225608003E+02 -0.50361999178E+03  0.54227444321E+03  0.00000000000E+00 0.  1.
         11    1    3    3    0    0  0.96808491856E+02 -0.61234225698E+01 -0.39649232969E+03  0.40818567821E+03  0.00000000000E+00 0. -1.
<mgrwt>
<rscale>  0 0.31429859E+03</rscale>
<asrwt>0</asrwt>
<pdfrwt beam="2">  1        2 0.46228034E+00 0.31737702E+03</pdfrwt>
<pdfrwt beam="1">  1       -2 0.57358994E-02 0.31737702E+03</pdfrwt>
<totfact> 0.32466830E+02</totfact>
</mgrwt>
</event>
<event>
 7    1  0.1020736E-005  0.1939674E+03  0.7546771E-02  0.1159276E+00
         -2   -1    0    0    0  501 -0.00000000000E+00  0.00000000000E+00  0.17289016925E+03  0.17289016925E+03  0.00000000000E+00 0.  1.
          2   -1    0    0  501    0  0.00000000000E+00 -0.00000000000E+00 -0.19840041878E+03  0.19840041878E+03  0.00000000000E+00 0. -1.
         23    2    1    2    0    0 -0.25422381688E+02 -0.14613153848E+03  0.29881786468E+01  0.17524083212E+03  0.93272160917E+02 0.  0.
          5    1    1    2  502    0  0.30589721885E+02  0.34329489387E+01 -0.42288935675E+02  0.52516286083E+02  0.47000000000E+01 0. -1.
         -5    1    1    2    0  502 -0.51673401970E+01  0.14269858954E+03  0.13790507491E+02  0.14353346982E+03  0.47000000000E+01 0. -1.
        -11    1    3    3    0    0 -0.58713080894E+02 -0.86407637158E+02 -0.12263094135E+02  0.10518502320E+03  0.00000000000E+00 0. -1.
         11    1    3    3    0    0  0.33290699206E+02 -0.59723901324E+02  0.15251272781E+02  0.70055808927E+02  0.00000000000E+00 0.  1.
<mgrwt>
<rscale>  0 0.18909915E+03</rscale>
<asrwt>0</asrwt>
<pdfrwt beam="2">  1        2 0.30523141E-01 0.19396738E+03</pdfrwt>
<pdfrwt beam="1">  1       -2 0.26598488E-01 0.19396738E+03</pdfrwt>
<totfact> 0.21583547E+03</totfact>
</mgrwt>
</event>
<event>
 7    1  0.1020736E-005  0.1921269E+03  0.7546771E-02  0.1161216E+00
         -1   -1    0    0    0  501 -0.00000000000E+00  0.00000000000E+00  0.63727377995E+02  0.63727377995E+02  0.00000000000E+00 0.  1.
          1   -1    0    0  501    0  0.00000000000E+00 -0.00000000000E+00 -0.52659236370E+03  0.52659236370E+03  0.00000000000E+00 0. -1.
         23    2    1    2    0    0 -0.13904495497E+03  0.44193434680E+02 -0.18895742173E+03  0.25574821303E+03  0.91737026704E+02 0.  0.
          5    1    1    2  502    0  0.15363465009E+03 -0.10726157241E+02 -0.23501677205E+03  0.28102247116E+03  0.47000000000E+01 0.  1.
         -5    1    1    2    0  502 -0.14589695115E+02 -0.33467277439E+02 -0.38890791936E+02  0.53549057509E+02  0.47000000000E+01 0.  1.
        -11    1    3    3    0    0 -0.78096007271E+02  0.22340073709E+02 -0.34467798953E+02  0.88238848642E+02  0.00000000000E+00 0.  1.
         11    1    3    3    0    0 -0.60948947700E+02  0.21853360971E+02 -0.15448962277E+03  0.16750936438E+03  0.00000000000E+00 0. -1.
<mgrwt>
<rscale>  0 0.18697770E+03</rscale>
<asrwt>0</asrwt>
<pdfrwt beam="2">  1        1 0.81014208E-01 0.19212692E+03</pdfrwt>
<pdfrwt beam="1">  1       -1 0.98042122E-02 0.19212692E+03</pdfrwt>
<totfact> 0.26158941E+03</totfact>
</mgrwt>
</event>
<event>
 7    1  0.1020736E-005  0.1323412E+03  0.7546771E-02  0.1237421E+00
         -2   -1    0    0    0  501 -0.00000000000E+00  0.00000000000E+00  0.21388722486E+02  0.21388722486E+02  0.00000000000E+00 0.  1.
          2   -1    0    0  501    0  0.00000000000E+00 -0.00000000000E+00 -0.64653890799E+03  0.64653890799E+03  0.00000000000E+00 0. -1.
         23    2    1    2    0    0  0.11087453602E+02  0.42077449211E+02 -0.22281063795E+03  0.24438151400E+03  0.90467124655E+02 0.  0.
          5    1    1    2  502    0  0.37264291643E+02 -0.55545121075E+02 -0.12684250526E+03  0.14347473314E+03  0.47000000000E+01 0. -1.
         -5    1    1    2    0  502 -0.48351745245E+02  0.13467671864E+02 -0.27549704229E+03  0.28007138334E+03  0.47000000000E+01 0. -1.
        -11    1    3    3    0    0 -0.12427874033E+02 -0.25741894407E+02 -0.65820241152E+02  0.71759329191E+02  0.00000000000E+00 0.  1.
         11    1    3    3    0    0  0.23515327635E+02  0.67819343618E+02 -0.15699039679E+03  0.17262218481E+03  0.00000000000E+00 0. -1.
<mgrwt>
<rscale>  0 0.12350706E+03</rscale>
<asrwt>0</asrwt>
<pdfrwt beam="2">  1        2 0.99467507E-01 0.13234123E+03</pdfrwt>
<pdfrwt beam="1">  1       -2 0.32905733E-02 0.13234123E+03</pdfrwt>
<totfact> 0.16118977E+04</totfact>
</mgrwt>
</event>
<event>
 7    1  0.1020736E-005  0.1495727E+03  0.7546771E-02  0.1209994E+00
          3   -1    0    0  501    0  0.00000000000E+00  0.00000000000E+00  0.89699674852E+02  0.89699674852E+02  0.00000000000E+00 0. -1.
         -3   -1    0    0    0  501 -0.00000000000E+00 -0.00000000000E+00 -0.21020609841E+03  0.21020609841E+03  0.00000000000E+00 0.  1.
         23    2    1    2    0    0 -0.26361530143E+02  0.77799012105E+02 -0.71601991744E+02  0.14254107204E+03  0.91888494605E+02 0.  0.
          5    1    1    2  502    0  0.86309009508E+01 -0.12299221077E+02 -0.80742083025E+02  0.82262611565E+02  0.47000000000E+01 0.  1.
         -5    1    1    2    0  502  0.17730629192E+02 -0.65499791028E+02  0.31837651211E+02  0.75102089657E+02  0.47000000000E+01 0.  1.
        -11    1    3    3    0    0  0.22744930952E+02  0.21900248693E+02 -0.59221676337E+02  0.67113036922E+02  0.00000000000E+00 0.  1.
         11    1    3    3    0    0 -0.49106461095E+02  0.55898763412E+02 -0.12380315407E+02  0.75428035118E+02  0.00000000000E+00 0. -1.
<mgrwt>
<rscale>  0 0.14250761E+03</rscale>
<asrwt>0</asrwt>
<pdfrwt beam="1">  1        3 0.13799950E-01 0.14957274E+03</pdfrwt>
<pdfrwt beam="2">  1       -3 0.32339400E-01 0.14957274E+03</pdfrwt>
<totfact> 0.93561470E+02</totfact>
</mgrwt>
</event>
<event>
 7    1  0.1020736E-005  0.1657003E+03  0.7546771E-02  0.1189339E+00
         -1   -1    0    0    0  501 -0.00000000000E+00  0.00000000000E+00  0.16301826558E+02  0.16301826558E+02  0.00000000000E+00 0.  1.
          1   -1    0    0  501    0  0.00000000000E+00 -0.00000000000E+00 -0.16123281906E+04  0.16123281906E+04  0.00000000000E+00 0. -1.
         23    2    1    2    0    0 -0.71386608633E+02 -0.82071734368E+02 -0.48669030013E+03  0.50698698561E+03  0.91304643147E+02 0.  0.
          5    1    1    2  502    0  0.51835395139E+02  0.11524734927E+03 -0.81221427148E+03  0.82199937500E+03  0.47000000000E+01 0.  1.
         -5    1    1    2    0  502  0.19551213494E+02 -0.33175614902E+02 -0.29712179244E+03  0.29964365656E+03  0.47000000000E+01 0.  1.
        -11    1    3    3    0    0 -0.93409330653E+02 -0.69011339612E+02 -0.41029913551E+03  0.42641909977E+03  0.00000000000E+00 0.  1.
         11    1    3    3    0    0  0.22022722020E+02 -0.13060394755E+02 -0.76391164623E+02  0.80567885840E+02  0.00000000000E+00 0. -1.
<mgrwt>
<rscale>  0 0.15943228E+03</rscale>
<asrwt>0</asrwt>
<pdfrwt beam="2">  1        1 0.24805050E+00 0.16570029E+03</pdfrwt>
<pdfrwt beam="1">  1       -1 0.25079732E-02 0.16570029E+03</pdfrwt>
<totfact> 0.29533761E+03</totfact>
</mgrwt>
</event>
<event>
 7    1  0.1020736E-005  0.1567889E+03  0.7546771E-02  0.1202271E+00
          2   -1    0    0  501    0  0.00000000000E+00  0.00000000000E+00  0.87879636467E+03  0.87879636467E+03  0.00000000000E+00 0. -1.
         -2   -1    0    0    0  501 -0.00000000000E+00 -0.00000000000E+00 -0.24221524356E+02  0.24221524356E+02  0.00000000000E+00 0.  1.
         23    2    1    2    0    0 -0.36326896905E+02 -0.80799081942E+02  0.27532025160E+03  0.30291903437E+03  0.90058677326E+02 0.  0.
          5    1    1    2  502    0  0.31200482138E+02  0.22808794645E+02  0.50069702296E+03  0.50220843282E+03  0.47000000000E+01 0. -1.
         -5    1    1    2    0  502  0.51264147669E+01  0.57990287297E+02  0.78557565757E+02  0.97890421834E+02  0.47000000000E+01 0.  1.
        -11    1    3    3    0    0  0.24112796500E+02 -0.12937674719E+01  0.33574892941E+02  0.41356670869E+02  0.00000000000E+00 0. -1.
         11    1    3    3    0    0 -0.60439693405E+02 -0.79505314470E+02  0.24174535866E+03  0.26156236350E+03  0.00000000000E+00 0.  1.
<mgrwt>
<rscale>  0 0.14854607E+03</rscale>
<asrwt>0</asrwt>
<pdfrwt beam="1">  1        2 0.13519942E+00 0.15678889E+03</pdfrwt>
<pdfrwt beam="2">  1       -2 0.37263890E-02 0.15678889E+03</pdfrwt>
<totfact> 0.93144705E+03</totfact>
</mgrwt>
</event>
<event>
 7    1  0.1020736E-005  0.1564027E+03  0.7546771E-02  0.1200714E+00
         -1   -1    0    0    0  501 -0.00000000000E+00  0.00000000000E+00  0.18781932019E+02  0.18781932019E+02  0.00000000000E+00 0.  1.
          1   -1    0    0  501    0  0.00000000000E+00 -0.00000000000E+00 -0.11736987851E+04  0.11736987851E+04  0.00000000000E+00 0. -1.
         23    2    1    2    0    0 -0.90582092821E+02  0.25109129258E+02 -0.38627040253E+03  0.40808337840E+03  0.92150072968E+02 0.  0.
          5    1    1    2  502    0  0.61978531724E+02 -0.75692013324E+02 -0.49881536462E+03  0.50833992295E+03  0.47000000000E+01 0. -1.
         -5    1    1    2    0  502  0.28603561097E+02  0.50582884067E+02 -0.26983108593E+03  0.27605741577E+03  0.47000000000E+01 0. -1.
        -11    1    3    3    0    0  0.77367894218E+01  0.23240907675E+02 -0.31308697862E+02  0.39752135313E+02  0.00000000000E+00 0.  1.
         11    1    3    3    0    0 -0.98318882243E+02  0.18682215833E+01 -0.35496170466E+03  0.36833124309E+03  0.00000000000E+00 0. -1.
<mgrwt>
<rscale>  0 0.14980434E+03</rscale>
<asrwt>0</asrwt>
<pdfrwt beam="2">  1        1 0.18056903E+00 0.15640275E+03</pdfrwt>
<pdfrwt beam="1">  1       -1 0.28895282E-02 0.15640275E+03</pdfrwt>
<totfact> 0.46925911E+03</totfact>
</mgrwt>
</event>
<event>
 7    1  0.1020736E-005  0.3272137E+03  0.7546771E-02  0.1073282E+00
         -1   -1    0    0    0  501 -0.00000000000E+00  0.00000000000E+00  0.15175715419E+03  0.15175715419E+03  0.00000000000E+00 0.  1.
          1   -1    0    0  501    0  0.00000000000E+00 -0.00000000000E+00 -0.10495933352E+04  0.10495933352E+04  0.00000000000E+00 0. -1.
         23    2    1    2    0    0 -0.42656651667E+02 -0.29937459981E+03 -0.92927241418E+02  0.33247352500E+03  0.10226647390E+03 0.  0.
          5    1    1    2  502    0  0.37817330689E+02  0.31086147479E+03 -0.75908437860E+03  0.82115539994E+03  0.47000000000E+01 0.  1.
         -5    1    1    2    0  502  0.48393209784E+01 -0.11486874979E+02 -0.45824561000E+02  0.47721564467E+02  0.47000000000E+01 0.  1.
        -11    1    3    3    0    0 -0.71171728865E+02 -0.17002195707E+03 -0.74225028557E+02  0.19870137328E+03  0.00000000000E+00 0. -1.
         11    1    3    3    0    0  0.28515077198E+02 -0.12935264274E+03 -0.18702212862E+02  0.13377215172E+03  0.00000000000E+00 0.  1.
<mgrwt>
<rscale>  0 0.32519737E+03</rscale>
<asrwt>0</asrwt>
<pdfrwt beam="2">  1        1 0.16147590E+00 0.32721366E+03</pdfrwt>
<pdfrwt beam="1">  1       -1 0.23347254E-01 0.32721366E+03</pdfrwt>
<totfact> 0.22936566E+02</totfact>
</mgrwt>
</event>
<event>
 7    1  0.1121151E-005  0.2163398E+03  0.7546771E-02  0.1140169E+00
         -2   -1    0    0    0  501 -0.00000000000E+00  0.00000000000E+00  0.30655234954E+02  0.30655234954E+02  0.00000000000E+00 0.  1.
          2   -1    0    0  501    0  0.00000000000E+00 -0.00000000000E+00 -0.14058541075E+04  0.14058541075E+04  0.00000000000E+00 0. -1.
         23    2    1    2    0    0  0.12995225667E+03 -0.11954314252E+03 -0.68101356562E+03  0.70939439918E+03  0.91009807702E+02 0.  0.
          5    1    1    2  502    0 -0.62857443422E+02  0.11007485628E+03 -0.58447516204E+03  0.59808096210E+03  0.47000000000E+01 0.  1.
         -5    1    1    2    0  502 -0.67094813243E+02  0.94682862380E+01 -0.10971014492E+03  0.12903398121E+03  0.47000000000E+01 0.  1.
        -11    1    3    3    0    0  0.81200151218E+02 -0.15557796432E+02 -0.24849290837E+03  0.26188592001E+03  0.00000000000E+00 0. -1.
         11    1    3    3    0    0  0.48752105447E+02 -0.10398534609E+03 -0.43252065725E+03  0.44750847917E+03  0.00000000000E+00 0.  1.
<mgrwt>
<rscale>  0 0.21177428E+03</rscale>
<asrwt>0</asrwt>
<pdfrwt beam="2">  1        2 0.21628530E+00 0.21633978E+03</pdfrwt>
<pdfrwt beam="1">  1       -2 0.47161888E-02 0.21633978E+03</pdfrwt>
<totfact> 0.32769223E+03</totfact>
</mgrwt>
</event>
<event>
 7    1  0.1020736E-005  0.2023076E+03  0.7546771E-02  0.1151976E+00
          1   -1    0    0  501    0  0.00000000000E+00  0.00000000000E+00  0.53355952188E+03  0.53355952188E+03  0.00000000000E+00 0. -1.
         -1   -1    0    0    0  501 -0.00000000000E+00 -0.00000000000E+00 -0.10187142182E+03  0.10187142182E+03  0.00000000000E+00 0.  1.
         23    2    1    2    0    0 -0.22148650753E+02 -0.15751487234E+03  0.30055204350E+02  0.18572286863E+03  0.91039391937E+02 0.  0.
          5    1    1    2  502    0  0.31286832971E+02  0.74412080325E+02  0.32922036727E+03  0.33900466640E+03  0.47000000000E+01 0.  1.
         -5    1    1    2    0  502 -0.91381822186E+01  0.83102792015E+02  0.72412528433E+02  0.11070340866E+03  0.47000000000E+01 0.  1.
        -11    1    3    3    0    0 -0.49074252385E+02 -0.12040746424E+03  0.44859442780E+02  0.13754493556E+03  0.00000000000E+00 0. -1.
         11    1    3    3    0    0  0.26925601632E+02 -0.37107408099E+02 -0.14804238430E+02  0.48177933067E+02  0.00000000000E+00 0.  1.
<mgrwt>
<rscale>  0 0.19737170E+03</rscale>
<asrwt>0</asrwt>
<pdfrwt beam="1">  1        1 0.82086079E-01 0.20230761E+03</pdfrwt>
<pdfrwt beam="2">  1       -1 0.15672527E-01 0.20230761E+03</pdfrwt>
<totfact> 0.12368895E+03</totfact>
</mgrwt>
</event>
<event>
 7    1  0.1020736E-005  0.1552846E+03  0.7546771E-02  0.1202352E+00
          2   -1    0    0  501    0  0.00000000000E+00  0.00000000000E+00  0.36593498392E+02  0.36593498392E+02  0.00000000000E+00 0. -1.
         -2   -1    0    0    0  501 -0.00000000000E+00 -0.00000000000E+00 -0.56302582115E+03  0.56302582115E+03  0.00000000000E+00 0.  1.
         23    2    1    2    0    0  0.10213525171E+02  0.91582053325E+02 -0.27505825040E+03  0.30414979634E+03  0.91424662474E+02 0.  0.
          5    1    1    2  502    0  0.52156354834E+01  0.13124570634E+02  0.68297840491E+01  0.16376603982E+02  0.47000000000E+01 0.  1.
         -5    1    1    2    0  502 -0.15429160654E+02 -0.10470662396E+03 -0.25820385640E+03  0.27909291922E+03  0.47000000000E+01 0.  1.
        -11    1    3    3    0    0  0.40083711871E+02  0.81845123645E+01 -0.96934452586E+02  0.10521396437E+03  0.00000000000E+00 0. -1.
         11    1    3    3    0    0 -0.29870186700E+02  0.83397540960E+02 -0.17812379782E+03  0.19893583197E+03  0.00000000000E+00 0.  1.
<mgrwt>
<rscale>  0 0.14848122E+03</rscale>
<asrwt>0</asrwt>
<pdfrwt beam="1">  1        2 0.56297693E-02 0.15528463E+03</pdfrwt>
<pdfrwt beam="2">  1       -2 0.86619352E-01 0.15528463E+03</pdfrwt>
<totfact> 0.15577397E+03</totfact>
</mgrwt>
</event>
<event>
 7    1  0.1020736E-005  0.2032576E+03  0.7546771E-02  0.1174041E+00
          2   -1    0    0  501    0  0.00000000000E+00  0.00000000000E+00  0.17673005759E+04  0.17673005759E+04  0.00000000000E+00 0. -1.
         -2   -1    0    0    0  501 -0.00000000000E+00 -0.00000000000E+00 -0.42462959187E+02  0.42462959187E+02  0.00000000000E+00 0.  1.
         23    2    1    2    0    0 -0.60735556883E+02 -0.13829281131E+02  0.44521702801E+02  0.11719884544E+03  0.88731789485E+02 0.  0.
          5    1    1    2  502    0  0.11705959563E+03 -0.14527071871E+02  0.67371173178E+03  0.68397629512E+03  0.47000000000E+01 0. -1.
         -5    1    1    2    0  502 -0.56324038743E+02  0.28356353002E+02  0.10066041822E+04  0.10085883946E+04  0.47000000000E+01 0.  1.
        -11    1    3    3    0    0 -0.37059968481E+02 -0.43409546025E+02 -0.21085684950E+01  0.57116337514E+02  0.00000000000E+00 0.  1.
         11    1    3    3    0    0 -0.23675588402E+02  0.29580264893E+02  0.46630271296E+02  0.60082507924E+02  0.00000000000E+00 0. -1.
<mgrwt>
<rscale>  0 0.17370227E+03</rscale>
<asrwt>0</asrwt>
<pdfrwt beam="1">  1        2 0.27189234E+00 0.20325762E+03</pdfrwt>
<pdfrwt beam="2">  1       -2 0.65327643E-02 0.20325762E+03</pdfrwt>
<totfact> 0.12857971E+03</totfact>
</mgrwt>
</event>
<event>
 7    1  0.1020736E-005  0.1330320E+03  0.7546771E-02  0.1235739E+00
         -3   -1    0    0    0  501 -0.00000000000E+00  0.00000000000E+00  0.19608565993E+03  0.19608565993E+03  0.00000000000E+00 0.  1.
          3   -1    0    0  501    0  0.00000000000E+00 -0.00000000000E+00 -0.76902327301E+02  0.76902327301E+02  0.00000000000E+00 0. -1.
         23    2    1    2    0    0  0.40370133136E+02 -0.21041802684E+02  0.13677696874E+02  0.10319708926E+03  0.91597241939E+02 0.  0.
          5    1    1    2  502    0 -0.53733222047E+02 -0.35818631039E+02  0.23247775952E+02  0.68795221984E+02  0.47000000000E+01 0. -1.
         -5    1    1    2    0  502  0.13363088911E+02  0.56860433723E+02  0.82257859805E+02  0.10099567599E+03  0.47000000000E+01 0. -1.
        -11    1    3    3    0    0 -0.22283035506E+02 -0.18492358472E+02  0.26433796502E+02  0.39207736363E+02  0.00000000000E+00 0.  1.
         11    1    3    3    0    0  0.62653168642E+02 -0.25494442118E+01 -0.12756099627E+02  0.63989352899E+02  0.00000000000E+00 0. -1.
<mgrwt>
<rscale>  0 0.12457239E+03</rscale>
<asrwt>0</asrwt>
<pdfrwt beam="2">  1        3 0.11831127E-01 0.13303199E+03</pdfrwt>
<pdfrwt beam="1">  1       -3 0.30167024E-01 0.13303199E+03</pdfrwt>
<totfact> 0.13555200E+03</totfact>
</mgrwt>
</event>
<event>
 7    1  0.1020736E-005  0.1284438E+03  0.7546771E-02  0.1244467E+00
          1   -1    0    0  501    0  0.00000000000E+00  0.00000000000E+00  0.28555164558E+03  0.28555164558E+03  0.00000000000E+00 0. -1.
         -1   -1    0    0    0  501 -0.00000000000E+00 -0.00000000000E+00 -0.52500678152E+02  0.52500678152E+02  0.00000000000E+00 0.  1.
         23    2    1    2    0    0  0.23349365972E+02 -0.18115494145E+02  0.33838483844E+02  0.10102188944E+03  0.90482126065E+02 0.  0.
          5    1    1    2  502    0  0.11928187952E+02 -0.30226799305E+02  0.16437939562E+03  0.16762642026E+03  0.47000000000E+01 0.  1.
         -5    1    1    2    0  502 -0.35277553924E+02  0.48342293450E+02  0.34833087956E+02  0.69404014029E+02  0.47000000000E+01 0.  1.
        -11    1    3    3    0    0  0.36561278704E+02  0.28389848016E+02  0.11130341072E+02  0.47608770865E+02  0.00000000000E+00 0. -1.
         11    1    3    3    0    0 -0.13211912732E+02 -0.46505342161E+02  0.22708142772E+02  0.53413118573E+02  0.00000000000E+00 0.  1.
<mgrwt>
<rscale>  0 0.11917309E+03</rscale>
<asrwt>0</asrwt>
<pdfrwt beam="1">  1        1 0.43931021E-01 0.12844381E+03</pdfrwt>
<pdfrwt beam="2">  1       -1 0.80770276E-02 0.12844381E+03</pdfrwt>
<totfact> 0.74952492E+03</totfact>
</mgrwt>
</event>
<event>
 7    1  0.1020736E-005  0.1334168E+03  0.7546771E-02  0.1234723E+00
         -1   -1    0    0    0  501 -0.00000000000E+00  0.00000000000E+00  0.19653816993E+03  0.19653816993E+03  0.00000000000E+00 0.  1.
          1   -1    0    0  501    0  0.00000000000E+00 -0.00000000000E+00 -0.71471249462E+02  0.71471249462E+02  0.00000000000E+00 0. -1.
         23    2    1    2    0    0 -0.45720589174E+02 -0.94776112335E+01  0.51051405740E+02  0.11543704130E+03  0.92408154869E+02 0.  0.
          5    1    1    2  502    0  0.32567013644E+02  0.41141887916E+02 -0.16873031684E+02  0.55317759510E+02  0.47000000000E+01 0.  1.
         -5    1    1    2    0  502  0.13153575530E+02 -0.31664276683E+02  0.90888546415E+02  0.97254618587E+02  0.47000000000E+01 0.  1.
        -11    1    3    3    0    0 -0.45553750712E+02  0.38496270359E+01  0.75112561362E+02  0.87930999691E+02  0.00000000000E+00 0.  1.
         11    1    3    3    0    0 -0.16683846263E+00 -0.13327238269E+02 -0.24061155623E+02  0.27506041607E+02  0.00000000000E+00 0. -1.
<mgrwt>
<rscale>  0 0.12522166E+03</rscale>
<asrwt>0</asrwt>
<pdfrwt beam="2">  1        1 0.10995577E-01 0.13341677E+03</pdfrwt>
<pdfrwt beam="1">  1       -1 0.30236641E-01 0.13341677E+03</pdfrwt>
<totfact> 0.54114528E+03</totfact>
</mgrwt>
</event>
<event>
 7    1  0.1020736E-005  0.1361846E+03  0.7546771E-02  0.1229706E+00
          1   -1    0    0  501    0  0.00000000000E+00  0.00000000000E+00  0.92126609722E+02  0.92126609722E+02  0.00000000000E+00 0. -1.
         -1   -1    0    0    0  501 -0.00000000000E+00 -0.00000000000E+00 -0.16491635509E+03  0.16491635509E+03  0.00000000000E+00 0.  1.
         23    2    1    2    0    0  0.29807579568E+02 -0.45080025498E+02 -0.50040192762E+02  0.11897130828E+03  0.93431530027E+02 0.  0.
          5    1    1    2  502    0 -0.35256406815E+02  0.25039261361E+01 -0.67217110806E+02  0.76088854983E+02  0.47000000000E+01 0. -1.
         -5    1    1    2    0  502  0.54488272469E+01  0.42576099362E+02  0.44467558202E+02  0.61982801548E+02  0.47000000000E+01 0. -1.
        -11    1    3    3    0    0  0.13675514954E+02 -0.73399212412E+01  0.27306661138E+02  0.31409360000E+02  0.00000000000E+00 0. -1.
         11    1    3    3    0    0  0.16132064613E+02 -0.37740104257E+02 -0.77346853900E+02  0.87561948278E+02  0.00000000000E+00 0.  1.
<mgrwt>
<rscale>  0 0.12849535E+03</rscale>
<asrwt>0</asrwt>
<pdfrwt beam="1">  1        1 0.14173324E-01 0.13618458E+03</pdfrwt>
<pdfrwt beam="2">  1       -1 0.25371747E-01 0.13618458E+03</pdfrwt>
<totfact> 0.52032584E+03</totfact>
</mgrwt>
</event>
<event>
 7    1  0.1020736E-005  0.1265438E+03  0.7546771E-02  0.1256378E+00
         -1   -1    0    0    0  501 -0.00000000000E+00  0.00000000000E+00  0.19269810989E+02  0.19269810989E+02  0.00000000000E+00 0.  1.
          1   -1    0    0  501    0  0.00000000000E+00 -0.00000000000E+00 -0.64218341632E+03  0.64218341632E+03  0.00000000000E+00 0. -1.
         23    2    1    2    0    0  0.13694021244E+02  0.14219567374E+02 -0.12402195612E+03  0.14676281866E+03  0.75948383968E+02 0.  0.
          5    1    1    2  502    0 -0.38596704854E+02 -0.48015001938E+02 -0.13633471258E+03  0.14968096035E+03  0.47000000000E+01 0.  1.
         -5    1    1    2    0  502  0.24902683610E+02  0.33795434565E+02 -0.36255693663E+03  0.36500944830E+03  0.47000000000E+01 0.  1.
        -11    1    3    3    0    0  0.39641222183E+02  0.28217157269E+02 -0.83637061505E+02  0.96761523953E+02  0.00000000000E+00 0.  1.
         11    1    3    3    0    0 -0.25947200939E+02 -0.13997589895E+02 -0.40384894617E+02  0.50001294710E+02  0.00000000000E+00 0. -1.
<mgrwt>
<rscale>  0 0.11229479E+03</rscale>
<asrwt>0</asrwt>
<pdfrwt beam="2">  1        1 0.98797458E-01 0.12654382E+03</pdfrwt>
<pdfrwt beam="1">  1       -1 0.29645860E-02 0.12654382E+03</pdfrwt>
<totfact> 0.11640173E+04</totfact>
</mgrwt>
</event>
<event>
 7    1  0.1020736E-005  0.1330988E+03  0.7546771E-02  0.1236715E+00
         -1   -1    0    0    0  501 -0.00000000000E+00  0.00000000000E+00  0.87438688408E+01  0.87438688408E+01  0.00000000000E+00 0.  1.
          1   -1    0    0  501    0  0.00000000000E+00 -0.00000000000E+00 -0.16323968600E+04  0.16323968600E+04  0.00000000000E+00 0. -1.
         23    2    1    2    0    0 -0.15790555353E+02 -0.42942108927E+02 -0.52555873368E+03  0.53500949840E+03  0.89049505781E+02 0.  0.
          5    1    1    2  502    0  0.28923139261E+01 -0.18480902158E+02 -0.84865665578E+03  0.84887579693E+03  0.47000000000E+01 0. -1.
         -5    1    1    2    0  502  0.12898241427E+02  0.61423011085E+02 -0.24943760167E+03  0.25725543347E+03  0.47000000000E+01 0. -1.
        -11    1    3    3    0    0 -0.18610546864E+01  0.27833634231E+02 -0.15674525537E+03  0.15920819639E+03  0.00000000000E+00 0. -1.
         11    1    3    3    0    0 -0.13929500666E+02 -0.70775743158E+02 -0.36881347831E+03  0.37580130201E+03  0.00000000000E+00 0.  1.
<mgrwt>
<rscale>  0 0.12395281E+03</rscale>
<asrwt>0</asrwt>
<pdfrwt beam="2">  1        1 0.25113795E+00 0.13309884E+03</pdfrwt>
<pdfrwt beam="1">  1       -1 0.13452107E-02 0.13309884E+03</pdfrwt>
<totfact> 0.70092386E+03</totfact>
</mgrwt>
</event>
<event>
 7    1  0.1020736E-005  0.2575743E+03  0.7546771E-02  0.1135640E+00
          2   -1    0    0  501    0  0.00000000000E+00  0.00000000000E+00  0.97558043068E+03  0.97558043068E+03  0.00000000000E+00 0. -1.
         -2   -1    0    0    0  501 -0.00000000000E+00 -0.00000000000E+00 -0.39751273466E+02  0.39751273466E+02  0.00000000000E+00 0.  1.
         23    2    1    2    0    0 -0.34841981371E+02  0.86305934433E+02  0.24391218153E+03  0.27702714920E+03  0.92672601712E+02 0.  0.
          5    1    1    2  502    0  0.44639933365E+02  0.69102708091E+02  0.38948287037E+03  0.39810413741E+03  0.47000000000E+01 0. -1.
         -5    1    1    2    0  502 -0.97979519934E+01 -0.15540864252E+03  0.30243410532E+03  0.34020041754E+03  0.47000000000E+01 0.  1.
        -11    1    3    3    0    0 -0.54894197048E+02  0.94815070294E+02  0.20325596226E+03  0.23090313254E+03  0.00000000000E+00 0.  1.
         11    1    3    3    0    0  0.20052215677E+02 -0.85091358615E+01  0.40656219272E+02  0.46124016653E+02  0.00000000000E+00 0. -1.
<mgrwt>
<rscale>  0 0.21765985E+03</rscale>
<asrwt>0</asrwt>
<pdfrwt beam="1">  1        2 0.15008928E+00 0.25757429E+03</pdfrwt>
<pdfrwt beam="2">  1       -2 0.61155813E-02 0.25757429E+03</pdfrwt>
<totfact> 0.38945007E+03</totfact>
</mgrwt>
</event>
<event>
 7    1  0.1020736E-005  0.1285550E+03  0.7546771E-02  0.1242962E+00
          2   -1    0    0  501    0  0.00000000000E+00  0.00000000000E+00  0.55658215526E+03  0.55658215526E+03  0.00000000000E+00 0. -1.
         -2   -1    0    0    0  501 -0.00000000000E+00 -0.00000000000E+00 -0.23258592676E+02  0.23258592676E+02  0.00000000000E+00 0.  1.
         23    2    1    2    0    0  0.96489455875E+01  0.28402219062E+02  0.20226015012E+03  0.22469376808E+03  0.93157570229E+02 0.  0.
          5    1    1    2  502    0 -0.52348352299E+02  0.25600554493E+00  0.62492751449E+02  0.81656901184E+02  0.47000000000E+01 0.  1.
         -5    1    1    2    0  502  0.42699406712E+02 -0.28658224607E+02  0.26857066102E+03  0.27349007867E+03  0.47000000000E+01 0.  1.
        -11    1    3    3    0    0 -0.23037915987E+02  0.47573116322E+02  0.73906186002E+02  0.90862925877E+02  0.00000000000E+00 0. -1.
         11    1    3    3    0    0  0.32686861574E+02 -0.19170897260E+02  0.12835396411E+03  0.13383084220E+03  0.00000000000E+00 0.  1.
<mgrwt>
<rscale>  0 0.12008170E+03</rscale>
<asrwt>0</asrwt>
<pdfrwt beam="1">  1        2 0.85628013E-01 0.12855502E+03</pdfrwt>
<pdfrwt beam="2">  1       -2 0.35782455E-02 0.12855502E+03</pdfrwt>
<totfact> 0.16848574E+04</totfact>
</mgrwt>
</event>
<event>
 7    1  0.1020736E-005  0.1503158E+03  0.7546771E-02  0.1222071E+00
          2   -1    0    0  501    0  0.00000000000E+00  0.00000000000E+00  0.12435348979E+03  0.12435348979E+03  0.00000000000E+00 0. -1.
         -2   -1    0    0    0  501 -0.00000000000E+00 -0.00000000000E+00 -0.20374367650E+03  0.20374367650E+03  0.00000000000E+00 0.  1.
         23    2    1    2    0    0 -0.86989745141E+01  0.19259400001E+02 -0.13778445917E+03  0.16683738239E+03  0.91670924115E+02 0.  0.
          5    1    1    2  502    0  0.67714599394E+02  0.19129697668E+02  0.57015599942E+02  0.90686718657E+02  0.47000000000E+01 0. -1.
         -5    1    1    2    0  502 -0.59015624880E+02 -0.38389097669E+02  0.13786725204E+01  0.70573065243E+02  0.47000000000E+01 0.  1.
        -11    1    3    3    0    0 -0.22395278415E+02 -0.17257585270E+02 -0.53439956253E+01  0.28773790746E+02  0.00000000000E+00 0.  1.
         11    1    3    3    0    0  0.13696303901E+02  0.36516985271E+02 -0.13244046355E+03  0.13806359165E+03  0.00000000000E+00 0. -1.
<mgrwt>
<rscale>  0 0.13369718E+03</rscale>
<asrwt>0</asrwt>
<pdfrwt beam="1">  1        2 0.19131306E-01 0.15031576E+03</pdfrwt>
<pdfrwt beam="2">  1       -2 0.31345181E-01 0.15031576E+03</pdfrwt>
<totfact> 0.26767257E+03</totfact>
</mgrwt>
</event>
<event>
 7    1  0.1020736E-005  0.1380840E+03  0.7546771E-02  0.1226907E+00
          2   -1    0    0  501    0  0.00000000000E+00  0.00000000000E+00  0.68779879285E+03  0.68779879285E+03  0.00000000000E+00 0. -1.
         -2   -1    0    0    0  501 -0.00000000000E+00 -0.00000000000E+00 -0.26981968161E+02  0.26981968161E+02  0.00000000000E+00 0.  1.
         23    2    1    2    0    0 -0.25308020484E+02 -0.52936735878E+02  0.15137576813E+03  0.18695752405E+03  0.92712991093E+02 0.  0.
          5    1    1    2  502    0 -0.49243988136E+02  0.90844539689E+01  0.22133154899E+03  0.22697410040E+03  0.47000000000E+01 0. -1.
         -5    1    1    2    0  502  0.74552008620E+02  0.43852281909E+02  0.28810950757E+03  0.30084913656E+03  0.47000000000E+01 0. -1.
        -11    1    3    3    0    0 -0.49801621701E+02 -0.15051219249E+02  0.36534432560E+02  0.63572836081E+02  0.00000000000E+00 0.  1.
         11    1    3    3    0    0  0.24493601217E+02 -0.37885516629E+02  0.11484133557E+03  0.12338468797E+03  0.00000000000E+00 0. -1.
<mgrwt>
<rscale>  0 0.13037038E+03</rscale>
<asrwt>0</asrwt>
<pdfrwt beam="1">  1        2 0.10581519E+00 0.13808396E+03</pdfrwt>
<pdfrwt beam="2">  1       -2 0.41510725E-02 0.13808396E+03</pdfrwt>
<totfact> 0.10660388E+04</totfact>
</mgrwt>
</event>
<event>
 7    1  0.1020736E-005  0.2364900E+03  0.7546771E-02  0.1124905E+00
         -1   -1    0    0    0  501 -0.00000000000E+00  0.00000000000E+00  0.16814017485E+02  0.16814017485E+02  0.00000000000E+00 0.  1.
          1   -1    0    0  501    0  0.00000000000E+00 -0.00000000000E+00 -0.35540093526E+04  0.35540093526E+04  0.00000000000E+00 0. -1.
         23    2    1    2    0    0 -0.51137488533E+02 -0.19413522507E+03 -0.10849893607E+04  0.11072402713E+04  0.92062898101E+02 0.  0.
          5    1    1    2  502    0  0.87689460114E+02  0.15182883305E+03 -0.16142261574E+04  0.16237270747E+04  0.47000000000E+01 0.  1.
         -5    1    1    2    0  502 -0.36551971581E+02  0.42306392016E+02 -0.83797981697E+03  0.83985602402E+03  0.47000000000E+01 0.  1.
        -11    1    3    3    0    0 -0.73067861791E+02 -0.18124887476E+03 -0.95899065043E+03  0.97869971627E+03  0.00000000000E+00 0. -1.
         11    1    3    3    0    0  0.21930373258E+02 -0.12886350309E+02 -0.12599871032E+03  0.12854055507E+03  0.00000000000E+00 0.  1.
<mgrwt>
<rscale>  0 0.23248176E+03</rscale>
<asrwt>0</asrwt>
<pdfrwt beam="2">  1        1 0.54677072E+00 0.23649005E+03</pdfrwt>
<pdfrwt beam="1">  1       -1 0.25867717E-02 0.23649005E+03</pdfrwt>
<totfact> 0.13541554E+02</totfact>
</mgrwt>
</event>
<event>
 7    1  0.1020736E-005  0.1324359E+03  0.7546771E-02  0.1236384E+00
          1   -1    0    0  501    0  0.00000000000E+00  0.00000000000E+00  0.17720944673E+03  0.17720944673E+03  0.00000000000E+00 0. -1.
         -1   -1    0    0    0  501 -0.00000000000E+00 -0.00000000000E+00 -0.81610295940E+02  0.81610295940E+02  0.00000000000E+00 0.  1.
         23    2    1    2    0    0  0.86185180690E+01  0.42896772498E+02  0.14016452896E+02  0.10327227373E+03  0.92489402771E+02 0.  0.
          5    1    1    2  502    0  0.16247631178E+02 -0.77386891637E+02  0.22024850201E+02  0.82218614331E+02  0.47000000000E+01 0.  1.
         -5    1    1    2    0  502 -0.24866149247E+02  0.34490119139E+02  0.59557847695E+02  0.73328854612E+02  0.47000000000E+01 0.  1.
        -11    1    3    3    0    0  0.25676260694E+02  0.82228769226E+01  0.45861181328E+02  0.53199003947E+02  0.00000000000E+00 0. -1.
         11    1    3    3    0    0 -0.17057742625E+02  0.34673895575E+02 -0.31844728432E+02  0.50073269783E+02  0.00000000000E+00 0.  1.
<mgrwt>
<rscale>  0 0.12416266E+03</rscale>
<asrwt>0</asrwt>
<pdfrwt beam="1">  1        1 0.27262992E-01 0.13243594E+03</pdfrwt>
<pdfrwt beam="2">  1       -1 0.12555430E-01 0.13243594E+03</pdfrwt>
<totfact> 0.69184135E+03</totfact>
</mgrwt>
</event>
<event>
 7    1  0.1020736E-005  0.1465005E+03  0.7546771E-02  0.1216045E+00
         -2   -1    0    0    0  501 -0.00000000000E+00  0.00000000000E+00  0.87874618493E+02  0.87874618493E+02  0.00000000000E+00 0.  1.
          2   -1    0    0  501    0  0.00000000000E+00 -0.00000000000E+00 -0.35740466727E+03  0.35740466727E+03  0.00000000000E+00 0. -1.
         23    2    1    2    0    0  0.13962584613E+02  0.75152794406E+02  0.23457104476E+02  0.11770657774E+03  0.86381169346E+02 0.  0.
          5    1    1    2  502    0 -0.65674516957E+02 -0.17333088548E+02 -0.15288896337E+03  0.16736398435E+03  0.47000000000E+01 0.  1.
         -5    1    1    2    0  502  0.51711932344E+02 -0.57819705858E+02 -0.14009818988E+03  0.16020872367E+03  0.47000000000E+01 0.  1.
        -11    1    3    3    0    0  0.15132243898E+02  0.29364763495E+01  0.40639863485E+02  0.43464999745E+02  0.00000000000E+00 0.  1.
         11    1    3    3    0    0 -0.11696592854E+01  0.72216318057E+02 -0.17182759009E+02  0.74241577998E+02  0.00000000000E+00 0. -1.
<mgrwt>
<rscale>  0 0.13800018E+03</rscale>
<asrwt>0</asrwt>
<pdfrwt beam="2">  1        2 0.54985335E-01 0.14650054E+03</pdfrwt>
<pdfrwt beam="1">  1       -2 0.13519172E-01 0.14650054E+03</pdfrwt>
<totfact> 0.35646536E+03</totfact>
</mgrwt>
</event>
<event>
 7    1  0.1020736E-005  0.1291857E+03  0.7546771E-02  0.1262360E+00
         -1   -1    0    0    0  501 -0.00000000000E+00  0.00000000000E+00  0.17525667053E+03  0.17525667053E+03  0.00000000000E+00 0.  1.
          1   -1    0    0  501    0  0.00000000000E+00 -0.00000000000E+00 -0.54132661907E+02  0.54132661907E+02  0.00000000000E+00 0. -1.
         23    2    1    2    0    0  0.28336964074E+02  0.16319080975E+02  0.38307076622E+02  0.75937109937E+02  0.56830595717E+02 0.  0.
          5    1    1    2  502    0 -0.49442507717E+02 -0.72910086663E+01  0.10797458592E+03  0.11907275751E+03  0.47000000000E+01 0. -1.
         -5    1    1    2    0  502  0.21105543643E+02 -0.90280723089E+01 -0.25157653919E+02  0.34379464987E+02  0.47000000000E+01 0. -1.
        -11    1    3    3    0    0  0.32711706573E+02  0.33686337563E+02  0.22581603155E+02  0.52103300148E+02  0.00000000000E+00 0.  1.
         11    1    3    3    0    0 -0.43747424990E+01 -0.17367256587E+02  0.15725473466E+02  0.23833809789E+02  0.00000000000E+00 0. -1.
<mgrwt>
<rscale>  0 0.10903900E+03</rscale>
<asrwt>0</asrwt>
<pdfrwt beam="2">  1        1 0.83281019E-02 0.12918568E+03</pdfrwt>
<pdfrwt beam="1">  1       -1 0.26962564E-01 0.12918568E+03</pdfrwt>
<totfact> 0.94502952E+03</totfact>
</mgrwt>
</event>
<event>
 7    1  0.1020736E-005  0.1267524E+03  0.7546771E-02  0.1246612E+00
         -1   -1    0    0    0  501 -0.00000000000E+00  0.00000000000E+00  0.34550231105E+02  0.34550231105E+02  0.00000000000E+00 0.  1.
          1   -1    0    0  501    0  0.00000000000E+00 -0.00000000000E+00 -0.37218525812E+03  0.37218525812E+03  0.00000000000E+00 0. -1.
         23    2    1    2    0    0 -0.14057283143E+02  0.15595539755E+02 -0.10284176605E+03  0.13991338167E+03  0.92512147622E+02 0.  0.
          5    1    1    2  502    0  0.41932838317E+02 -0.27868455307E+02 -0.28113564258E+02  0.57857378318E+02  0.47000000000E+01 0.  1.
         -5    1    1    2    0  502 -0.27875555174E+02  0.12272915552E+02 -0.20667969671E+03  0.20896472924E+03  0.47000000000E+01 0.  1.
        -11    1    3    3    0    0  0.19362530934E+02  0.96833015991E+01 -0.10372799723E+03  0.10596306594E+03  0.00000000000E+00 0. -1.
         11    1    3    3    0    0 -0.33419814077E+02  0.59122381562E+01  0.88623117751E+00  0.33950315737E+02  0.00000000000E+00 0.  1.
<mgrwt>
<rscale>  0 0.11789443E+03</rscale>
<asrwt>0</asrwt>
<pdfrwt beam="2">  1        1 0.57259269E-01 0.12675236E+03</pdfrwt>
<pdfrwt beam="1">  1       -1 0.53154203E-02 0.12675236E+03</pdfrwt>
<totfact> 0.10066950E+04</totfact>
</mgrwt>
</event>
<event>
 7    1  0.1020736E-005  0.1335149E+03  0.7546771E-02  0.1233223E+00
         -1   -1    0    0    0  501 -0.00000000000E+00  0.00000000000E+00  0.17199813695E+03  0.17199813695E+03  0.00000000000E+00 0.  1.
          1   -1    0    0  501    0  0.00000000000E+00 -0.00000000000E+00 -0.10854772106E+03  0.10854772106E+03  0.00000000000E+00 0. -1.
         23    2    1    2    0    0 -0.43044181773E+02 -0.18644276923E+02  0.95681976140E+02  0.14319552324E+03  0.95653053643E+02 0.  0.
          5    1    1    2  502    0  0.11594028593E+02 -0.49918534592E+02  0.74326434745E+01  0.51996305483E+02  0.47000000000E+01 0. -1.
         -5    1    1    2    0  502  0.31450153180E+02  0.68562811515E+02 -0.39664203728E+02  0.85354029285E+02  0.47000000000E+01 0. -1.
        -11    1    3    3    0    0  0.15306676276E+02  0.70114144995E+01 -0.10143588268E+02  0.19655702858E+02  0.00000000000E+00 0. -1.
         11    1    3    3    0    0 -0.58350858048E+02 -0.25655691422E+02  0.10582556441E+03  0.12353982038E+03  0.00000000000E+00 0.  1.
<mgrwt>
<rscale>  0 0.12618900E+03</rscale>
<asrwt>0</asrwt>
<pdfrwt beam="2">  1        1 0.16699649E-01 0.13351495E+03</pdfrwt>
<pdfrwt beam="1">  1       -1 0.26461252E-01 0.13351495E+03</pdfrwt>
<totfact> 0.39229143E+03</totfact>
</mgrwt>
</event>
<event>
 7    1  0.1020736E-005  0.1423097E+03  0.7546771E-02  0.1221198E+00
         -1   -1    0    0    0  501 -0.00000000000E+00  0.00000000000E+00  0.76394875702E+02  0.76394875702E+02  0.00000000000E+00 0.  1.
          1   -1    0    0  501    0  0.00000000000E+00 -0.00000000000E+00 -0.21542864993E+03  0.21542864993E+03  0.00000000000E+00 0. -1.
         23    2    1    2    0    0 -0.67665870827E+02  0.68495313300E+01 -0.46702869347E+02  0.12218552237E+03  0.90125233526E+02 0.  0.
          5    1    1    2  502    0  0.71565812769E+02 -0.32518259072E+02 -0.11186925789E+03  0.13680615334E+03  0.47000000000E+01 0.  1.
         -5    1    1    2    0  502 -0.38999419419E+01  0.25668727742E+02  0.19538353007E+02  0.32831849922E+02  0.47000000000E+01 0.  1.
        -11    1    3    3    0    0 -0.68550816456E+02  0.38972918738E+02 -0.22644163420E+02  0.82041824509E+02  0.00000000000E+00 0.  1.
         11    1    3    3    0    0  0.88494562915E+00 -0.32123387408E+02 -0.24058705927E+02  0.40143697864E+02  0.00000000000E+00 0. -1.
<mgrwt>
<rscale>  0 0.13430952E+03</rscale>
<asrwt>0</asrwt>
<pdfrwt beam="2">  1        1 0.33142869E-01 0.14230972E+03</pdfrwt>
<pdfrwt beam="1">  1       -1 0.11753058E-01 0.14230972E+03</pdfrwt>
<totfact> 0.60368483E+03</totfact>
</mgrwt>
</event>
<event>
 7    1  0.1020736E-005  0.1547131E+03  0.7546771E-02  0.1203241E+00
         -2   -1    0    0    0  501 -0.00000000000E+00  0.00000000000E+00  0.41608212190E+02  0.41608212190E+02  0.00000000000E+00 0.  1.
          2   -1    0    0  501    0  0.00000000000E+00 -0.00000000000E+00 -0.48387747082E+03  0.48387747082E+03  0.00000000000E+00 0. -1.
         23    2    1    2    0    0  0.91118947396E+02  0.28059788924E+01 -0.18856063393E+03  0.22832545424E+03  0.90922298095E+02 0.  0.
          5    1    1    2  502    0 -0.72892768788E+02  0.45654314575E+02 -0.86571338831E+02  0.12212435829E+03  0.47000000000E+01 0.  1.
         -5    1    1    2    0  502 -0.18226178608E+02 -0.48460293467E+02 -0.16713728587E+03  0.17503587048E+03  0.47000000000E+01 0.  1.
        -11    1    3    3    0    0  0.83508760916E+02  0.31599024895E+02 -0.17309659247E+03  0.19476817463E+03  0.00000000000E+00 0.  1.
         11    1    3    3    0    0  0.76101864800E+01 -0.28793046002E+02 -0.15464041469E+02  0.33557279611E+02  0.00000000000E+00 0. -1.
<mgrwt>
<rscale>  0 0.14776950E+03</rscale>
<asrwt>0</asrwt>
<pdfrwt beam="2">  1        2 0.74442689E-01 0.15471307E+03</pdfrwt>
<pdfrwt beam="1">  1       -2 0.64012633E-02 0.15471307E+03</pdfrwt>
<totfact> 0.83292360E+03</totfact>
</mgrwt>
</event>
<event>
 7    1  0.1020736E-005  0.1487595E+03  0.7546771E-02  0.1211325E+00
         -1   -1    0    0    0  501 -0.00000000000E+00  0.00000000000E+00  0.26179204174E+02  0.26179204174E+02  0.00000000000E+00 0. -1.
          1   -1    0    0  501    0  0.00000000000E+00 -0.00000000000E+00 -0.79554662371E+03  0.79554662371E+03  0.00000000000E+00 0.  1.
         23    2    1    2    0    0 -0.79854512876E+02 -0.11331938924E+02 -0.20842176880E+03  0.24139021265E+03  0.91238396448E+02 0.  0.
          5    1    1    2  502    0  0.69087861891E+02 -0.43753084620E+02 -0.21970293203E+03  0.23447586958E+03  0.47000000000E+01 0.  1.
         -5    1    1    2    0  502  0.10766650985E+02  0.55085023544E+02 -0.34124271871E+03  0.34585974566E+03  0.47000000000E+01 0.  1.
        -11    1    3    3    0    0 -0.42109553306E+02 -0.32422263399E+02 -0.37396230406E+02  0.64983811001E+02  0.00000000000E+00 0. -1.
         11    1    3    3    0    0 -0.37744959570E+02  0.21090324475E+02 -0.17102553840E+03  0.17640640165E+03  0.00000000000E+00 0.  1.
<mgrwt>
<rscale>  0 0.14149947E+03</rscale>
<asrwt>0</asrwt>
<pdfrwt beam="2">  1        1 0.12239177E+00 0.14875955E+03</pdfrwt>
<pdfrwt beam="1">  1       -1 0.40275704E-02 0.14875955E+03</pdfrwt>
<totfact> 0.55117405E+03</totfact>
</mgrwt>
</event>
<event>
 7    1  0.1020736E-005  0.2264788E+03  0.7546771E-02  0.1129143E+00
         -2   -1    0    0    0  501 -0.00000000000E+00  0.00000000000E+00  0.22122922294E+03  0.22122922294E+03  0.00000000000E+00 0.  1.
          2   -1    0    0  501    0  0.00000000000E+00 -0.00000000000E+00 -0.57963252941E+02  0.57963252941E+02  0.00000000000E+00 0. -1.
         23    2    1    2    0    0  0.16169614301E+02 -0.70020490738E+01  0.97234317216E+02  0.13673029588E+03  0.94499609779E+02 0.  0.
          5    1    1    2  502    0  0.13504563221E+02 -0.19276258635E+02  0.91844058803E+02  0.94928228216E+02  0.47000000000E+01 0.  1.
         -5    1    1    2    0  502 -0.29674177523E+02  0.26278307709E+02 -0.25812406022E+02  0.47533951785E+02  0.47000000000E+01 0.  1.
        -11    1    3    3    0    0 -0.39021951116E+02 -0.94492845796E+01  0.32719561069E+02  0.51793545201E+02  0.00000000000E+00 0. -1.
         11    1    3    3    0    0  0.55191565417E+02  0.24472355059E+01  0.64514756146E+02  0.84936750676E+02  0.00000000000E+00 0.  1.
<mgrwt>
<rscale>  0 0.22647883E+03</rscale>
<asrwt>0</asrwt>
<pdfrwt beam="2">  1        2 0.89174236E-02 0.22647883E+03</pdfrwt>
<pdfrwt beam="1">  1       -2 0.34035265E-01 0.22647883E+03</pdfrwt>
<totfact> 0.58850972E+03</totfact>
</mgrwt>
</event>
<event>
 7    1  0.1212047E-005  0.1267511E+03  0.7546771E-02  0.1247546E+00
         -1   -1    0    0    0  501 -0.00000000000E+00  0.00000000000E+00  0.13333713831E+03  0.13333713831E+03  0.00000000000E+00 0.  1.
          1   -1    0    0  501    0  0.00000000000E+00 -0.00000000000E+00 -0.97776528551E+02  0.97776528551E+02  0.00000000000E+00 0. -1.
         23    2    1    2    0    0 -0.16949875289E+02  0.12393388216E+02  0.46160640960E+02  0.10392008504E+03  0.90706587175E+02 0.  0.
          5    1    1    2  502    0  0.48623751785E+02  0.34501823327E+02  0.19525769991E+02  0.62912564279E+02  0.47000000000E+01 0.  1.
         -5    1    1    2    0  502 -0.31673876495E+02 -0.46895211543E+02 -0.30125801196E+02  0.64281017537E+02  0.47000000000E+01 0.  1.
        -11    1    3    3    0    0  0.14044157317E+02  0.78211642582E+01  0.65271499333E+02  0.67221853517E+02  0.00000000000E+00 0.  1.
         11    1    3    3    0    0 -0.30994032607E+02  0.45722239580E+01 -0.19110858373E+02  0.36698231523E+02  0.00000000000E+00 0. -1.
<mgrwt>
<rscale>  0 0.11734304E+03</rscale>
<asrwt>0</asrwt>
<pdfrwt beam="2">  1        1 0.15042543E-01 0.12675112E+03</pdfrwt>
<pdfrwt beam="1">  1       -1 0.20513406E-01 0.12675112E+03</pdfrwt>
<totfact> 0.67713919E+03</totfact>
</mgrwt>
</event>
<event>
 7    1  0.1020736E-005  0.2529315E+03  0.7546771E-02  0.1111466E+00
         -2   -1    0    0    0  501 -0.00000000000E+00  0.00000000000E+00  0.13492914103E+03  0.13492914103E+03  0.00000000000E+00 0. -1.
          2   -1    0    0  501    0  0.00000000000E+00 -0.00000000000E+00 -0.11853324929E+03  0.11853324929E+03  0.00000000000E+00 0.  1.
         23    2    1    2    0    0 -0.47461130900E+02  0.13409164479E+02  0.50862780437E+02  0.11472525696E+03  0.90235788424E+02 0.  0.
          5    1    1    2  502    0  0.22140647305E+02  0.10078521150E+01  0.46952779614E+02  0.52133267138E+02  0.47000000000E+01 0.  1.
         -5    1    1    2    0  502  0.25320483594E+02 -0.14417016594E+02 -0.81419668313E+02  0.86603866225E+02  0.47000000000E+01 0.  1.
        -11    1    3    3    0    0 -0.68711447925E+02 -0.15137109939E+01  0.55510720585E+02  0.88345879908E+02  0.00000000000E+00 0.  1.
         11    1    3    3    0    0  0.21250317025E+02  0.14922875473E+02 -0.46479401475E+01  0.26379377052E+02  0.00000000000E+00 0. -1.
<mgrwt>
<rscale>  0 0.25293153E+03</rscale>
<asrwt>0</asrwt>
<pdfrwt beam="2">  1        2 0.18235885E-01 0.25293153E+03</pdfrwt>
<pdfrwt beam="1">  1       -2 0.20758329E-01 0.25293153E+03</pdfrwt>
<totfact> 0.60192232E+03</totfact>
</mgrwt>
</event>
<event>
 7    1  0.1020736E-005  0.1415388E+03  0.7546771E-02  0.1221813E+00
          2   -1    0    0  501    0  0.00000000000E+00  0.00000000000E+00  0.10034652315E+04  0.10034652315E+04  0.00000000000E+00 0. -1.
         -2   -1    0    0    0  501 -0.00000000000E+00 -0.00000000000E+00 -0.16237402613E+02  0.16237402613E+02  0.00000000000E+00 0.  1.
         23    2    1    2    0    0  0.48241208587E+01 -0.66213206629E+02  0.40868212623E+03  0.42409506780E+03  0.91804604262E+02 0.  0.
          5    1    1    2  502    0 -0.28261591628E+02  0.43574137720E+02  0.54869202085E+03  0.55116462766E+03  0.47000000000E+01 0. -1.
         -5    1    1    2    0  502  0.23437470770E+02  0.22639068909E+02  0.29853681773E+02  0.44442938613E+02  0.47000000000E+01 0. -1.
        -11    1    3    3    0    0  0.49305023209E+01 -0.85585325622E+02  0.37954146755E+03  0.38910266435E+03  0.00000000000E+00 0. -1.
         11    1    3    3    0    0 -0.10638146214E+00  0.19372118993E+02  0.29140658680E+02  0.34992403456E+02  0.00000000000E+00 0.  1.
<mgrwt>
<rscale>  0 0.13387778E+03</rscale>
<asrwt>0</asrwt>
<pdfrwt beam="1">  1        2 0.15437922E+00 0.14153884E+03</pdfrwt>
<pdfrwt beam="2">  1       -2 0.24980627E-02 0.14153884E+03</pdfrwt>
<totfact> 0.13979348E+04</totfact>
</mgrwt>
</event>
<event>
 7    1  0.1020736E-005  0.1509099E+03  0.7546771E-02  0.1207727E+00
         -3   -1    0    0    0  501 -0.00000000000E+00  0.00000000000E+00  0.19607937345E+02  0.19607937345E+02  0.00000000000E+00 0.  1.
          3   -1    0    0  501    0  0.00000000000E+00 -0.00000000000E+00 -0.10935661244E+04  0.10935661244E+04  0.00000000000E+00 0. -1.
         23    2    1    2    0    0 -0.84926658655E+02  0.69921630396E+01 -0.31302133781E+03  0.33741721007E+03  0.92771698433E+02 0.  0.
          5    1    1    2  502    0  0.99541734568E+02 -0.16498102407E+02 -0.34639048731E+03  0.36081741089E+03  0.47000000000E+01 0. -1.
         -5    1    1    2    0  502 -0.14615075913E+02  0.95059393672E+01 -0.41454636196E+03  0.41493944081E+03  0.47000000000E+01 0.  1.
        -11    1    3    3    0    0 -0.57082383146E+02 -0.34168005723E+02 -0.24029644331E+03  0.24933558059E+03  0.00000000000E+00 0.  1.
         11    1    3    3    0    0 -0.27844275510E+02  0.41160168763E+02 -0.72724894504E+02  0.88081629480E+02  0.00000000000E+00 0. -1.
<mgrwt>
<rscale>  0 0.14424596E+03</rscale>
<asrwt>0</asrwt>
<pdfrwt beam="2">  1        3 0.16824094E+00 0.15090992E+03</pdfrwt>
<pdfrwt beam="1">  1       -3 0.30166057E-02 0.15090992E+03</pdfrwt>
<totfact> 0.30674097E+02</totfact>
</mgrwt>
</event>
<event>
 7    1  0.1020736E-005  0.1330127E+03  0.7546771E-02  0.1231771E+00
          2   -1    0    0  501    0  0.00000000000E+00  0.00000000000E+00  0.23954059927E+03  0.23954059927E+03  0.00000000000E+00 0.  1.
         -2   -1    0    0    0  501 -0.00000000000E+00 -0.00000000000E+00 -0.66004685260E+02  0.66004685260E+02  0.00000000000E+00 0. -1.
         23    2    1    2    0    0 -0.43055758366E+02  0.14609647626E+02  0.42615958225E+02  0.11891087632E+03  0.10127406618E+03 0.  0.
          5    1    1    2  502    0 -0.29894985026E+02 -0.39708548760E+01  0.10338708548E+03  0.10779822476E+03  0.47000000000E+01 0. -1.
         -5    1    1    2    0  502  0.72950743392E+02 -0.10638792750E+02  0.27532870304E+02  0.78836183443E+02  0.47000000000E+01 0. -1.
        -11    1    3    3    0    0 -0.33887217834E+02 -0.39703398902E+02  0.54920194100E+01  0.52486814478E+02  0.00000000000E+00 0.  1.
         11    1    3    3    0    0 -0.91685405327E+01  0.54313046528E+02  0.37123938815E+02  0.66424061843E+02  0.00000000000E+00 0. -1.
<mgrwt>
<rscale>  0 0.12713416E+03</rscale>
<asrwt>0</asrwt>
<pdfrwt beam="1">  1        2 0.36852399E-01 0.13301266E+03</pdfrwt>
<pdfrwt beam="2">  1       -2 0.10154567E-01 0.13301266E+03</pdfrwt>
<totfact> 0.85586978E+03</totfact>
</mgrwt>
</event>
<event>
 7    1  0.1020736E-005  0.1263351E+03  0.7546771E-02  0.1249466E+00
          2   -1    0    0  501    0  0.00000000000E+00  0.00000000000E+00  0.54122197506E+03  0.54122197506E+03  0.00000000000E+00 0. -1.
         -2   -1    0    0    0  501 -0.00000000000E+00 -0.00000000000E+00 -0.25135017625E+02  0.25135017625E+02  0.00000000000E+00 0.  1.
         23    2    1    2    0    0  0.15888200704E+02 -0.89992102050E+01  0.11794977067E+03  0.14865640782E+03  0.88618048262E+02 0.  0.
          5    1    1    2  502    0  0.44398477998E+02  0.26941664884E+02  0.98026854150E+02  0.11103347374E+03  0.47000000000E+01 0. -1.
         -5    1    1    2    0  502 -0.60286678703E+02 -0.17942454679E+02  0.30011033261E+03  0.30666711113E+03  0.47000000000E+01 0. -1.
        -11    1    3    3    0    0 -0.14795705601E+02  0.23751954799E+01 -0.90516210289E+01  0.17506750156E+02  0.00000000000E+00 0.  1.
         11    1    3    3    0    0  0.30683906305E+02 -0.11374405685E+02  0.12700139170E+03  0.13114965766E+03  0.00000000000E+00 0. -1.
<mgrwt>
<rscale>  0 0.11621999E+03</rscale>
<asrwt>0</asrwt>
<pdfrwt beam="1">  1        2 0.83264911E-01 0.12633511E+03</pdfrwt>
<pdfrwt beam="2">  1       -2 0.38669262E-02 0.12633511E+03</pdfrwt>
<totfact> 0.15474840E+04</totfact>
</mgrwt>
</event>
<event>
 7    1  0.1020736E-005  0.1792722E+03  0.7546771E-02  0.1173686E+00
          1   -1    0    0  501    0  0.00000000000E+00  0.00000000000E+00  0.34574003919E+03  0.34574003919E+03  0.00000000000E+00 0. -1.
         -1   -1    0    0    0  501 -0.00000000000E+00 -0.00000000000E+00 -0.82971652401E+02  0.82971652401E+02  0.00000000000E+00 0.  1.
         23    2    1    2    0    0 -0.93492503510E+02 -0.88165074659E+02  0.13063391710E+03  0.20600549630E+03  0.94122875052E+02 0.  0.
          5    1    1    2  502    0  0.53027044350E+02  0.96857393974E+02  0.33265245738E+02  0.11542048680E+03  0.47000000000E+01 0. -1.
         -5    1    1    2    0  502  0.40465459160E+02 -0.86923193153E+01  0.98869223953E+02  0.10728570849E+03  0.47000000000E+01 0. -1.
        -11    1    3    3    0    0 -0.59785451039E+02 -0.27867088837E+02  0.96146890892E+01  0.66658210616E+02  0.00000000000E+00 0.  1.
         11    1    3    3    0    0 -0.33707052471E+02 -0.60297985822E+02  0.12101922801E+03  0.13934728569E+03  0.00000000000E+00 0. -1.
<mgrwt>
<rscale>  0 0.17405293E+03</rscale>
<asrwt>0</asrwt>
<pdfrwt beam="1">  1        1 0.53190775E-01 0.17927223E+03</pdfrwt>
<pdfrwt beam="2">  1       -1 0.12764870E-01 0.17927223E+03</pdfrwt>
<totfact> 0.29820564E+03</totfact>
</mgrwt>
</event>
<event>
 7    1  0.1020736E-005  0.1303445E+03  0.7546771E-02  0.1240513E+00
         -1   -1    0    0    0  501 -0.00000000000E+00  0.00000000000E+00  0.13398289559E+03  0.13398289559E+03  0.00000000000E+00 0. -1.
          1   -1    0    0  501    0  0.00000000000E+00 -0.00000000000E+00 -0.13710994594E+03  0.13710994594E+03  0.00000000000E+00 0.  1.
         23    2    1    2    0    0 -0.21494804234E+01  0.36966963610E+02  0.70616389152E+02  0.12133372626E+03  0.91455027448E+02 0.  0.
          5    1    1    2  502    0 -0.24525826801E+02  0.28250574018E+02 -0.69431377407E+02  0.79008969626E+02  0.47000000000E+01 0.  1.
         -5    1    1    2    0  502  0.26675307224E+02 -0.65217537628E+02 -0.43120620975E+01  0.70750145649E+02  0.47000000000E+01 0.  1.
        -11    1    3    3    0    0  0.23145302608E+02  0.34641104975E+02  0.83153696618E+02  0.93006711843E+02  0.00000000000E+00 0. -1.
         11    1    3    3    0    0 -0.25294783032E+02  0.23258586353E+01 -0.12537307466E+02  0.28327014412E+02  0.00000000000E+00 0.  1.
<mgrwt>
<rscale>  0 0.12158016E+03</rscale>
<asrwt>0</asrwt>
<pdfrwt beam="2">  1        1 0.21093838E-01 0.13034453E+03</pdfrwt>
<pdfrwt beam="1">  1       -1 0.20612753E-01 0.13034453E+03</pdfrwt>
<totfact> 0.43693127E+03</totfact>
</mgrwt>
</event>
<event>
 7    1  0.1020736E-005  0.2745326E+03  0.7546771E-02  0.1100611E+00
         -2   -1    0    0    0  501 -0.00000000000E+00  0.00000000000E+00  0.32707795246E+02  0.32707795246E+02  0.00000000000E+00 0.  1.
          2   -1    0    0  501    0  0.00000000000E+00 -0.00000000000E+00 -0.22679043371E+04  0.22679043371E+04  0.00000000000E+00 0. -1.
         23    2    1    2    0    0 -0.23665803055E+03  0.61116848365E+02 -0.88456130536E+03  0.92235826935E+03  0.92486655869E+02 0.  0.
          5    1    1    2  502    0  0.28390992355E+02 -0.53136809652E+02 -0.20168025386E+03  0.21053879401E+03  0.47000000000E+01 0. -1.
         -5    1    1    2    0  502  0.20826703820E+03 -0.79800387134E+01 -0.11489549826E+04  0.11677150690E+04  0.47000000000E+01 0. -1.
        -11    1    3    3    0    0 -0.80488863530E+02  0.49210000129E+02 -0.21612552014E+03  0.23581840836E+03  0.00000000000E+00 0.  1.
         11    1    3    3    0    0 -0.15616916702E+03  0.11906848236E+02 -0.66843578522E+03  0.68653986099E+03  0.00000000000E+00 0. -1.
<mgrwt>
<rscale>  0 0.27117207E+03</rscale>
<asrwt>0</asrwt>
<pdfrwt beam="2">  1        2 0.34890823E+00 0.27453264E+03</pdfrwt>
<pdfrwt beam="1">  1       -2 0.50319704E-02 0.27453264E+03</pdfrwt>
<totfact> 0.10380792E+03</totfact>
</mgrwt>
</event>
<event>
 7    1  0.1020736E-005  0.1262006E+03  0.7546771E-02  0.1246473E+00
          2   -1    0    0  501    0  0.00000000000E+00  0.00000000000E+00  0.67961056331E+03  0.67961056331E+03  0.00000000000E+00 0. -1.
         -2   -1    0    0    0  501 -0.00000000000E+00 -0.00000000000E+00 -0.18313637296E+02  0.18313637296E+02  0.00000000000E+00 0.  1.
         23    2    1    2    0    0 -0.13628477955E+02  0.10904573462E+02  0.31065803805E+03  0.32526589941E+03  0.94788414785E+02 0.  0.
          5    1    1    2  502    0 -0.20936262915E+02 -0.58489001392E+02  0.12833125700E+03  0.14265444933E+03  0.47000000000E+01 0.  1.
         -5    1    1    2    0  502  0.34564740870E+02  0.47584427931E+02  0.22230763096E+03  0.23000385187E+03  0.47000000000E+01 0.  1.
        -11    1    3    3    0    0 -0.10136305435E+02 -0.36546472669E+02  0.21620145737E+03  0.21950275515E+03  0.00000000000E+00 0. -1.
         11    1    3    3    0    0 -0.34921725195E+01  0.47451046131E+02  0.94456580687E+02  0.10576314426E+03  0.00000000000E+00 0.  1.
<mgrwt>
<rscale>  0 0.11797634E+03</rscale>
<asrwt>0</asrwt>
<pdfrwt beam="1">  1        2 0.10455545E+00 0.12620055E+03</pdfrwt>
<pdfrwt beam="2">  1       -2 0.28174832E-02 0.12620055E+03</pdfrwt>
<totfact> 0.19028993E+04</totfact>
</mgrwt>
</event>
<event>
 7    1  0.1020736E-005  0.1264203E+03  0.7546771E-02  0.1242039E+00
          1   -1    0    0  501    0  0.00000000000E+00  0.00000000000E+00  0.14381875267E+03  0.14381875267E+03  0.00000000000E+00 0. -1.
         -1   -1    0    0    0  501 -0.00000000000E+00 -0.00000000000E+00 -0.94088386533E+02  0.94088386533E+02  0.00000000000E+00 0.  1.
         23    2    1    2    0    0  0.59579225228E+01 -0.49392246916E+02  0.35460491111E+02  0.11068402563E+03  0.92295266419E+02 0.  0.
          5    1    1    2  502    0 -0.55214721519E+02 -0.11143612130E+01  0.10544696158E+02  0.56419747345E+02  0.47000000000E+01 0. -1.
         -5    1    1    2    0  502  0.49256798996E+02  0.50506608129E+02  0.37251788700E+01  0.70803366231E+02  0.47000000000E+01 0.  1.
        -11    1    3    3    0    0  0.15449874535E+02  0.20720215757E+02 -0.87120296716E+01  0.27274996337E+02  0.00000000000E+00 0.  1.
         11    1    3    3    0    0 -0.94919520126E+01 -0.70112462673E+02  0.44172520783E+02  0.83409029292E+02  0.00000000000E+00 0. -1.
<mgrwt>
<rscale>  0 0.12064370E+03</rscale>
<asrwt>0</asrwt>
<pdfrwt beam="1">  1        1 0.22125962E-01 0.12642030E+03</pdfrwt>
<pdfrwt beam="2">  1       -1 0.14475136E-01 0.12642030E+03</pdfrwt>
<totfact> 0.71832225E+03</totfact>
</mgrwt>
</event>
<event>
 7    1  0.1020736E-005  0.1582677E+03  0.7546771E-02  0.1208226E+00
          1   -1    0    0  501    0  0.00000000000E+00  0.00000000000E+00  0.45176910170E+03  0.45176910170E+03  0.00000000000E+00 0. -1.
         -1   -1    0    0    0  501 -0.00000000000E+00 -0.00000000000E+00 -0.43974211799E+02  0.43974211799E+02  0.00000000000E+00 0.  1.
         23    2    1    2    0    0  0.48973724808E+02  0.32084344639E+02  0.89604819033E+02  0.14036522170E+03  0.90804961182E+02 0.  0.
          5    1    1    2  502    0  0.51574618421E+01 -0.13687946580E+02  0.29185181771E+03  0.29225593714E+03  0.47000000000E+01 0. -1.
         -5    1    1    2    0  502 -0.54131186650E+02 -0.18396398059E+02  0.26338253159E+02  0.63122154662E+02  0.47000000000E+01 0.  1.
        -11    1    3    3    0    0 -0.20484886505E+02 -0.12526039547E+02  0.30596790879E+02  0.38893390878E+02  0.00000000000E+00 0. -1.
         11    1    3    3    0    0  0.69458611313E+02  0.44610384186E+02  0.59008028154E+02  0.10147183082E+03  0.00000000000E+00 0.  1.
<mgrwt>
<rscale>  0 0.14386123E+03</rscale>
<asrwt>0</asrwt>
<pdfrwt beam="1">  1        1 0.69502935E-01 0.15826771E+03</pdfrwt>
<pdfrwt beam="2">  1       -1 0.67652637E-02 0.15826771E+03</pdfrwt>
<totfact> 0.55751430E+03</totfact>
</mgrwt>
</event>
<event>
 7    1  0.1020736E-005  0.1567734E+03  0.7546771E-02  0.1200678E+00
          2   -1    0    0  501    0  0.00000000000E+00  0.00000000000E+00  0.97337284767E+03  0.97337284767E+03  0.00000000000E+00 0. -1.
         -2   -1    0    0    0  501 -0.00000000000E+00 -0.00000000000E+00 -0.21458465144E+02  0.21458465144E+02  0.00000000000E+00 0.  1.
         23    2    1    2    0    0 -0.34833088125E+02  0.87970074176E+02  0.38350868768E+03  0.40520183513E+03  0.90319077108E+02 0.  0.
          5    1    1    2  502    0  0.76343175420E+02 -0.73108673499E+02  0.46893567287E+03  0.48072436371E+03  0.47000000000E+01 0.  1.
         -5    1    1    2    0  502 -0.41510087295E+02 -0.14861400677E+02  0.99470021979E+02  0.10890511398E+03  0.47000000000E+01 0.  1.
        -11    1    3    3    0    0 -0.25192705283E+02 -0.10374668967E+02  0.45388670954E+02  0.52938054428E+02  0.00000000000E+00 0.  1.
         11    1    3    3    0    0 -0.96403828415E+01  0.98344743143E+02  0.33812001672E+03  0.35226378070E+03  0.00000000000E+00 0. -1.
<mgrwt>
<rscale>  0 0.14983361E+03</rscale>
<asrwt>0</asrwt>
<pdfrwt beam="1">  1        2 0.14974963E+00 0.15677336E+03</pdfrwt>
<pdfrwt beam="2">  1       -2 0.33013031E-02 0.15677336E+03</pdfrwt>
<totfact> 0.97288852E+03</totfact>
</mgrwt>
</event>
<event>
 7    1  0.1020736E-005  0.1359431E+03  0.7546771E-02  0.1230673E+00
         -1   -1    0    0    0  501 -0.00000000000E+00  0.00000000000E+00  0.22464324363E+03  0.22464324363E+03  0.00000000000E+00 0.  1.
          1   -1    0    0  501    0  0.00000000000E+00 -0.00000000000E+00 -0.68389524486E+02  0.68389524486E+02  0.00000000000E+00 0. -1.
         23    2    1    2    0    0  0.51357707485E+02  0.14753947943E+02  0.99729247028E+02  0.14580664851E+03  0.91969358699E+02 0.  0.
          5    1    1    2  502    0  0.14857188323E+02  0.43660750983E+02  0.28720344790E+02  0.54533892453E+02  0.47000000000E+01 0. -1.
         -5    1    1    2    0  502 -0.66214895809E+02 -0.58414698925E+02  0.27804127325E+02  0.92692227149E+02  0.47000000000E+01 0. -1.
        -11    1    3    3    0    0  0.56686099456E+02 -0.19865569182E+02  0.28614808113E+02  0.66533915816E+02  0.00000000000E+00 0. -1.
         11    1    3    3    0    0 -0.53283919706E+01  0.34619517125E+02  0.71114438915E+02  0.79272732696E+02  0.00000000000E+00 0.  1.
<mgrwt>
<rscale>  0 0.12785513E+03</rscale>
<asrwt>0</asrwt>
<pdfrwt beam="2">  1        1 0.10521465E-01 0.13594306E+03</pdfrwt>
<pdfrwt beam="1">  1       -1 0.34560499E-01 0.13594306E+03</pdfrwt>
<totfact> 0.45775035E+03</totfact>
</mgrwt>
</event>
<event>
 7    1  0.1020736E-005  0.1483554E+03  0.7546771E-02  0.1211700E+00
         -1   -1    0    0    0  501 -0.00000000000E+00  0.00000000000E+00  0.21270702411E+02  0.21270702411E+02  0.00000000000E+00 0.  1.
          1   -1    0    0  501    0  0.00000000000E+00 -0.00000000000E+00 -0.87220454363E+03  0.87220454363E+03  0.00000000000E+00 0. -1.
         23    2    1    2    0    0  0.12397978931E+02  0.78919795295E+02 -0.32717038351E+03  0.34910636541E+03  0.91938841358E+02 0.  0.
          5    1    1    2  502    0 -0.60689968419E+02 -0.51516279358E+02 -0.41009289199E+03  0.41777442402E+03  0.47000000000E+01 0.  1.
         -5    1    1    2    0  502  0.48291989487E+02 -0.27403515937E+02 -0.11367056572E+03  0.12659445661E+03  0.47000000000E+01 0.  1.
        -11    1    3    3    0    0 -0.30911472525E+02  0.49694568611E+02 -0.98774328287E+02  0.11481044034E+03  0.00000000000E+00 0.  1.
         11    1    3    3    0    0  0.43309451456E+02  0.29225226684E+02 -0.22839605523E+03  0.23429592507E+03  0.00000000000E+00 0. -1.
<mgrwt>
<rscale>  0 0.14121722E+03</rscale>
<asrwt>0</asrwt>
<pdfrwt beam="2">  1        1 0.13418536E+00 0.14835538E+03</pdfrwt>
<pdfrwt beam="1">  1       -1 0.32724146E-02 0.14835538E+03</pdfrwt>
<totfact> 0.64867935E+03</totfact>
</mgrwt>
</event>
<event>
 7    1  0.1020736E-005  0.1596166E+03  0.7546771E-02  0.1196789E+00
         -1   -1    0    0    0  501 -0.00000000000E+00  0.00000000000E+00  0.18549054787E+02  0.18549054787E+02  0.00000000000E+00 0.  1.
          1   -1    0    0  501    0  0.00000000000E+00 -0.00000000000E+00 -0.14260481685E+04  0.14260481685E+04  0.00000000000E+00 0. -1.
         23    2    1    2    0    0 -0.64113249936E+02 -0.75772694068E+02 -0.34950441697E+03  0.37462982761E+03  0.91335427228E+02 0.  0.
          5    1    1    2  502    0  0.60575441186E+02 -0.46457368329E+00 -0.75619039435E+03  0.75862744639E+03  0.47000000000E+01 0. -1.
         -5    1    1    2    0  502  0.35378087503E+01  0.76237267751E+02 -0.30180430244E+03  0.31133994934E+03  0.47000000000E+01 0. -1.
        -11    1    3    3    0    0 -0.57642287503E+02  0.87262647928E+00 -0.13710664718E+03  0.14873341079E+03  0.00000000000E+00 0. -1.
         11    1    3    3    0    0 -0.64709624327E+01 -0.76645320547E+02 -0.21239776980E+03  0.22589641682E+03  0.00000000000E+00 0.  1.
<mgrwt>
<rscale>  0 0.15303826E+03</rscale>
<asrwt>0</asrwt>
<pdfrwt beam="2">  1        1 0.21939200E+00 0.15961657E+03</pdfrwt>
<pdfrwt beam="1">  1       -1 0.28537011E-02 0.15961657E+03</pdfrwt>
<totfact> 0.32332580E+03</totfact>
</mgrwt>
</event>
<event>
 7    1  0.1020736E-005  0.1805060E+03  0.7546771E-02  0.1173031E+00
          1   -1    0    0  501    0  0.00000000000E+00  0.00000000000E+00  0.78118392529E+03  0.78118392529E+03  0.00000000000E+00 0. -1.
         -1   -1    0    0    0  501 -0.00000000000E+00 -0.00000000000E+00 -0.42054314448E+02  0.42054314448E+02  0.00000000000E+00 0.  1.
         23    2    1    2    0    0  0.21542704635E+02  0.12842514533E+03  0.20263895686E+03  0.25719527419E+03  0.90165160431E+02 0.  0.
          5    1    1    2  502    0 -0.46890773530E+02 -0.10509219822E+02  0.76359697066E+02  0.90344239880E+02  0.47000000000E+01 0.  1.
         -5    1    1    2    0  502  0.25348068895E+02 -0.11791592550E+03  0.46013095692E+03  0.47569872567E+03  0.47000000000E+01 0.  1.
        -11    1    3    3    0    0  0.15808024496E+02  0.10634721917E+03  0.84152322576E+02  0.13653291932E+03  0.00000000000E+00 0.  1.
         11    1    3    3    0    0  0.57346801389E+01  0.22077926157E+02  0.11848663428E+03  0.12066235487E+03  0.00000000000E+00 0. -1.
<mgrwt>
<rscale>  0 0.17470266E+03</rscale>
<asrwt>0</asrwt>
<pdfrwt beam="1">  1        1 0.12018213E+00 0.18050600E+03</pdfrwt>
<pdfrwt beam="2">  1       -1 0.64698951E-02 0.18050600E+03</pdfrwt>
<totfact> 0.28176054E+03</totfact>
</mgrwt>
</event>
<event>
 7    1  0.1020736E-005  0.1283732E+03  0.7546771E-02  0.1242305E+00
          1   -1    0    0  501    0  0.00000000000E+00  0.00000000000E+00  0.44989952617E+03  0.44989952617E+03  0.00000000000E+00 0. -1.
         -1   -1    0    0    0  501 -0.00000000000E+00 -0.00000000000E+00 -0.78390378968E+02  0.78390378968E+02  0.00000000000E+00 0.  1.
         23    2    1    2    0    0 -0.22728365732E+02  0.35660140531E+02 -0.32189051558E+02  0.10467226459E+03  0.90177179495E+02 0.  0.
          5    1    1    2  502    0  0.18059305986E+02 -0.16253545942E+02  0.40230362507E+03  0.40306403094E+03  0.47000000000E+01 0. -1.
         -5    1    1    2    0  502  0.46690597457E+01 -0.19406594590E+02  0.13945736867E+01  0.20553609616E+02  0.47000000000E+01 0.  1.
        -11    1    3    3    0    0  0.14704314866E+02  0.74779975987E+01  0.25488497099E+02  0.30361172707E+02  0.00000000000E+00 0. -1.
         11    1    3    3    0    0 -0.37432680598E+02  0.28182142932E+02 -0.57677548658E+02  0.74311091878E+02  0.00000000000E+00 0.  1.
<mgrwt>
<rscale>  0 0.12048153E+03</rscale>
<asrwt>0</asrwt>
<pdfrwt beam="1">  1        1 0.69215310E-01 0.12837317E+03</pdfrwt>
<pdfrwt beam="2">  1       -1 0.12060059E-01 0.12837317E+03</pdfrwt>
<totfact> 0.23059440E+03</totfact>
</mgrwt>
</event>
<event>
 7    1  0.1020736E-005  0.1742224E+03  0.7546771E-02  0.1180132E+00
         -1   -1    0    0    0  501 -0.00000000000E+00  0.00000000000E+00  0.34481909593E+02  0.34481909593E+02  0.00000000000E+00 0.  1.
          1   -1    0    0  501    0  0.00000000000E+00 -0.00000000000E+00 -0.84320649122E+03  0.84320649122E+03  0.00000000000E+00 0. -1.
         23    2    1    2    0    0  0.67202754981E+02  0.97652275327E+02 -0.24142475501E+03  0.28423870641E+03  0.91943203871E+02 0.  0.
          5    1    1    2  502    0  0.12316699251E+00 -0.10553320125E+03 -0.32005353327E+03  0.33703653495E+03  0.47000000000E+01 0. -1.
         -5    1    1    2    0  502 -0.67325921974E+02  0.78809259211E+01 -0.24724629335E+03  0.25641315945E+03  0.47000000000E+01 0.  1.
        -11    1    3    3    0    0  0.55345609406E+01  0.40873994369E+02 -0.16739986966E+03  0.17240658672E+03  0.00000000000E+00 0. -1.
         11    1    3    3    0    0  0.61668194041E+02  0.56778280958E+02 -0.74024885345E+02  0.11183211969E+03  0.00000000000E+00 0.  1.
<mgrwt>
<rscale>  0 0.16782809E+03</rscale>
<asrwt>0</asrwt>
<pdfrwt beam="2">  1        1 0.12972407E+00 0.17422241E+03</pdfrwt>
<pdfrwt beam="1">  1       -1 0.53049096E-02 0.17422241E+03</pdfrwt>
<totfact> 0.33713795E+03</totfact>
</mgrwt>
</event>
<event>
 7    1  0.2344030E-005  0.1552012E+03  0.7546771E-02  0.1202021E+00
          2   -1    0    0  501    0  0.00000000000E+00  0.00000000000E+00  0.10789788030E+04  0.10789788030E+04  0.00000000000E+00 0. -1.
         -2   -1    0    0    0  501 -0.00000000000E+00 -0.00000000000E+00 -0.20125186898E+02  0.20125186898E+02  0.00000000000E+00 0.  1.
         23    2    1    2    0    0 -0.91931946571E+02 -0.33248676503E+01  0.35605497434E+03  0.37937254445E+03  0.93197881871E+02 0.  0.
          5    1    1    2  502    0 -0.24300650432E+02 -0.25247610147E+02  0.16870428065E+03  0.17236933527E+03  0.47000000000E+01 0. -1.
         -5    1    1    2    0  502  0.11623259700E+03  0.28572477798E+02  0.53409436114E+03  0.54736211022E+03  0.47000000000E+01 0. -1.
        -11    1    3    3    0    0  0.32810694713E+00 -0.32826397916E+02  0.11472631069E+03  0.11933066001E+03  0.00000000000E+00 0.  1.
         11    1    3    3    0    0 -0.92260053518E+02  0.29501530266E+02  0.24132866365E+03  0.26004188444E+03  0.00000000000E+00 0. -1.
<mgrwt>
<rscale>  0 0.14874736E+03</rscale>
<asrwt>0</asrwt>
<pdfrwt beam="1">  1        2 0.16599669E+00 0.15520123E+03</pdfrwt>
<pdfrwt beam="2">  1       -2 0.30961834E-02 0.15520123E+03</pdfrwt>
<totfact> 0.92530370E+03</totfact>
</mgrwt>
</event>
<event>
 7    1  0.1020736E-005  0.1395371E+03  0.7546771E-02  0.1232140E+00
          1   -1    0    0  501    0  0.00000000000E+00  0.00000000000E+00  0.14084111316E+03  0.14084111316E+03  0.00000000000E+00 0. -1.
         -1   -1    0    0    0  501 -0.00000000000E+00 -0.00000000000E+00 -0.10831371511E+03  0.10831371511E+03  0.00000000000E+00 0.  1.
         23    2    1    2    0    0 -0.26670294246E+01 -0.25703617140E+02 -0.24324537972E+02  0.98480546686E+02  0.91863735761E+02 0.  0.
          5    1    1    2  502    0 -0.63598098982E+02  0.34342192773E+02  0.26470228235E+02  0.77115934678E+02  0.47000000000E+01 0. -1.
         -5    1    1    2    0  502  0.66265128406E+02 -0.86385756329E+01  0.30381707793E+02  0.73558346909E+02  0.47000000000E+01 0.  1.
        -11    1    3    3    0    0 -0.24841094348E+02 -0.22251746893E+02  0.26711554308E+02  0.42728530770E+02  0.00000000000E+00 0. -1.
         11    1    3    3    0    0  0.22174064924E+02 -0.34518702470E+01 -0.51036092281E+02  0.55752015916E+02  0.00000000000E+00 0.  1.
<mgrwt>
<rscale>  0 0.12689297E+03</rscale>
<asrwt>0</asrwt>
<pdfrwt beam="1">  1        1 0.21667864E-01 0.13953708E+03</pdfrwt>
<pdfrwt beam="2">  1       -1 0.16663648E-01 0.13953708E+03</pdfrwt>
<totfact> 0.59532642E+03</totfact>
</mgrwt>
</event>
<event>
 7    1  0.1518059E-005  0.1634806E+03  0.7546771E-02  0.1191874E+00
         -1   -1    0    0    0  501 -0.00000000000E+00  0.00000000000E+00  0.44220095013E+03  0.44220095013E+03  0.00000000000E+00 0.  1.
          1   -1    0    0  501    0  0.00000000000E+00 -0.00000000000E+00 -0.56799566828E+02  0.56799566828E+02  0.00000000000E+00 0. -1.
         23    2    1    2    0    0 -0.88488231700E+02  0.57191169561E+02  0.25117886376E+03  0.28747845401E+03  0.91934992793E+02 0.  0.
          5    1    1    2  502    0  0.61310248597E+02 -0.80351311189E+02  0.14230721815E+03  0.17461017763E+03  0.47000000000E+01 0.  1.
         -5    1    1    2    0  502  0.27177983103E+02  0.23160141628E+02 -0.80846986082E+01  0.36911885313E+02  0.47000000000E+01 0.  1.
        -11    1    3    3    0    0 -0.77483967818E+02  0.73260418019E+01  0.20244702097E+03  0.21689221392E+03  0.00000000000E+00 0.  1.
         11    1    3    3    0    0 -0.11004263883E+02  0.49865127760E+02  0.48731842784E+02  0.70586240098E+02  0.00000000000E+00 0. -1.
<mgrwt>
<rscale>  0 0.15721769E+03</rscale>
<asrwt>0</asrwt>
<pdfrwt beam="2">  1        1 0.87383952E-02 0.16348057E+03</pdfrwt>
<pdfrwt beam="1">  1       -1 0.68030913E-01 0.16348057E+03</pdfrwt>
<totfact> 0.17179363E+03</totfact>
</mgrwt>
</event>
<event>
 7    1  0.1218229E-005  0.1798429E+03  0.7546771E-02  0.1173653E+00
         -2   -1    0    0    0  501 -0.00000000000E+00  0.00000000000E+00  0.35876874968E+02  0.35876874968E+02  0.00000000000E+00 0.  1.
          2   -1    0    0  501    0  0.00000000000E+00 -0.00000000000E+00 -0.10318435193E+04  0.10318435193E+04  0.00000000000E+00 0. -1.
         23    2    1    2    0    0 -0.99192703179E+02  0.82938571270E+02 -0.21761718682E+03  0.26886412291E+03  0.90623824814E+02 0.  0.
          5    1    1    2  502    0  0.74980944530E+02 -0.17174027790E+02 -0.63026425829E+03  0.63495843530E+03  0.47000000000E+01 0. -1.
         -5    1    1    2    0  502  0.24211758650E+02 -0.65764543481E+02 -0.14808519925E+03  0.16389783609E+03  0.47000000000E+01 0. -1.
        -11    1    3    3    0    0  0.94510143612E+01  0.30940423705E+02 -0.21943632302E+02  0.39091616622E+02  0.00000000000E+00 0.  1.
         11    1    3    3    0    0 -0.10864371754E+03  0.51998147565E+02 -0.19567355451E+03  0.22977250629E+03  0.00000000000E+00 0. -1.
<mgrwt>
<rscale>  0 0.17408514E+03</rscale>
<asrwt>0</asrwt>
<pdfrwt beam="2">  1        2 0.15874517E+00 0.17984289E+03</pdfrwt>
<pdfrwt beam="1">  1       -2 0.55195189E-02 0.17984289E+03</pdfrwt>
<totfact> 0.41748655E+03</totfact>
</mgrwt>
</event>
<event>
 7    1  0.1020736E-005  0.1303545E+03  0.7546771E-02  0.1240649E+00
         -4   -1    0    0    0  501 -0.00000000000E+00  0.00000000000E+00  0.26457630996E+03  0.26457630996E+03  0.00000000000E+00 0. -1.
          4   -1    0    0  501    0  0.00000000000E+00 -0.00000000000E+00 -0.49879458247E+02  0.49879458247E+02  0.00000000000E+00 0.  1.
         23    2    1    2    0    0 -0.31159076504E+02 -0.19900434145E+02  0.10719123043E+03  0.14548904146E+03  0.91160221450E+02 0.  0.
          5    1    1    2  502    0  0.12017303715E+02  0.10355718986E+02 -0.27555775479E+02  0.32141363794E+02  0.47000000000E+01 0.  1.
         -5    1    1    2    0  502  0.19141772789E+02  0.95447151588E+01  0.13506139676E+03  0.13682536296E+03  0.47000000000E+01 0.  1.
        -11    1    3    3    0    0  0.15091201580E+02 -0.27083928644E+02  0.28553370001E+01  0.31135775328E+02  0.00000000000E+00 0.  1.
         11    1    3    3    0    0 -0.46250278085E+02  0.71834944985E+01  0.10433589343E+03  0.11435326613E+03  0.00000000000E+00 0. -1.
<mgrwt>
<rscale>  0 0.12149620E+03</rscale>
<asrwt>0</asrwt>
<pdfrwt beam="2">  1        4 0.76737630E-02 0.13035450E+03</pdfrwt>
<pdfrwt beam="1">  1       -4 0.40704047E-01 0.13035450E+03</pdfrwt>
<totfact> 0.11375825E+03</totfact>
</mgrwt>
</event>
<event>
 7    1  0.1020736E-005  0.1205699E+03  0.7546771E-02  0.1254664E+00
          2   -1    0    0  501    0  0.00000000000E+00  0.00000000000E+00  0.67437546054E+03  0.67437546054E+03  0.00000000000E+00 0. -1.
         -2   -1    0    0    0  501 -0.00000000000E+00 -0.00000000000E+00 -0.44092679127E+02  0.44092679127E+02  0.00000000000E+00 0.  1.
         23    2    1    2    0    0 -0.47634138677E+01 -0.18823537641E+02  0.19451542818E+02  0.95851158287E+02  0.91826283525E+02 0.  0.
          5    1    1    2  502    0 -0.15409405989E+02  0.26182664975E+02  0.59434615429E+03  0.59514067484E+03  0.47000000000E+01 0. -1.
         -5    1    1    2    0  502  0.20172819857E+02 -0.73591273344E+01  0.16485084306E+02  0.27476306533E+02  0.47000000000E+01 0.  1.
        -11    1    3    3    0    0  0.15562054615E+02  0.12181943278E+02 -0.28844995324E+02  0.34965855360E+02  0.00000000000E+00 0.  1.
         11    1    3    3    0    0 -0.20325468482E+02 -0.31005480919E+02  0.48296538142E+02  0.60885302927E+02  0.00000000000E+00 0. -1.
<mgrwt>
<rscale>  0 0.11325191E+03</rscale>
<asrwt>0</asrwt>
<pdfrwt beam="1">  1        2 0.10375006E+00 0.12056991E+03</pdfrwt>
<pdfrwt beam="2">  1       -2 0.67834896E-02 0.12056991E+03</pdfrwt>
<totfact> 0.51699804E+03</totfact>
</mgrwt>
</event>
<event>
 7    1  0.1020736E-005  0.1370415E+03  0.7546771E-02  0.1228931E+00
         -1   -1    0    0    0  501 -0.00000000000E+00  0.00000000000E+00  0.13751066279E+03  0.13751066279E+03  0.00000000000E+00 0.  1.
          1   -1    0    0  501    0  0.00000000000E+00 -0.00000000000E+00 -0.11310222564E+03  0.11310222564E+03  0.00000000000E+00 0. -1.
         23    2    1    2    0    0 -0.40661943660E+02 -0.38753395068E+02  0.34952583153E+02  0.11316631822E+03  0.91813469706E+02 0.  0.
          5    1    1    2  502    0 -0.37971704831E+02  0.42921858352E+02 -0.11095035179E+02  0.58560448238E+02  0.47000000000E+01 0.  1.
         -5    1    1    2    0  502  0.78633648491E+02 -0.41684632846E+01  0.55088917963E+00  0.78886121974E+02  0.47000000000E+01 0.  1.
        -11    1    3    3    0    0  0.18157981730E+00 -0.29841725007E+02  0.58147511253E+02  0.65358202144E+02  0.00000000000E+00 0.  1.
         11    1    3    3    0    0 -0.40843523478E+02 -0.89116700610E+01 -0.23194928100E+02  0.47808116078E+02  0.00000000000E+00 0. -1.
<mgrwt>
<rscale>  0 0.12901073E+03</rscale>
<asrwt>0</asrwt>
<pdfrwt beam="2">  1        1 0.17400342E-01 0.13704153E+03</pdfrwt>
<pdfrwt beam="1">  1       -1 0.21155487E-01 0.13704153E+03</pdfrwt>
<totfact> 0.53712048E+03</totfact>
</mgrwt>
</event>
<event>
 7    1  0.1020736E-005  0.3570792E+03  0.7546771E-02  0.1066126E+00
          1   -1    0    0  501    0  0.00000000000E+00  0.00000000000E+00  0.98587745863E+03  0.98587745863E+03  0.00000000000E+00 0. -1.
         -1   -1    0    0    0  501 -0.00000000000E+00 -0.00000000000E+00 -0.23921393632E+03  0.23921393632E+03  0.00000000000E+00 0.  1.
         23    2    1    2    0    0  0.27605400366E+03  0.66980813446E+02 -0.92612055421E+02  0.31301185649E+03  0.93312309945E+02 0.  0.
          5    1    1    2  502    0 -0.11485561529E+03 -0.13580221646E+03  0.48916393381E+03  0.52051656890E+03  0.47000000000E+01 0. -1.
         -5    1    1    2    0  502 -0.16119838837E+03  0.68821403011E+02  0.35011164392E+03  0.39156296957E+03  0.47000000000E+01 0.  1.
        -11    1    3    3    0    0  0.19453561091E+03  0.75682954293E+02 -0.32273412125E+02  0.21121928561E+03  0.00000000000E+00 0.  1.
         11    1    3    3    0    0  0.81518392749E+02 -0.87021408466E+01 -0.60338643296E+02  0.10179257088E+03  0.00000000000E+00 0. -1.
<mgrwt>
<rscale>  0 0.34157832E+03</rscale>
<asrwt>0</asrwt>
<pdfrwt beam="1">  1        1 0.15167345E+00 0.35707925E+03</pdfrwt>
<pdfrwt beam="2">  1       -1 0.36802144E-01 0.35707925E+03</pdfrwt>
<totfact> 0.11693448E+02</totfact>
</mgrwt>
</event>
<event>
 7    1  0.1020736E-005  0.1320171E+03  0.7546771E-02  0.1238735E+00
         -2   -1    0    0    0  501 -0.00000000000E+00  0.00000000000E+00  0.30772220631E+02  0.30772220631E+02  0.00000000000E+00 0.  1.
          2   -1    0    0  501    0  0.00000000000E+00 -0.00000000000E+00 -0.73472725177E+03  0.73472725177E+03  0.00000000000E+00 0. -1.
         23    2    1    2    0    0  0.40161199615E+02  0.13795425858E+02 -0.77543963453E+02  0.12532812818E+03  0.88830387342E+02 0.  0.
          5    1    1    2  502    0  0.77640085798E+01 -0.53823384217E+02 -0.14922875984E+03  0.15889792095E+03  0.47000000000E+01 0. -1.
         -5    1    1    2    0  502 -0.47925208195E+02  0.40027958358E+02 -0.47718230784E+03  0.48127342327E+03  0.47000000000E+01 0. -1.
        -11    1    3    3    0    0  0.35134005970E+02  0.48060053187E+02 -0.30440900326E+02  0.66864157068E+02  0.00000000000E+00 0.  1.
         11    1    3    3    0    0  0.50271936448E+01 -0.34264627328E+02 -0.47103063127E+02  0.58463971109E+02  0.00000000000E+00 0. -1.
<mgrwt>
<rscale>  0 0.12268346E+03</rscale>
<asrwt>0</asrwt>
<pdfrwt beam="2">  1        2 0.11303497E+00 0.13201714E+03</pdfrwt>
<pdfrwt beam="1">  1       -2 0.47341874E-02 0.13201714E+03</pdfrwt>
<totfact> 0.80758979E+03</totfact>
</mgrwt>
</event>
<event>
 7    1  0.1020736E-005  0.1548348E+03  0.7546771E-02  0.1202895E+00
          1   -1    0    0  501    0  0.00000000000E+00  0.00000000000E+00  0.88665558917E+03  0.88665558917E+03  0.00000000000E+00 0. -1.
         -1   -1    0    0    0  501 -0.00000000000E+00 -0.00000000000E+00 -0.33828426834E+02  0.33828426834E+02  0.00000000000E+00 0.  1.
         23    2    1    2    0    0  0.90975341280E+02  0.86006736516E+01  0.13843398794E+03  0.18950423662E+03  0.91637341580E+02 0.  0.
          5    1    1    2  502    0  0.20761675809E+02 -0.33495474739E+02  0.21260875163E+03  0.21628121805E+03  0.47000000000E+01 0.  1.
         -5    1    1    2    0  502 -0.11173701709E+03  0.24894801088E+02  0.50178442277E+03  0.51469856133E+03  0.47000000000E+01 0.  1.
        -11    1    3    3    0    0  0.15172148069E+02  0.24844919876E+02  0.97669744855E+02  0.10191586324E+03  0.00000000000E+00 0. -1.
         11    1    3    3    0    0  0.75803193212E+02 -0.16244246224E+02  0.40764243083E+02  0.87588373376E+02  0.00000000000E+00 0.  1.
<mgrwt>
<rscale>  0 0.14804595E+03</rscale>
<asrwt>0</asrwt>
<pdfrwt beam="1">  1        1 0.13640853E+00 0.15483485E+03</pdfrwt>
<pdfrwt beam="2">  1       -1 0.52043740E-02 0.15483485E+03</pdfrwt>
<totfact> 0.31946052E+03</totfact>
</mgrwt>
</event>
<event>
 7    1  0.1020736E-005  0.1344961E+03  0.7546771E-02  0.1232970E+00
         -3   -1    0    0    0  501 -0.00000000000E+00  0.00000000000E+00  0.40706091424E+03  0.40706091424E+03  0.00000000000E+00 0.  1.
          3   -1    0    0  501    0  0.00000000000E+00 -0.00000000000E+00 -0.35176069439E+02  0.35176069439E+02  0.00000000000E+00 0. -1.
         23    2    1    2    0    0  0.59012086127E+01  0.49279544905E+02  0.16784459635E+03  0.19785689920E+03  0.92261835172E+02 0.  0.
          5    1    1    2  502    0  0.30925979937E+02 -0.46371907682E+02  0.24583107239E+02  0.61099829940E+02  0.47000000000E+01 0. -1.
         -5    1    1    2    0  502 -0.36827188550E+02 -0.29076372234E+01  0.17945714121E+03  0.18328025454E+03  0.47000000000E+01 0. -1.
        -11    1    3    3    0    0  0.12453570543E+02  0.75308750619E+02  0.13810511352E+03  0.15779582288E+03  0.00000000000E+00 0. -1.
         11    1    3    3    0    0 -0.65523619303E+01 -0.26029205713E+02  0.29739482830E+02  0.40061076320E+02  0.00000000000E+00 0.  1.
<mgrwt>
<rscale>  0 0.12635300E+03</rscale>
<asrwt>0</asrwt>
<pdfrwt beam="2">  1        3 0.54117033E-02 0.13449611E+03</pdfrwt>
<pdfrwt beam="1">  1       -3 0.62624753E-01 0.13449611E+03</pdfrwt>
<totfact> 0.11636224E+03</totfact>
</mgrwt>
</event>
<event>
 7    1  0.1020736E-005  0.1612935E+03  0.7546771E-02  0.1199052E+00
          1   -1    0    0  501    0  0.00000000000E+00  0.00000000000E+00  0.64812832034E+03  0.64812832034E+03  0.00000000000E+00 0. -1.
         -1   -1    0    0    0  501 -0.00000000000E+00 -0.00000000000E+00 -0.70642985334E+02  0.70642985334E+02  0.00000000000E+00 0.  1.
         23    2    1    2    0    0  0.43392619749E+02  0.74340938623E+02  0.55789234444E+01  0.12455540313E+03  0.89852264626E+02 0.  0.
          5    1    1    2  502    0 -0.62555850676E+02  0.12147410166E+02  0.33936844600E+03  0.34533147289E+03  0.47000000000E+01 0. -1.
         -5    1    1    2    0  502  0.19163230928E+02 -0.86488348789E+02  0.23253796555E+03  0.24888442965E+03  0.47000000000E+01 0.  1.
        -11    1    3    3    0    0  0.62980626394E+02  0.23170808418E+02  0.15496967889E+02  0.68873809808E+02  0.00000000000E+00 0.  1.
         11    1    3    3    0    0 -0.19588006645E+02  0.51170130204E+02 -0.99180444442E+01  0.55681593324E+02  0.00000000000E+00 0. -1.
<mgrwt>
<rscale>  0 0.15116258E+03</rscale>
<asrwt>0</asrwt>
<pdfrwt beam="1">  1        1 0.99712046E-01 0.16129351E+03</pdfrwt>
<pdfrwt beam="2">  1       -1 0.10868152E-01 0.16129351E+03</pdfrwt>
<totfact> 0.16743934E+03</totfact>
</mgrwt>
</event>
<event>
 7    1  0.1020736E-005  0.2754137E+03  0.7546771E-02  0.1100103E+00
          2   -1    0    0  501    0  0.00000000000E+00  0.00000000000E+00  0.48611921710E+03  0.48611921710E+03  0.00000000000E+00 0. -1.
         -2   -1    0    0    0  501 -0.00000000000E+00 -0.00000000000E+00 -0.15256563534E+03  0.15256563534E+03  0.00000000000E+00 0.  1.
         23    2    1    2    0    0  0.19341615610E+03  0.15101854835E+03  0.11182511094E+03  0.28510849840E+03  0.92550467505E+02 0.  0.
          5    1    1    2  502    0 -0.12676265753E+03 -0.43609213086E+02  0.17088778734E+03  0.21724470228E+03  0.47000000000E+01 0. -1.
         -5    1    1    2    0  502 -0.66653498578E+02 -0.10740933527E+03  0.50840683483E+02  0.13633165176E+03  0.47000000000E+01 0. -1.
        -11    1    3    3    0    0  0.30858577480E+02 -0.10391765928E+02  0.76249675402E+01  0.33442199886E+02  0.00000000000E+00 0.  1.
         11    1    3    3    0    0  0.16255757862E+03  0.16141031428E+03  0.10420014340E+03  0.25166629852E+03  0.00000000000E+00 0. -1.
<mgrwt>
<rscale>  0 0.27206554E+03</rscale>
<asrwt>0</asrwt>
<pdfrwt beam="1">  1        2 0.74787571E-01 0.27541373E+03</pdfrwt>
<pdfrwt beam="2">  1       -2 0.23471636E-01 0.27541373E+03</pdfrwt>
<totfact> 0.10232939E+03</totfact>
</mgrwt>
</event>
<event>
 7    1  0.1020736E-005  0.1409119E+03  0.7546771E-02  0.1223502E+00
          2   -1    0    0  501    0  0.00000000000E+00  0.00000000000E+00  0.23150195995E+03  0.23150195995E+03  0.00000000000E+00 0. -1.
         -2   -1    0    0    0  501 -0.00000000000E+00 -0.00000000000E+00 -0.10215714318E+03  0.10215714318E+03  0.00000000000E+00 0.  1.
         23    2    1    2    0    0 -0.25085358488E+02  0.60025845990E+02 -0.35891898857E+02  0.11649712503E+03  0.89727221845E+02 0.  0.
          5    1    1    2  502    0 -0.31292450265E+02 -0.35354801974E+02  0.14444010257E+03  0.15203359068E+03  0.47000000000E+01 0.  1.
         -5    1    1    2    0  502  0.56377808753E+02 -0.24671044017E+02  0.20796613066E+02  0.65128387418E+02  0.47000000000E+01 0.  1.
        -11    1    3    3    0    0 -0.16705343452E+02  0.37181531705E+02  0.27113770006E+02  0.48956014173E+02  0.00000000000E+00 0. -1.
         11    1    3    3    0    0 -0.83800150366E+01  0.22844314285E+02 -0.63005668864E+02  0.67541110859E+02  0.00000000000E+00 0.  1.
<mgrwt>
<rscale>  0 0.13270133E+03</rscale>
<asrwt>0</asrwt>
<pdfrwt beam="1">  1        2 0.35615686E-01 0.14091186E+03</pdfrwt>
<pdfrwt beam="2">  1       -2 0.15716484E-01 0.14091186E+03</pdfrwt>
<totfact> 0.44174763E+03</totfact>
</mgrwt>
</event>
<event>
 7    1  0.1020736E-005  0.1306675E+03  0.7546771E-02  0.1245806E+00
         -2   -1    0    0    0  501 -0.00000000000E+00  0.00000000000E+00  0.27534411805E+02  0.27534411805E+02  0.00000000000E+00 0.  1.
          2   -1    0    0  501    0  0.00000000000E+00 -0.00000000000E+00 -0.53875368427E+03  0.53875368427E+03  0.00000000000E+00 0. -1.
         23    2    1    2    0    0 -0.22050196306E+02 -0.31013608744E+02 -0.92594831350E+02  0.12774457950E+03  0.79352502890E+02 0.  0.
          5    1    1    2  502    0 -0.29610858993E+02  0.58490320658E+02 -0.15318012379E+03  0.16668581495E+03  0.47000000000E+01 0. -1.
         -5    1    1    2    0  502  0.51661055300E+02 -0.27476711914E+02 -0.26544431732E+03  0.27185770162E+03  0.47000000000E+01 0. -1.
        -11    1    3    3    0    0 -0.57528799551E+01  0.27006766859E+02 -0.25965308561E+02  0.37903276014E+02  0.00000000000E+00 0.  1.
         11    1    3    3    0    0 -0.16297316351E+02 -0.58020375603E+02 -0.66629522789E+02  0.89841303488E+02  0.00000000000E+00 0. -1.
<mgrwt>
<rscale>  0 0.11837295E+03</rscale>
<asrwt>0</asrwt>
<pdfrwt beam="2">  1        2 0.82885174E-01 0.13066749E+03</pdfrwt>
<pdfrwt beam="1">  1       -2 0.42360638E-02 0.13066749E+03</pdfrwt>
<totfact> 0.13621078E+04</totfact>
</mgrwt>
</event>
<event>
 7    1  0.1020736E-005  0.1316780E+03  0.7546771E-02  0.1238239E+00
          2   -1    0    0  501    0  0.00000000000E+00  0.00000000000E+00  0.14803060923E+03  0.14803060923E+03  0.00000000000E+00 0. -1.
         -2   -1    0    0    0  501 -0.00000000000E+00 -0.00000000000E+00 -0.94459365725E+02  0.94459365725E+02  0.00000000000E+00 0.  1.
         23    2    1    2    0    0  0.41404744528E+02  0.10219754023E+01 -0.27377198234E+00  0.10022828618E+03  0.91270132553E+02 0.  0.
          5    1    1    2  502    0  0.34068150198E+02  0.22052648229E+02  0.47930901847E+02  0.62979516541E+02  0.47000000000E+01 0.  1.
         -5    1    1    2    0  502 -0.75472894726E+02 -0.23074623632E+02  0.59141136388E+01  0.79282172234E+02  0.47000000000E+01 0.  1.
        -11    1    3    3    0    0  0.51387731453E+02  0.53007466918E+01  0.35604954097E+02  0.62741609922E+02  0.00000000000E+00 0. -1.
         11    1    3    3    0    0 -0.99829869250E+01 -0.42787712895E+01 -0.35878726080E+02  0.37486676257E+02  0.00000000000E+00 0.  1.
<mgrwt>
<rscale>  0 0.12299350E+03</rscale>
<asrwt>0</asrwt>
<pdfrwt beam="1">  1        2 0.22773940E-01 0.13167803E+03</pdfrwt>
<pdfrwt beam="2">  1       -2 0.14532210E-01 0.13167803E+03</pdfrwt>
<totfact> 0.81384824E+03</totfact>
</mgrwt>
</event>
<event>
 7    1  0.1020736E-005  0.2278944E+03  0.7546771E-02  0.1131298E+00
          1   -1    0    0  501    0  0.00000000000E+00  0.00000000000E+00  0.47737457622E+03  0.47737457622E+03  0.00000000000E+00 0. -1.
         -1   -1    0    0    0  501 -0.00000000000E+00 -0.00000000000E+00 -0.15195380346E+03  0.15195380346E+03  0.00000000000E+00 0.  1.
         23    2    1    2    0    0 -0.18316276386E+03 -0.52567956890E+02 -0.23963609307E+02  0.21218892517E+03  0.90210294518E+02 0.  0.
          5    1    1    2  502    0  0.27535470905E+02 -0.28649052677E+02  0.13062049338E+03  0.13661176255E+03  0.47000000000E+01 0. -1.
         -5    1    1    2    0  502  0.15562729296E+03  0.81217009567E+02  0.21876388869E+03  0.28052769195E+03  0.47000000000E+01 0. -1.
        -11    1    3    3    0    0 -0.15997450813E+03 -0.29468573076E+02  0.12554342035E+02  0.16314978257E+03  0.00000000000E+00 0.  1.
         11    1    3    3    0    0 -0.23188255736E+02 -0.23099383814E+02 -0.36517951342E+02  0.49039142599E+02  0.00000000000E+00 0. -1.
<mgrwt>
<rscale>  0 0.22350340E+03</rscale>
<asrwt>0</asrwt>
<pdfrwt beam="1">  1        1 0.73442242E-01 0.22789445E+03</pdfrwt>
<pdfrwt beam="2">  1       -1 0.23377508E-01 0.22789445E+03</pdfrwt>
<totfact> 0.75116210E+02</totfact>
</mgrwt>
</event>
<event>
 7    1  0.1020736E-005  0.1337006E+03  0.7546771E-02  0.1234679E+00
          1   -1    0    0  501    0  0.00000000000E+00  0.00000000000E+00  0.38136956270E+02  0.38136956270E+02  0.00000000000E+00 0. -1.
         -1   -1    0    0    0  501 -0.00000000000E+00 -0.00000000000E+00 -0.37402430713E+03  0.37402430713E+03  0.00000000000E+00 0.  1.
         23    2    1    2    0    0 -0.12451968885E+02 -0.45752666024E+02 -0.17417107513E+03  0.20233274411E+03  0.91403599221E+02 0.  0.
          5    1    1    2  502    0 -0.32907861484E+02  0.63796593039E+02 -0.13739023868E+03  0.15508417171E+03  0.47000000000E+01 0. -1.
         -5    1    1    2    0  502  0.45359830370E+02 -0.18043927015E+02 -0.24326037054E+02  0.54744347581E+02  0.47000000000E+01 0. -1.
        -11    1    3    3    0    0  0.12212081334E+02 -0.65376064077E+02 -0.14438864848E+03  0.15896932564E+03  0.00000000000E+00 0.  1.
         11    1    3    3    0    0 -0.24664050219E+02  0.19623398053E+02 -0.29782426649E+02  0.43363418471E+02  0.00000000000E+00 0. -1.
<mgrwt>
<rscale>  0 0.12525023E+03</rscale>
<asrwt>0</asrwt>
<pdfrwt beam="1">  1        1 0.58672242E-02 0.13370061E+03</pdfrwt>
<pdfrwt beam="2">  1       -1 0.57542200E-01 0.13370061E+03</pdfrwt>
<totfact> 0.40202269E+03</totfact>
</mgrwt>
</event>
<event>
 7    1  0.1020736E-005  0.1287782E+03  0.7546771E-02  0.1241315E+00
         -1   -1    0    0    0  501 -0.00000000000E+00  0.00000000000E+00  0.52338869340E+02  0.52338869340E+02  0.00000000000E+00 0.  1.
          1   -1    0    0  501    0  0.00000000000E+00 -0.00000000000E+00 -0.36463471720E+03  0.36463471720E+03  0.00000000000E+00 0. -1.
         23    2    1    2    0    0  0.31497400866E+02  0.18491062270E+02 -0.27398202104E+02  0.10432281316E+03  0.93800758112E+02 0.  0.
          5    1    1    2  502    0 -0.13728250601E+02  0.28749135046E+02 -0.24768049476E+03  0.24976528005E+03  0.47000000000E+01 0. -1.
         -5    1    1    2    0  502 -0.17769150265E+02 -0.47240197315E+02 -0.37217150991E+02  0.62885493330E+02  0.47000000000E+01 0.  1.
        -11    1    3    3    0    0  0.42943907017E+02  0.57733413822E+01  0.24430407208E+02  0.49742893130E+02  0.00000000000E+00 0.  1.
         11    1    3    3    0    0 -0.11446506150E+02  0.12717720887E+02 -0.51828609312E+02  0.54579920033E+02  0.00000000000E+00 0. -1.
<mgrwt>
<rscale>  0 0.12108684E+03</rscale>
<asrwt>0</asrwt>
<pdfrwt beam="2">  1        1 0.56097646E-01 0.12877825E+03</pdfrwt>
<pdfrwt beam="1">  1       -1 0.80521342E-02 0.12877825E+03</pdfrwt>
<totfact> 0.55619319E+03</totfact>
</mgrwt>
</event>
<event>
 7    1  0.1020736E-005  0.1550493E+03  0.7546771E-02  0.1202816E+00
         -2   -1    0    0    0  501 -0.00000000000E+00  0.00000000000E+00  0.42429188918E+02  0.42429188918E+02  0.00000000000E+00 0.  1.
          2   -1    0    0  501    0  0.00000000000E+00 -0.00000000000E+00 -0.47586540815E+03  0.47586540815E+03  0.00000000000E+00 0. -1.
         23    2    1    2    0    0 -0.87807306771E+02 -0.26566340032E+02 -0.19261372388E+03  0.23187571808E+03  0.90831759099E+02 0.  0.
          5    1    1    2  502    0  0.10786788951E+03 -0.13070325733E+02 -0.18845642178E+03  0.21758728803E+03  0.47000000000E+01 0. -1.
         -5    1    1    2    0  502 -0.20060582741E+02  0.39636665765E+02 -0.52366073563E+02  0.68831590955E+02  0.47000000000E+01 0. -1.
        -11    1    3    3    0    0 -0.17426298444E+02 -0.38981060423E+02 -0.13009168193E+03  0.13691984756E+03  0.00000000000E+00 0. -1.
         11    1    3    3    0    0 -0.70381008327E+02  0.12414720390E+02 -0.62522041954E+02  0.94955870517E+02  0.00000000000E+00 0.  1.
<mgrwt>
<rscale>  0 0.14810931E+03</rscale>
<asrwt>0</asrwt>
<pdfrwt beam="2">  1        2 0.73210062E-01 0.15504935E+03</pdfrwt>
<pdfrwt beam="1">  1       -2 0.65275676E-02 0.15504935E+03</pdfrwt>
<totfact> 0.82347187E+03</totfact>
</mgrwt>
</event>
<event>
 7    1  0.1020736E-005  0.1905260E+03  0.7546771E-02  0.1162983E+00
         -3   -1    0    0    0  501 -0.00000000000E+00  0.00000000000E+00  0.22334492390E+03  0.22334492390E+03  0.00000000000E+00 0.  1.
          3   -1    0    0  501    0  0.00000000000E+00 -0.00000000000E+00 -0.14802556785E+03  0.14802556785E+03  0.00000000000E+00 0. -1.
         23    2    1    2    0    0  0.12288274236E+03 -0.74662418555E+02  0.61175860938E+02  0.18032023498E+03  0.89990310973E+02 0.  0.
          5    1    1    2  502    0 -0.66175066545E+02  0.10313863363E+03  0.28320075555E+02  0.12586037446E+03  0.47000000000E+01 0. -1.
         -5    1    1    2    0  502 -0.56707675811E+02 -0.28476215079E+02 -0.14176580444E+02  0.65189882299E+02  0.47000000000E+01 0. -1.
        -11    1    3    3    0    0  0.10800246707E+03 -0.31179949992E+02  0.12064048578E+02  0.11305867257E+03  0.00000000000E+00 0. -1.
         11    1    3    3    0    0  0.14880275285E+02 -0.43482468563E+02  0.49111812360E+02  0.67261562413E+02  0.00000000000E+00 0.  1.
<mgrwt>
<rscale>  0 0.18507113E+03</rscale>
<asrwt>0</asrwt>
<pdfrwt beam="2">  1        3 0.22773164E-01 0.19052601E+03</pdfrwt>
<pdfrwt beam="1">  1       -3 0.34360758E-01 0.19052601E+03</pdfrwt>
<totfact> 0.35920898E+02</totfact>
</mgrwt>
</event>
<event>
 7    1  0.1020736E-005  0.1370128E+03  0.7546771E-02  0.1228926E+00
          2   -1    0    0  501    0  0.00000000000E+00  0.00000000000E+00  0.26760145137E+03  0.26760145137E+03  0.00000000000E+00 0. -1.
         -2   -1    0    0    0  501 -0.00000000000E+00 -0.00000000000E+00 -0.57578272462E+02  0.57578272462E+02  0.00000000000E+00 0.  1.
         23    2    1    2    0    0  0.55058129732E+02 -0.10756548815E+02  0.65652233318E+02  0.12614333738E+03  0.91950121443E+02 0.  0.
          5    1    1    2  502    0 -0.42259570983E+02  0.64797427622E+02  0.10624574152E+03  0.13150979263E+03  0.47000000000E+01 0.  1.
         -5    1    1    2    0  502 -0.12798558750E+02 -0.54040878807E+02  0.38125204073E+02  0.67526593827E+02  0.47000000000E+01 0.  1.
        -11    1    3    3    0    0  0.22940395452E+02  0.18991727446E+02 -0.15769269885E+02  0.33698921757E+02  0.00000000000E+00 0.  1.
         11    1    3    3    0    0  0.32117734280E+02 -0.29748276261E+02  0.81421503204E+02  0.92444415622E+02  0.00000000000E+00 0. -1.
<mgrwt>
<rscale>  0 0.12901410E+03</rscale>
<asrwt>0</asrwt>
<pdfrwt beam="1">  1        2 0.41169454E-01 0.13701282E+03</pdfrwt>
<pdfrwt beam="2">  1       -2 0.88581959E-02 0.13701282E+03</pdfrwt>
<totfact> 0.94387734E+03</totfact>
</mgrwt>
</event>
<event>
 7    1  0.1020736E-005  0.1343298E+03  0.7546771E-02  0.1233677E+00
          2   -1    0    0  501    0  0.00000000000E+00  0.00000000000E+00  0.10890731480E+04  0.10890731480E+04  0.00000000000E+00 0. -1.
         -2   -1    0    0    0  501 -0.00000000000E+00 -0.00000000000E+00 -0.14228794152E+02  0.14228794152E+02  0.00000000000E+00 0.  1.
         23    2    1    2    0    0 -0.29064862907E+02 -0.39666507724E+02  0.31316773089E+03  0.32987077253E+03  0.91227741426E+02 0.  0.
          5    1    1    2  502    0  0.59257812155E+02  0.60829998634E+02  0.65426398362E+03  0.65976907119E+03  0.47000000000E+01 0.  1.
         -5    1    1    2    0  502 -0.30192949248E+02 -0.21163490910E+02  0.10741263936E+03  0.11366209846E+03  0.47000000000E+01 0.  1.
        -11    1    3    3    0    0 -0.19449701026E+01  0.15209411189E+02  0.56830833322E+01  0.16352569632E+02  0.00000000000E+00 0.  1.
         11    1    3    3    0    0 -0.27119892804E+02 -0.54875918913E+02  0.30748464756E+03  0.31351820289E+03  0.00000000000E+00 0. -1.
<mgrwt>
<rscale>  0 0.12589496E+03</rscale>
<asrwt>0</asrwt>
<pdfrwt beam="1">  1        2 0.16754965E+00 0.13432980E+03</pdfrwt>
<pdfrwt beam="2">  1       -2 0.21890461E-02 0.13432980E+03</pdfrwt>
<totfact> 0.15052070E+04</totfact>
</mgrwt>
</event>
<event>
 7    1  0.1020736E-005  0.1585290E+03  0.7546771E-02  0.1205092E+00
          2   -1    0    0  501    0  0.00000000000E+00  0.00000000000E+00  0.23393529171E+03  0.23393529171E+03  0.00000000000E+00 0. -1.
         -2   -1    0    0    0  501 -0.00000000000E+00 -0.00000000000E+00 -0.18113109232E+03  0.18113109232E+03  0.00000000000E+00 0.  1.
         23    2    1    2    0    0  0.64393911751E+02  0.21966079255E+02 -0.12969097887E+03  0.17333112047E+03  0.92708375093E+02 0.  0.
          5    1    1    2  502    0 -0.32320938572E+02 -0.49759333650E+01  0.19890242972E+03  0.20162755152E+03  0.47000000000E+01 0. -1.
         -5    1    1    2    0  502 -0.32072973179E+02 -0.16990145890E+02 -0.16407251455E+02  0.40107712054E+02  0.47000000000E+01 0.  1.
        -11    1    3    3    0    0 -0.20385558126E+02 -0.11898376369E+02 -0.29611734556E+02  0.37868155009E+02  0.00000000000E+00 0. -1.
         11    1    3    3    0    0  0.84779469877E+02  0.33864455623E+02 -0.10007924432E+03  0.13546296546E+03  0.00000000000E+00 0.  1.
<mgrwt>
<rscale>  0 0.14630246E+03</rscale>
<asrwt>0</asrwt>
<pdfrwt beam="1">  1        2 0.35990045E-01 0.15852901E+03</pdfrwt>
<pdfrwt beam="2">  1       -2 0.27866322E-01 0.15852901E+03</pdfrwt>
<totfact> 0.16507036E+03</totfact>
</mgrwt>
</event>
<event>
 7    1  0.1020736E-005  0.1358058E+03  0.7546771E-02  0.1230245E+00
          1   -1    0    0  501    0  0.00000000000E+00  0.00000000000E+00  0.34486795394E+03  0.34486795394E+03  0.00000000000E+00 0. -1.
         -1   -1    0    0    0  501 -0.00000000000E+00 -0.00000000000E+00 -0.47330309169E+02  0.47330309169E+02  0.00000000000E+00 0.  1.
         23    2    1    2    0    0  0.21839284320E+02 -0.48385392533E+02  0.73924895814E+02  0.13057661540E+03  0.93633656973E+02 0.  0.
          5    1    1    2  502    0 -0.51316466192E+02 -0.17298542821E+02  0.14532784426E+03  0.15516085719E+03  0.47000000000E+01 0.  1.
         -5    1    1    2    0  502  0.29477181872E+02  0.65683935354E+02  0.78284904699E+02  0.10646079052E+03  0.47000000000E+01 0.  1.
        -11    1    3    3    0    0  0.42733042184E+02 -0.51827406277E+02  0.16211875009E+02  0.69101503797E+02  0.00000000000E+00 0.  1.
         11    1    3    3    0    0 -0.20893757864E+02  0.34420137437E+01  0.57713020805E+02  0.61475111604E+02  0.00000000000E+00 0. -1.
<mgrwt>
<rscale>  0 0.12813788E+03</rscale>
<asrwt>0</asrwt>
<pdfrwt beam="1">  1        1 0.53056607E-01 0.13580584E+03</pdfrwt>
<pdfrwt beam="2">  1       -1 0.72815862E-02 0.13580584E+03</pdfrwt>
<totfact> 0.69595288E+03</totfact>
</mgrwt>
</event>
<event>
 7    1  0.1020736E-005  0.3231488E+03  0.7546771E-02  0.1075752E+00
          1   -1    0    0  501    0  0.00000000000E+00  0.00000000000E+00  0.95397660479E+03  0.95397660479E+03  0.00000000000E+00 0. -1.
         -1   -1    0    0    0  501 -0.00000000000E+00 -0.00000000000E+00 -0.10588565749E+03  0.10588565749E+03  0.00000000000E+00 0.  1.
         23    2    1    2    0    0 -0.17905474965E+03  0.23820603908E+03  0.46335870388E+03  0.55742418077E+03  0.84957097500E+02 0.  0.
          5    1    1    2  502    0  0.13619540444E+00 -0.91546469241E+02  0.10392269415E+03  0.13857413518E+03  0.47000000000E+01 0. -1.
         -5    1    1    2    0  502  0.17891855425E+03 -0.14665956984E+03  0.28080954926E+03  0.36386394633E+03  0.47000000000E+01 0. -1.
        -11    1    3    3    0    0 -0.13649804798E+03  0.11928732367E+03  0.30576836014E+03  0.35546514984E+03  0.00000000000E+00 0. -1.
         11    1    3    3    0    0 -0.42556701674E+02  0.11891871541E+03  0.15759034374E+03  0.20195903093E+03  0.00000000000E+00 0.  1.
<mgrwt>
<rscale>  0 0.31977708E+03</rscale>
<asrwt>0</asrwt>
<pdfrwt beam="1">  1        1 0.14676563E+00 0.32314877E+03</pdfrwt>
<pdfrwt beam="2">  1       -1 0.16290102E-01 0.32314877E+03</pdfrwt>
<totfact> 0.48819933E+02</totfact>
</mgrwt>
</event>
<event>
 7    1  0.1020736E-005  0.1399085E+03  0.7546771E-02  0.1224496E+00
          1   -1    0    0  501    0  0.00000000000E+00  0.00000000000E+00  0.53344646843E+02  0.53344646843E+02  0.00000000000E+00 0. -1.
         -1   -1    0    0    0  501 -0.00000000000E+00 -0.00000000000E+00 -0.32689093607E+03  0.32689093607E+03  0.00000000000E+00 0.  1.
         23    2    1    2    0    0  0.28634704503E+02  0.55914071841E+02 -0.18169656525E+03  0.21287139505E+03  0.91401637145E+02 0.  0.
          5    1    1    2  502    0  0.31088377350E+02 -0.63288007291E+02 -0.78353144843E+02  0.10551381132E+03  0.47000000000E+01 0.  1.
         -5    1    1    2    0  502 -0.59723081853E+02  0.73739354507E+01 -0.13496579128E+02  0.61850376540E+02  0.47000000000E+01 0.  1.
        -11    1    3    3    0    0  0.37013257395E+02  0.33108633150E+02 -0.18191809586E+03  0.18857453809E+03  0.00000000000E+00 0.  1.
         11    1    3    3    0    0 -0.83785528919E+01  0.22805438691E+02  0.22153060831E+00  0.24296856962E+02  0.00000000000E+00 0. -1.
<mgrwt>
<rscale>  0 0.13201519E+03</rscale>
<asrwt>0</asrwt>
<pdfrwt beam="1">  1        1 0.82068687E-02 0.13990854E+03</pdfrwt>
<pdfrwt beam="2">  1       -1 0.50290913E-01 0.13990854E+03</pdfrwt>
<totfact> 0.32891713E+03</totfact>
</mgrwt>
</event>
<event>
 7    1  0.1020736E-005  0.2836050E+03  0.7546771E-02  0.1096799E+00
          1   -1    0    0  501    0  0.00000000000E+00  0.00000000000E+00  0.90216081817E+03  0.90216081817E+03  0.00000000000E+00 0. -1.
         -1   -1    0    0    0  501 -0.00000000000E+00 -0.00000000000E+00 -0.10356566826E+03  0.10356566826E+03  0.00000000000E+00 0.  1.
         23    2    1    2    0    0  0.17796355285E+03 -0.18203175614E+03  0.15947684913E+03  0.30650977995E+03  0.60899863792E+02 0.  0.
          5    1    1    2  502    0 -0.38135233441E+02  0.12123961220E+03  0.34876081588E+03  0.37122706837E+03  0.47000000000E+01 0. -1.
         -5    1    1    2    0  502 -0.13982831941E+03  0.60792143938E+02  0.29035748490E+03  0.32798963812E+03  0.47000000000E+01 0. -1.
        -11    1    3    3    0    0  0.27455273250E+02 -0.62250493170E+02  0.55813286362E+02  0.88000220816E+02  0.00000000000E+00 0. -1.
         11    1    3    3    0    0  0.15050827960E+03 -0.11978126297E+03  0.10366356276E+03  0.21850955913E+03  0.00000000000E+00 0.  1.
<mgrwt>
<rscale>  0 0.27797704E+03</rscale>
<asrwt>0</asrwt>
<pdfrwt beam="1">  1        1 0.13879397E+00 0.28360501E+03</pdfrwt>
<pdfrwt beam="2">  1       -1 0.15933180E-01 0.28360501E+03</pdfrwt>
<totfact> 0.55688243E+02</totfact>
</mgrwt>
</event>
<event>
 7    1  0.1020736E-005  0.1460840E+03  0.7546771E-02  0.1214943E+00
         -1   -1    0    0    0  501 -0.00000000000E+00  0.00000000000E+00  0.73572579888E+02  0.73572579888E+02  0.00000000000E+00 0.  1.
          1   -1    0    0  501    0  0.00000000000E+00 -0.00000000000E+00 -0.24011600837E+03  0.24011600837E+03  0.00000000000E+00 0. -1.
         23    2    1    2    0    0 -0.31088053010E+02  0.68920446976E+02 -0.63817895433E+02  0.13510227594E+03  0.91996772419E+02 0.  0.
          5    1    1    2  502    0 -0.91631861030E+01 -0.88701506263E+02 -0.32298210249E+02  0.94958862557E+02  0.47000000000E+01 0.  1.
         -5    1    1    2    0  502  0.40251239113E+02  0.19781059287E+02 -0.70427322800E+02  0.83627449760E+02  0.47000000000E+01 0.  1.
        -11    1    3    3    0    0 -0.27335167003E+02  0.91780852885E+02 -0.54007148497E+02  0.10994411490E+03  0.00000000000E+00 0.  1.
         11    1    3    3    0    0 -0.37528860070E+01 -0.22860405909E+02 -0.98107469365E+01  0.25158161045E+02  0.00000000000E+00 0. -1.
<mgrwt>
<rscale>  0 0.13880693E+03</rscale>
<asrwt>0</asrwt>
<pdfrwt beam="2">  1        1 0.36940924E-01 0.14608400E+03</pdfrwt>
<pdfrwt beam="1">  1       -1 0.11318859E-01 0.14608400E+03</pdfrwt>
<totfact> 0.56008064E+03</totfact>
</mgrwt>
</event>
<event>
 7    1  0.1020736E-005  0.1337735E+03  0.7546771E-02  0.1234544E+00
          1   -1    0    0  501    0  0.00000000000E+00  0.00000000000E+00  0.10668343288E+04  0.10668343288E+04  0.00000000000E+00 0. -1.
         -1   -1    0    0    0  501 -0.00000000000E+00 -0.00000000000E+00 -0.18733167388E+02  0.18733167388E+02  0.00000000000E+00 0.  1.
         23    2    1    2    0    0  0.42856523748E+02 -0.20831493819E+02  0.18175113741E+03  0.20895029302E+03  0.91411794866E+02 0.  0.
          5    1    1    2  502    0 -0.70819871966E+01  0.55700629391E+02  0.71393592289E+03  0.71615592342E+03  0.47000000000E+01 0.  1.
         -5    1    1    2    0  502 -0.35774536551E+02 -0.34869135572E+02  0.15241410116E+03  0.16046127980E+03  0.47000000000E+01 0.  1.
        -11    1    3    3    0    0 -0.19615436133E+02  0.18526915007E+02  0.31066600175E+02  0.41147850015E+02  0.00000000000E+00 0.  1.
         11    1    3    3    0    0  0.62471959881E+02 -0.39358408826E+02  0.15068453723E+03  0.16780244300E+03  0.00000000000E+00 0. -1.
<mgrwt>
<rscale>  0 0.12533654E+03</rscale>
<asrwt>0</asrwt>
<pdfrwt beam="1">  1        1 0.16412831E+00 0.13377353E+03</pdfrwt>
<pdfrwt beam="2">  1       -1 0.28820266E-02 0.13377353E+03</pdfrwt>
<totfact> 0.55667104E+03</totfact>
</mgrwt>
</event>
<event>
 7    1  0.1020736E-005  0.1287829E+03  0.7546771E-02  0.1243618E+00
          1   -1    0    0  501    0  0.00000000000E+00  0.00000000000E+00  0.68406496718E+02  0.68406496718E+02  0.00000000000E+00 0. -1.
         -1   -1    0    0    0  501 -0.00000000000E+00 -0.00000000000E+00 -0.23173076443E+03  0.23173076443E+03  0.00000000000E+00 0.  1.
         23    2    1    2    0    0 -0.17860935665E+02  0.25346529528E+02 -0.13917196317E+03  0.16910912197E+03  0.90926345018E+02 0.  0.
          5    1    1    2  502    0 -0.22018570176E+02  0.34911546842E+02  0.20116586170E+02  0.46156262572E+02  0.47000000000E+01 0. -1.
         -5    1    1    2    0  502  0.39879505840E+02 -0.60258076370E+02 -0.44268890714E+02  0.84871876608E+02  0.47000000000E+01 0. -1.
        -11    1    3    3    0    0 -0.36718051311E+02  0.51656334586E+02 -0.98514413802E+02  0.11713958307E+03  0.00000000000E+00 0. -1.
         11    1    3    3    0    0  0.18857115647E+02 -0.26309805058E+02 -0.40657549364E+02  0.51969538895E+02  0.00000000000E+00 0.  1.
<mgrwt>
<rscale>  0 0.11968463E+03</rscale>
<asrwt>0</asrwt>
<pdfrwt beam="1">  1        1 0.10524076E-01 0.12878292E+03</pdfrwt>
<pdfrwt beam="2">  1       -1 0.35650887E-01 0.12878292E+03</pdfrwt>
<totfact> 0.43236938E+03</totfact>
</mgrwt>
</event>
<event>
 7    1  0.1020736E-005  0.2065293E+03  0.7546771E-02  0.1148183E+00
         -2   -1    0    0    0  501 -0.00000000000E+00  0.00000000000E+00  0.22199956904E+02  0.22199956904E+02  0.00000000000E+00 0.  1.
          2   -1    0    0  501    0  0.00000000000E+00 -0.00000000000E+00 -0.20678760022E+04  0.20678760022E+04  0.00000000000E+00 0. -1.
         23    2    1    2    0    0 -0.92622830161E+02 -0.13583315642E+03 -0.57821583607E+03  0.60815362099E+03  0.92128381024E+02 0.  0.
          5    1    1    2  502    0  0.38025109116E+02  0.14041562652E+03 -0.12053334752E+04  0.12140895080E+04  0.47000000000E+01 0.  1.
         -5    1    1    2    0  502  0.54597721045E+02 -0.45824700915E+01 -0.26212673410E+03  0.26783283015E+03  0.47000000000E+01 0.  1.
        -11    1    3    3    0    0 -0.72470402122E+02 -0.10553146884E+03 -0.54161996303E+03  0.55654382977E+03  0.00000000000E+00 0. -1.
         11    1    3    3    0    0 -0.20152428039E+02 -0.30301687586E+02 -0.36595873035E+02  0.51609791219E+02  0.00000000000E+00 0.  1.
<mgrwt>
<rscale>  0 0.20185579E+03</rscale>
<asrwt>0</asrwt>
<pdfrwt beam="2">  1        2 0.31813467E+00 0.20652930E+03</pdfrwt>
<pdfrwt beam="1">  1       -2 0.34153790E-02 0.20652930E+03</pdfrwt>
<totfact> 0.23929760E+03</totfact>
</mgrwt>
</event>
<event>
 7    1  0.1020736E-005  0.1125987E+03  0.7546771E-02  0.1267973E+00
         -2   -1    0    0    0  501 -0.00000000000E+00  0.00000000000E+00  0.68712000845E+02  0.68712000845E+02  0.00000000000E+00 0.  1.
          2   -1    0    0  501    0  0.00000000000E+00 -0.00000000000E+00 -0.16279912593E+03  0.16279912593E+03  0.00000000000E+00 0. -1.
         23    2    1    2    0    0 -0.16369170817E+02 -0.56732333600E+01 -0.67572717290E+01  0.89015637477E+02  0.87051637918E+02 0.  0.
          5    1    1    2  502    0  0.17337918342E+02  0.22762441444E+01 -0.11387570373E+03  0.11530633374E+03  0.47000000000E+01 0. -1.
         -5    1    1    2    0  502 -0.96874752488E+00  0.33969892156E+01  0.26545850379E+02  0.27189155556E+02  0.47000000000E+01 0.  1.
        -11    1    3    3    0    0 -0.86153295332E+01  0.34024153904E+02  0.20116608989E+02  0.40454232276E+02  0.00000000000E+00 0. -1.
         11    1    3    3    0    0 -0.77538412841E+01 -0.39697387264E+02 -0.26873880718E+02  0.48561405201E+02  0.00000000000E+00 0.  1.
<mgrwt>
<rscale>  0 0.10609693E+03</rscale>
<asrwt>0</asrwt>
<pdfrwt beam="2">  1        2 0.25046019E-01 0.11259867E+03</pdfrwt>
<pdfrwt beam="1">  1       -2 0.10571077E-01 0.11259867E+03</pdfrwt>
<totfact> 0.12027821E+04</totfact>
</mgrwt>
</event>
<event>
 7    1  0.1020736E-005  0.1387594E+03  0.7546771E-02  0.1226395E+00
          1   -1    0    0  501    0  0.00000000000E+00  0.00000000000E+00  0.94396956906E+03  0.94396956906E+03  0.00000000000E+00 0. -1.
         -1   -1    0    0    0  501 -0.00000000000E+00 -0.00000000000E+00 -0.17302187392E+02  0.17302187392E+02  0.00000000000E+00 0.  1.
         23    2    1    2    0    0 -0.51336847895E+02 -0.32255096409E+02  0.29623308292E+03  0.31574748443E+03  0.90920686924E+02 0.  0.
          5    1    1    2  502    0  0.34470667860E+02 -0.43594814355E+02  0.35286624891E+03  0.35724699355E+03  0.47000000000E+01 0. -1.
         -5    1    1    2    0  502  0.16866180035E+02  0.75849910764E+02  0.27756804984E+03  0.28827727847E+03  0.47000000000E+01 0. -1.
        -11    1    3    3    0    0 -0.41191559235E+02 -0.53686207143E+02  0.27720716152E+03  0.28534674308E+03  0.00000000000E+00 0. -1.
         11    1    3    3    0    0 -0.10145288660E+02  0.21431110734E+02  0.19025921397E+02  0.30400741344E+02  0.00000000000E+00 0.  1.
<mgrwt>
<rscale>  0 0.13071743E+03</rscale>
<asrwt>0</asrwt>
<pdfrwt beam="1">  1        1 0.14522605E+00 0.13875943E+03</pdfrwt>
<pdfrwt beam="2">  1       -1 0.26618757E-02 0.13875943E+03</pdfrwt>
<totfact> 0.76962667E+03</totfact>
</mgrwt>
</event>
<event>
 7    1  0.1020736E-005  0.1293919E+03  0.7546771E-02  0.1242208E+00
         -1   -1    0    0    0  501 -0.00000000000E+00  0.00000000000E+00  0.10497460889E+02  0.10497460889E+02  0.00000000000E+00 0.  1.
          1   -1    0    0  501    0  0.00000000000E+00 -0.00000000000E+00 -0.12721351181E+04  0.12721351181E+04  0.00000000000E+00 0. -1.
         23    2    1    2    0    0 -0.62989506792E+01  0.32774360592E+02 -0.42370807996E+03  0.43477159720E+03  0.91564017026E+02 0.  0.
          5    1    1    2  502    0  0.47979517395E+02 -0.25507239767E+02 -0.16910408229E+03  0.17768211507E+03  0.47000000000E+01 0.  1.
         -5    1    1    2    0  502 -0.41680566716E+02 -0.72671208255E+01 -0.66882549500E+03  0.67017886675E+03  0.47000000000E+01 0.  1.
        -11    1    3    3    0    0  0.25379970490E+02  0.53292736980E+02 -0.23267525209E+03  0.24004589488E+03  0.00000000000E+00 0.  1.
         11    1    3    3    0    0 -0.31678921170E+02 -0.20518376388E+02 -0.19103282788E+03  0.19472570232E+03  0.00000000000E+00 0. -1.
<mgrwt>
<rscale>  0 0.12054058E+03</rscale>
<asrwt>0</asrwt>
<pdfrwt beam="2">  1        1 0.19571302E+00 0.12939192E+03</pdfrwt>
<pdfrwt beam="1">  1       -1 0.16149946E-02 0.12939192E+03</pdfrwt>
<totfact> 0.92573516E+03</totfact>
</mgrwt>
</event>
<event>
 7    1  0.1020736E-005  0.1886636E+03  0.7546771E-02  0.1163987E+00
         -1   -1    0    0    0  501 -0.00000000000E+00  0.00000000000E+00  0.10172037052E+03  0.10172037052E+03  0.00000000000E+00 0.  1.
          1   -1    0    0  501    0  0.00000000000E+00 -0.00000000000E+00 -0.36639127704E+03  0.36639127704E+03  0.00000000000E+00 0. -1.
         23    2    1    2    0    0  0.10949663171E+03 -0.89327651116E+02 -0.41090556261E+02  0.17556742267E+03  0.95742072684E+02 0.  0.
          5    1    1    2  502    0 -0.49333638616E+02 -0.23672040526E+02 -0.10243847637E+03  0.11623211622E+03  0.47000000000E+01 0. -1.
         -5    1    1    2    0  502 -0.60162993091E+02  0.11299969164E+03 -0.12114187390E+03  0.17631210866E+03  0.47000000000E+01 0. -1.
        -11    1    3    3    0    0  0.31494202574E+02 -0.41008689698E+02 -0.62730985633E+02  0.81294366256E+02  0.00000000000E+00 0. -1.
         11    1    3    3    0    0  0.78002429133E+02 -0.48318961418E+02  0.21640429372E+02  0.94273056419E+02  0.00000000000E+00 0.  1.
<mgrwt>
<rscale>  0 0.18400044E+03</rscale>
<asrwt>0</asrwt>
<pdfrwt beam="2">  1        1 0.56367889E-01 0.18866359E+03</pdfrwt>
<pdfrwt beam="1">  1       -1 0.15649288E-01 0.18866359E+03</pdfrwt>
<totfact> 0.20153852E+03</totfact>
</mgrwt>
</event>
<event>
 7    1  0.1099736E-005  0.1841554E+03  0.7546771E-02  0.1169033E+00
         -1   -1    0    0    0  501 -0.00000000000E+00  0.00000000000E+00  0.26557384635E+03  0.26557384635E+03  0.00000000000E+00 0.  1.
          1   -1    0    0  501    0  0.00000000000E+00 -0.00000000000E+00 -0.12393767539E+03  0.12393767539E+03  0.00000000000E+00 0. -1.
         23    2    1    2    0    0  0.83484756362E+02 -0.10638830680E+03  0.12276992280E+03  0.20439224388E+03  0.91736356180E+02 0.  0.
          5    1    1    2  502    0 -0.28080465364E+02  0.38778705302E+00  0.53418341967E+02  0.60533231967E+02  0.47000000000E+01 0. -1.
         -5    1    1    2    0  502 -0.55404290998E+02  0.10600051974E+03 -0.34552093796E+02  0.12458604590E+03  0.47000000000E+01 0. -1.
        -11    1    3    3    0    0  0.63577288341E+02 -0.11422752571E+02  0.64110084556E+02  0.91009086419E+02  0.00000000000E+00 0.  1.
         11    1    3    3    0    0  0.19907468021E+02 -0.94965554226E+02  0.58659838240E+02  0.11338315746E+03  0.00000000000E+00 0. -1.
<mgrwt>
<rscale>  0 0.17873510E+03</rscale>
<asrwt>0</asrwt>
<pdfrwt beam="2">  1        1 0.19067335E-01 0.18415540E+03</pdfrwt>
<pdfrwt beam="1">  1       -1 0.40857515E-01 0.18415540E+03</pdfrwt>
<totfact> 0.15964631E+03</totfact>
</mgrwt>
</event>
<event>
 7    1  0.1020736E-005  0.1467540E+03  0.7546771E-02  0.1213528E+00
         -2   -1    0    0    0  501 -0.00000000000E+00  0.00000000000E+00  0.14446342524E+03  0.14446342524E+03  0.00000000000E+00 0. -1.
          2   -1    0    0  501    0  0.00000000000E+00 -0.00000000000E+00 -0.12416168900E+03  0.12416168900E+03  0.00000000000E+00 0.  1.
         23    2    1    2    0    0  0.53273280313E+02 -0.55458897418E+02  0.61478437565E+01  0.12119009993E+03  0.93463964397E+02 0.  0.
          5    1    1    2  502    0 -0.47036089772E+02  0.60161317056E+02 -0.44208890181E+02  0.88364550483E+02  0.47000000000E+01 0.  1.
         -5    1    1    2    0  502 -0.62371905404E+01 -0.47024196379E+01  0.58362782659E+02  0.59070463821E+02  0.47000000000E+01 0.  1.
        -11    1    3    3    0    0 -0.10585730335E+01 -0.19838357272E+02  0.42377786255E+02  0.46803394791E+02  0.00000000000E+00 0. -1.
         11    1    3    3    0    0  0.54331853346E+02 -0.35620540146E+02 -0.36229942499E+02  0.74386705142E+02  0.00000000000E+00 0.  1.
<mgrwt>
<rscale>  0 0.13985225E+03</rscale>
<asrwt>0</asrwt>
<pdfrwt beam="2">  1        2 0.19101798E-01 0.14675405E+03</pdfrwt>
<pdfrwt beam="1">  1       -2 0.22225142E-01 0.14675405E+03</pdfrwt>
<totfact> 0.49138354E+03</totfact>
</mgrwt>
</event>
<event>
 7    1  0.1020736E-005  0.2455031E+03  0.7546771E-02  0.1118621E+00
          2   -1    0    0  501    0  0.00000000000E+00  0.00000000000E+00  0.13893640317E+04  0.13893640317E+04  0.00000000000E+00 0. -1.
         -2   -1    0    0    0  501 -0.00000000000E+00 -0.00000000000E+00 -0.41240794394E+02  0.41240794394E+02  0.00000000000E+00 0.  1.
         23    2    1    2    0    0  0.18060882931E+01  0.21128846544E+03  0.58295978889E+03  0.62702106284E+03  0.93097906499E+02 0.  0.
          5    1    1    2  502    0 -0.56353284867E+02 -0.10634284362E+03  0.47889191430E+03  0.49380567908E+03  0.47000000000E+01 0.  1.
         -5    1    1    2    0  502  0.54547196574E+02 -0.10494562183E+03  0.28627153409E+03  0.30977808416E+03  0.47000000000E+01 0.  1.
        -11    1    3    3    0    0  0.29695319183E+02  0.16291841013E+03  0.50251233419E+03  0.52909627324E+03  0.00000000000E+00 0. -1.
         11    1    3    3    0    0 -0.27889230890E+02  0.48370055308E+02  0.80447454700E+02  0.97924789598E+02  0.00000000000E+00 0.  1.
<mgrwt>
<rscale>  0 0.24176707E+03</rscale>
<asrwt>0</asrwt>
<pdfrwt beam="1">  1        2 0.21374828E+00 0.24550308E+03</pdfrwt>
<pdfrwt beam="2">  1       -2 0.63447387E-02 0.24550308E+03</pdfrwt>
<totfact> 0.21269691E+03</totfact>
</mgrwt>
</event>
<event>
 7    1  0.1020736E-005  0.1417948E+03  0.7546771E-02  0.1221560E+00
          2   -1    0    0  501    0  0.00000000000E+00  0.00000000000E+00  0.92841291194E+02  0.92841291194E+02  0.00000000000E+00 0. -1.
         -2   -1    0    0    0  501 -0.00000000000E+00 -0.00000000000E+00 -0.33596449324E+03  0.33596449324E+03  0.00000000000E+00 0.  1.
         23    2    1    2    0    0 -0.52106018859E+02  0.42017374443E+02 -0.26230453932E+03  0.28571945673E+03  0.91386211469E+02 0.  0.
          5    1    1    2  502    0  0.42560261411E+02  0.79378235343E+01 -0.43956438715E+02  0.61876032503E+02  0.47000000000E+01 0.  1.
         -5    1    1    2    0  502  0.95457574478E+01 -0.49955197977E+02  0.63137775991E+02  0.81210295205E+02  0.47000000000E+01 0.  1.
        -11    1    3    3    0    0 -0.51037293880E+02  0.68861417519E+02 -0.18531542072E+03  0.20417763184E+03  0.00000000000E+00 0.  1.
         11    1    3    3    0    0 -0.10687249790E+01 -0.26844043076E+02 -0.76989118609E+02  0.81541824887E+02  0.00000000000E+00 0. -1.
<mgrwt>
<rscale>  0 0.13405463E+03</rscale>
<asrwt>0</asrwt>
<pdfrwt beam="1">  1        2 0.14283276E-01 0.14179483E+03</pdfrwt>
<pdfrwt beam="2">  1       -2 0.51686844E-01 0.14179483E+03</pdfrwt>
<totfact> 0.14488930E+03</totfact>
</mgrwt>
</event>
<event>
 7    1  0.1020736E-005  0.1495968E+03  0.7546771E-02  0.1217409E+00
          1   -1    0    0  501    0  0.00000000000E+00  0.00000000000E+00  0.26427359351E+03  0.26427359351E+03  0.00000000000E+00 0. -1.
         -1   -1    0    0    0  501 -0.00000000000E+00 -0.00000000000E+00 -0.21930515357E+03  0.21930515357E+03  0.00000000000E+00 0.  1.
         23    2    1    2    0    0  0.17250784571E+02 -0.50896582239E+02 -0.18288106085E+03  0.21100841868E+03  0.90504246788E+02 0.  0.
          5    1    1    2  502    0 -0.47217236857E+02  0.48958974883E+02  0.33696450254E+02  0.76052543927E+02  0.47000000000E+01 0. -1.
         -5    1    1    2    0  502  0.29966452286E+02  0.19376073563E+01  0.19415305053E+03  0.19651778447E+03  0.47000000000E+01 0.  1.
        -11    1    3    3    0    0  0.38726737873E+02 -0.37409003327E+02 -0.43167177456E+02  0.69011585735E+02  0.00000000000E+00 0. -1.
         11    1    3    3    0    0 -0.21475953302E+02 -0.13487578913E+02 -0.13971388339E+03  0.14199683295E+03  0.00000000000E+00 0.  1.
<mgrwt>
<rscale>  0 0.13701072E+03</rscale>
<asrwt>0</asrwt>
<pdfrwt beam="1">  1        1 0.40657476E-01 0.14959675E+03</pdfrwt>
<pdfrwt beam="2">  1       -1 0.33739254E-01 0.14959675E+03</pdfrwt>
<totfact> 0.85573099E+02</totfact>
</mgrwt>
</event>
<event>
 7    1  0.1020736E-005  0.2012263E+03  0.7546771E-02  0.1153162E+00
          1   -1    0    0  501    0  0.00000000000E+00  0.00000000000E+00  0.37731352478E+03  0.37731352478E+03  0.00000000000E+00 0. -1.
         -1   -1    0    0    0  501 -0.00000000000E+00 -0.00000000000E+00 -0.12267449167E+03  0.12267449167E+03  0.00000000000E+00 0.  1.
         23    2    1    2    0    0  0.40978869968E+02  0.15227127989E+03  0.74647524887E+01  0.18126059733E+03  0.89072280496E+02 0.  0.
          5    1    1    2  502    0 -0.62798444580E+02 -0.21315706988E+02  0.10383280155E+03  0.12329373335E+03  0.47000000000E+01 0.  1.
         -5    1    1    2    0  502  0.21819574613E+02 -0.13095557290E+03  0.14334147907E+03  0.19543368577E+03  0.47000000000E+01 0.  1.
        -11    1    3    3    0    0 -0.84743831619E+01  0.11397919298E+03  0.23517344964E+02  0.11668820470E+03  0.00000000000E+00 0. -1.
         11    1    3    3    0    0  0.49453253130E+02  0.38292086912E+02 -0.16052592476E+02  0.64572392633E+02  0.00000000000E+00 0.  1.
<mgrwt>
<rscale>  0 0.19599606E+03</rscale>
<asrwt>0</asrwt>
<pdfrwt beam="1">  1        1 0.58048234E-01 0.20122635E+03</pdfrwt>
<pdfrwt beam="2">  1       -1 0.18872999E-01 0.20122635E+03</pdfrwt>
<totfact> 0.14414082E+03</totfact>
</mgrwt>
</event>
<event>
 7    1  0.1020736E-005  0.1895777E+03  0.7546771E-02  0.1191143E+00
          1   -1    0    0  501    0  0.00000000000E+00  0.00000000000E+00  0.55866649333E+03  0.55866649333E+03  0.00000000000E+00 0. -1.
         -1   -1    0    0    0  501 -0.00000000000E+00 -0.00000000000E+00 -0.57695722598E+02  0.57695722598E+02  0.00000000000E+00 0.  1.
         23    2    1    2    0    0 -0.16575421870E+02  0.87407965829E+01  0.11981122478E+02  0.91909559965E+02  0.89177765066E+02 0.  0.
          5    1    1    2  502    0 -0.16239471438E+02 -0.35043093483E+02  0.47951135465E+03  0.48108727698E+03  0.47000000000E+01 0. -1.
         -5    1    1    2    0  502  0.32814893308E+02  0.26302296901E+02  0.94782936112E+01  0.43365378989E+02  0.47000000000E+01 0.  1.
        -11    1    3    3    0    0  0.29835253183E+02 -0.30353068532E+01  0.28388717333E+02  0.41294971752E+02  0.00000000000E+00 0. -1.
         11    1    3    3    0    0 -0.46410675054E+02  0.11776103436E+02 -0.16407594855E+02  0.50614588213E+02  0.00000000000E+00 0.  1.
<mgrwt>
<rscale>  0 0.15785205E+03</rscale>
<asrwt>0</asrwt>
<pdfrwt beam="1">  1        1 0.85948688E-01 0.18957772E+03</pdfrwt>
<pdfrwt beam="2">  1       -1 0.88762654E-02 0.18957772E+03</pdfrwt>
<totfact> 0.28130215E+03</totfact>
</mgrwt>
</event>
<event>
 7    1  0.1020736E-005  0.1367728E+03  0.7546771E-02  0.1229285E+00
         -2   -1    0    0    0  501 -0.00000000000E+00  0.00000000000E+00  0.29727746584E+02  0.29727746584E+02  0.00000000000E+00 0.  1.
          2   -1    0    0  501    0  0.00000000000E+00 -0.00000000000E+00 -0.12691986062E+04  0.12691986062E+04  0.00000000000E+00 0. -1.
         23    2    1    2    0    0 -0.44869957917E+02 -0.32688451887E+02 -0.86754544935E+02  0.13812417425E+03  0.92033083378E+02 0.  0.
          5    1    1    2  502    0  0.16883007276E+02  0.66676283645E+02 -0.34209854078E+03  0.34897602259E+03  0.47000000000E+01 0.  1.
         -5    1    1    2    0  502  0.27986950641E+02 -0.33987831759E+02 -0.81061777393E+03  0.81182615597E+03  0.47000000000E+01 0.  1.
        -11    1    3    3    0    0  0.22443082381E+02 -0.22223150288E+02 -0.53949932485E+02  0.62515242706E+02  0.00000000000E+00 0. -1.
         11    1    3    3    0    0 -0.67313040298E+02 -0.10465301599E+02 -0.32804612450E+02  0.75608931547E+02  0.00000000000E+00 0.  1.
<mgrwt>
<rscale>  0 0.12877502E+03</rscale>
<asrwt>0</asrwt>
<pdfrwt beam="2">  1        2 0.19526133E+00 0.13677279E+03</pdfrwt>
<pdfrwt beam="1">  1       -2 0.45734992E-02 0.13677279E+03</pdfrwt>
<totfact> 0.40369725E+03</totfact>
</mgrwt>
</event>
<event>
 7    1  0.1020736E-005  0.1291749E+03  0.7546771E-02  0.1242978E+00
         -3   -1    0    0    0  501 -0.00000000000E+00  0.00000000000E+00  0.23764827901E+02  0.23764827901E+02  0.00000000000E+00 0.  1.
          3   -1    0    0  501    0  0.00000000000E+00 -0.00000000000E+00 -0.53657436230E+03  0.53657436230E+03  0.00000000000E+00 0. -1.
         23    2    1    2    0    0 -0.24750754984E+02 -0.21185131277E+02 -0.23192126319E+03  0.25117197052E+03  0.90766055285E+02 0.  0.
          5    1    1    2  502    0  0.33774241653E+02  0.12721936106E+02 -0.97131735590E+01  0.37669388077E+02  0.47000000000E+01 0.  1.
         -5    1    1    2    0  502 -0.90234866689E+01  0.84631951705E+01 -0.27117509764E+03  0.27149783161E+03  0.47000000000E+01 0.  1.
        -11    1    3    3    0    0 -0.52422128486E+02 -0.24724573970E+02 -0.93806677068E+02  0.11026820383E+03  0.00000000000E+00 0. -1.
         11    1    3    3    0    0  0.27671373502E+02  0.35394426933E+01 -0.13811458613E+03  0.14090376669E+03  0.00000000000E+00 0.  1.
<mgrwt>
<rscale>  0 0.12007242E+03</rscale>
<asrwt>0</asrwt>
<pdfrwt beam="2">  1        3 0.82549897E-01 0.12917488E+03</pdfrwt>
<pdfrwt beam="1">  1       -3 0.36561276E-02 0.12917488E+03</pdfrwt>
<totfact> 0.11914612E+03</totfact>
</mgrwt>
</event>
<event>
 7    1  0.1026560E-005  0.1979542E+03  0.7546771E-02  0.1155511E+00
          2   -1    0    0  501    0  0.00000000000E+00  0.00000000000E+00  0.62338129755E+02  0.62338129755E+02  0.00000000000E+00 0. -1.
         -2   -1    0    0    0  501 -0.00000000000E+00 -0.00000000000E+00 -0.57509080329E+03  0.57509080329E+03  0.00000000000E+00 0.  1.
         23    2    1    2    0    0  0.82362092021E+02 -0.12952553455E+03 -0.26377787906E+03  0.31934983777E+03  0.94048769801E+02 0.  0.
          5    1    1    2  502    0 -0.10204669648E+03  0.46720446317E+02 -0.15124892811E+03  0.18840025642E+03  0.47000000000E+01 0.  1.
         -5    1    1    2    0  502  0.19684604455E+02  0.82805088229E+02 -0.97725866361E+02  0.12967883885E+03  0.47000000000E+01 0.  1.
        -11    1    3    3    0    0 -0.82410868674E+00 -0.40068125908E+02 -0.16108436578E+02  0.43192772519E+02  0.00000000000E+00 0. -1.
         11    1    3    3    0    0  0.83186200707E+02 -0.89457408637E+02 -0.24766944249E+03  0.27615706525E+03  0.00000000000E+00 0.  1.
<mgrwt>
<rscale>  0 0.19330850E+03</rscale>
<asrwt>0</asrwt>
<pdfrwt beam="1">  1        2 0.95904812E-02 0.19795419E+03</pdfrwt>
<pdfrwt beam="2">  1       -2 0.88475511E-01 0.19795419E+03</pdfrwt>
<totfact> 0.76101328E+02</totfact>
</mgrwt>
</event>
<event>
 7    1  0.1020736E-005  0.2869689E+03  0.7546771E-02  0.1093941E+00
          2   -1    0    0  501    0  0.00000000000E+00  0.00000000000E+00  0.16560511120E+04  0.16560511120E+04  0.00000000000E+00 0. -1.
         -2   -1    0    0    0  501 -0.00000000000E+00 -0.00000000000E+00 -0.51206134638E+02  0.51206134638E+02  0.00000000000E+00 0.  1.
         23    2    1    2    0    0  0.25817141715E+03 -0.86320904488E+01  0.54475682922E+03  0.60901408224E+03  0.86088069876E+02 0.  0.
          5    1    1    2  502    0 -0.89587333561E+01  0.34303690032E+02  0.11005332936E+03  0.11571874246E+03  0.47000000000E+01 0.  1.
         -5    1    1    2    0  502 -0.24921268380E+03 -0.25671599583E+02  0.95003481879E+03  0.98252442194E+03  0.47000000000E+01 0.  1.
        -11    1    3    3    0    0  0.62512732399E+02 -0.39509490600E+02  0.15996676533E+03  0.17623338949E+03  0.00000000000E+00 0. -1.
         11    1    3    3    0    0  0.19565868475E+03  0.30877400152E+02  0.38479006388E+03  0.43278069276E+03  0.00000000000E+00 0.  1.
<mgrwt>
<rscale>  0 0.28322486E+03</rscale>
<asrwt>0</asrwt>
<pdfrwt beam="1">  1        2 0.25477705E+00 0.28696893E+03</pdfrwt>
<pdfrwt beam="2">  1       -2 0.78778681E-02 0.28696893E+03</pdfrwt>
<totfact> 0.10912051E+03</totfact>
</mgrwt>
</event>
<event>
 7    1  0.1020736E-005  0.2110169E+03  0.7546771E-02  0.1140763E+00
          1   -1    0    0  501    0  0.00000000000E+00  0.00000000000E+00  0.14269981742E+03  0.14269981742E+03  0.00000000000E+00 0. -1.
         -1   -1    0    0    0  501 -0.00000000000E+00 -0.00000000000E+00 -0.78010114730E+02  0.78010114730E+02  0.00000000000E+00 0.  1.
         23    2    1    2    0    0 -0.15582658349E+02 -0.45465418673E+01  0.19816636184E+02  0.96483423549E+02  0.93020759328E+02 0.  0.
          5    1    1    2  502    0  0.32490509316E+02  0.46714363296E+02  0.52920264313E+02  0.77849273014E+02  0.47000000000E+01 0. -1.
         -5    1    1    2    0  502 -0.16907850967E+02 -0.42167821428E+02 -0.80471978057E+01  0.46377235589E+02  0.47000000000E+01 0.  1.
        -11    1    3    3    0    0 -0.51860466765E+02  0.90379142351E+01  0.23342945749E+02  0.57585458433E+02  0.00000000000E+00 0.  1.
         11    1    3    3    0    0  0.36277808415E+02 -0.13584456102E+02 -0.35263095653E+01  0.38897965116E+02  0.00000000000E+00 0. -1.
<mgrwt>
<rscale>  0 0.21101686E+03</rscale>
<asrwt>0</asrwt>
<pdfrwt beam="1">  1        1 0.21953818E-01 0.21101686E+03</pdfrwt>
<pdfrwt beam="2">  1       -1 0.12001556E-01 0.21101686E+03</pdfrwt>
<totfact> 0.10077242E+04</totfact>
</mgrwt>
</event>
<event>
 7    1  0.1020736E-005  0.1287497E+03  0.7546771E-02  0.1245499E+00
         -1   -1    0    0    0  501 -0.00000000000E+00  0.00000000000E+00  0.36357402891E+03  0.36357402891E+03  0.00000000000E+00 0.  1.
          1   -1    0    0  501    0  0.00000000000E+00 -0.00000000000E+00 -0.35911856404E+02  0.35911856404E+02  0.00000000000E+00 0. -1.
         23    2    1    2    0    0 -0.27785163805E+02 -0.13476882889E+02  0.18787816321E+03  0.20944366356E+03  0.87262834550E+02 0.  0.
          5    1    1    2  502    0 -0.14773863338E+02  0.59586791712E+02  0.44957169804E+02  0.76237063829E+02  0.47000000000E+01 0. -1.
         -5    1    1    2    0  502  0.42559027143E+02 -0.46109908822E+02  0.94826839493E+02  0.11380515793E+03  0.47000000000E+01 0. -1.
        -11    1    3    3    0    0  0.31425067654E+02 -0.84438446035E+01  0.55419974589E+02  0.64266686332E+02  0.00000000000E+00 0. -1.
         11    1    3    3    0    0 -0.59210231459E+02 -0.50330382858E+01  0.13245818862E+03  0.14517697723E+03  0.00000000000E+00 0.  1.
<mgrwt>
<rscale>  0 0.11855567E+03</rscale>
<asrwt>0</asrwt>
<pdfrwt beam="2">  1        1 0.55249012E-02 0.12874967E+03</pdfrwt>
<pdfrwt beam="1">  1       -1 0.55934463E-01 0.12874967E+03</pdfrwt>
<totfact> 0.45887975E+03</totfact>
</mgrwt>
</event>
<event>
 7    1  0.1020736E-005  0.1786922E+03  0.7546771E-02  0.1174913E+00
         -1   -1    0    0    0  501 -0.00000000000E+00  0.00000000000E+00  0.10413549052E+03  0.10413549052E+03  0.00000000000E+00 0.  1.
          1   -1    0    0  501    0  0.00000000000E+00 -0.00000000000E+00 -0.28294545610E+03  0.28294545610E+03  0.00000000000E+00 0. -1.
         23    2    1    2    0    0  0.27844671199E+02  0.12461228855E+03 -0.12567096527E+03  0.20065492435E+03  0.90364035879E+02 0.  0.
          5    1    1    2  502    0  0.83574027669E+01 -0.50152832767E+02 -0.83701131074E+02  0.98046530580E+02  0.47000000000E+01 0. -1.
         -5    1    1    2    0  502 -0.36202073966E+02 -0.74459455786E+02  0.30562130766E+02  0.88379491696E+02  0.47000000000E+01 0. -1.
        -11    1    3    3    0    0  0.24583528385E+02  0.17437048843E+02  0.61201269330E+01  0.30754780017E+02  0.00000000000E+00 0.  1.
         11    1    3    3    0    0  0.32611428140E+01  0.10717523971E+03 -0.13179109221E+03  0.16990014433E+03  0.00000000000E+00 0. -1.
<mgrwt>
<rscale>  0 0.17284496E+03</rscale>
<asrwt>0</asrwt>
<pdfrwt beam="2">  1        1 0.43530070E-01 0.17869222E+03</pdfrwt>
<pdfrwt beam="1">  1       -1 0.16020845E-01 0.17869222E+03</pdfrwt>
<totfact> 0.26804538E+03</totfact>
</mgrwt>
</event>
<event>
 7    1  0.1020736E-005  0.1604867E+03  0.7546771E-02  0.1195926E+00
         -2   -1    0    0    0  501 -0.00000000000E+00  0.00000000000E+00  0.59495417367E+02  0.59495417367E+02  0.00000000000E+00 0.  1.
          2   -1    0    0  501    0  0.00000000000E+00 -0.00000000000E+00 -0.46027641894E+03  0.46027641894E+03  0.00000000000E+00 0. -1.
         23    2    1    2    0    0  0.48010156350E+02  0.88449055530E+02 -0.70356861455E+02  0.15243533685E+03  0.90322939671E+02 0.  0.
          5    1    1    2  502    0 -0.81386326455E+02 -0.86902811894E+02 -0.20172616549E+03  0.23428907079E+03  0.47000000000E+01 0.  1.
         -5    1    1    2    0  502  0.33376170104E+02 -0.15462436364E+01 -0.12869797462E+03  0.13304742866E+03  0.47000000000E+01 0.  1.
        -11    1    3    3    0    0 -0.77897694407E+01  0.62412342301E+02 -0.65281091377E+02  0.90650989354E+02  0.00000000000E+00 0. -1.
         11    1    3    3    0    0  0.55799925791E+02  0.26036713229E+02 -0.50757700781E+01  0.61784347500E+02  0.00000000000E+00 0.  1.
<mgrwt>
<rscale>  0 0.15376076E+03</rscale>
<asrwt>0</asrwt>
<pdfrwt beam="2">  1        2 0.70811759E-01 0.16048673E+03</pdfrwt>
<pdfrwt beam="1">  1       -2 0.91531408E-02 0.16048673E+03</pdfrwt>
<totfact> 0.50724862E+03</totfact>
</mgrwt>
</event>
<event>
 7    1  0.1020736E-005  0.1954289E+03  0.7546771E-02  0.1158084E+00
          1   -1    0    0  501    0  0.00000000000E+00  0.00000000000E+00  0.94257826987E+03  0.94257826987E+03  0.00000000000E+00 0. -1.
         -1   -1    0    0    0  501 -0.00000000000E+00 -0.00000000000E+00 -0.51377269730E+02  0.51377269730E+02  0.00000000000E+00 0.  1.
         23    2    1    2    0    0  0.10145643568E+03  0.11079611462E+03  0.16301936254E+03  0.24000530990E+03  0.91967651172E+02 0.  0.
          5    1    1    2  502    0 -0.88082936833E+02 -0.20009546808E+02  0.22593532468E+03  0.24336771902E+03  0.47000000000E+01 0. -1.
         -5    1    1    2    0  502 -0.13373498844E+02 -0.90786567812E+02  0.50224631293E+03  0.51058251068E+03  0.47000000000E+01 0. -1.
        -11    1    3    3    0    0  0.55959918374E+01  0.62356009448E+02  0.91864001647E+02  0.11116915866E+03  0.00000000000E+00 0.  1.
         11    1    3    3    0    0  0.95860443839E+02  0.48440105172E+02  0.71155360893E+02  0.12883615124E+03  0.00000000000E+00 0. -1.
<mgrwt>
<rscale>  0 0.19041864E+03</rscale>
<asrwt>0</asrwt>
<pdfrwt beam="1">  1        1 0.14501203E+00 0.19542889E+03</pdfrwt>
<pdfrwt beam="2">  1       -1 0.79041961E-02 0.19542889E+03</pdfrwt>
<totfact> 0.15496731E+03</totfact>
</mgrwt>
</event>
<event>
 7    1  0.1020736E-005  0.1573646E+03  0.7546771E-02  0.1199479E+00
         -1   -1    0    0    0  501 -0.00000000000E+00  0.00000000000E+00  0.46308216167E+03  0.46308216167E+03  0.00000000000E+00 0.  1.
          1   -1    0    0  501    0  0.00000000000E+00 -0.00000000000E+00 -0.50183792558E+02  0.50183792558E+02  0.00000000000E+00 0. -1.
         23    2    1    2    0    0 -0.95486105177E+02 -0.45984752384E+01  0.26926130695E+03  0.30020443599E+03  0.92099455571E+02 0.  0.
          5    1    1    2  502    0  0.60939336508E+02  0.60878627316E+02  0.54544460726E+02  0.10206369675E+03  0.47000000000E+01 0. -1.
         -5    1    1    2    0  502  0.34546768669E+02 -0.56280152078E+02  0.89092601445E+02  0.11099782149E+03  0.47000000000E+01 0. -1.
        -11    1    3    3    0    0 -0.42250039875E+02  0.37101275901E+02  0.70031299205E+02  0.89810653106E+02  0.00000000000E+00 0. -1.
         11    1    3    3    0    0 -0.53236065303E+02 -0.41699751140E+02  0.19923000774E+03  0.21039378289E+03  0.00000000000E+00 0.  1.
<mgrwt>
<rscale>  0 0.15081140E+03</rscale>
<asrwt>0</asrwt>
<pdfrwt beam="2">  1        1 0.77205838E-02 0.15736456E+03</pdfrwt>
<pdfrwt beam="1">  1       -1 0.71243407E-01 0.15736456E+03</pdfrwt>
<totfact> 0.18497687E+03</totfact>
</mgrwt>
</event>
<event>
 7    1  0.1020736E-005  0.1551662E+03  0.7546771E-02  0.1202130E+00
          2   -1    0    0  501    0  0.00000000000E+00  0.00000000000E+00  0.42373907043E+03  0.42373907043E+03  0.00000000000E+00 0. -1.
         -2   -1    0    0    0  501 -0.00000000000E+00 -0.00000000000E+00 -0.48456715019E+02  0.48456715019E+02  0.00000000000E+00 0.  1.
         23    2    1    2    0    0 -0.85125883825E+02 -0.34705427454E+02  0.15538316307E+03  0.20306347130E+03  0.92951402463E+02 0.  0.
          5    1    1    2  502    0  0.75789678949E+02 -0.32459551488E+02  0.87577929680E+02  0.12037309369E+03  0.47000000000E+01 0. -1.
         -5    1    1    2    0  502  0.93362048762E+01  0.67164978942E+02  0.13232126266E+03  0.14875922045E+03  0.47000000000E+01 0. -1.
        -11    1    3    3    0    0 -0.51135620397E+02  0.26969471608E+02  0.90006611002E+02  0.10697380098E+03  0.00000000000E+00 0. -1.
         11    1    3    3    0    0 -0.33990263428E+02 -0.61674899062E+02  0.65376552069E+02  0.96089670322E+02  0.00000000000E+00 0.  1.
<mgrwt>
<rscale>  0 0.14865971E+03</rscale>
<asrwt>0</asrwt>
<pdfrwt beam="1">  1        2 0.65190624E-01 0.15516619E+03</pdfrwt>
<pdfrwt beam="2">  1       -2 0.74548795E-02 0.15516619E+03</pdfrwt>
<totfact> 0.76183998E+03</totfact>
</mgrwt>
</event>
<event>
 7    1  0.1020736E-005  0.1255168E+03  0.7546771E-02  0.1261126E+00
         -1   -1    0    0    0  501 -0.00000000000E+00  0.00000000000E+00  0.24163930345E+03  0.24163930345E+03  0.00000000000E+00 0.  1.
          1   -1    0    0  501    0  0.00000000000E+00 -0.00000000000E+00 -0.41811356733E+02  0.41811356733E+02  0.00000000000E+00 0. -1.
         23    2    1    2    0    0  0.10462468785E+02 -0.48745872162E+01  0.94761926260E+02  0.11976395755E+03  0.72321214081E+02 0.  0.
          5    1    1    2  502    0 -0.29549262575E+01 -0.12693711890E+02  0.13066663499E+03  0.13139909212E+03  0.47000000000E+01 0. -1.
         -5    1    1    2    0  502 -0.75075425280E+01  0.17568299107E+02 -0.25600614530E+02  0.32287610513E+02  0.47000000000E+01 0. -1.
        -11    1    3    3    0    0  0.30680343279E+02 -0.12102195132E+02  0.13370494968E+02  0.35588154299E+02  0.00000000000E+00 0. -1.
         11    1    3    3    0    0 -0.20217874494E+02  0.72276079160E+01  0.81391431292E+02  0.84175803252E+02  0.00000000000E+00 0.  1.
<mgrwt>
<rscale>  0 0.10970042E+03</rscale>
<asrwt>0</asrwt>
<pdfrwt beam="2">  1        1 0.64325166E-02 0.12551680E+03</pdfrwt>
<pdfrwt beam="1">  1       -1 0.37175276E-01 0.12551680E+03</pdfrwt>
<totfact> 0.77517599E+03</totfact>
</mgrwt>
</event>
<event>
 7    1  0.1020736E-005  0.1400364E+03  0.7546771E-02  0.1221180E+00
          4   -1    0    0  501    0  0.00000000000E+00  0.00000000000E+00  0.38069067531E+03  0.38069067531E+03  0.00000000000E+00 0. -1.
         -4   -1    0    0    0  501 -0.00000000000E+00 -0.00000000000E+00 -0.44007594433E+02  0.44007594433E+02  0.00000000000E+00 0.  1.
         23    2    1    2    0    0 -0.45458108219E+02 -0.45373747518E+02  0.16444666338E+03  0.20271721379E+03  0.99631054912E+02 0.  0.
          5    1    1    2  502    0  0.51583277845E+02 -0.29093938861E+02  0.45687833338E+02  0.74945046179E+02  0.47000000000E+01 0. -1.
         -5    1    1    2    0  502 -0.61251696264E+01  0.74467686380E+02  0.12654858415E+03  0.14703600977E+03  0.47000000000E+01 0.  1.
        -11    1    3    3    0    0 -0.18275033232E+02  0.22727193116E+02  0.84759434863E+01  0.30370113015E+02  0.00000000000E+00 0.  1.
         11    1    3    3    0    0 -0.27183074987E+02 -0.68100940635E+02  0.15597071990E+03  0.17234710078E+03  0.00000000000E+00 0. -1.
<mgrwt>
<rscale>  0 0.13432176E+03</rscale>
<asrwt>0</asrwt>
<pdfrwt beam="1">  1        4 0.58567794E-01 0.14003644E+03</pdfrwt>
<pdfrwt beam="2">  1       -4 0.67703994E-02 0.14003644E+03</pdfrwt>
<totfact> 0.67772564E+02</totfact>
</mgrwt>
</event>
<event>
 7    1  0.1020736E-005  0.1750806E+03  0.7546771E-02  0.1178441E+00
         -2   -1    0    0    0  501 -0.00000000000E+00  0.00000000000E+00  0.44306788021E+02  0.44306788021E+02  0.00000000000E+00 0.  1.
          2   -1    0    0  501    0  0.00000000000E+00 -0.00000000000E+00 -0.64083481991E+03  0.64083481991E+03  0.00000000000E+00 0. -1.
         23    2    1    2    0    0 -0.12239061705E+03 -0.70642491278E+01 -0.20397476514E+03  0.25531458594E+03  0.92468731052E+02 0.  0.
          5    1    1    2  502    0  0.94091015017E+02 -0.28384805602E+02 -0.12838588806E+03  0.16175241126E+03  0.47000000000E+01 0. -1.
         -5    1    1    2    0  502  0.28299602029E+02  0.35449054730E+02 -0.26416737868E+03  0.26807461073E+03  0.47000000000E+01 0. -1.
        -11    1    3    3    0    0 -0.96248755855E+02 -0.37417134626E+02 -0.99411215939E+02  0.14334034611E+03  0.00000000000E+00 0.  1.
         11    1    3    3    0    0 -0.26141861191E+02  0.30352885498E+02 -0.10456354920E+03  0.11197423983E+03  0.00000000000E+00 0. -1.
<mgrwt>
<rscale>  0 0.16943223E+03</rscale>
<asrwt>0</asrwt>
<pdfrwt beam="2">  1        2 0.98589976E-01 0.17508056E+03</pdfrwt>
<pdfrwt beam="1">  1       -2 0.68164287E-02 0.17508056E+03</pdfrwt>
<totfact> 0.55438239E+03</totfact>
</mgrwt>
</event>
<event>
 7    1  0.1020736E-005  0.1640770E+03  0.7546771E-02  0.1191539E+00
          3   -1    0    0  501    0  0.00000000000E+00  0.00000000000E+00  0.50319130934E+02  0.50319130934E+02  0.00000000000E+00 0. -1.
         -3   -1    0    0    0  501 -0.00000000000E+00 -0.00000000000E+00 -0.45744165628E+03  0.45744165628E+03  0.00000000000E+00 0.  1.
         23    2    1    2    0    0  0.18204098579E+02 -0.10471487001E+03 -0.18990286912E+03  0.23553728556E+03  0.90100610313E+02 0.  0.
          5    1    1    2  502    0 -0.39386610117E+02 -0.31882093318E+01 -0.11621307953E+03  0.12283745190E+03  0.47000000000E+01 0.  1.
         -5    1    1    2    0  502  0.21182511538E+02  0.10790307935E+03 -0.10100657669E+03  0.14938604976E+03  0.47000000000E+01 0.  1.
        -11    1    3    3    0    0  0.38116876505E+02 -0.28193808738E+02 -0.27250474229E+02  0.54684325646E+02  0.00000000000E+00 0. -1.
         11    1    3    3    0    0 -0.19912777926E+02 -0.76521061275E+02 -0.16265239489E+03  0.18085295991E+03  0.00000000000E+00 0.  1.
<mgrwt>
<rscale>  0 0.15750782E+03</rscale>
<asrwt>0</asrwt>
<pdfrwt beam="1">  1        3 0.77414048E-02 0.16407698E+03</pdfrwt>
<pdfrwt beam="2">  1       -3 0.70375639E-01 0.16407698E+03</pdfrwt>
<totfact> 0.52726068E+02</totfact>
</mgrwt>
</event>
<event>
 7    1  0.1020736E-005  0.1149060E+03  0.7546771E-02  0.1258312E+00
          1   -1    0    0  501    0  0.00000000000E+00  0.00000000000E+00  0.20809395948E+04  0.20809395948E+04  0.00000000000E+00 0. -1.
         -1   -1    0    0    0  501 -0.00000000000E+00 -0.00000000000E+00 -0.69709946021E+01  0.69709946021E+01  0.00000000000E+00 0.  1.
         23    2    1    2    0    0  0.30557781974E+02 -0.21225953979E+01  0.51979488201E+03  0.52949493903E+03  0.96124334287E+02 0.  0.
          5    1    1    2  502    0 -0.25051457508E+01 -0.46786212636E+02  0.10541442146E+04  0.10551954040E+04  0.47000000000E+01 0. -1.
         -5    1    1    2    0  502 -0.28052636223E+02  0.48908808034E+02  0.50002950358E+03  0.50322024637E+03  0.47000000000E+01 0.  1.
        -11    1    3    3    0    0 -0.51823564184E+01 -0.44828545258E+02  0.22277887596E+03  0.22730350385E+03  0.00000000000E+00 0. -1.
         11    1    3    3    0    0  0.35740138392E+02  0.42705949860E+02  0.29701600605E+03  0.30219143518E+03  0.00000000000E+00 0.  1.
<mgrwt>
<rscale>  0 0.11122843E+03</rscale>
<asrwt>0</asrwt>
<pdfrwt beam="1">  1        1 0.32014406E+00 0.11490602E+03</pdfrwt>
<pdfrwt beam="2">  1       -1 0.10724624E-02 0.11490602E+03</pdfrwt>
<totfact> 0.50056596E+03</totfact>
</mgrwt>
</event>
<event>
 7    1  0.1020736E-005  0.1432611E+03  0.7546771E-02  0.1219532E+00
          1   -1    0    0  501    0  0.00000000000E+00  0.00000000000E+00  0.41254090424E+03  0.41254090424E+03  0.00000000000E+00 0. -1.
         -1   -1    0    0    0  501 -0.00000000000E+00 -0.00000000000E+00 -0.42725627595E+02  0.42725627595E+02  0.00000000000E+00 0.  1.
         23    2    1    2    0    0  0.62796786431E+02  0.30897423948E+02  0.11158308341E+03  0.15995720619E+03  0.90760322366E+02 0.  0.
          5    1    1    2  502    0  0.23284479296E+02 -0.44149391356E+02  0.56543134282E+02  0.75568192830E+02  0.47000000000E+01 0.  1.
         -5    1    1    2    0  502 -0.86081265727E+02  0.13251967408E+02  0.20168905896E+03  0.21974113282E+03  0.47000000000E+01 0.  1.
        -11    1    3    3    0    0  0.42738987010E+02 -0.12892923676E+02  0.74961664762E+01  0.45266334106E+02  0.00000000000E+00 0. -1.
         11    1    3    3    0    0  0.20057799421E+02  0.43790347624E+02  0.10408691693E+03  0.11469087208E+03  0.00000000000E+00 0.  1.
<mgrwt>
<rscale>  0 0.13548838E+03</rscale>
<asrwt>0</asrwt>
<pdfrwt beam="1">  1        1 0.63467829E-01 0.14326106E+03</pdfrwt>
<pdfrwt beam="2">  1       -1 0.65731738E-02 0.14326106E+03</pdfrwt>
<totfact> 0.65006977E+03</totfact>
</mgrwt>
</event>
<event>
 7    1  0.1020736E-005  0.1858317E+03  0.7546771E-02  0.1167374E+00
          2   -1    0    0  501    0  0.00000000000E+00  0.00000000000E+00  0.29288433079E+03  0.29288433079E+03  0.00000000000E+00 0. -1.
         -2   -1    0    0    0  501 -0.00000000000E+00 -0.00000000000E+00 -0.13279366221E+03  0.13279366221E+03  0.00000000000E+00 0.  1.
         23    2    1    2    0    0 -0.13079153868E+03 -0.42458425054E+02 -0.20601836973E+02  0.16648077957E+03  0.91554736806E+02 0.  0.
          5    1    1    2  502    0  0.90974145319E+02  0.66723356354E+01  0.18392703566E+03  0.20535836877E+03  0.47000000000E+01 0. -1.
         -5    1    1    2    0  502  0.39817393358E+02  0.35786089419E+02 -0.32345301036E+01  0.53838844664E+02  0.47000000000E+01 0. -1.
        -11    1    3    3    0    0 -0.78811157167E+02 -0.62366924833E+02  0.13188859708E+02  0.10136457876E+03  0.00000000000E+00 0. -1.
         11    1    3    3    0    0 -0.51980381511E+02  0.19908499779E+02 -0.33790696681E+02  0.65116200808E+02  0.00000000000E+00 0.  1.
<mgrwt>
<rscale>  0 0.18044426E+03</rscale>
<asrwt>0</asrwt>
<pdfrwt beam="1">  1        2 0.45059128E-01 0.18583168E+03</pdfrwt>
<pdfrwt beam="2">  1       -2 0.20429794E-01 0.18583168E+03</pdfrwt>
<totfact> 0.22410947E+03</totfact>
</mgrwt>
</event>
<event>
 7    1  0.1020736E-005  0.1380355E+03  0.7546771E-02  0.1228998E+00
          1   -1    0    0  501    0  0.00000000000E+00  0.00000000000E+00  0.21916674117E+03  0.21916674117E+03  0.00000000000E+00 0. -1.
         -1   -1    0    0    0  501 -0.00000000000E+00 -0.00000000000E+00 -0.77689943017E+02  0.77689943017E+02  0.00000000000E+00 0.  1.
         23    2    1    2    0    0  0.58408626205E+02  0.39124906913E+01  0.90478969183E+01  0.10556841115E+03  0.87383921838E+02 0.  0.
          5    1    1    2  502    0 -0.35934267075E+02 -0.27113286610E+02  0.14825696677E+03  0.15501167716E+03  0.47000000000E+01 0. -1.
         -5    1    1    2    0  502 -0.22474359130E+02  0.23200795919E+02 -0.15828065534E+02  0.36276595873E+02  0.47000000000E+01 0. -1.
        -11    1    3    3    0    0  0.47262632001E+02  0.26481238388E+02  0.38770493572E+02  0.66619543244E+02  0.00000000000E+00 0. -1.
         11    1    3    3    0    0  0.11145994204E+02 -0.22568747697E+02 -0.29722596654E+02  0.38948867907E+02  0.00000000000E+00 0.  1.
<mgrwt>
<rscale>  0 0.12896631E+03</rscale>
<asrwt>0</asrwt>
<pdfrwt beam="1">  1        1 0.33717960E-01 0.13803546E+03</pdfrwt>
<pdfrwt beam="2">  1       -1 0.11952299E-01 0.13803546E+03</pdfrwt>
<totfact> 0.57471142E+03</totfact>
</mgrwt>
</event>
<event>
 7    1  0.1020736E-005  0.1486854E+03  0.7546771E-02  0.1211414E+00
          2   -1    0    0  501    0  0.00000000000E+00  0.00000000000E+00  0.50234402661E+03  0.50234402661E+03  0.00000000000E+00 0. -1.
         -2   -1    0    0    0  501 -0.00000000000E+00 -0.00000000000E+00 -0.40073521329E+02  0.40073521329E+02  0.00000000000E+00 0.  1.
         23    2    1    2    0    0 -0.58833647029E+00 -0.80512618652E+02  0.12837747326E+03  0.17691529668E+03  0.91299609292E+02 0.  0.
          5    1    1    2  502    0  0.34074988767E+02  0.93628746853E+02  0.16539715091E+03  0.19314697675E+03  0.47000000000E+01 0.  1.
         -5    1    1    2    0  502 -0.33486652297E+02 -0.13116128202E+02  0.16849588111E+03  0.17235527452E+03  0.47000000000E+01 0.  1.
        -11    1    3    3    0    0 -0.25744343889E+02 -0.89223400564E+02  0.84285189134E+02  0.12540964699E+03  0.00000000000E+00 0.  1.
         11    1    3    3    0    0  0.25156007418E+02  0.87107819124E+01  0.44092284122E+02  0.51505649689E+02  0.00000000000E+00 0. -1.
<mgrwt>
<rscale>  0 0.14143301E+03</rscale>
<asrwt>0</asrwt>
<pdfrwt beam="1">  1        2 0.77283692E-01 0.14868537E+03</pdfrwt>
<pdfrwt beam="2">  1       -2 0.61651575E-02 0.14868537E+03</pdfrwt>
<totfact> 0.84433380E+03</totfact>
</mgrwt>
</event>
<event>
 7    1  0.1020736E-005  0.1435192E+03  0.7546771E-02  0.1219298E+00
         -1   -1    0    0    0  501 -0.00000000000E+00  0.00000000000E+00  0.41068116117E+02  0.41068116117E+02  0.00000000000E+00 0.  1.
          1   -1    0    0  501    0  0.00000000000E+00 -0.00000000000E+00 -0.41487209187E+03  0.41487209187E+03  0.00000000000E+00 0. -1.
         23    2    1    2    0    0 -0.44504552380E+02 -0.54650692891E+02 -0.13223406241E+03  0.17495303580E+03  0.90307054319E+02 0.  0.
          5    1    1    2  502    0  0.15369222571E+02  0.47460793241E+02 -0.24531655259E+03  0.25038179022E+03  0.47000000000E+01 0. -1.
         -5    1    1    2    0  502  0.29135329809E+02  0.71898996498E+01  0.37466392405E+01  0.30605381972E+02  0.47000000000E+01 0. -1.
        -11    1    3    3    0    0 -0.45472526543E+02 -0.23999228275E+01 -0.17328317544E+02  0.48721462301E+02  0.00000000000E+00 0.  1.
         11    1    3    3    0    0  0.96797416310E+00 -0.52250770063E+02 -0.11490574486E+03  0.12623157350E+03  0.00000000000E+00 0. -1.
<mgrwt>
<rscale>  0 0.13565491E+03</rscale>
<asrwt>0</asrwt>
<pdfrwt beam="2">  1        1 0.63826478E-01 0.14351922E+03</pdfrwt>
<pdfrwt beam="1">  1       -1 0.63181715E-02 0.14351922E+03</pdfrwt>
<totfact> 0.68487786E+03</totfact>
</mgrwt>
</event>
<event>
 7    1  0.1020736E-005  0.1253345E+03  0.7546771E-02  0.1248737E+00
          2   -1    0    0  501    0  0.00000000000E+00  0.00000000000E+00  0.41310953720E+03  0.41310953720E+03  0.00000000000E+00 0. -1.
         -2   -1    0    0    0  501 -0.00000000000E+00 -0.00000000000E+00 -0.40981462179E+02  0.40981462179E+02  0.00000000000E+00 0.  1.
         23    2    1    2    0    0  0.81380501334E+01  0.41694271844E+01  0.45933015156E+02  0.10464577835E+03  0.93580366862E+02 0.  0.
          5    1    1    2  502    0  0.43427813647E+02 -0.25304558377E+02  0.24931770040E+03  0.25437708506E+03  0.47000000000E+01 0. -1.
         -5    1    1    2    0  502 -0.51565863781E+02  0.21135131192E+02  0.76877359469E+02  0.95068135971E+02  0.47000000000E+01 0. -1.
        -11    1    3    3    0    0  0.15535502035E+02 -0.41862805009E+02  0.35059893834E+02  0.56771845331E+02  0.00000000000E+00 0. -1.
         11    1    3    3    0    0 -0.73974519011E+01  0.46032232193E+02  0.10873121322E+02  0.47873933018E+02  0.00000000000E+00 0.  1.
<mgrwt>
<rscale>  0 0.11664473E+03</rscale>
<asrwt>0</asrwt>
<pdfrwt beam="1">  1        2 0.63555311E-01 0.12533453E+03</pdfrwt>
<pdfrwt beam="2">  1       -2 0.63048406E-02 0.12533453E+03</pdfrwt>
<totfact> 0.99722662E+03</totfact>
</mgrwt>
</event>
<event>
 7    1  0.1020736E-005  0.2616412E+03  0.7546771E-02  0.1108401E+00
          2   -1    0    0  501    0  0.00000000000E+00  0.00000000000E+00  0.65318327035E+03  0.65318327035E+03  0.00000000000E+00 0.  1.
         -2   -1    0    0    0  501 -0.00000000000E+00 -0.00000000000E+00 -0.10252822542E+03  0.10252822542E+03  0.00000000000E+00 0. -1.
         23    2    1    2    0    0  0.21923460685E+03  0.69031249992E+02  0.33733432924E+03  0.41812911208E+03  0.90600101375E+02 0.  0.
          5    1    1    2  502    0 -0.65999490323E+02 -0.36399732193E+02  0.33922901815E+01  0.75594119211E+02  0.47000000000E+01 0.  1.
         -5    1    1    2    0  502 -0.15323511653E+03 -0.32631517799E+02  0.20992842550E+03  0.26198826448E+03  0.47000000000E+01 0.  1.
        -11    1    3    3    0    0  0.18981072271E+03  0.46661158105E+02  0.21609270868E+03  0.29137850449E+03  0.00000000000E+00 0. -1.
         11    1    3    3    0    0  0.29423884134E+02  0.22370091888E+02  0.12124162057E+03  0.12675060760E+03  0.00000000000E+00 0.  1.
<mgrwt>
<rscale>  0 0.25791657E+03</rscale>
<asrwt>0</asrwt>
<pdfrwt beam="1">  1        2 0.10048973E+00 0.26164124E+03</pdfrwt>
<pdfrwt beam="2">  1       -2 0.15773574E-01 0.26164124E+03</pdfrwt>
<totfact> 0.14355039E+03</totfact>
</mgrwt>
</event>
<event>
 7    1  0.1020736E-005  0.1343834E+03  0.7546771E-02  0.1233553E+00
         -2   -1    0    0    0  501 -0.00000000000E+00  0.00000000000E+00  0.38818737094E+02  0.38818737094E+02  0.00000000000E+00 0.  1.
          2   -1    0    0  501    0  0.00000000000E+00 -0.00000000000E+00 -0.37252347328E+03  0.37252347328E+03  0.00000000000E+00 0. -1.
         23    2    1    2    0    0  0.25781593161E+02  0.42056857662E+02 -0.11740498101E+03  0.15669640543E+03  0.91303691531E+02 0.  0.
          5    1    1    2  502    0 -0.10751125126E+02 -0.70646795101E+02 -0.20936848879E+03  0.22127767725E+03  0.47000000000E+01 0.  1.
         -5    1    1    2    0  502 -0.15030468035E+02  0.28589937439E+02 -0.69312663862E+01  0.33368127694E+02  0.47000000000E+01 0.  1.
        -11    1    3    3    0    0 -0.21461436736E+02 -0.16584068757E+02 -0.42966386911E+02  0.50810776490E+02  0.00000000000E+00 0. -1.
         11    1    3    3    0    0  0.47243029897E+02  0.58640926420E+02 -0.74438594095E+02  0.10588562894E+03  0.00000000000E+00 0.  1.
<mgrwt>
<rscale>  0 0.12597529E+03</rscale>
<asrwt>0</asrwt>
<pdfrwt beam="2">  1        2 0.57311305E-01 0.13438341E+03</pdfrwt>
<pdfrwt beam="1">  1       -2 0.59721132E-02 0.13438341E+03</pdfrwt>
<totfact> 0.12152463E+04</totfact>
</mgrwt>
</event>
<event>
 7    1  0.1020736E-005  0.1318776E+03  0.7546771E-02  0.1238061E+00
         -2   -1    0    0    0  501 -0.00000000000E+00  0.00000000000E+00  0.86797949218E+02  0.86797949218E+02  0.00000000000E+00 0.  1.
          2   -1    0    0  501    0  0.00000000000E+00 -0.00000000000E+00 -0.22344373112E+03  0.22344373112E+03  0.00000000000E+00 0. -1.
         23    2    1    2    0    0  0.41829811111E+02  0.41282026732E+01  0.23428774143E+02  0.10283973625E+03  0.90886350679E+02 0.  0.
          5    1    1    2  502    0 -0.80145182431E+02  0.18116683775E+00 -0.14499040210E+03  0.16573349024E+03  0.47000000000E+01 0. -1.
         -5    1    1    2    0  502  0.38315371319E+02 -0.43093695110E+01 -0.15084153943E+02  0.41668453836E+02  0.47000000000E+01 0. -1.
        -11    1    3    3    0    0 -0.28013372010E+02  0.10641762714E+02  0.60145827853E+01  0.30564216514E+02  0.00000000000E+00 0. -1.
         11    1    3    3    0    0  0.69843183121E+02 -0.65135600411E+01  0.17414191357E+02  0.72275519739E+02  0.00000000000E+00 0.  1.
<mgrwt>
<rscale>  0 0.12310487E+03</rscale>
<asrwt>0</asrwt>
<pdfrwt beam="2">  1        2 0.34375958E-01 0.13187761E+03</pdfrwt>
<pdfrwt beam="1">  1       -2 0.13353531E-01 0.13187761E+03</pdfrwt>
<totfact> 0.59586223E+03</totfact>
</mgrwt>
</event>
<event>
 7    1  0.1276177E-005  0.1270448E+03  0.7546771E-02  0.1248230E+00
         -4   -1    0    0    0  501 -0.00000000000E+00  0.00000000000E+00  0.81227947731E+02  0.81227947731E+02  0.00000000000E+00 0.  1.
          4   -1    0    0  501    0  0.00000000000E+00 -0.00000000000E+00 -0.17071873984E+03  0.17071873984E+03  0.00000000000E+00 0. -1.
         23    2    1    2    0    0 -0.63055102035E-01 -0.22700893542E+02  0.83660833999E+01  0.91583535837E+02  0.88330165524E+02 0.  0.
          5    1    1    2  502    0 -0.38563119358E+02  0.28367746157E+02  0.67828146875E+01  0.48579211312E+02  0.47000000000E+01 0.  1.
         -5    1    1    2    0  502  0.38626174460E+02 -0.56668526142E+01 -0.10463969020E+03  0.11178394042E+03  0.47000000000E+01 0.  1.
        -11    1    3    3    0    0  0.74706648925E-01 -0.51792152849E+02  0.25596605393E+02  0.57772128968E+02  0.00000000000E+00 0.  1.
         11    1    3    3    0    0 -0.13776175096E+00  0.29091259307E+02 -0.17230521993E+02  0.33811406869E+02  0.00000000000E+00 0. -1.
<mgrwt>
<rscale>  0 0.11694106E+03</rscale>
<asrwt>0</asrwt>
<pdfrwt beam="2">  1        4 0.26264421E-01 0.12704477E+03</pdfrwt>
<pdfrwt beam="1">  1       -4 0.12496607E-01 0.12704477E+03</pdfrwt>
<totfact> 0.11511111E+03</totfact>
</mgrwt>
</event>
<event>
 7    1  0.1020736E-005  0.1387078E+03  0.7546771E-02  0.1226689E+00
         -2   -1    0    0    0  501 -0.00000000000E+00  0.00000000000E+00  0.16540610555E+02  0.16540610555E+02  0.00000000000E+00 0.  1.
          2   -1    0    0  501    0  0.00000000000E+00 -0.00000000000E+00 -0.93031777379E+03  0.93031777379E+03  0.00000000000E+00 0. -1.
         23    2    1    2    0    0  0.58121385003E+02  0.15390707602E+02 -0.36782631852E+03  0.38356255819E+03  0.90603897114E+02 0.  0.
          5    1    1    2  502    0  0.94514945742E+01  0.15574124337E+02 -0.39020315915E+03  0.39065647250E+03  0.47000000000E+01 0.  1.
         -5    1    1    2    0  502 -0.67572879577E+02 -0.30964831939E+02 -0.15574768556E+03  0.17263935365E+03  0.47000000000E+01 0.  1.
        -11    1    3    3    0    0  0.65002673859E+02 -0.94251306633E+01 -0.33724936524E+03  0.34358596457E+03  0.00000000000E+00 0. -1.
         11    1    3    3    0    0 -0.68812888568E+01  0.24815838265E+02 -0.30576953282E+02  0.39976593616E+02  0.00000000000E+00 0.  1.
<mgrwt>
<rscale>  0 0.13051831E+03</rscale>
<asrwt>0</asrwt>
<pdfrwt beam="2">  1        2 0.14312577E+00 0.13870783E+03</pdfrwt>
<pdfrwt beam="1">  1       -2 0.25447101E-02 0.13870783E+03</pdfrwt>
<totfact> 0.15054585E+04</totfact>
</mgrwt>
</event>
<event>
 7    1  0.1020736E-005  0.1574532E+03  0.7546771E-02  0.1200381E+00
          2   -1    0    0  501    0  0.00000000000E+00  0.00000000000E+00  0.30236569110E+03  0.30236569110E+03  0.00000000000E+00 0. -1.
         -2   -1    0    0    0  501 -0.00000000000E+00 -0.00000000000E+00 -0.68379936895E+02  0.68379936895E+02  0.00000000000E+00 0.  1.
         23    2    1    2    0    0 -0.80767868778E+02  0.51436713393E+02  0.99315479881E+02  0.16355589742E+03  0.87850913057E+02 0.  0.
          5    1    1    2  502    0  0.10456170578E+03 -0.47880711581E+01  0.93118610819E+02  0.14017575262E+03  0.47000000000E+01 0.  1.
         -5    1    1    2    0  502 -0.23793837003E+02 -0.46648642235E+02  0.41551663504E+02  0.67013977957E+02  0.47000000000E+01 0.  1.
        -11    1    3    3    0    0 -0.72767291382E+02  0.32009550445E+02  0.11323433381E+03  0.13835354845E+03  0.00000000000E+00 0. -1.
         11    1    3    3    0    0 -0.80005773961E+01  0.19427162948E+02 -0.13918853930E+02  0.25202348970E+02  0.00000000000E+00 0.  1.
<mgrwt>
<rscale>  0 0.15007471E+03</rscale>
<asrwt>0</asrwt>
<pdfrwt beam="1">  1        2 0.46517798E-01 0.15745317E+03</pdfrwt>
<pdfrwt beam="2">  1       -2 0.10519990E-01 0.15745317E+03</pdfrwt>
<totfact> 0.63880945E+03</totfact>
</mgrwt>
</event>
<event>
 7    1  0.1020736E-005  0.1684884E+03  0.7546771E-02  0.1182977E+00
         -2   -1    0    0    0  501 -0.00000000000E+00  0.00000000000E+00  0.13178935194E+03  0.13178935194E+03  0.00000000000E+00 0.  1.
          2   -1    0    0  501    0  0.00000000000E+00 -0.00000000000E+00 -0.23206826219E+03  0.23206826219E+03  0.00000000000E+00 0. -1.
         23    2    1    2    0    0 -0.84667423423E+02  0.92189401500E+02  0.19928208126E+02  0.15688394182E+03  0.92455283161E+02 0.  0.
          5    1    1    2  502    0  0.43088487621E+02 -0.81417733652E+02 -0.13305258068E+03  0.16189670887E+03  0.47000000000E+01 0. -1.
         -5    1    1    2    0  502  0.41578935802E+02 -0.10771667848E+02  0.12845462310E+02  0.45076963436E+02  0.47000000000E+01 0.  1.
        -11    1    3    3    0    0 -0.93062644465E+02  0.47133290520E+02 -0.55152726832E+01  0.10446349172E+03  0.00000000000E+00 0. -1.
         11    1    3    3    0    0  0.83952210413E+01  0.45056110980E+02  0.25443480809E+02  0.52420450100E+02  0.00000000000E+00 0.  1.
<mgrwt>
<rscale>  0 0.16517301E+03</rscale>
<asrwt>0</asrwt>
<pdfrwt beam="2">  1        2 0.35702809E-01 0.16848843E+03</pdfrwt>
<pdfrwt beam="1">  1       -2 0.20275285E-01 0.16848843E+03</pdfrwt>
<totfact> 0.29030718E+03</totfact>
</mgrwt>
</event>
<event>
 7    1  0.1020736E-005  0.1419143E+03  0.7546771E-02  0.1222510E+00
          3   -1    0    0  501    0  0.00000000000E+00  0.00000000000E+00  0.33371298347E+03  0.33371298347E+03  0.00000000000E+00 0. -1.
         -3   -1    0    0    0  501 -0.00000000000E+00 -0.00000000000E+00 -0.81565358850E+02  0.81565358850E+02  0.00000000000E+00 0.  1.
         23    2    1    2    0    0 -0.56695200933E+02  0.36019460678E+02 -0.15974372202E+02  0.11191541394E+03  0.88080258592E+02 0.  0.
          5    1    1    2  502    0 -0.70056446548E+01  0.22267495226E+02  0.24087114680E+01  0.23933497270E+02  0.47000000000E+01 0. -1.
         -5    1    1    2    0  502  0.63700845587E+02 -0.58286955903E+02  0.26571328535E+03  0.27942943111E+03  0.47000000000E+01 0. -1.
        -11    1    3    3    0    0 -0.27339628706E+02  0.46147050518E+02  0.26077061714E+02  0.59640747119E+02  0.00000000000E+00 0. -1.
         11    1    3    3    0    0 -0.29355572227E+02 -0.10127589841E+02 -0.42051433916E+02  0.52274666820E+02  0.00000000000E+00 0.  1.
<mgrwt>
<rscale>  0 0.13339041E+03</rscale>
<asrwt>0</asrwt>
<pdfrwt beam="1">  1        3 0.51340458E-01 0.14191427E+03</pdfrwt>
<pdfrwt beam="2">  1       -3 0.12548517E-01 0.14191427E+03</pdfrwt>
<totfact> 0.44593576E+02</totfact>
</mgrwt>
</event>
<event>
 7    1  0.1020736E-005  0.1700107E+03  0.7546771E-02  0.1184568E+00
         -1   -1    0    0    0  501 -0.00000000000E+00  0.00000000000E+00  0.13349608673E+03  0.13349608673E+03  0.00000000000E+00 0.  1.
          1   -1    0    0  501    0  0.00000000000E+00 -0.00000000000E+00 -0.26394548424E+03  0.26394548424E+03  0.00000000000E+00 0. -1.
         23    2    1    2    0    0 -0.10108437655E+03 -0.55322479906E+02  0.45177902190E+02  0.15300630480E+03  0.89951422988E+02 0.  0.
          5    1    1    2  502    0 -0.77738320925E+01  0.44173540313E+02 -0.10531566794E+02  0.46311316418E+02  0.47000000000E+01 0.  1.
         -5    1    1    2    0  502  0.10885820864E+03  0.11148939592E+02 -0.16509573290E+03  0.19812394975E+03  0.47000000000E+01 0.  1.
        -11    1    3    3    0    0 -0.57451227525E+02 -0.54572839548E+02  0.67406909490E+02  0.10403138857E+03  0.00000000000E+00 0.  1.
         11    1    3    3    0    0 -0.43633149026E+02 -0.74964035751E+00 -0.22229007300E+02  0.48974916234E+02  0.00000000000E+00 0. -1.
<mgrwt>
<rscale>  0 0.16371276E+03</rscale>
<asrwt>0</asrwt>
<pdfrwt beam="2">  1        1 0.40606997E-01 0.17001074E+03</pdfrwt>
<pdfrwt beam="1">  1       -1 0.20537860E-01 0.17001074E+03</pdfrwt>
<totfact> 0.19602463E+03</totfact>
</mgrwt>
</event>
<event>
 7    1  0.1175604E-005  0.2876837E+03  0.7546771E-02  0.1093342E+00
          1   -1    0    0  501    0  0.00000000000E+00  0.00000000000E+00  0.63216311370E+03  0.63216311370E+03  0.00000000000E+00 0. -1.
         -1   -1    0    0    0  501 -0.00000000000E+00 -0.00000000000E+00 -0.12906775708E+03  0.12906775708E+03  0.00000000000E+00 0.  1.
         23    2    1    2    0    0  0.16274380344E+03 -0.20162344397E+03  0.17833551172E+03  0.32737503673E+03  0.90737540296E+02 0.  0.
          5    1    1    2  502    0 -0.80651652701E+02  0.57031992716E+02  0.45601965606E+02  0.10889888220E+03  0.47000000000E+01 0.  1.
         -5    1    1    2    0  502 -0.82092150740E+02  0.14459145125E+03  0.27915787928E+03  0.32495695185E+03  0.47000000000E+01 0.  1.
        -11    1    3    3    0    0  0.51330453144E+02 -0.27404569145E+02  0.78569615626E+02  0.97770191417E+02  0.00000000000E+00 0. -1.
         11    1    3    3    0    0  0.11141335030E+03 -0.17421887482E+03  0.99765896095E+02  0.22960484532E+03  0.00000000000E+00 0.  1.
<mgrwt>
<rscale>  0 0.28433931E+03</rscale>
<asrwt>0</asrwt>
<pdfrwt beam="1">  1        1 0.97255862E-01 0.28768373E+03</pdfrwt>
<pdfrwt beam="2">  1       -1 0.19856578E-01 0.28768373E+03</pdfrwt>
<totfact> 0.66883091E+02</totfact>
</mgrwt>
</event>
<event>
 7    1  0.1020736E-005  0.1165873E+03  0.7546771E-02  0.1266186E+00
         -1   -1    0    0    0  501 -0.00000000000E+00  0.00000000000E+00  0.84361214235E+02  0.84361214235E+02  0.00000000000E+00 0.  1.
          1   -1    0    0  501    0  0.00000000000E+00 -0.00000000000E+00 -0.18043318308E+03  0.18043318308E+03  0.00000000000E+00 0. -1.
         23    2    1    2    0    0  0.29986011088E+02 -0.67844455069E+01  0.34555762767E+02  0.89705263404E+02  0.76861849965E+02 0.  0.
          5    1    1    2  502    0 -0.28620671312E+02 -0.47491770622E+02 -0.94621382601E+02  0.10977206907E+03  0.47000000000E+01 0. -1.
         -5    1    1    2    0  502 -0.13653397753E+01  0.54276216129E+02 -0.36006349011E+02  0.65317064839E+02  0.47000000000E+01 0.  1.
        -11    1    3    3    0    0  0.28545731471E+02  0.30106464243E+02  0.32548023749E+02  0.52731696582E+02  0.00000000000E+00 0.  1.
         11    1    3    3    0    0  0.14402796166E+01 -0.36890909750E+02  0.20077390186E+01  0.36973566822E+02  0.00000000000E+00 0. -1.
<mgrwt>
<rscale>  0 0.10702199E+03</rscale>
<asrwt>0</asrwt>
<pdfrwt beam="2">  1        1 0.27758951E-01 0.11658731E+03</pdfrwt>
<pdfrwt beam="1">  1       -1 0.12978649E-01 0.11658731E+03</pdfrwt>
<totfact> 0.63690320E+03</totfact>
</mgrwt>
</event>
<event>
 7    1  0.1020736E-005  0.2558619E+03  0.7546771E-02  0.1112156E+00
          2   -1    0    0  501    0  0.00000000000E+00  0.00000000000E+00  0.49642707176E+03  0.49642707176E+03  0.00000000000E+00 0.  1.
         -2   -1    0    0    0  501 -0.00000000000E+00 -0.00000000000E+00 -0.13410456155E+03  0.13410456155E+03  0.00000000000E+00 0. -1.
         23    2    1    2    0    0 -0.11016955024E+03  0.19416887414E+03  0.88799468509E+02  0.25599172625E+03  0.88360267177E+02 0.  0.
          5    1    1    2  502    0  0.13722044746E+03 -0.14601252060E+03  0.21387818600E+03  0.29311273568E+03  0.47000000000E+01 0.  1.
         -5    1    1    2    0  502 -0.27050897217E+02 -0.48156353541E+02  0.59644855702E+02  0.81427171376E+02  0.47000000000E+01 0.  1.
        -11    1    3    3    0    0 -0.10975753622E+03  0.11742968097E+03  0.77426332637E+02  0.17841323862E+03  0.00000000000E+00 0.  1.
         11    1    3    3    0    0 -0.41201402777E+00  0.76739193162E+02  0.11373135871E+02  0.77578487626E+02  0.00000000000E+00 0. -1.
<mgrwt>
<rscale>  0 0.25182607E+03</rscale>
<asrwt>0</asrwt>
<pdfrwt beam="1">  1        2 0.76373395E-01 0.25586185E+03</pdfrwt>
<pdfrwt beam="2">  1       -2 0.20631471E-01 0.25586185E+03</pdfrwt>
<totfact> 0.12500770E+03</totfact>
</mgrwt>
</event>
<event>
 7    1  0.1020736E-005  0.2457248E+03  0.7546771E-02  0.1118693E+00
         -1   -1    0    0    0  501 -0.00000000000E+00  0.00000000000E+00  0.38803034320E+02  0.38803034320E+02  0.00000000000E+00 0.  1.
          1   -1    0    0  501    0  0.00000000000E+00 -0.00000000000E+00 -0.15717037566E+04  0.15717037566E+04  0.00000000000E+00 0. -1.
         23    2    1    2    0    0  0.13935160337E+03 -0.15906631836E+03 -0.52552069684E+03  0.57359060874E+03  0.90073418025E+02 0.  0.
          5    1    1    2  502    0 -0.12338450329E+03  0.85102499724E+02 -0.44824154220E+03  0.47266133888E+03  0.47000000000E+01 0.  1.
         -5    1    1    2    0  502 -0.15967100079E+02  0.73963818635E+02 -0.55913848326E+03  0.56425484332E+03  0.47000000000E+01 0.  1.
        -11    1    3    3    0    0  0.86482189627E+02 -0.53815481520E+02 -0.16102394578E+03  0.19053604984E+03  0.00000000000E+00 0.  1.
         11    1    3    3    0    0  0.52869413740E+02 -0.10525083684E+03 -0.36449675105E+03  0.38305455890E+03  0.00000000000E+00 0. -1.
<mgrwt>
<rscale>  0 0.24165793E+03</rscale>
<asrwt>0</asrwt>
<pdfrwt beam="2">  1        1 0.24180055E+00 0.24572475E+03</pdfrwt>
<pdfrwt beam="1">  1       -1 0.59696983E-02 0.24572475E+03</pdfrwt>
<totfact> 0.86614875E+02</totfact>
</mgrwt>
</event>
<event>
 7    1  0.1020736E-005  0.1291206E+03  0.7546771E-02  0.1242686E+00
          2   -1    0    0  501    0  0.00000000000E+00  0.00000000000E+00  0.20433391637E+03  0.20433391637E+03  0.00000000000E+00 0. -1.
         -2   -1    0    0    0  501 -0.00000000000E+00 -0.00000000000E+00 -0.73853717460E+02  0.73853717460E+02  0.00000000000E+00 0.  1.
         23    2    1    2    0    0 -0.31995143848E+02  0.44753806431E+01  0.36504472598E+01  0.97196131986E+02  0.91597183614E+02 0.  0.
          5    1    1    2  502    0  0.27617161341E+02  0.39401385357E+01  0.15151418054E+03  0.15413263508E+03  0.47000000000E+01 0. -1.
         -5    1    1    2    0  502  0.43779825068E+01 -0.84155191788E+01 -0.24684428892E+02  0.26858866760E+02  0.47000000000E+01 0. -1.
        -11    1    3    3    0    0 -0.32410622645E+02  0.26886795677E+02 -0.33497586782E+02  0.53809260934E+02  0.00000000000E+00 0.  1.
         11    1    3    3    0    0  0.41547879711E+00 -0.22411415034E+02  0.37148034042E+02  0.43386871052E+02  0.00000000000E+00 0. -1.
<mgrwt>
<rscale>  0 0.12024924E+03</rscale>
<asrwt>0</asrwt>
<pdfrwt beam="1">  1        2 0.31435987E-01 0.12912063E+03</pdfrwt>
<pdfrwt beam="2">  1       -2 0.11362110E-01 0.12912063E+03</pdfrwt>
<totfact> 0.84795187E+03</totfact>
</mgrwt>
</event>
<event>
 7    1  0.1020736E-005  0.1551301E+03  0.7546771E-02  0.1202844E+00
          1   -1    0    0  501    0  0.00000000000E+00  0.00000000000E+00  0.49053643407E+02  0.49053643407E+02  0.00000000000E+00 0. -1.
         -1   -1    0    0    0  501 -0.00000000000E+00 -0.00000000000E+00 -0.41191379243E+03  0.41191379243E+03  0.00000000000E+00 0.  1.
         23    2    1    2    0    0  0.41342338588E+02 -0.82044296383E+02 -0.17600000278E+03  0.21810520699E+03  0.90296316695E+02 0.  0.
          5    1    1    2  502    0  0.34053565216E+02 -0.81178678495E+01 -0.27353650617E+02  0.44675018572E+02  0.47000000000E+01 0. -1.
         -5    1    1    2    0  502 -0.75395903805E+02  0.90162164232E+02 -0.15950649563E+03  0.19818721028E+03  0.47000000000E+01 0. -1.
        -11    1    3    3    0    0  0.24501743363E+02 -0.40413625056E+02 -0.16532288262E+03  0.17194549146E+03  0.00000000000E+00 0.  1.
         11    1    3    3    0    0  0.16840595225E+02 -0.41630671327E+02 -0.10677120167E+02  0.46159715529E+02  0.00000000000E+00 0. -1.
<mgrwt>
<rscale>  0 0.14808653E+03</rscale>
<asrwt>0</asrwt>
<pdfrwt beam="1">  1        1 0.75467144E-02 0.15513010E+03</pdfrwt>
<pdfrwt beam="2">  1       -1 0.63371353E-01 0.15513010E+03</pdfrwt>
<totfact> 0.23979064E+03</totfact>
</mgrwt>
</event>
<event>
 7    1  0.1020736E-005  0.2589707E+03  0.7546771E-02  0.1145029E+00
          1   -1    0    0  501    0  0.00000000000E+00  0.00000000000E+00  0.21804961729E+04  0.21804961729E+04  0.00000000000E+00 0. -1.
         -1   -1    0    0    0  501 -0.00000000000E+00 -0.00000000000E+00 -0.53667664759E+02  0.53667664759E+02  0.00000000000E+00 0.  1.
         23    2    1    2    0    0 -0.26120748527E+02  0.40881787106E+02  0.12241367911E+02  0.10377781903E+03  0.90919583228E+02 0.  0.
          5    1    1    2  502    0  0.37674235300E+02  0.10538084531E+03  0.87762069399E+03  0.88473987312E+03  0.47000000000E+01 0. -1.
         -5    1    1    2    0  502 -0.11553486773E+02 -0.14626263242E+03  0.12369664462E+04  0.12456461455E+04  0.47000000000E+01 0.  1.
        -11    1    3    3    0    0 -0.59139861326E+02  0.17053101052E+02  0.10899344853E+01  0.61559072527E+02  0.00000000000E+00 0.  1.
         11    1    3    3    0    0  0.33019112799E+02  0.23828686055E+02  0.11151433426E+02  0.42218746507E+02  0.00000000000E+00 0. -1.
<mgrwt>
<rscale>  0 0.20568539E+03</rscale>
<asrwt>0</asrwt>
<pdfrwt beam="1">  1        1 0.33546088E+00 0.25897068E+03</pdfrwt>
<pdfrwt beam="2">  1       -1 0.82565655E-02 0.25897068E+03</pdfrwt>
<totfact> 0.21195617E+02</totfact>
</mgrwt>
</event>
<event>
 7    1  0.1020736E-005  0.1377650E+03  0.7546771E-02  0.1233782E+00
          1   -1    0    0  501    0  0.00000000000E+00  0.00000000000E+00  0.11513919147E+04  0.11513919147E+04  0.00000000000E+00 0. -1.
         -1   -1    0    0    0  501 -0.00000000000E+00 -0.00000000000E+00 -0.11997003615E+02  0.11997003615E+02  0.00000000000E+00 0.  1.
         23    2    1    2    0    0  0.26565550691E+01 -0.29111082192E+02  0.40585254067E+03  0.41702198959E+03  0.91304669357E+02 0.  0.
          5    1    1    2  502    0 -0.32755266424E+02 -0.25754191459E+02  0.56444264939E+03  0.56599803913E+03  0.47000000000E+01 0. -1.
         -5    1    1    2    0  502  0.30098711355E+02  0.54865273651E+02  0.16909972100E+03  0.18036888956E+03  0.47000000000E+01 0.  1.
        -11    1    3    3    0    0  0.24422095918E+01  0.33117872347E+02  0.12291092534E+03  0.12731792264E+03  0.00000000000E+00 0.  1.
         11    1    3    3    0    0  0.21434547737E+00 -0.62228954539E+02  0.28294161533E+03  0.28970406696E+03  0.00000000000E+00 0. -1.
<mgrwt>
<rscale>  0 0.12582726E+03</rscale>
<asrwt>0</asrwt>
<pdfrwt beam="1">  1        1 0.17713713E+00 0.13776496E+03</pdfrwt>
<pdfrwt beam="2">  1       -1 0.18456938E-02 0.13776496E+03</pdfrwt>
<totfact> 0.92648121E+03</totfact>
</mgrwt>
</event>
<event>
 7    1  0.1020736E-005  0.1636085E+03  0.7546771E-02  0.1189400E+00
          2   -1    0    0  501    0  0.00000000000E+00  0.00000000000E+00  0.47825400567E+03  0.47825400567E+03  0.00000000000E+00 0. -1.
         -2   -1    0    0    0  501 -0.00000000000E+00 -0.00000000000E+00 -0.57838085964E+02  0.57838085964E+02  0.00000000000E+00 0.  1.
         23    2    1    2    0    0 -0.95957082900E+02  0.44009477720E+02  0.10550106963E+03  0.18121307032E+03  0.10277696860E+03 0.  0.
          5    1    1    2  502    0  0.39270843478E+02  0.42517728108E+02  0.14072561877E+03  0.15223582407E+03  0.47000000000E+01 0. -1.
         -5    1    1    2    0  502  0.56686239422E+02 -0.86527205827E+02  0.17418923131E+03  0.20264319725E+03  0.47000000000E+01 0. -1.
        -11    1    3    3    0    0 -0.50792450355E+02 -0.20299753701E+02  0.83120750462E+02  0.99503829930E+02  0.00000000000E+00 0. -1.
         11    1    3    3    0    0 -0.45164632545E+02  0.64309231421E+02  0.22380319165E+02  0.81709240388E+02  0.00000000000E+00 0.  1.
<mgrwt>
<rscale>  0 0.15937905E+03</rscale>
<asrwt>0</asrwt>
<pdfrwt beam="1">  1        2 0.73577537E-01 0.16360855E+03</pdfrwt>
<pdfrwt beam="2">  1       -2 0.88981674E-02 0.16360855E+03</pdfrwt>
<totfact> 0.50887057E+03</totfact>
</mgrwt>
</event>
<event>
 7    1  0.1020736E-005  0.1347193E+03  0.7546771E-02  0.1228527E+00
         -4   -1    0    0    0  501 -0.00000000000E+00  0.00000000000E+00  0.26665293844E+03  0.26665293844E+03  0.00000000000E+00 0.  1.
          4   -1    0    0  501    0  0.00000000000E+00 -0.00000000000E+00 -0.67592621678E+02  0.67592621678E+02  0.00000000000E+00 0. -1.
         23    2    1    2    0    0 -0.61950010150E+02  0.24735112620E+02  0.15489874050E+03  0.19247271803E+03  0.92749651351E+02 0.  0.
          5    1    1    2  502    0  0.45945790667E+02  0.14662366801E+02 -0.29397271219E+02  0.56677069749E+02  0.47000000000E+01 0. -1.
         -5    1    1    2    0  502  0.16004219483E+02 -0.39397479421E+02  0.73558847483E+02  0.85095772333E+02  0.47000000000E+01 0.  1.
        -11    1    3    3    0    0 -0.82394261534E+02  0.36409454065E+02  0.11415233912E+03  0.14541395808E+03  0.00000000000E+00 0.  1.
         11    1    3    3    0    0  0.20444251384E+02 -0.11674341445E+02  0.40746401380E+02  0.47058759953E+02  0.00000000000E+00 0. -1.
<mgrwt>
<rscale>  0 0.12928036E+03</rscale>
<asrwt>0</asrwt>
<pdfrwt beam="2">  1        4 0.10398865E-01 0.13471932E+03</pdfrwt>
<pdfrwt beam="1">  1       -4 0.41023528E-01 0.13471932E+03</pdfrwt>
<totfact> 0.67907859E+02</totfact>
</mgrwt>
</event>
<event>
 7    1  0.1020736E-005  0.1408069E+03  0.7546771E-02  0.1222632E+00
          1   -1    0    0  501    0  0.00000000000E+00  0.00000000000E+00  0.88708238178E+03  0.88708238178E+03  0.00000000000E+00 0. -1.
         -1   -1    0    0    0  501 -0.00000000000E+00 -0.00000000000E+00 -0.18174220553E+02  0.18174220553E+02  0.00000000000E+00 0.  1.
         23    2    1    2    0    0 -0.50757608114E+02  0.40220201385E+02  0.39329274038E+03  0.40923581496E+03  0.92740353832E+02 0.  0.
          5    1    1    2  502    0 -0.10086953451E+02 -0.34462729572E+01 -0.30817030570E+01  0.12050324516E+02  0.47000000000E+01 0.  1.
         -5    1    1    2    0  502  0.60844561564E+02 -0.36773928428E+02  0.47869712391E+03  0.48397046286E+03  0.47000000000E+01 0.  1.
        -11    1    3    3    0    0  0.11226048399E+02  0.11826253034E+02  0.83829309348E+01  0.18334610837E+02  0.00000000000E+00 0.  1.
         11    1    3    3    0    0 -0.61983656512E+02  0.28393948351E+02  0.38490980944E+03  0.39090120412E+03  0.00000000000E+00 0. -1.
<mgrwt>
<rscale>  0 0.13330520E+03</rscale>
<asrwt>0</asrwt>
<pdfrwt beam="1">  1        1 0.13647418E+00 0.14080694E+03</pdfrwt>
<pdfrwt beam="2">  1       -1 0.27960346E-02 0.14080694E+03</pdfrwt>
<totfact> 0.79246361E+03</totfact>
</mgrwt>
</event>
<event>
 7    1  0.1020736E-005  0.2646693E+03  0.7546771E-02  0.1113283E+00
          3   -1    0    0  501    0  0.00000000000E+00  0.00000000000E+00  0.45438320511E+03  0.45438320511E+03  0.00000000000E+00 0. -1.
         -3   -1    0    0    0  501 -0.00000000000E+00 -0.00000000000E+00 -0.17680704575E+03  0.17680704575E+03  0.00000000000E+00 0.  1.
         23    2    1    2    0    0  0.18827135461E+03 -0.79401738329E+01 -0.43337442524E+02  0.21521502843E+03  0.94499868837E+02 0.  0.
          5    1    1    2  502    0 -0.14563933292E+03 -0.67068609944E+02  0.27439756106E+03  0.31784449854E+03  0.47000000000E+01 0. -1.
         -5    1    1    2    0  502 -0.42632021690E+02  0.75008783777E+02  0.46516040826E+02  0.98130723890E+02  0.47000000000E+01 0.  1.
        -11    1    3    3    0    0  0.18051988111E+03  0.14189697419E+02 -0.20076240267E+02  0.18218625199E+03  0.00000000000E+00 0.  1.
         11    1    3    3    0    0  0.77514735001E+01 -0.22129871252E+02 -0.23261202256E+02  0.33028776445E+02  0.00000000000E+00 0. -1.
<mgrwt>
<rscale>  0 0.25003378E+03</rscale>
<asrwt>0</asrwt>
<pdfrwt beam="1">  1        3 0.69905108E-01 0.26466931E+03</pdfrwt>
<pdfrwt beam="2">  1       -3 0.27201084E-01 0.26466931E+03</pdfrwt>
<totfact> 0.64123909E+01</totfact>
</mgrwt>
</event>
<event>
 7    1  0.1020736E-005  0.1493276E+03  0.7546771E-02  0.1209822E+00
         -2   -1    0    0    0  501 -0.00000000000E+00  0.00000000000E+00  0.27417081533E+02  0.27417081533E+02  0.00000000000E+00 0.  1.
          2   -1    0    0  501    0  0.00000000000E+00 -0.00000000000E+00 -0.69496624346E+03  0.69496624346E+03  0.00000000000E+00 0. -1.
         23    2    1    2    0    0  0.50127588209E+02  0.64501116101E+02 -0.25619932520E+03  0.28476770213E+03  0.93709022332E+02 0.  0.
          5    1    1    2  502    0 -0.72677546818E+02 -0.70705130357E+02 -0.39701270201E+03  0.40978337793E+03  0.47000000000E+01 0. -1.
         -5    1    1    2    0  502  0.22549958610E+02  0.62040142560E+01 -0.14337134721E+02  0.27832244936E+02  0.47000000000E+01 0. -1.
        -11    1    3    3    0    0 -0.23576095931E+02  0.34770365321E+02 -0.61558703332E+02  0.74527072664E+02  0.00000000000E+00 0. -1.
         11    1    3    3    0    0  0.73703684140E+02  0.29730750780E+02 -0.19464062187E+03  0.21024062947E+03  0.00000000000E+00 0.  1.
<mgrwt>
<rscale>  0 0.14263865E+03</rscale>
<asrwt>0</asrwt>
<pdfrwt beam="2">  1        2 0.10691788E+00 0.14932764E+03</pdfrwt>
<pdfrwt beam="1">  1       -2 0.42180125E-02 0.14932764E+03</pdfrwt>
<totfact> 0.10332922E+04</totfact>
</mgrwt>
</event>
<event>
 7    1  0.1020736E-005  0.1603005E+03  0.7546771E-02  0.1195294E+00
          2   -1    0    0  501    0  0.00000000000E+00  0.00000000000E+00  0.15714205244E+04  0.15714205244E+04  0.00000000000E+00 0. -1.
         -2   -1    0    0    0  501 -0.00000000000E+00 -0.00000000000E+00 -0.14978292535E+02  0.14978292535E+02  0.00000000000E+00 0.  1.
         23    2    1    2    0    0 -0.97568460979E+02  0.23488277187E+02  0.53270651943E+03  0.55018886952E+03  0.94128914582E+02 0.  0.
          5    1    1    2  502    0  0.11013637364E+03 -0.14171316270E+02  0.10059092365E+04  0.10120307946E+04  0.47000000000E+01 0. -1.
         -5    1    1    2    0  502 -0.12567912658E+02 -0.93169609173E+01  0.17826475896E+02  0.24179152842E+02  0.47000000000E+01 0. -1.
        -11    1    3    3    0    0 -0.85727379935E+02 -0.15662517563E+02  0.44447505714E+03  0.45293771597E+03  0.00000000000E+00 0. -1.
         11    1    3    3    0    0 -0.11841081044E+02  0.39150794750E+02  0.88231462290E+02  0.97251153554E+02  0.00000000000E+00 0.  1.
<mgrwt>
<rscale>  0 0.15429414E+03</rscale>
<asrwt>0</asrwt>
<pdfrwt beam="1">  1        2 0.24175687E+00 0.16030049E+03</pdfrwt>
<pdfrwt beam="2">  1       -2 0.23043539E-02 0.16030049E+03</pdfrwt>
<totfact> 0.77234115E+03</totfact>
</mgrwt>
</event>
<event>
 7    1  0.1020736E-005  0.2469560E+03  0.7546771E-02  0.1117759E+00
          1   -1    0    0  501    0  0.00000000000E+00  0.00000000000E+00  0.14668507878E+03  0.14668507878E+03  0.00000000000E+00 0. -1.
         -1   -1    0    0    0  501 -0.00000000000E+00 -0.00000000000E+00 -0.50958844521E+03  0.50958844521E+03  0.00000000000E+00 0.  1.
         23    2    1    2    0    0 -0.88383310791E+02 -0.19378283274E+03 -0.33551198656E+03  0.40780309514E+03  0.91496859999E+02 0.  0.
          5    1    1    2  502    0 -0.14027067202E+02  0.11732113705E+03 -0.23232751758E+02  0.12051082345E+03  0.47000000000E+01 0. -1.
         -5    1    1    2    0  502  0.10241037799E+03  0.76461695683E+02 -0.41586281122E+01  0.12795960540E+03  0.47000000000E+01 0. -1.
        -11    1    3    3    0    0 -0.24933815036E+02  0.26698130650E+01 -0.30347452794E+02  0.39367384027E+02  0.00000000000E+00 0. -1.
         11    1    3    3    0    0 -0.63449495756E+02 -0.19645264580E+03 -0.30516453377E+03  0.36843571111E+03  0.00000000000E+00 0.  1.
<mgrwt>
<rscale>  0 0.24307871E+03</rscale>
<asrwt>0</asrwt>
<pdfrwt beam="1">  1        1 0.22566935E-01 0.24695600E+03</pdfrwt>
<pdfrwt beam="2">  1       -1 0.78398222E-01 0.24695600E+03</pdfrwt>
<totfact> 0.37321535E+02</totfact>
</mgrwt>
</event>
<event>
 7    1  0.1020736E-005  0.1272571E+03  0.7546771E-02  0.1246520E+00
         -1   -1    0    0    0  501 -0.00000000000E+00  0.00000000000E+00  0.15043612578E+02  0.15043612578E+02  0.00000000000E+00 0.  1.
          1   -1    0    0  501    0  0.00000000000E+00 -0.00000000000E+00 -0.12632770466E+04  0.12632770466E+04  0.00000000000E+00 0. -1.
         23    2    1    2    0    0  0.12641376541E+02 -0.20244893655E+02 -0.18473481996E+03  0.20723538341E+03  0.90828906799E+02 0.  0.
          5    1    1    2  502    0 -0.40437714572E+02 -0.38330848568E+02 -0.32921372793E+03  0.33392848242E+03  0.47000000000E+01 0.  1.
         -5    1    1    2    0  502  0.27796338031E+02  0.58575742223E+02 -0.73428488617E+03  0.73715679339E+03  0.47000000000E+01 0.  1.
        -11    1    3    3    0    0  0.25010632342E+02 -0.28092503104E+02 -0.18841411138E+03  0.19213171999E+03  0.00000000000E+00 0. -1.
         11    1    3    3    0    0 -0.12369255801E+02  0.78476094488E+01  0.36792914203E+01  0.15103663413E+02  0.00000000000E+00 0.  1.
<mgrwt>
<rscale>  0 0.11794846E+03</rscale>
<asrwt>0</asrwt>
<pdfrwt beam="2">  1        1 0.19435034E+00 0.12725709E+03</pdfrwt>
<pdfrwt beam="1">  1       -1 0.23144016E-02 0.12725709E+03</pdfrwt>
<totfact> 0.55868456E+03</totfact>
</mgrwt>
</event>
<event>
 7    1  0.1020736E-005  0.1272701E+03  0.7546771E-02  0.1246719E+00
         -1   -1    0    0    0  501 -0.00000000000E+00  0.00000000000E+00  0.61494215960E+02  0.61494215960E+02  0.00000000000E+00 0.  1.
          1   -1    0    0  501    0  0.00000000000E+00 -0.00000000000E+00 -0.20435426471E+03  0.20435426471E+03  0.00000000000E+00 0. -1.
         23    2    1    2    0    0  0.62523618362E+01 -0.23109802110E+02 -0.37965830944E+02  0.10092282633E+03  0.90392796022E+02 0.  0.
          5    1    1    2  502    0 -0.49688472432E+02  0.15091424698E+02 -0.10848112107E+03  0.12036170080E+03  0.47000000000E+01 0.  1.
         -5    1    1    2    0  502  0.43436110595E+02  0.80183774114E+01  0.35869032629E+01  0.44563953538E+02  0.47000000000E+01 0.  1.
        -11    1    3    3    0    0  0.16802209959E+02 -0.43990451880E+01 -0.64492258724E+02  0.66790098767E+02  0.00000000000E+00 0. -1.
         11    1    3    3    0    0 -0.10549848123E+02 -0.18710756922E+02  0.26526427779E+02  0.34132727561E+02  0.00000000000E+00 0.  1.
<mgrwt>
<rscale>  0 0.11783074E+03</rscale>
<asrwt>0</asrwt>
<pdfrwt beam="2">  1        1 0.31439117E-01 0.12727008E+03</pdfrwt>
<pdfrwt beam="1">  1       -1 0.94606487E-02 0.12727008E+03</pdfrwt>
<totfact> 0.89141493E+03</totfact>
</mgrwt>
</event>
<event>
 7    1  0.1020736E-005  0.1586944E+03  0.7546771E-02  0.1198079E+00
         -2   -1    0    0    0  501 -0.00000000000E+00  0.00000000000E+00  0.15637868303E+02  0.15637868303E+02  0.00000000000E+00 0.  1.
          2   -1    0    0  501    0  0.00000000000E+00 -0.00000000000E+00 -0.20370621526E+04  0.20370621526E+04  0.00000000000E+00 0. -1.
         23    2    1    2    0    0 -0.38062642734E+02  0.90058768665E+02 -0.36388420259E+03  0.38758049952E+03  0.90816210711E+02 0.  0.
          5    1    1    2  502    0 -0.38122023913E+02 -0.68415675570E+02 -0.73591402707E+03  0.74008481852E+03  0.47000000000E+01 0.  1.
         -5    1    1    2    0  502  0.76184666647E+02 -0.21643093095E+02 -0.92162605468E+03  0.92503470290E+03  0.47000000000E+01 0.  1.
        -11    1    3    3    0    0 -0.46962086295E+02  0.10191251231E+03 -0.34891157803E+03  0.36651178289E+03  0.00000000000E+00 0. -1.
         11    1    3    3    0    0  0.88994435614E+01 -0.11853743648E+02 -0.14972624564E+02  0.21068716632E+02  0.00000000000E+00 0.  1.
<mgrwt>
<rscale>  0 0.15196541E+03</rscale>
<asrwt>0</asrwt>
<pdfrwt beam="2">  1        2 0.31339429E+00 0.15869435E+03</pdfrwt>
<pdfrwt beam="1">  1       -2 0.24058250E-02 0.15869435E+03</pdfrwt>
<totfact> 0.41706494E+03</totfact>
</mgrwt>
</event>
<event>
 7    1  0.1020736E-005  0.1465699E+03  0.7546771E-02  0.1214060E+00
         -1   -1    0    0    0  501 -0.00000000000E+00  0.00000000000E+00  0.60173764801E+02  0.60173764801E+02  0.00000000000E+00 0.  1.
          1   -1    0    0  501    0  0.00000000000E+00 -0.00000000000E+00 -0.31380853977E+03  0.31380853977E+03  0.00000000000E+00 0. -1.
         23    2    1    2    0    0  0.37572765629E+02  0.66673258968E+02 -0.70026810188E+02  0.13904692001E+03  0.92591876756E+02 0.  0.
          5    1    1    2  502    0 -0.33368886355E+02 -0.10368121002E+03 -0.13546106307E+03  0.17388233233E+03  0.47000000000E+01 0.  1.
         -5    1    1    2    0  502 -0.42038792740E+01  0.37007951055E+02 -0.48146901711E+02  0.61053052230E+02  0.47000000000E+01 0.  1.
        -11    1    3    3    0    0  0.23041957757E+02 -0.15379045294E+01  0.16153661255E+02  0.28182223822E+02  0.00000000000E+00 0.  1.
         11    1    3    3    0    0  0.14530807872E+02  0.68211163498E+02 -0.86180471443E+02  0.11086469619E+03  0.00000000000E+00 0. -1.
<mgrwt>
<rscale>  0 0.13945789E+03</rscale>
<asrwt>0</asrwt>
<pdfrwt beam="2">  1        1 0.48278236E-01 0.14656995E+03</pdfrwt>
<pdfrwt beam="1">  1       -1 0.92575025E-02 0.14656995E+03</pdfrwt>
<totfact> 0.54692975E+03</totfact>
</mgrwt>
</event>
<event>
 7    1  0.1020736E-005  0.1168010E+03  0.7546771E-02  0.1253688E+00
          2   -1    0    0  501    0  0.00000000000E+00  0.00000000000E+00  0.86064180058E+02  0.86064180058E+02  0.00000000000E+00 0. -1.
         -2   -1    0    0    0  501 -0.00000000000E+00 -0.00000000000E+00 -0.17592141886E+03  0.17592141886E+03  0.00000000000E+00 0.  1.
         23    2    1    2    0    0 -0.35265855064E+02 -0.92234245126E+01 -0.99427910891E+02  0.14479318705E+03  0.98744141392E+02 0.  0.
          5    1    1    2  502    0  0.72234664358E+02  0.20377287992E+02 -0.56683523783E+01  0.75414195080E+02  0.47000000000E+01 0. -1.
         -5    1    1    2    0  502 -0.36968809295E+02 -0.11153863479E+02  0.15239024467E+02  0.41778216787E+02  0.47000000000E+01 0.  1.
        -11    1    3    3    0    0  0.45107311060E+01 -0.33119271355E+02  0.17617403218E+01  0.33471428998E+02  0.00000000000E+00 0. -1.
         11    1    3    3    0    0 -0.39776586170E+02  0.23895846842E+02 -0.10118965121E+03  0.11132175805E+03  0.00000000000E+00 0.  1.
<mgrwt>
<rscale>  0 0.11380154E+03</rscale>
<asrwt>0</asrwt>
<pdfrwt beam="1">  1        2 0.13240643E-01 0.11680096E+03</pdfrwt>
<pdfrwt beam="2">  1       -2 0.27064833E-01 0.11680096E+03</pdfrwt>
<totfact> 0.52563848E+03</totfact>
</mgrwt>
</event>
<event>
 7    1  0.1020736E-005  0.1380522E+03  0.7546771E-02  0.1228031E+00
         -2   -1    0    0    0  501 -0.00000000000E+00  0.00000000000E+00  0.10404325129E+02  0.10404325129E+02  0.00000000000E+00 0.  1.
          2   -1    0    0  501    0  0.00000000000E+00 -0.00000000000E+00 -0.18804423604E+04  0.18804423604E+04  0.00000000000E+00 0. -1.
         23    2    1    2    0    0  0.40377646509E+02  0.42467450107E+02 -0.39315941950E+03  0.40752984737E+03  0.89846584225E+02 0.  0.
          5    1    1    2  502    0 -0.72218958648E+02 -0.62695842500E+02 -0.12042320587E+04  0.12080328174E+04  0.47000000000E+01 0.  1.
         -5    1    1    2    0  502  0.31841312138E+02  0.20228392394E+02 -0.27264655708E+03  0.27528402080E+03  0.47000000000E+01 0.  1.
        -11    1    3    3    0    0 -0.28471839718E+02  0.76401380785E+01 -0.12949004279E+03  0.13280319480E+03  0.00000000000E+00 0. -1.
         11    1    3    3    0    0  0.68849486228E+02  0.34827312028E+02 -0.26366937671E+03  0.27472665257E+03  0.00000000000E+00 0.  1.
<mgrwt>
<rscale>  0 0.12961316E+03</rscale>
<asrwt>0</asrwt>
<pdfrwt beam="2">  1        2 0.28929870E+00 0.13805215E+03</pdfrwt>
<pdfrwt beam="1">  1       -2 0.16006661E-02 0.13805215E+03</pdfrwt>
<totfact> 0.90548713E+03</totfact>
</mgrwt>
</event>
<event>
 7    1  0.1020736E-005  0.3650443E+03  0.7546771E-02  0.1103536E+00
         -2   -1    0    0    0  501 -0.00000000000E+00  0.00000000000E+00  0.19067595273E+03  0.19067595273E+03  0.00000000000E+00 0.  1.
          2   -1    0    0  501    0  0.00000000000E+00 -0.00000000000E+00 -0.28811082545E+03  0.28811082545E+03  0.00000000000E+00 0. -1.
         23    2    1    2    0    0  0.43082722867E+02 -0.27708106977E+02 -0.11006708157E+02  0.10365055735E+03  0.89433943297E+02 0.  0.
          5    1    1    2  502    0 -0.31020190883E+02 -0.39853601495E+02 -0.21952755775E+03  0.22531089722E+03  0.47000000000E+01 0. -1.
         -5    1    1    2    0  502 -0.12062531983E+02  0.67561708472E+02  0.13309939319E+03  0.14982532361E+03  0.47000000000E+01 0.  1.
        -11    1    3    3    0    0  0.62341542099E+02  0.59781168807E+01 -0.15698442882E+02  0.64565059139E+02  0.00000000000E+00 0.  1.
         11    1    3    3    0    0 -0.19258819233E+02 -0.33686223858E+02  0.46917347253E+01  0.39085498216E+02  0.00000000000E+00 0. -1.
<mgrwt>
<rscale>  0 0.26609485E+03</rscale>
<asrwt>0</asrwt>
<pdfrwt beam="2">  1        2 0.44324742E-01 0.36504432E+03</pdfrwt>
<pdfrwt beam="1">  1       -2 0.29334762E-01 0.36504432E+03</pdfrwt>
<totfact> 0.12224674E+03</totfact>
</mgrwt>
</event>
<event>
 7    1  0.1020736E-005  0.2334984E+03  0.7546771E-02  0.1124201E+00
          2   -1    0    0  501    0  0.00000000000E+00  0.00000000000E+00  0.96072515141E+03  0.96072515141E+03  0.00000000000E+00 0. -1.
         -2   -1    0    0    0  501 -0.00000000000E+00 -0.00000000000E+00 -0.14187591342E+02  0.14187591342E+02  0.00000000000E+00 0.  1.
         23    2    1    2    0    0  0.22082981694E+02 -0.72830103795E+01  0.29440943837E+03  0.30898874683E+03  0.90864888387E+02 0.  0.
          5    1    1    2  502    0 -0.50091659907E+02  0.14771596581E+02  0.62068893564E+03  0.62289984691E+03  0.47000000000E+01 0. -1.
         -5    1    1    2    0  502  0.28008678213E+02 -0.74885862015E+01  0.31439186053E+02  0.43024149012E+02  0.47000000000E+01 0.  1.
        -11    1    3    3    0    0  0.63432705527E+01  0.34568692502E+02  0.53817915693E+02  0.64277520426E+02  0.00000000000E+00 0. -1.
         11    1    3    3    0    0  0.15739711142E+02 -0.41851702881E+02  0.24059152268E+03  0.24471122640E+03  0.00000000000E+00 0.  1.
<mgrwt>
<rscale>  0 0.23349840E+03</rscale>
<asrwt>0</asrwt>
<pdfrwt beam="1">  1        2 0.14780382E+00 0.23349840E+03</pdfrwt>
<pdfrwt beam="2">  1       -2 0.21827071E-02 0.23349840E+03</pdfrwt>
<totfact> 0.18656039E+04</totfact>
</mgrwt>
</event>
<event>
 7    1  0.1020736E-005  0.1600062E+03  0.7546771E-02  0.1196355E+00
         -2   -1    0    0    0  501 -0.00000000000E+00  0.00000000000E+00  0.10786223665E+03  0.10786223665E+03  0.00000000000E+00 0.  1.
          2   -1    0    0  501    0  0.00000000000E+00 -0.00000000000E+00 -0.20241737272E+03  0.20241737272E+03  0.00000000000E+00 0. -1.
         23    2    1    2    0    0 -0.77444529844E+02 -0.63066843371E+02 -0.35918543620E+02  0.13986763740E+03  0.91091889214E+02 0.  0.
          5    1    1    2  502    0  0.10293881884E+03  0.53742739574E+02 -0.75048785906E+02  0.13834410991E+03  0.47000000000E+01 0.  1.
         -5    1    1    2    0  502 -0.25494288993E+02  0.93241037971E+01  0.16412193466E+02  0.32067862062E+02  0.47000000000E+01 0.  1.
        -11    1    3    3    0    0 -0.21851261037E+02 -0.66036044514E+02  0.65228928424E+01  0.69862614573E+02  0.00000000000E+00 0.  1.
         11    1    3    3    0    0 -0.55593268807E+02  0.29692011426E+01 -0.42441436463E+02  0.70005022827E+02  0.00000000000E+00 0. -1.
<mgrwt>
<rscale>  0 0.15340105E+03</rscale>
<asrwt>0</asrwt>
<pdfrwt beam="2">  1        2 0.31141134E-01 0.16000622E+03</pdfrwt>
<pdfrwt beam="1">  1       -2 0.16594191E-01 0.16000622E+03</pdfrwt>
<totfact> 0.47008205E+03</totfact>
</mgrwt>
</event>
<event>
 7    1  0.1020736E-005  0.1322049E+03  0.7546771E-02  0.1236899E+00
         -1   -1    0    0    0  501 -0.00000000000E+00  0.00000000000E+00  0.79971669539E+02  0.79971669539E+02  0.00000000000E+00 0.  1.
          1   -1    0    0  501    0  0.00000000000E+00 -0.00000000000E+00 -0.19217147884E+03  0.19217147884E+03  0.00000000000E+00 0. -1.
         23    2    1    2    0    0  0.42824599916E+02 -0.44713548354E+01 -0.49354465045E+01  0.10189691141E+03  0.92220835768E+02 0.  0.
          5    1    1    2  502    0 -0.54852993352E+01 -0.47019203938E+01  0.28129459186E+02  0.29420282770E+02  0.47000000000E+01 0. -1.
         -5    1    1    2    0  502 -0.37339300581E+02  0.91732752292E+01 -0.13539382198E+03  0.14082595420E+03  0.47000000000E+01 0. -1.
        -11    1    3    3    0    0  0.21527727769E+02 -0.34144248284E+02  0.30819318955E+02  0.50784871514E+02  0.00000000000E+00 0.  1.
         11    1    3    3    0    0  0.21296872147E+02  0.29672893449E+02 -0.35754765459E+02  0.51112039892E+02  0.00000000000E+00 0. -1.
<mgrwt>
<rscale>  0 0.12383643E+03</rscale>
<asrwt>0</asrwt>
<pdfrwt beam="2">  1        1 0.29564842E-01 0.13220491E+03</pdfrwt>
<pdfrwt beam="1">  1       -1 0.12303334E-01 0.13220491E+03</pdfrwt>
<totfact> 0.64523363E+03</totfact>
</mgrwt>
</event>
<event>
 7    1  0.1020736E-005  0.2016416E+03  0.7546771E-02  0.1152582E+00
          2   -1    0    0  501    0  0.00000000000E+00  0.00000000000E+00  0.58632601020E+03  0.58632601020E+03  0.00000000000E+00 0. -1.
         -2   -1    0    0    0  501 -0.00000000000E+00 -0.00000000000E+00 -0.83239982842E+02  0.83239982842E+02  0.00000000000E+00 0.  1.
         23    2    1    2    0    0  0.29374070765E+02  0.15546608110E+03  0.76756596625E+02  0.19795587521E+03  0.90897827250E+02 0.  0.
          5    1    1    2  502    0  0.21911811804E+01  0.15798723237E+02  0.79947737652E+01  0.18450131122E+02  0.47000000000E+01 0. -1.
         -5    1    1    2    0  502 -0.31565251945E+02 -0.17126480434E+03  0.41833465697E+03  0.45315998671E+03  0.47000000000E+01 0. -1.
        -11    1    3    3    0    0  0.38042315732E+02  0.14418653721E+03  0.34072620428E+02  0.15296378251E+03  0.00000000000E+00 0.  1.
         11    1    3    3    0    0 -0.86682449673E+01  0.11279543894E+02  0.42683976198E+02  0.44992092698E+02  0.00000000000E+00 0. -1.
<mgrwt>
<rscale>  0 0.19666738E+03</rscale>
<asrwt>0</asrwt>
<pdfrwt beam="1">  1        2 0.90203999E-01 0.20164156E+03</pdfrwt>
<pdfrwt beam="2">  1       -2 0.12806152E-01 0.20164156E+03</pdfrwt>
<totfact> 0.22853961E+03</totfact>
</mgrwt>
</event>
<event>
 7    1  0.1020736E-005  0.1285751E+03  0.7546771E-02  0.1245778E+00
         -2   -1    0    0    0  501 -0.00000000000E+00  0.00000000000E+00  0.14426392287E+02  0.14426392287E+02  0.00000000000E+00 0.  1.
          2   -1    0    0  501    0  0.00000000000E+00 -0.00000000000E+00 -0.86305073166E+03  0.86305073166E+03  0.00000000000E+00 0. -1.
         23    2    1    2    0    0 -0.19730191464E+02 -0.22734240731E+02 -0.29606286132E+03  0.31015380416E+03  0.87384427814E+02 0.  0.
          5    1    1    2  502    0 -0.45299755198E+02  0.24996975341E+02 -0.36632990116E+03  0.36999540954E+03  0.47000000000E+01 0.  1.
         -5    1    1    2    0  502  0.65029946661E+02 -0.22627346106E+01 -0.18623157689E+03  0.19732791025E+03  0.47000000000E+01 0.  1.
        -11    1    3    3    0    0 -0.57164139250E+01  0.30382590917E+02 -0.16776448111E+03  0.17058927382E+03  0.00000000000E+00 0. -1.
         11    1    3    3    0    0 -0.14013777539E+02 -0.53116831648E+02 -0.12829838021E+03  0.13956453034E+03  0.00000000000E+00 0.  1.
<mgrwt>
<rscale>  0 0.11838964E+03</rscale>
<asrwt>0</asrwt>
<pdfrwt beam="2">  1        2 0.13277703E+00 0.12857512E+03</pdfrwt>
<pdfrwt beam="1">  1       -2 0.22194451E-02 0.12857512E+03</pdfrwt>
<totfact> 0.20154618E+04</totfact>
</mgrwt>
</event>
<event>
 7    1  0.1020736E-005  0.1532014E+03  0.7546771E-02  0.1205335E+00
          4   -1    0    0  501    0  0.00000000000E+00  0.00000000000E+00  0.34490624260E+02  0.34490624260E+02  0.00000000000E+00 0.  1.
         -4   -1    0    0    0  501 -0.00000000000E+00 -0.00000000000E+00 -0.64583461252E+03  0.64583461252E+03  0.00000000000E+00 0. -1.
         23    2    1    2    0    0 -0.80066493541E+02  0.37931654005E+02 -0.39784305800E+03  0.41754525030E+03  0.90639304312E+02 0.  0.
          5    1    1    2  502    0 -0.32449866806E+02 -0.21844866959E+02 -0.52176508274E+02  0.65380961173E+02  0.47000000000E+01 0. -1.
         -5    1    1    2    0  502  0.11251636035E+03 -0.16086787046E+02 -0.16132442199E+03  0.19739902531E+03  0.47000000000E+01 0. -1.
        -11    1    3    3    0    0 -0.16982948393E+02  0.60722775545E+01 -0.54536941969E+01  0.18842395580E+02  0.00000000000E+00 0.  1.
         11    1    3    3    0    0 -0.63083545148E+02  0.31859376451E+02 -0.39238936380E+03  0.39870285472E+03  0.00000000000E+00 0. -1.
<mgrwt>
<rscale>  0 0.14611068E+03</rscale>
<asrwt>0</asrwt>
<pdfrwt beam="1">  1        4 0.53062497E-02 0.15320142E+03</pdfrwt>
<pdfrwt beam="2">  1       -4 0.99359174E-01 0.15320142E+03</pdfrwt>
<totfact> 0.32080249E+02</totfact>
</mgrwt>
</event>
<event>
 7    1  0.1020736E-005  0.1338514E+03  0.7546771E-02  0.1234745E+00
         -1   -1    0    0    0  501 -0.00000000000E+00  0.00000000000E+00  0.53803653267E+02  0.53803653267E+02  0.00000000000E+00 0.  1.
          1   -1    0    0  501    0  0.00000000000E+00 -0.00000000000E+00 -0.54390148297E+03  0.54390148297E+03  0.00000000000E+00 0. -1.
         23    2    1    2    0    0 -0.44688780380E+02 -0.17180673469E+02 -0.14347379301E+02  0.10348385480E+03  0.90613455287E+02 0.  0.
          5    1    1    2  502    0  0.12768409273E+01  0.16632723418E+01  0.73117532333E+01  0.89413943533E+01  0.47000000000E+01 0. -1.
         -5    1    1    2    0  502  0.43411939453E+02  0.15517401127E+02 -0.48306220364E+03  0.48527988708E+03  0.47000000000E+01 0. -1.
        -11    1    3    3    0    0 -0.96987254021E+01 -0.20889336330E+02  0.35592076456E+02  0.42393697093E+02  0.00000000000E+00 0.  1.
         11    1    3    3    0    0 -0.34990054978E+02  0.37086628608E+01 -0.49939455757E+02  0.61090157709E+02  0.00000000000E+00 0. -1.
<mgrwt>
<rscale>  0 0.12520785E+03</rscale>
<asrwt>0</asrwt>
<pdfrwt beam="2">  1        1 0.83677149E-01 0.13385135E+03</pdfrwt>
<pdfrwt beam="1">  1       -1 0.82774854E-02 0.13385135E+03</pdfrwt>
<totfact> 0.32035561E+03</totfact>
</mgrwt>
</event>
<event>
 7    1  0.1020736E-005  0.1825120E+03  0.7546771E-02  0.1170482E+00
         -1   -1    0    0    0  501 -0.00000000000E+00  0.00000000000E+00  0.45367476795E+03  0.45367476795E+03  0.00000000000E+00 0.  1.
          1   -1    0    0  501    0  0.00000000000E+00 -0.00000000000E+00 -0.68816894639E+02  0.68816894639E+02  0.00000000000E+00 0. -1.
         23    2    1    2    0    0 -0.74223522512E+02  0.11034478429E+03  0.23853494922E+03  0.28856643641E+03  0.93201735549E+02 0.  0.
          5    1    1    2  502    0  0.26322695709E+02 -0.68470798388E+02  0.15303826918E+03  0.16977613606E+03  0.47000000000E+01 0.  1.
         -5    1    1    2    0  502  0.47900826803E+02 -0.41873985899E+02 -0.67153450909E+01  0.64149090120E+02  0.47000000000E+01 0.  1.
        -11    1    3    3    0    0 -0.80993901613E+02  0.87182910994E+02  0.23599751355E+03  0.26430228616E+03  0.00000000000E+00 0.  1.
         11    1    3    3    0    0  0.67703791016E+01  0.23161873293E+02  0.25374356730E+01  0.24264150251E+02  0.00000000000E+00 0. -1.
<mgrwt>
<rscale>  0 0.17725997E+03</rscale>
<asrwt>0</asrwt>
<pdfrwt beam="2">  1        1 0.10587215E-01 0.18251195E+03</pdfrwt>
<pdfrwt beam="1">  1       -1 0.69796116E-01 0.18251195E+03</pdfrwt>
<totfact> 0.12676624E+03</totfact>
</mgrwt>
</event>
<event>
 7    1  0.1020736E-005  0.1622250E+03  0.7546771E-02  0.1193477E+00
          1   -1    0    0  501    0  0.00000000000E+00  0.00000000000E+00  0.17564248999E+04  0.17564248999E+04  0.00000000000E+00 0. -1.
         -1   -1    0    0    0  501 -0.00000000000E+00 -0.00000000000E+00 -0.16384154844E+02  0.16384154844E+02  0.00000000000E+00 0.  1.
         23    2    1    2    0    0  0.79072516739E+02  0.66624706427E+02  0.40425338381E+03  0.42720702260E+03  0.91617287802E+02 0.  0.
          5    1    1    2  502    0 -0.67140208601E+02  0.43070027897E+00  0.29512016863E+03  0.30269786429E+03  0.47000000000E+01 0. -1.
         -5    1    1    2    0  502 -0.11932308138E+02 -0.67055406706E+02  0.10406671926E+04  0.10429041678E+04  0.47000000000E+01 0. -1.
        -11    1    3    3    0    0  0.42675160709E+02  0.17347311261E+02  0.51180975048E+02  0.68859209670E+02  0.00000000000E+00 0.  1.
         11    1    3    3    0    0  0.36397356030E+02  0.49277395166E+02  0.35307240876E+03  0.35834781293E+03  0.00000000000E+00 0. -1.
<mgrwt>
<rscale>  0 0.15583859E+03</rscale>
<asrwt>0</asrwt>
<pdfrwt beam="1">  1        1 0.27021907E+00 0.16222501E+03</pdfrwt>
<pdfrwt beam="2">  1       -1 0.25206406E-02 0.16222501E+03</pdfrwt>
<totfact> 0.23679513E+03</totfact>
</mgrwt>
</event>
<event>
 7    1  0.1020736E-005  0.3378439E+03  0.7546771E-02  0.1068599E+00
         -2   -1    0    0    0  501 -0.00000000000E+00  0.00000000000E+00  0.49788098469E+02  0.49788098469E+02  0.00000000000E+00 0.  1.
          2   -1    0    0  501    0  0.00000000000E+00 -0.00000000000E+00 -0.24173036594E+04  0.24173036594E+04  0.00000000000E+00 0. -1.
         23    2    1    2    0    0  0.28932673065E+03  0.12166858780E+03 -0.83434158410E+03  0.89713603854E+03  0.10106428828E+03 0.  0.
          5    1    1    2  502    0 -0.13309718988E+03 -0.81576419692E+02 -0.48753063385E+03  0.51193533102E+03  0.47000000000E+01 0.  1.
         -5    1    1    2    0  502 -0.15622954077E+03 -0.40092168105E+02 -0.10456433430E+04  0.10580203883E+04  0.47000000000E+01 0.  1.
        -11    1    3    3    0    0  0.19725386890E+03  0.31431236603E+02 -0.54185034160E+03  0.57749355332E+03  0.00000000000E+00 0.  1.
         11    1    3    3    0    0  0.92072861751E+02  0.90237351194E+02 -0.29249124250E+03  0.31964248522E+03  0.00000000000E+00 0. -1.
<mgrwt>
<rscale>  0 0.33579897E+03</rscale>
<asrwt>0</asrwt>
<pdfrwt beam="2">  1        2 0.37189286E+00 0.33784392E+03</pdfrwt>
<pdfrwt beam="1">  1       -2 0.76597077E-02 0.33784392E+03</pdfrwt>
<totfact> 0.44512788E+02</totfact>
</mgrwt>
</event>
<event>
 7    1  0.1020736E-005  0.1742597E+03  0.7546771E-02  0.1178176E+00
         -2   -1    0    0    0  501 -0.00000000000E+00  0.00000000000E+00  0.16082369814E+02  0.16082369814E+02  0.00000000000E+00 0.  1.
          2   -1    0    0  501    0  0.00000000000E+00 -0.00000000000E+00 -0.17190242033E+04  0.17190242033E+04  0.00000000000E+00 0. -1.
         23    2    1    2    0    0 -0.13321576503E+01 -0.12141974978E+03 -0.72153939982E+03  0.73835325998E+03  0.99004549141E+02 0.  0.
          5    1    1    2  502    0  0.39527703967E+02  0.93861779073E+02 -0.86658811095E+03  0.87256490704E+03  0.47000000000E+01 0.  1.
         -5    1    1    2    0  502 -0.38195546317E+02  0.27557970706E+02 -0.11481432271E+03  0.12418840609E+03  0.47000000000E+01 0.  1.
        -11    1    3    3    0    0  0.46652295460E+02 -0.41536954277E+02 -0.33177235304E+03  0.33760131736E+03  0.00000000000E+00 0.  1.
         11    1    3    3    0    0 -0.47984453110E+02 -0.79882795503E+02 -0.38976704678E+03  0.40075194262E+03  0.00000000000E+00 0. -1.
<mgrwt>
<rscale>  0 0.16968607E+03</rscale>
<asrwt>0</asrwt>
<pdfrwt beam="2">  1        2 0.26446537E+00 0.17425966E+03</pdfrwt>
<pdfrwt beam="1">  1       -2 0.24742098E-02 0.17425966E+03</pdfrwt>
<totfact> 0.58459135E+03</totfact>
</mgrwt>
</event>
<event>
 7    1  0.1020736E-005  0.1330614E+03  0.7546771E-02  0.1236882E+00
         -1   -1    0    0    0  501 -0.00000000000E+00  0.00000000000E+00  0.20117142106E+02  0.20117142106E+02  0.00000000000E+00 0.  1.
          1   -1    0    0  501    0  0.00000000000E+00 -0.00000000000E+00 -0.69623553928E+03  0.69623553928E+03  0.00000000000E+00 0. -1.
         23    2    1    2    0    0  0.45579662706E+02 -0.17269780811E+01 -0.22831345221E+03  0.24919681513E+03  0.88834295788E+02 0.  0.
          5    1    1    2  502    0 -0.18810344671E+02 -0.41771547320E+02 -0.37657543325E+03  0.37938086161E+03  0.47000000000E+01 0. -1.
         -5    1    1    2    0  502 -0.26769318035E+02  0.43498525401E+02 -0.71229511721E+02  0.87775004644E+02  0.47000000000E+01 0. -1.
        -11    1    3    3    0    0  0.33449548275E+02 -0.40025734890E+02 -0.17393301772E+03  0.18158641575E+03  0.00000000000E+00 0. -1.
         11    1    3    3    0    0  0.12130114432E+02  0.38298756809E+02 -0.54380434488E+02  0.67610399380E+02  0.00000000000E+00 0.  1.
<mgrwt>
<rscale>  0 0.12384741E+03</rscale>
<asrwt>0</asrwt>
<pdfrwt beam="2">  1        1 0.10711316E+00 0.13306139E+03</pdfrwt>
<pdfrwt beam="1">  1       -1 0.30949451E-02 0.13306139E+03</pdfrwt>
<totfact> 0.97941792E+03</totfact>
</mgrwt>
</event>
<event>
 7    1  0.1020736E-005  0.1446250E+03  0.7546771E-02  0.1214499E+00
          2   -1    0    0  501    0  0.00000000000E+00  0.00000000000E+00  0.14954963226E+03  0.14954963226E+03  0.00000000000E+00 0. -1.
         -2   -1    0    0    0  501 -0.00000000000E+00 -0.00000000000E+00 -0.12900877669E+03  0.12900877669E+03  0.00000000000E+00 0.  1.
         23    2    1    2    0    0  0.75667978229E+02  0.36372425443E+02 -0.26097773138E+02  0.12659933645E+03  0.91091722812E+02 0.  0.
          5    1    1    2  502    0 -0.73817030523E+02  0.63896026065E+01  0.70795889253E+02  0.10258620254E+03  0.47000000000E+01 0. -1.
         -5    1    1    2    0  502 -0.18509477056E+01 -0.42762028050E+02 -0.24157260544E+02  0.49372869952E+02  0.47000000000E+01 0.  1.
        -11    1    3    3    0    0  0.96702940238E+02  0.32452577284E+02 -0.25733957774E+02  0.10519916827E+03  0.00000000000E+00 0.  1.
         11    1    3    3    0    0 -0.21034962009E+02  0.39198481592E+01 -0.36381536442E+00  0.21400168175E+02  0.00000000000E+00 0. -1.
<mgrwt>
<rscale>  0 0.13913393E+03</rscale>
<asrwt>0</asrwt>
<pdfrwt beam="1">  1        2 0.23007636E-01 0.14462503E+03</pdfrwt>
<pdfrwt beam="2">  1       -2 0.19847504E-01 0.14462503E+03</pdfrwt>
<totfact> 0.48286179E+03</totfact>
</mgrwt>
</event>
<event>
 7    1  0.1020736E-005  0.2192007E+03  0.7546771E-02  0.1137990E+00
         -1   -1    0    0    0  501 -0.00000000000E+00  0.00000000000E+00  0.73467837789E+03  0.73467837789E+03  0.00000000000E+00 0.  1.
          1   -1    0    0  501    0  0.00000000000E+00 -0.00000000000E+00 -0.60194462355E+02  0.60194462355E+02  0.00000000000E+00 0. -1.
         23    2    1    2    0    0 -0.17972887430E+03 -0.11073380117E+02  0.33142557206E+03  0.38776356208E+03  0.89958780903E+02 0.  0.
          5    1    1    2  502    0  0.17823251300E+03  0.53599728600E+01  0.21734646096E+03  0.28117100151E+03  0.47000000000E+01 0. -1.
         -5    1    1    2    0  502  0.14963612986E+01  0.57134072572E+01  0.12571188252E+03  0.12593827665E+03  0.47000000000E+01 0. -1.
        -11    1    3    3    0    0 -0.93142049242E+02  0.11137353128E+02  0.24934066471E+03  0.26640241938E+03  0.00000000000E+00 0.  1.
         11    1    3    3    0    0 -0.86586825057E+02 -0.22210733245E+02  0.82084907348E+02  0.12136114271E+03  0.00000000000E+00 0. -1.
<mgrwt>
<rscale>  0 0.21457888E+03</rscale>
<asrwt>0</asrwt>
<pdfrwt beam="2">  1        1 0.92606870E-02 0.21920068E+03</pdfrwt>
<pdfrwt beam="1">  1       -1 0.11302744E+00 0.21920068E+03</pdfrwt>
<totfact> 0.54227393E+02</totfact>
</mgrwt>
</event>
<event>
 7    1  0.1020736E-005  0.1428495E+03  0.7546771E-02  0.1218295E+00
          1   -1    0    0  501    0  0.00000000000E+00  0.00000000000E+00  0.46337933469E+03  0.46337933469E+03  0.00000000000E+00 0.  1.
         -1   -1    0    0    0  501 -0.00000000000E+00 -0.00000000000E+00 -0.60992811854E+02  0.60992811854E+02  0.00000000000E+00 0. -1.
         23    2    1    2    0    0 -0.41494169440E+02 -0.55305415779E+02  0.25553718792E+02  0.12137220440E+03  0.96424915580E+02 0.  0.
          5    1    1    2  502    0 -0.41845403100E+01  0.18736244587E+02 -0.17972785477E+01  0.19846345986E+02  0.47000000000E+01 0.  1.
         -5    1    1    2    0  502  0.45678709750E+02  0.36569171192E+02  0.37863008259E+03  0.38315359616E+03  0.47000000000E+01 0.  1.
        -11    1    3    3    0    0 -0.15597998551E+02 -0.16641409701E+02 -0.36965069552E+02  0.43435589585E+02  0.00000000000E+00 0. -1.
         11    1    3    3    0    0 -0.25896170889E+02 -0.38664006078E+02  0.62518788344E+02  0.77936614814E+02  0.00000000000E+00 0.  1.
<mgrwt>
<rscale>  0 0.13637275E+03</rscale>
<asrwt>0</asrwt>
<pdfrwt beam="1">  1        1 0.71289126E-01 0.14284954E+03</pdfrwt>
<pdfrwt beam="2">  1       -1 0.93835098E-02 0.14284954E+03</pdfrwt>
<totfact> 0.32739043E+03</totfact>
</mgrwt>
</event>
<event>
 7    1  0.1020736E-005  0.1300858E+03  0.7546771E-02  0.1240955E+00
         -2   -1    0    0    0  501 -0.00000000000E+00  0.00000000000E+00  0.10963592431E+02  0.10963592431E+02  0.00000000000E+00 0.  1.
          2   -1    0    0  501    0  0.00000000000E+00 -0.00000000000E+00 -0.14011985264E+04  0.14011985264E+04  0.00000000000E+00 0. -1.
         23    2    1    2    0    0  0.72680725331E+01  0.35271423508E+02 -0.34137223852E+03  0.35526323171E+03  0.91542669704E+02 0.  0.
          5    1    1    2  502    0 -0.39445529252E+02 -0.67791616159E+02 -0.50272283427E+03  0.50882609121E+03  0.47000000000E+01 0. -1.
         -5    1    1    2    0  502  0.32177456719E+02  0.32520192651E+02 -0.54613986116E+03  0.54807279589E+03  0.47000000000E+01 0. -1.
        -11    1    3    3    0    0  0.48973471385E+02  0.21077544550E+02 -0.16143825384E+03  0.17001462757E+03  0.00000000000E+00 0.  1.
         11    1    3    3    0    0 -0.41705398852E+02  0.14193878958E+02 -0.17993398468E+03  0.18524860414E+03  0.00000000000E+00 0. -1.
<mgrwt>
<rscale>  0 0.12130806E+03</rscale>
<asrwt>0</asrwt>
<pdfrwt beam="2">  1        2 0.21556894E+00 0.13008576E+03</pdfrwt>
<pdfrwt beam="1">  1       -2 0.16867070E-02 0.13008576E+03</pdfrwt>
<totfact> 0.14790013E+04</totfact>
</mgrwt>
</event>
<event>
 7    1  0.1020736E-005  0.1407659E+03  0.7546771E-02  0.1223324E+00
         -1   -1    0    0    0  501 -0.00000000000E+00  0.00000000000E+00  0.75492754999E+02  0.75492754999E+02  0.00000000000E+00 0.  1.
          1   -1    0    0  501    0  0.00000000000E+00 -0.00000000000E+00 -0.25282806554E+03  0.25282806554E+03  0.00000000000E+00 0. -1.
         23    2    1    2    0    0  0.61713740339E+02  0.19617193013E+02 -0.13631167748E+02  0.11241789738E+03  0.90876591643E+02 0.  0.
          5    1    1    2  502    0 -0.10678590381E+02  0.38835214736E+02 -0.72407846595E+01  0.41191323826E+02  0.47000000000E+01 0.  1.
         -5    1    1    2    0  502 -0.51035149959E+02 -0.58452407748E+02 -0.15646335814E+03  0.17471159933E+03  0.47000000000E+01 0.  1.
        -11    1    3    3    0    0  0.47533915056E+02  0.30606094163E+02 -0.47664023270E+02  0.73946367015E+02  0.00000000000E+00 0. -1.
         11    1    3    3    0    0  0.14179825284E+02 -0.10988901150E+02  0.34032855522E+02  0.38471530364E+02  0.00000000000E+00 0.  1.
<mgrwt>
<rscale>  0 0.13282437E+03</rscale>
<asrwt>0</asrwt>
<pdfrwt beam="2">  1        1 0.38896626E-01 0.14076585E+03</pdfrwt>
<pdfrwt beam="1">  1       -1 0.11614270E-01 0.14076585E+03</pdfrwt>
<totfact> 0.50385174E+03</totfact>
</mgrwt>
</event>
<event>
 7    1  0.1020736E-005  0.1262849E+03  0.7546771E-02  0.1250753E+00
         -2   -1    0    0    0  501 -0.00000000000E+00  0.00000000000E+00  0.40096630071E+02  0.40096630071E+02  0.00000000000E+00 0.  1.
          2   -1    0    0  501    0  0.00000000000E+00 -0.00000000000E+00 -0.29954106289E+03  0.29954106289E+03  0.00000000000E+00 0. -1.
         23    2    1    2    0    0  0.14644834290E+02  0.10388079670E+02 -0.73581692891E+02  0.11493160412E+03  0.86444344669E+02 0.  0.
          5    1    1    2  502    0  0.31119390291E+02 -0.17838730955E+02 -0.33431358827E+01  0.36330473871E+02  0.47000000000E+01 0. -1.
         -5    1    1    2    0  502 -0.45764224580E+02  0.74506512846E+01 -0.18251960404E+03  0.18837561497E+03  0.47000000000E+01 0. -1.
        -11    1    3    3    0    0 -0.21139344266E+02 -0.28469970723E+02 -0.28980818663E+02  0.45796276698E+02  0.00000000000E+00 0. -1.
         11    1    3    3    0    0  0.35784178556E+02  0.38858050393E+02 -0.44600874228E+02  0.69135327418E+02  0.00000000000E+00 0.  1.
<mgrwt>
<rscale>  0 0.11547569E+03</rscale>
<asrwt>0</asrwt>
<pdfrwt beam="2">  1        2 0.46083241E-01 0.12628487E+03</pdfrwt>
<pdfrwt beam="1">  1       -2 0.61687122E-02 0.12628487E+03</pdfrwt>
<totfact> 0.14503944E+04</totfact>
</mgrwt>
</event>
<event>
 7    1  0.1020736E-005  0.1323703E+03  0.7546771E-02  0.1237426E+00
          2   -1    0    0  501    0  0.00000000000E+00  0.00000000000E+00  0.34729020372E+03  0.34729020372E+03  0.00000000000E+00 0. -1.
         -2   -1    0    0    0  501 -0.00000000000E+00 -0.00000000000E+00 -0.46682453270E+02  0.46682453270E+02  0.00000000000E+00 0.  1.
         23    2    1    2    0    0  0.21330037913E+02  0.38126095703E+02  0.53605064315E+02  0.11373664797E+03  0.90299238540E+02 0.  0.
          5    1    1    2  502    0  0.29428673297E+02  0.25479840579E+02  0.14196744698E+03  0.14728243307E+03  0.47000000000E+01 0. -1.
         -5    1    1    2    0  502 -0.50758711209E+02 -0.63605936282E+02  0.10503523915E+03  0.13295357595E+03  0.47000000000E+01 0. -1.
        -11    1    3    3    0    0 -0.10443971295E+02  0.60411699187E+02  0.36247452809E+02  0.71221680479E+02  0.00000000000E+00 0. -1.
         11    1    3    3    0    0  0.31774009207E+02 -0.22285603484E+02  0.17357611505E+02  0.42514967493E+02  0.00000000000E+00 0.  1.
<mgrwt>
<rscale>  0 0.12350406E+03</rscale>
<asrwt>0</asrwt>
<pdfrwt beam="1">  1        2 0.53429261E-01 0.13237029E+03</pdfrwt>
<pdfrwt beam="2">  1       -2 0.71819161E-02 0.13237029E+03</pdfrwt>
<totfact> 0.98741478E+03</totfact>
</mgrwt>
</event>
<event>
 7    1  0.1020736E-005  0.1144533E+03  0.7546771E-02  0.1261100E+00
          1   -1    0    0  501    0  0.00000000000E+00  0.00000000000E+00  0.17781364598E+04  0.17781364598E+04  0.00000000000E+00 0. -1.
         -1   -1    0    0    0  501 -0.00000000000E+00 -0.00000000000E+00 -0.18021773588E+02  0.18021773588E+02  0.00000000000E+00 0.  1.
         23    2    1    2    0    0  0.15654942935E+02  0.27235553676E+02  0.12977626330E+03  0.16180731289E+03  0.91394066354E+02 0.  0.
          5    1    1    2  502    0  0.26821650932E+01 -0.67321345141E+01  0.15347030901E+04  0.15347273961E+04  0.47000000000E+01 0. -1.
         -5    1    1    2    0  502 -0.18337108029E+02 -0.20503419162E+02  0.95635332823E+02  0.99623524392E+02  0.47000000000E+01 0.  1.
        -11    1    3    3    0    0 -0.33635511805E+02  0.95478742053E+01  0.88408170405E+02  0.95071100502E+02  0.00000000000E+00 0. -1.
         11    1    3    3    0    0  0.49290454741E+02  0.17687679471E+02  0.41368092897E+02  0.66736212385E+02  0.00000000000E+00 0.  1.
<mgrwt>
<rscale>  0 0.10971425E+03</rscale>
<asrwt>0</asrwt>
<pdfrwt beam="1">  1        1 0.27355932E+00 0.11445330E+03</pdfrwt>
<pdfrwt beam="2">  1       -1 0.27725819E-02 0.11445330E+03</pdfrwt>
<totfact> 0.19946579E+03</totfact>
</mgrwt>
</event>
<event>
 7    1  0.1020736E-005  0.1382991E+03  0.7546771E-02  0.1224193E+00
          2   -1    0    0  501    0  0.00000000000E+00  0.00000000000E+00  0.33535420354E+03  0.33535420354E+03  0.00000000000E+00 0. -1.
         -2   -1    0    0    0  501 -0.00000000000E+00 -0.00000000000E+00 -0.48620119807E+02  0.48620119807E+02  0.00000000000E+00 0.  1.
         23    2    1    2    0    0  0.53174447262E+02  0.25954157043E+02  0.15158040919E+03  0.19060123745E+03  0.99252562474E+02 0.  0.
          5    1    1    2  502    0 -0.50823608297E+02 -0.57328437311E+02  0.28175190268E+02  0.81765030615E+02  0.47000000000E+01 0. -1.
         -5    1    1    2    0  502 -0.23508389646E+01  0.31374280268E+02  0.10697848427E+03  0.11160805528E+03  0.47000000000E+01 0. -1.
        -11    1    3    3    0    0  0.80751885422E+02  0.19099000164E+02  0.13261673028E+03  0.15643796201E+03  0.00000000000E+00 0. -1.
         11    1    3    3    0    0 -0.27577438160E+02  0.68551568792E+01  0.18963678914E+02  0.34163275447E+02  0.00000000000E+00 0.  1.
<mgrwt>
<rscale>  0 0.13222349E+03</rscale>
<asrwt>0</asrwt>
<pdfrwt beam="1">  1        2 0.51592953E-01 0.13829908E+03</pdfrwt>
<pdfrwt beam="2">  1       -2 0.74800187E-02 0.13829908E+03</pdfrwt>
<totfact> 0.96576447E+03</totfact>
</mgrwt>
</event>
<event>
 7    1  0.1020736E-005  0.1628925E+03  0.7546771E-02  0.1192885E+00
          2   -1    0    0  501    0  0.00000000000E+00  0.00000000000E+00  0.14500105490E+04  0.14500105490E+04  0.00000000000E+00 0. -1.
         -2   -1    0    0    0  501 -0.00000000000E+00 -0.00000000000E+00 -0.22721393246E+02  0.22721393246E+02  0.00000000000E+00 0.  1.
         23    2    1    2    0    0  0.97467345659E+02 -0.37559766350E+02  0.26316384815E+03  0.29726534912E+03  0.90558584882E+02 0.  0.
          5    1    1    2  502    0 -0.11239445977E+03  0.61095398140E+02  0.10550983588E+04  0.10628357347E+04  0.47000000000E+01 0. -1.
         -5    1    1    2    0  502  0.14927114110E+02 -0.23535631790E+02  0.10902694882E+03  0.11263085842E+03  0.47000000000E+01 0. -1.
        -11    1    3    3    0    0  0.48746685535E+02 -0.65191884447E+02  0.17160505149E+03  0.18993292196E+03  0.00000000000E+00 0.  1.
         11    1    3    3    0    0  0.48720660124E+02  0.27632118097E+02  0.91558796660E+02  0.10733242716E+03  0.00000000000E+00 0. -1.
<mgrwt>
<rscale>  0 0.15634633E+03</rscale>
<asrwt>0</asrwt>
<pdfrwt beam="1">  1        2 0.22307847E+00 0.16289254E+03</pdfrwt>
<pdfrwt beam="2">  1       -2 0.34956001E-02 0.16289254E+03</pdfrwt>
<totfact> 0.48413851E+03</totfact>
</mgrwt>
</event>
<event>
 7    1  0.1020736E-005  0.1766431E+03  0.7546771E-02  0.1186127E+00
         -2   -1    0    0    0  501 -0.00000000000E+00  0.00000000000E+00  0.32527902544E+02  0.32527902544E+02  0.00000000000E+00 0.  1.
          2   -1    0    0  501    0  0.00000000000E+00 -0.00000000000E+00 -0.10413298722E+04  0.10413298722E+04  0.00000000000E+00 0. -1.
         23    2    1    2    0    0  0.60024016272E+02 -0.62747822556E+02 -0.14428041068E+03  0.19147447122E+03  0.91134320976E+02 0.  0.
          5    1    1    2  502    0 -0.92316657601E+02  0.64032408439E+02 -0.81711766007E+03  0.82481869220E+03  0.47000000000E+01 0. -1.
         -5    1    1    2    0  502  0.32292641329E+02 -0.12845858834E+01 -0.47403898895E+02  0.57564611311E+02  0.47000000000E+01 0.  1.
        -11    1    3    3    0    0  0.84009156657E+02 -0.41335109425E+02 -0.11065944001E+03  0.14495392833E+03  0.00000000000E+00 0.  1.
         11    1    3    3    0    0 -0.23985140385E+02 -0.21412713130E+02 -0.33620970665E+02  0.46520542896E+02  0.00000000000E+00 0. -1.
<mgrwt>
<rscale>  0 0.16229724E+03</rscale>
<asrwt>0</asrwt>
<pdfrwt beam="2">  1        2 0.16020459E+00 0.17664305E+03</pdfrwt>
<pdfrwt beam="1">  1       -2 0.50042928E-02 0.17664305E+03</pdfrwt>
<totfact> 0.47782882E+03</totfact>
</mgrwt>
</event>
<event>
 7    1  0.1020736E-005  0.1385639E+03  0.7546771E-02  0.1226606E+00
          2   -1    0    0  501    0  0.00000000000E+00  0.00000000000E+00  0.42051881259E+03  0.42051881259E+03  0.00000000000E+00 0. -1.
         -2   -1    0    0    0  501 -0.00000000000E+00 -0.00000000000E+00 -0.37220603439E+02  0.37220603439E+02  0.00000000000E+00 0.  1.
         23    2    1    2    0    0  0.87659609264E+01  0.59144603948E+02  0.20074234982E+03  0.22855258901E+03  0.91454189010E+02 0.  0.
          5    1    1    2  502    0 -0.44976292366E+02 -0.12324863643E+00  0.14149791483E+03  0.14854841624E+03  0.47000000000E+01 0.  1.
         -5    1    1    2    0  502  0.36210331440E+02 -0.59021355311E+02  0.41057944500E+02  0.80638410775E+02  0.47000000000E+01 0.  1.
        -11    1    3    3    0    0 -0.28601409009E+02 -0.66464370990E+01  0.88042836476E+02  0.92810326894E+02  0.00000000000E+00 0.  1.
         11    1    3    3    0    0  0.37367369935E+02  0.65791041047E+02  0.11269951334E+03  0.13574226212E+03  0.00000000000E+00 0. -1.
<mgrwt>
<rscale>  0 0.13057429E+03</rscale>
<asrwt>0</asrwt>
<pdfrwt beam="1">  1        2 0.64695198E-01 0.13856392E+03</pdfrwt>
<pdfrwt beam="2">  1       -2 0.57262470E-02 0.13856392E+03</pdfrwt>
<totfact> 0.11404419E+04</totfact>
</mgrwt>
</event>
<event>
 7    1  0.1020736E-005  0.1298891E+03  0.7546771E-02  0.1249621E+00
          1   -1    0    0  501    0  0.00000000000E+00  0.00000000000E+00  0.51120481111E+03  0.51120481111E+03  0.00000000000E+00 0. -1.
         -1   -1    0    0    0  501 -0.00000000000E+00 -0.00000000000E+00 -0.53491193130E+02  0.53491193130E+02  0.00000000000E+00 0.  1.
         23    2    1    2    0    0  0.21219205721E+01  0.35226730120E+02 -0.59236617172E+01  0.83207981708E+02  0.75120259517E+02 0.  0.
          5    1    1    2  502    0  0.28685399744E+02 -0.12938490777E+02  0.42794131413E+03  0.42912249421E+03  0.47000000000E+01 0. -1.
         -5    1    1    2    0  502 -0.30807320317E+02 -0.22288239343E+02  0.35695965567E+02  0.52365528317E+02  0.47000000000E+01 0. -1.
        -11    1    3    3    0    0 -0.23615755439E+02  0.29360404141E+02  0.22924176957E+02  0.44105046484E+02  0.00000000000E+00 0. -1.
         11    1    3    3    0    0  0.25737676011E+02  0.58663259799E+01 -0.28847838674E+02  0.39102935224E+02  0.00000000000E+00 0.  1.
<mgrwt>
<rscale>  0 0.11613017E+03</rscale>
<asrwt>0</asrwt>
<pdfrwt beam="1">  1        1 0.78646891E-01 0.12988914E+03</pdfrwt>
<pdfrwt beam="2">  1       -1 0.82294147E-02 0.12988914E+03</pdfrwt>
<totfact> 0.35024264E+03</totfact>
</mgrwt>
</event>
<event>
 7    1  0.1020736E-005  0.2587724E+03  0.7546771E-02  0.1110241E+00
         -2   -1    0    0    0  501 -0.00000000000E+00  0.00000000000E+00  0.14300937088E+04  0.14300937088E+04  0.00000000000E+00 0.  1.
          2   -1    0    0  501    0  0.00000000000E+00 -0.00000000000E+00 -0.55339510539E+02  0.55339510539E+02  0.00000000000E+00 0. -1.
         23    2    1    2    0    0 -0.20198862656E+03  0.10267292651E+03  0.10050369538E+04  0.10341527950E+04  0.89619137530E+02 0.  0.
          5    1    1    2  502    0  0.90627856533E+02 -0.10414896873E+03  0.26243316951E+03  0.29656984764E+03  0.47000000000E+01 0.  1.
         -5    1    1    2    0  502  0.11136077002E+03  0.14760422248E+01  0.10728407491E+03  0.15471057666E+03  0.47000000000E+01 0.  1.
        -11    1    3    3    0    0 -0.64211367024E+02  0.11885633199E+02  0.15408317507E+03  0.16734991118E+03  0.00000000000E+00 0.  1.
         11    1    3    3    0    0 -0.13777725953E+03  0.90787293311E+02  0.85095377877E+03  0.86680288386E+03  0.00000000000E+00 0. -1.
<mgrwt>
<rscale>  0 0.25491002E+03</rscale>
<asrwt>0</asrwt>
<pdfrwt beam="2">  1        2 0.85137719E-02 0.25877245E+03</pdfrwt>
<pdfrwt beam="1">  1       -2 0.22001439E+00 0.25877245E+03</pdfrwt>
<totfact> 0.85100889E+01</totfact>
</mgrwt>
</event>
<event>
 7    1  0.1284186E-005  0.2032093E+03  0.7546771E-02  0.1151143E+00
         -3   -1    0    0    0  501 -0.00000000000E+00  0.00000000000E+00  0.13571615927E+03  0.13571615927E+03  0.00000000000E+00 0.  1.
          3   -1    0    0  501    0  0.00000000000E+00 -0.00000000000E+00 -0.30898002433E+03  0.30898002433E+03  0.00000000000E+00 0. -1.
         23    2    1    2    0    0 -0.15929575694E+03  0.17148994050E+02 -0.11202041399E+02  0.18477682302E+03  0.91366090076E+02 0.  0.
          5    1    1    2  502    0  0.13918171419E+03  0.26555109424E+02 -0.75119605155E+02  0.16044241484E+03  0.47000000000E+01 0.  1.
         -5    1    1    2    0  502  0.20114042747E+02 -0.43704103474E+02 -0.86942218502E+02  0.99476945742E+02  0.47000000000E+01 0.  1.
        -11    1    3    3    0    0 -0.12693626390E+03  0.28918368445E+02  0.27408590313E+02  0.13304254188E+03  0.00000000000E+00 0. -1.
         11    1    3    3    0    0 -0.32359493041E+02 -0.11769374394E+02 -0.38610631713E+02  0.51734281137E+02  0.00000000000E+00 0.  1.
<mgrwt>
<rscale>  0 0.19834431E+03</rscale>
<asrwt>0</asrwt>
<pdfrwt beam="2">  1        3 0.47535387E-01 0.20320935E+03</pdfrwt>
<pdfrwt beam="1">  1       -3 0.20879410E-01 0.20320935E+03</pdfrwt>
<totfact> 0.22489226E+02</totfact>
</mgrwt>
</event>
<event>
 7    1  0.1020736E-005  0.1405551E+03  0.7546771E-02  0.1224707E+00
         -2   -1    0    0    0  501 -0.00000000000E+00  0.00000000000E+00  0.11293832409E+03  0.11293832409E+03  0.00000000000E+00 0.  1.
          2   -1    0    0  501    0  0.00000000000E+00 -0.00000000000E+00 -0.16921878512E+03  0.16921878512E+03  0.00000000000E+00 0. -1.
         23    2    1    2    0    0 -0.28235375571E+02  0.57723391240E+02  0.35203736855E+02  0.11445172507E+03  0.87924217106E+02 0.  0.
          5    1    1    2  502    0 -0.32898190085E+02 -0.32438285072E+01 -0.77651715103E+02  0.84526281077E+02  0.47000000000E+01 0.  1.
         -5    1    1    2    0  502  0.61133565655E+02 -0.54479562733E+02 -0.13832482786E+02  0.83179103057E+02  0.47000000000E+01 0.  1.
        -11    1    3    3    0    0 -0.15867202996E+02  0.75011593928E+02  0.41036147745E+01  0.76781163112E+02  0.00000000000E+00 0. -1.
         11    1    3    3    0    0 -0.12368172575E+02 -0.17288202688E+02  0.31100122081E+02  0.37670561961E+02  0.00000000000E+00 0.  1.
<mgrwt>
<rscale>  0 0.13186972E+03</rscale>
<asrwt>0</asrwt>
<pdfrwt beam="2">  1        2 0.26033659E-01 0.14055510E+03</pdfrwt>
<pdfrwt beam="1">  1       -2 0.17375127E-01 0.14055510E+03</pdfrwt>
<totfact> 0.52550527E+03</totfact>
</mgrwt>
</event>
<event>
 7    1  0.1020736E-005  0.1265216E+03  0.7546771E-02  0.1241622E+00
          4   -1    0    0  501    0  0.00000000000E+00  0.00000000000E+00  0.42528135740E+02  0.42528135740E+02  0.00000000000E+00 0. -1.
         -4   -1    0    0    0  501 -0.00000000000E+00 -0.00000000000E+00 -0.31649052116E+03  0.31649052116E+03  0.00000000000E+00 0.  1.
         23    2    1    2    0    0  0.26811384591E+02 -0.41067425749E+02 -0.12190200957E+03  0.16120543630E+03  0.93390090233E+02 0.  0.
          5    1    1    2  502    0 -0.41412659505E+02  0.60479698312E+02 -0.41180243349E+02  0.84206322313E+02  0.47000000000E+01 0. -1.
         -5    1    1    2    0  502  0.14601274913E+02 -0.19412272563E+02 -0.11088013250E+03  0.11360689828E+03  0.47000000000E+01 0.  1.
        -11    1    3    3    0    0  0.52437963336E+02 -0.55262966567E+02 -0.87201121265E+02  0.11579192987E+03  0.00000000000E+00 0.  1.
         11    1    3    3    0    0 -0.25626578744E+02  0.14195540817E+02 -0.34700888308E+02  0.45413506433E+02  0.00000000000E+00 0. -1.
<mgrwt>
<rscale>  0 0.12089858E+03</rscale>
<asrwt>0</asrwt>
<pdfrwt beam="1">  1        4 0.65427902E-02 0.12652159E+03</pdfrwt>
<pdfrwt beam="2">  1       -4 0.48690849E-01 0.12652159E+03</pdfrwt>
<totfact> 0.10264096E+03</totfact>
</mgrwt>
</event>
<event>
 7    1  0.1020736E-005  0.2079862E+03  0.7546771E-02  0.1147101E+00
          2   -1    0    0  501    0  0.00000000000E+00  0.00000000000E+00  0.60271168687E+03  0.60271168687E+03  0.00000000000E+00 0. -1.
         -2   -1    0    0    0  501 -0.00000000000E+00 -0.00000000000E+00 -0.67914471051E+02  0.67914471051E+02  0.00000000000E+00 0.  1.
         23    2    1    2    0    0  0.80062379382E+02 -0.14568347726E+03  0.19190291566E+03  0.26958405096E+03  0.90637582433E+02 0.  0.
          5    1    1    2  502    0 -0.53757845279E+02 -0.10394911819E+01  0.13322669457E+03  0.14374431682E+03  0.47000000000E+01 0.  1.
         -5    1    1    2    0  502 -0.26304534103E+02  0.14672296845E+03  0.20966760558E+03  0.25729779014E+03  0.47000000000E+01 0.  1.
        -11    1    3    3    0    0  0.32052631251E+02  0.28671755657E+01  0.22817594758E+02  0.39449138095E+02  0.00000000000E+00 0. -1.
         11    1    3    3    0    0  0.48009748130E+02 -0.14855065283E+03  0.16908532091E+03  0.23013491286E+03  0.00000000000E+00 0.  1.
<mgrwt>
<rscale>  0 0.20315864E+03</rscale>
<asrwt>0</asrwt>
<pdfrwt beam="1">  1        2 0.92724871E-01 0.20798623E+03</pdfrwt>
<pdfrwt beam="2">  1       -2 0.10448381E-01 0.20798623E+03</pdfrwt>
<totfact> 0.30724559E+03</totfact>
</mgrwt>
</event>
<event>
 7    1  0.1020736E-005  0.2381761E+03  0.7546771E-02  0.1123736E+00
          1   -1    0    0  501    0  0.00000000000E+00  0.00000000000E+00  0.18694800121E+04  0.18694800121E+04  0.00000000000E+00 0. -1.
         -1   -1    0    0    0  501 -0.00000000000E+00 -0.00000000000E+00 -0.30314594791E+02  0.30314594791E+02  0.00000000000E+00 0.  1.
         23    2    1    2    0    0 -0.17857797839E+03  0.95984703086E+02  0.65105591759E+03  0.68804708683E+03  0.91824987185E+02 0.  0.
          5    1    1    2  502    0  0.13803951117E+03 -0.55317086363E+01  0.64482179592E+03  0.65947156492E+03  0.47000000000E+01 0. -1.
         -5    1    1    2    0  502  0.40538467223E+02 -0.90452994450E+02  0.54328770376E+03  0.55227595510E+03  0.47000000000E+01 0. -1.
        -11    1    3    3    0    0 -0.31311584272E+02  0.58758070041E+02  0.26363246014E+03  0.27190991181E+03  0.00000000000E+00 0. -1.
         11    1    3    3    0    0 -0.14726639412E+03  0.37226633045E+02  0.38742345745E+03  0.41613717501E+03  0.00000000000E+00 0.  1.
<mgrwt>
<rscale>  0 0.23417346E+03</rscale>
<asrwt>0</asrwt>
<pdfrwt beam="1">  1        1 0.28761222E+00 0.23817613E+03</pdfrwt>
<pdfrwt beam="2">  1       -1 0.46637853E-02 0.23817613E+03</pdfrwt>
<totfact> 0.80403785E+02</totfact>
</mgrwt>
</event>
<event>
 7    1  0.1020736E-005  0.1477369E+03  0.7546771E-02  0.1212820E+00
          1   -1    0    0  501    0  0.00000000000E+00  0.00000000000E+00  0.12898971293E+04  0.12898971293E+04  0.00000000000E+00 0. -1.
         -1   -1    0    0    0  501 -0.00000000000E+00 -0.00000000000E+00 -0.17424798631E+02  0.17424798631E+02  0.00000000000E+00 0.  1.
         23    2    1    2    0    0 -0.22729910380E+02  0.75394463195E+02  0.29322853893E+03  0.31699642279E+03  0.91119603328E+02 0.  0.
          5    1    1    2  502    0 -0.17838854698E+02 -0.11441151089E+02  0.71688724733E+03  0.71721582530E+03  0.47000000000E+01 0. -1.
         -5    1    1    2    0  502  0.40568765078E+02 -0.63953312106E+02  0.26235654436E+03  0.27310967980E+03  0.47000000000E+01 0. -1.
        -11    1    3    3    0    0 -0.53577905192E+02  0.64404118774E+02  0.24299729425E+03  0.25703339754E+03  0.00000000000E+00 0. -1.
         11    1    3    3    0    0  0.30847994812E+02  0.10990344421E+02  0.50231244690E+02  0.59963025253E+02  0.00000000000E+00 0.  1.
<mgrwt>
<rscale>  0 0.14037891E+03</rscale>
<asrwt>0</asrwt>
<pdfrwt beam="1">  1        1 0.19844564E+00 0.14773694E+03</pdfrwt>
<pdfrwt beam="2">  1       -1 0.26807393E-02 0.14773694E+03</pdfrwt>
<totfact> 0.43544150E+03</totfact>
</mgrwt>
</event>
<event>
 7    1  0.1020736E-005  0.1722341E+03  0.7546771E-02  0.1181854E+00
         -1   -1    0    0    0  501 -0.00000000000E+00  0.00000000000E+00  0.73498723193E+02  0.73498723193E+02  0.00000000000E+00 0.  1.
          1   -1    0    0  501    0  0.00000000000E+00 -0.00000000000E+00 -0.40936530302E+03  0.40936530302E+03  0.00000000000E+00 0. -1.
         23    2    1    2    0    0  0.55653427758E+02  0.10460609962E+03 -0.67379848124E+02  0.16388173709E+03  0.90980435922E+02 0.  0.
          5    1    1    2  502    0 -0.62962725200E+02 -0.12532760825E+03 -0.18312280036E+03  0.23071056362E+03  0.47000000000E+01 0. -1.
         -5    1    1    2    0  502  0.73092974420E+01  0.20721508625E+02 -0.85363931340E+02  0.88271725500E+02  0.47000000000E+01 0. -1.
        -11    1    3    3    0    0  0.33263855342E+02  0.16458070379E+02 -0.62643023895E+02  0.72811404296E+02  0.00000000000E+00 0. -1.
         11    1    3    3    0    0  0.22389572416E+02  0.88148029242E+02 -0.47368242294E+01  0.91070332798E+02  0.00000000000E+00 0.  1.
<mgrwt>
<rscale>  0 0.16621462E+03</rscale>
<asrwt>0</asrwt>
<pdfrwt beam="2">  1        1 0.62979277E-01 0.17223407E+03</pdfrwt>
<pdfrwt beam="1">  1       -1 0.11307496E-01 0.17223407E+03</pdfrwt>
<totfact> 0.29029899E+03</totfact>
</mgrwt>
</event>
<event>
 7    1  0.1020736E-005  0.1325939E+03  0.7546771E-02  0.1236839E+00
         -1   -1    0    0    0  501 -0.00000000000E+00  0.00000000000E+00  0.68037067186E+02  0.68037067186E+02  0.00000000000E+00 0.  1.
          1   -1    0    0  501    0  0.00000000000E+00 -0.00000000000E+00 -0.20792349548E+03  0.20792349548E+03  0.00000000000E+00 0. -1.
         23    2    1    2    0    0  0.44194969299E+02 -0.99330366791E+00 -0.35007054720E+02  0.10690191768E+03  0.90820395067E+02 0.  0.
          5    1    1    2  502    0 -0.20397545866E+02  0.61028890109E+02 -0.33541246474E+02  0.72716507894E+02  0.47000000000E+01 0.  1.
         -5    1    1    2    0  502 -0.23797423433E+02 -0.60035586441E+02 -0.71338127100E+02  0.96342137092E+02  0.47000000000E+01 0.  1.
        -11    1    3    3    0    0 -0.49699627234E+01 -0.38264772989E+02 -0.73014701970E+01  0.39270916063E+02  0.00000000000E+00 0. -1.
         11    1    3    3    0    0  0.49164932022E+02  0.37271469321E+02 -0.27705584523E+02  0.67631001618E+02  0.00000000000E+00 0.  1.
<mgrwt>
<rscale>  0 0.12387427E+03</rscale>
<asrwt>0</asrwt>
<pdfrwt beam="2">  1        1 0.31988229E-01 0.13259390E+03</pdfrwt>
<pdfrwt beam="1">  1       -1 0.10467241E-01 0.13259390E+03</pdfrwt>
<totfact> 0.75019561E+03</totfact>
</mgrwt>
</event>
<event>
 7    1  0.1020736E-005  0.2460775E+03  0.7546771E-02  0.1118302E+00
         -2   -1    0    0    0  501 -0.00000000000E+00  0.00000000000E+00  0.43025019236E+03  0.43025019236E+03  0.00000000000E+00 0.  1.
          2   -1    0    0  501    0  0.00000000000E+00 -0.00000000000E+00 -0.13234240333E+03  0.13234240333E+03  0.00000000000E+00 0. -1.
         23    2    1    2    0    0  0.20075244540E+03 -0.68028984017E+02  0.14802282181E+03  0.27446130074E+03  0.92134482291E+02 0.  0.
          5    1    1    2  502    0 -0.67537103371E+02 -0.16745128118E+02  0.10105705957E+03  0.12278549970E+03  0.47000000000E+01 0.  1.
         -5    1    1    2    0  502 -0.13321534203E+03  0.84774112135E+02  0.48827907648E+02  0.16534579525E+03  0.47000000000E+01 0.  1.
        -11    1    3    3    0    0  0.18396946510E+03 -0.27027544812E+02  0.10976202298E+03  0.21592349098E+03  0.00000000000E+00 0. -1.
         11    1    3    3    0    0  0.16782980300E+02 -0.41001439205E+02  0.38260798824E+02  0.58537809759E+02  0.00000000000E+00 0.  1.
<mgrwt>
<rscale>  0 0.24225076E+03</rscale>
<asrwt>0</asrwt>
<pdfrwt beam="2">  1        2 0.20360370E-01 0.24607751E+03</pdfrwt>
<pdfrwt beam="1">  1       -2 0.66192337E-01 0.24607751E+03</pdfrwt>
<totfact> 0.58526213E+02</totfact>
</mgrwt>
</event>
<event>
 7    1  0.1020736E-005  0.1256408E+03  0.7546771E-02  0.1240995E+00
         -2   -1    0    0    0  501 -0.00000000000E+00  0.00000000000E+00  0.13275911700E+02  0.13275911700E+02  0.00000000000E+00 0.  1.
          2   -1    0    0  501    0  0.00000000000E+00 -0.00000000000E+00 -0.14954701957E+04  0.14954701957E+04  0.00000000000E+00 0. -1.
         23    2    1    2    0    0  0.20731611441E+02  0.56997557282E+02 -0.28817268047E+03  0.30813242651E+03  0.90683941502E+02 0.  0.
          5    1    1    2  502    0 -0.32655269312E+02 -0.44030940626E+02 -0.23258040793E+03  0.23899963703E+03  0.47000000000E+01 0. -1.
         -5    1    1    2    0  502  0.11923657871E+02 -0.12966616657E+02 -0.96144119554E+03  0.96161404381E+03  0.47000000000E+01 0.  1.
        -11    1    3    3    0    0  0.50525229645E+02  0.54048069254E+02 -0.24238329031E+03  0.25342385847E+03  0.00000000000E+00 0. -1.
         11    1    3    3    0    0 -0.29793618204E+02  0.29494880284E+01 -0.45789390162E+02  0.54708568037E+02  0.00000000000E+00 0.  1.
<mgrwt>
<rscale>  0 0.12128332E+03</rscale>
<asrwt>0</asrwt>
<pdfrwt beam="2">  1        2 0.23007227E+00 0.12564084E+03</pdfrwt>
<pdfrwt beam="1">  1       -2 0.20424486E-02 0.12564084E+03</pdfrwt>
<totfact> 0.99919266E+03</totfact>
</mgrwt>
</event>
<event>
 7    1  0.1020736E-005  0.1340518E+03  0.7546771E-02  0.1233257E+00
         -1   -1    0    0    0  501 -0.00000000000E+00  0.00000000000E+00  0.72850067258E+03  0.72850067258E+03  0.00000000000E+00 0.  1.
          1   -1    0    0  501    0  0.00000000000E+00 -0.00000000000E+00 -0.20035810943E+02  0.20035810943E+02  0.00000000000E+00 0. -1.
         23    2    1    2    0    0  0.20962518516E+02  0.43648563359E+02  0.36446156234E+03  0.37933715758E+03  0.93380000204E+02 0.  0.
          5    1    1    2  502    0 -0.61278224024E+02  0.76707528589E+01  0.22529461674E+03  0.23365276699E+03  0.47000000000E+01 0. -1.
         -5    1    1    2    0  502  0.40315705508E+02 -0.51319316218E+02  0.11870868256E+03  0.13554655895E+03  0.47000000000E+01 0. -1.
        -11    1    3    3    0    0 -0.31208575899E+02  0.37839619746E+02  0.22594182627E+03  0.23120450015E+03  0.00000000000E+00 0.  1.
         11    1    3    3    0    0  0.52171094415E+02  0.58089436140E+01  0.13851973607E+03  0.14813265744E+03  0.00000000000E+00 0. -1.
<mgrwt>
<rscale>  0 0.12616695E+03</rscale>
<asrwt>0</asrwt>
<pdfrwt beam="2">  1        1 0.30824330E-02 0.13405175E+03</pdfrwt>
<pdfrwt beam="1">  1       -1 0.11207701E+00 0.13405175E+03</pdfrwt>
<totfact> 0.24620224E+03</totfact>
</mgrwt>
</event>
<event>
 7    1  0.1020736E-005  0.1409729E+03  0.7546771E-02  0.1222272E+00
          1   -1    0    0  501    0  0.00000000000E+00  0.00000000000E+00  0.36115402155E+03  0.36115402155E+03  0.00000000000E+00 0. -1.
         -1   -1    0    0    0  501 -0.00000000000E+00 -0.00000000000E+00 -0.44900708231E+02  0.44900708231E+02  0.00000000000E+00 0.  1.
         23    2    1    2    0    0  0.33863257223E+02  0.55780312858E+02  0.14790737223E+03  0.18647852076E+03  0.92948827055E+02 0.  0.
          5    1    1    2  502    0  0.31946961178E+02  0.18456317944E+02  0.72849568733E+02  0.81794826640E+02  0.47000000000E+01 0.  1.
         -5    1    1    2    0  502 -0.65810218401E+02 -0.74236630802E+02  0.95496372352E+02  0.13778138238E+03  0.47000000000E+01 0.  1.
        -11    1    3    3    0    0 -0.13028543903E+02  0.42289940386E+02  0.12494878681E+03  0.13255331509E+03  0.00000000000E+00 0. -1.
         11    1    3    3    0    0  0.46891801126E+02  0.13490372472E+02  0.22958585419E+02  0.53925205672E+02  0.00000000000E+00 0.  1.
<mgrwt>
<rscale>  0 0.13355665E+03</rscale>
<asrwt>0</asrwt>
<pdfrwt beam="1">  1        1 0.55562155E-01 0.14097289E+03</pdfrwt>
<pdfrwt beam="2">  1       -1 0.69078015E-02 0.14097289E+03</pdfrwt>
<totfact> 0.71273872E+03</totfact>
</mgrwt>
</event>
<event>
 7    1  0.1020736E-005  0.1355893E+03  0.7546771E-02  0.1231220E+00
         -3   -1    0    0    0  501 -0.00000000000E+00  0.00000000000E+00  0.44692698469E+03  0.44692698469E+03  0.00000000000E+00 0.  1.
          3   -1    0    0  501    0  0.00000000000E+00 -0.00000000000E+00 -0.32711216535E+02  0.32711216535E+02  0.00000000000E+00 0. -1.
         23    2    1    2    0    0 -0.52162901854E+02  0.60580854576E+01  0.19223558181E+03  0.21952350898E+03  0.92078137215E+02 0.  0.
          5    1    1    2  502    0  0.11491923565E+02 -0.27920155052E+02 -0.27143713518E+01  0.30676655248E+02  0.47000000000E+01 0.  1.
         -5    1    1    2    0  502  0.40670978289E+02  0.21862069594E+02  0.22469455770E+03  0.22943803700E+03  0.47000000000E+01 0.  1.
        -11    1    3    3    0    0  0.55926051108E-01 -0.30097070887E+02  0.20489510237E+02  0.36409570630E+02  0.00000000000E+00 0. -1.
         11    1    3    3    0    0 -0.52218827905E+02  0.36155156345E+02  0.17174607157E+03  0.18311393835E+03  0.00000000000E+00 0.  1.
<mgrwt>
<rscale>  0 0.12749575E+03</rscale>
<asrwt>0</asrwt>
<pdfrwt beam="2">  1        3 0.50324952E-02 0.13558927E+03</pdfrwt>
<pdfrwt beam="1">  1       -3 0.68757993E-01 0.13558927E+03</pdfrwt>
<totfact> 0.10751993E+03</totfact>
</mgrwt>
</event>
<event>
 7    1  0.1020736E-005  0.2493519E+03  0.7546771E-02  0.1116142E+00
         -1   -1    0    0    0  501 -0.00000000000E+00  0.00000000000E+00  0.25565506485E+03  0.25565506485E+03  0.00000000000E+00 0.  1.
          1   -1    0    0  501    0  0.00000000000E+00 -0.00000000000E+00 -0.25555245164E+03  0.25555245164E+03  0.00000000000E+00 0. -1.
         23    2    1    2    0    0  0.21572837654E+03 -0.37220108285E+01  0.82455984365E+02  0.24860807712E+03  0.91947815858E+02 0.  0.
          5    1    1    2  502    0 -0.84985813354E+02  0.59130774258E+02 -0.12849318995E+02  0.10443290638E+03  0.47000000000E+01 0.  1.
         -5    1    1    2    0  502 -0.13074256319E+03 -0.55408763429E+02 -0.69504052155E+02  0.15816653300E+03  0.47000000000E+01 0.  1.
        -11    1    3    3    0    0  0.20394890027E+03  0.57757165212E+01  0.98492488475E+02  0.22655966788E+03  0.00000000000E+00 0.  1.
         11    1    3    3    0    0  0.11779476274E+02 -0.94977273497E+01 -0.16036504110E+02  0.22048409244E+02  0.00000000000E+00 0. -1.
<mgrwt>
<rscale>  0 0.24556236E+03</rscale>
<asrwt>0</asrwt>
<pdfrwt beam="2">  1        1 0.39315762E-01 0.24935194E+03</pdfrwt>
<pdfrwt beam="1">  1       -1 0.39331549E-01 0.24935194E+03</pdfrwt>
<totfact> 0.68536972E+02</totfact>
</mgrwt>
</event>
<event>
 7    1  0.1020736E-005  0.1302318E+03  0.7546771E-02  0.1242354E+00
         -1   -1    0    0    0  501 -0.00000000000E+00  0.00000000000E+00  0.49049351907E+02  0.49049351907E+02  0.00000000000E+00 0.  1.
          1   -1    0    0  501    0  0.00000000000E+00 -0.00000000000E+00 -0.26162246029E+03  0.26162246029E+03  0.00000000000E+00 0. -1.
         23    2    1    2    0    0  0.33103605927E+02  0.15521468352E+02 -0.75376971223E+02  0.12150758112E+03  0.88009316398E+02 0.  0.
          5    1    1    2  502    0 -0.56504490882E+02  0.16445418687E+02 -0.13709890554E+03  0.14926958560E+03  0.47000000000E+01 0.  1.
         -5    1    1    2    0  502  0.23400884956E+02 -0.31966887039E+02 -0.97231618814E-01  0.39894645476E+02  0.47000000000E+01 0.  1.
        -11    1    3    3    0    0  0.30272107778E+02 -0.13860668611E+02  0.69819483457E+01  0.34018616174E+02  0.00000000000E+00 0.  1.
         11    1    3    3    0    0  0.28314981487E+01  0.29382136963E+02 -0.82358919568E+02  0.87488964943E+02  0.00000000000E+00 0. -1.
<mgrwt>
<rscale>  0 0.12045170E+03</rscale>
<asrwt>0</asrwt>
<pdfrwt beam="2">  1        1 0.40249609E-01 0.13023182E+03</pdfrwt>
<pdfrwt beam="1">  1       -1 0.75460543E-02 0.13023182E+03</pdfrwt>
<totfact> 0.92589269E+03</totfact>
</mgrwt>
</event>
<event>
 7    1  0.1020736E-005  0.1368063E+03  0.7546771E-02  0.1229880E+00
          1   -1    0    0  501    0  0.00000000000E+00  0.00000000000E+00  0.15959961385E+03  0.15959961385E+03  0.00000000000E+00 0. -1.
         -1   -1    0    0    0  501 -0.00000000000E+00 -0.00000000000E+00 -0.97575029677E+02  0.97575029677E+02  0.00000000000E+00 0.  1.
         23    2    1    2    0    0 -0.48649683195E+02 -0.26925538297E+02 -0.20452077455E+01  0.10610871929E+03  0.90349881828E+02 0.  0.
          5    1    1    2  502    0  0.83508479918E+01  0.52148811622E+02  0.83973587515E+02  0.99312076888E+02  0.47000000000E+01 0. -1.
         -5    1    1    2    0  502  0.40298835203E+02 -0.25223273325E+02 -0.19903795601E+02  0.51753847348E+02  0.47000000000E+01 0. -1.
        -11    1    3    3    0    0 -0.53502468762E+02 -0.10460420860E+02  0.35342088293E+02  0.64969206345E+02  0.00000000000E+00 0. -1.
         11    1    3    3    0    0  0.48527855665E+01 -0.16465117437E+02 -0.37387296039E+02  0.41139512941E+02  0.00000000000E+00 0.  1.
<mgrwt>
<rscale>  0 0.12837997E+03</rscale>
<asrwt>0</asrwt>
<pdfrwt beam="1">  1        1 0.24553787E-01 0.13680634E+03</pdfrwt>
<pdfrwt beam="2">  1       -1 0.15011543E-01 0.13680634E+03</pdfrwt>
<totfact> 0.59853368E+03</totfact>
</mgrwt>
</event>
<event>
 7    1  0.1020736E-005  0.1550132E+03  0.7546771E-02  0.1202287E+00
          1   -1    0    0  501    0  0.00000000000E+00  0.00000000000E+00  0.32261522373E+03  0.32261522373E+03  0.00000000000E+00 0. -1.
         -1   -1    0    0    0  501 -0.00000000000E+00 -0.00000000000E+00 -0.79435355216E+02  0.79435355216E+02  0.00000000000E+00 0.  1.
         23    2    1    2    0    0 -0.84444745289E+02  0.35686923294E+02  0.22854414476E+02  0.13265792079E+03  0.93119966639E+02 0.  0.
          5    1    1    2  502    0  0.11056210438E+03 -0.51993356465E+02  0.18986260745E+03  0.22582556930E+03  0.47000000000E+01 0. -1.
         -5    1    1    2    0  502 -0.26117359095E+02  0.16306433171E+02  0.30462846587E+02  0.43567088852E+02  0.47000000000E+01 0. -1.
        -11    1    3    3    0    0 -0.37261442099E+02  0.67438743041E+01  0.56400462206E+02  0.67933107135E+02  0.00000000000E+00 0.  1.
         11    1    3    3    0    0 -0.47183303190E+02  0.28943048989E+02 -0.33546047730E+02  0.64724813657E+02  0.00000000000E+00 0. -1.
<mgrwt>
<rscale>  0 0.14853342E+03</rscale>
<asrwt>0</asrwt>
<pdfrwt beam="1">  1        1 0.49633110E-01 0.15501322E+03</pdfrwt>
<pdfrwt beam="2">  1       -1 0.12220824E-01 0.15501322E+03</pdfrwt>
<totfact> 0.34592890E+03</totfact>
</mgrwt>
</event>
<event>
 7    1  0.1020736E-005  0.1340277E+03  0.7546771E-02  0.1232454E+00
          2   -1    0    0  501    0  0.00000000000E+00  0.00000000000E+00  0.10502317156E+03  0.10502317156E+03  0.00000000000E+00 0. -1.
         -2   -1    0    0    0  501 -0.00000000000E+00 -0.00000000000E+00 -0.14240054650E+03  0.14240054650E+03  0.00000000000E+00 0.  1.
         23    2    1    2    0    0 -0.42719812058E+02  0.22544348927E+02 -0.37557295112E+02  0.11339594656E+03  0.95471777343E+02 0.  0.
          5    1    1    2  502    0  0.16003300566E+02 -0.32916544260E+02 -0.58148558489E+02  0.68869074114E+02  0.47000000000E+01 0. -1.
         -5    1    1    2    0  502  0.26716511492E+02  0.10372195333E+02  0.58328478659E+02  0.65158697386E+02  0.47000000000E+01 0. -1.
        -11    1    3    3    0    0 -0.33824869254E+02  0.50261312554E+02  0.61369481755E+01  0.60893213519E+02  0.00000000000E+00 0. -1.
         11    1    3    3    0    0 -0.88949428047E+01 -0.27716963627E+02 -0.43694243288E+02  0.52502733040E+02  0.00000000000E+00 0.  1.
<mgrwt>
<rscale>  0 0.12668857E+03</rscale>
<asrwt>0</asrwt>
<pdfrwt beam="1">  1        2 0.16157411E-01 0.13402765E+03</pdfrwt>
<pdfrwt beam="2">  1       -2 0.21907776E-01 0.13402765E+03</pdfrwt>
<totfact> 0.60693931E+03</totfact>
</mgrwt>
</event>
<event>
 7    1  0.1020736E-005  0.1455875E+03  0.7546771E-02  0.1219697E+00
          1   -1    0    0  501    0  0.00000000000E+00  0.00000000000E+00  0.13811136652E+03  0.13811136652E+03  0.00000000000E+00 0. -1.
         -1   -1    0    0    0  501 -0.00000000000E+00 -0.00000000000E+00 -0.31984301255E+03  0.31984301255E+03  0.00000000000E+00 0.  1.
         23    2    1    2    0    0 -0.47682009359E+02  0.32996102413E+02 -0.26763394909E+03  0.28891316346E+03  0.92090002313E+02 0.  0.
          5    1    1    2  502    0 -0.38520981707E+02 -0.40738047404E+02  0.49831012859E+02  0.75157663485E+02  0.47000000000E+01 0. -1.
         -5    1    1    2    0  502  0.86202991067E+02  0.77419449912E+01  0.36071290200E+02  0.93883552116E+02  0.47000000000E+01 0.  1.
        -11    1    3    3    0    0  0.25565893556E+02  0.23248884502E+02 -0.96788676884E+02  0.10277243559E+03  0.00000000000E+00 0.  1.
         11    1    3    3    0    0 -0.73247902916E+02  0.97472179109E+01 -0.17084527220E+03  0.18614072787E+03  0.00000000000E+00 0. -1.
<mgrwt>
<rscale>  0 0.13537090E+03</rscale>
<asrwt>0</asrwt>
<pdfrwt beam="1">  1        1 0.21247902E-01 0.14558752E+03</pdfrwt>
<pdfrwt beam="2">  1       -1 0.49206617E-01 0.14558752E+03</pdfrwt>
<totfact> 0.98970403E+02</totfact>
</mgrwt>
</event>
<event>
 7    1  0.1020736E-005  0.2259384E+03  0.7546771E-02  0.1132646E+00
          2   -1    0    0  501    0  0.00000000000E+00  0.00000000000E+00  0.63763696395E+03  0.63763696395E+03  0.00000000000E+00 0. -1.
         -2   -1    0    0    0  501 -0.00000000000E+00 -0.00000000000E+00 -0.87672766882E+02  0.87672766882E+02  0.00000000000E+00 0.  1.
         23    2    1    2    0    0 -0.15569923604E+03 -0.10575172047E+03  0.12445221313E+03  0.24353320842E+03  0.91620913361E+02 0.  0.
          5    1    1    2  502    0  0.89499507232E+02 -0.99931303907E+01  0.20638565652E+03  0.22522689375E+03  0.47000000000E+01 0.  1.
         -5    1    1    2    0  502  0.66199728812E+02  0.11574485087E+03  0.21912632742E+03  0.25654962866E+03  0.47000000000E+01 0.  1.
        -11    1    3    3    0    0 -0.43449469233E+02 -0.23218219527E+02 -0.95987056285E+01  0.50190409885E+02  0.00000000000E+00 0.  1.
         11    1    3    3    0    0 -0.11224976681E+03 -0.82533500947E+02  0.13405091876E+03  0.19334279854E+03  0.00000000000E+00 0. -1.
<mgrwt>
<rscale>  0 0.22166733E+03</rscale>
<asrwt>0</asrwt>
<pdfrwt beam="1">  1        2 0.98097991E-01 0.22593842E+03</pdfrwt>
<pdfrwt beam="2">  1       -2 0.13488118E-01 0.22593842E+03</pdfrwt>
<totfact> 0.19092395E+03</totfact>
</mgrwt>
</event>
<event>
 7    1  0.1020736E-005  0.1357287E+03  0.7546771E-02  0.1237900E+00
          2   -1    0    0  501    0  0.00000000000E+00  0.00000000000E+00  0.48662534434E+03  0.48662534434E+03  0.00000000000E+00 0. -1.
         -2   -1    0    0    0  501 -0.00000000000E+00 -0.00000000000E+00 -0.42509986463E+02  0.42509986463E+02  0.00000000000E+00 0.  1.
         23    2    1    2    0    0  0.11212363376E+02 -0.18626875101E+02  0.35818246195E+02  0.98869357071E+02  0.89551803101E+02 0.  0.
          5    1    1    2  502    0 -0.15036843704E+02 -0.55451228490E+02  0.12986688340E+03  0.14208604018E+03  0.47000000000E+01 0. -1.
         -5    1    1    2    0  502  0.38244803276E+01  0.74078103591E+02  0.27843022829E+03  0.28817993356E+03  0.47000000000E+01 0.  1.
        -11    1    3    3    0    0  0.42821185850E+02 -0.35909169452E+02  0.18252905820E+02  0.58790228604E+02  0.00000000000E+00 0.  1.
         11    1    3    3    0    0 -0.31608822474E+02  0.17282294351E+02  0.17565340374E+02  0.40079128467E+02  0.00000000000E+00 0. -1.
<mgrwt>
<rscale>  0 0.12320584E+03</rscale>
<asrwt>0</asrwt>
<pdfrwt beam="1">  1        2 0.74865434E-01 0.13572869E+03</pdfrwt>
<pdfrwt beam="2">  1       -2 0.65399983E-02 0.13572869E+03</pdfrwt>
<totfact> 0.79461666E+03</totfact>
</mgrwt>
</event>
<event>
 7    1  0.1020736E-005  0.1404956E+03  0.7546771E-02  0.1223661E+00
         -2   -1    0    0    0  501 -0.00000000000E+00  0.00000000000E+00  0.20947145299E+02  0.20947145299E+02  0.00000000000E+00 0. -1.
          2   -1    0    0  501    0  0.00000000000E+00 -0.00000000000E+00 -0.76025781892E+03  0.76025781892E+03  0.00000000000E+00 0.  1.
         23    2    1    2    0    0 -0.53603398445E+02  0.35247815495E+02 -0.30408614350E+03  0.32386547040E+03  0.91130277231E+02 0.  0.
          5    1    1    2  502    0  0.90892043311E+02 -0.20559044710E+02 -0.23037366500E+03  0.24855211402E+03  0.47000000000E+01 0.  1.
         -5    1    1    2    0  502 -0.37288644866E+02 -0.14688770785E+02 -0.20485086512E+03  0.20878737980E+03  0.47000000000E+01 0.  1.
        -11    1    3    3    0    0 -0.72743697030E+02  0.38130205477E+02 -0.28531971347E+03  0.29690553535E+03  0.00000000000E+00 0.  1.
         11    1    3    3    0    0  0.19140298585E+02 -0.28823899819E+01 -0.18766430031E+02  0.26959935052E+02  0.00000000000E+00 0. -1.
<mgrwt>
<rscale>  0 0.13259108E+03</rscale>
<asrwt>0</asrwt>
<pdfrwt beam="2">  1        2 0.11696272E+00 0.14049563E+03</pdfrwt>
<pdfrwt beam="1">  1       -2 0.32226383E-02 0.14049563E+03</pdfrwt>
<totfact> 0.13769698E+04</totfact>
</mgrwt>
</event>
<event>
 7    1  0.1020736E-005  0.2438287E+03  0.7546771E-02  0.1119877E+00
          1   -1    0    0  501    0  0.00000000000E+00  0.00000000000E+00  0.13091091468E+04  0.13091091468E+04  0.00000000000E+00 0. -1.
         -1   -1    0    0    0  501 -0.00000000000E+00 -0.00000000000E+00 -0.46854361059E+02  0.46854361059E+02  0.00000000000E+00 0.  1.
         23    2    1    2    0    0 -0.16956015702E+03 -0.12278547998E+03  0.40778528061E+03  0.46738567768E+03  0.91288639354E+02 0.  0.
          5    1    1    2  502    0  0.16994005799E+03  0.62290132397E+02  0.68685998835E+03  0.71032275586E+03  0.47000000000E+01 0.  1.
         -5    1    1    2    0  502 -0.37990097414E+00  0.60495347586E+02  0.16760951681E+03  0.17825507435E+03  0.47000000000E+01 0.  1.
        -11    1    3    3    0    0 -0.14207368588E+03 -0.88540748018E+02  0.38047363674E+03  0.41567365148E+03  0.00000000000E+00 0.  1.
         11    1    3    3    0    0 -0.27486471139E+02 -0.34244731965E+02  0.27311643871E+02  0.51712026202E+02  0.00000000000E+00 0. -1.
<mgrwt>
<rscale>  0 0.23987299E+03</rscale>
<asrwt>0</asrwt>
<pdfrwt beam="1">  1        1 0.20140138E+00 0.24382868E+03</pdfrwt>
<pdfrwt beam="2">  1       -1 0.72083642E-02 0.24382868E+03</pdfrwt>
<totfact> 0.97443517E+02</totfact>
</mgrwt>
</event>
<event>
 7    1  0.1020736E-005  0.1275772E+03  0.7546771E-02  0.1239652E+00
         -1   -1    0    0    0  501 -0.00000000000E+00  0.00000000000E+00  0.12505207965E+03  0.12505207965E+03  0.00000000000E+00 0.  1.
          1   -1    0    0  501    0  0.00000000000E+00 -0.00000000000E+00 -0.12218271357E+03  0.12218271357E+03  0.00000000000E+00 0. -1.
         23    2    1    2    0    0 -0.35941510102E+01  0.25203430793E+02  0.40085142577E+02  0.11434027498E+03  0.10401321542E+03 0.  0.
          5    1    1    2  502    0 -0.41683911651E+02 -0.56122101342E+02 -0.33710569244E+02  0.77754300385E+02  0.47000000000E+01 0.  1.
         -5    1    1    2    0  502  0.45278062661E+02  0.30918670549E+02 -0.35052072477E+01  0.55140217851E+02  0.47000000000E+01 0.  1.
        -11    1    3    3    0    0 -0.29868713319E+02  0.38754244467E+02 -0.15548268494E+02  0.51339849559E+02  0.00000000000E+00 0. -1.
         11    1    3    3    0    0  0.26274562309E+02 -0.13550813674E+02  0.55633411071E+02  0.63000425421E+02  0.00000000000E+00 0.  1.
<mgrwt>
<rscale>  0 0.12211259E+03</rscale>
<asrwt>0</asrwt>
<pdfrwt beam="2">  1        1 0.18797340E-01 0.12757719E+03</pdfrwt>
<pdfrwt beam="1">  1       -1 0.19238782E-01 0.12757719E+03</pdfrwt>
<totfact> 0.56412264E+03</totfact>
</mgrwt>
</event>
<event>
 7    1  0.1482394E-005  0.2298603E+03  0.7546771E-02  0.1129750E+00
          2   -1    0    0  501    0  0.00000000000E+00  0.00000000000E+00  0.84044993230E+03  0.84044993230E+03  0.00000000000E+00 0. -1.
         -2   -1    0    0    0  501 -0.00000000000E+00 -0.00000000000E+00 -0.59443879225E+02  0.59443879225E+02  0.00000000000E+00 0.  1.
         23    2    1    2    0    0 -0.19283946612E+03 -0.49575942523E+01  0.31812548585E+03  0.38308227082E+03  0.91304786498E+02 0.  0.
          5    1    1    2  502    0  0.70478593605E+02  0.60663462202E+02  0.15486858057E+03  0.18070322369E+03  0.47000000000E+01 0.  1.
         -5    1    1    2    0  502  0.12236087251E+03 -0.55705867950E+02  0.30801198665E+03  0.33610831702E+03  0.47000000000E+01 0.  1.
        -11    1    3    3    0    0 -0.15068120440E+03  0.34337689224E+02  0.24927065594E+03  0.29329125826E+03  0.00000000000E+00 0.  1.
         11    1    3    3    0    0 -0.42158261717E+02 -0.39295283476E+02  0.68854829915E+02  0.89791012563E+02  0.00000000000E+00 0. -1.
<mgrwt>
<rscale>  0 0.22563520E+03</rscale>
<asrwt>0</asrwt>
<pdfrwt beam="1">  1        2 0.12929998E+00 0.22986028E+03</pdfrwt>
<pdfrwt beam="2">  1       -2 0.91452128E-02 0.22986028E+03</pdfrwt>
<totfact> 0.25356244E+03</totfact>
</mgrwt>
</event>
<event>
 7    1  0.1020736E-005  0.1296251E+03  0.7546771E-02  0.1241875E+00
         -1   -1    0    0    0  501 -0.00000000000E+00  0.00000000000E+00  0.11642765374E+02  0.11642765374E+02  0.00000000000E+00 0.  1.
          1   -1    0    0  501    0  0.00000000000E+00 -0.00000000000E+00 -0.11686528818E+04  0.11686528818E+04  0.00000000000E+00 0. -1.
         23    2    1    2    0    0 -0.33637365069E+02  0.67765850432E+01 -0.36855028059E+03  0.38125147958E+03  0.91356373205E+02 0.  0.
          5    1    1    2  502    0  0.67699479297E+02  0.34314901381E+02 -0.46311876208E+03  0.46932058312E+03  0.47000000000E+01 0. -1.
         -5    1    1    2    0  502 -0.34062114228E+02 -0.41091486424E+02 -0.32534107373E+03  0.32972358444E+03  0.47000000000E+01 0. -1.
        -11    1    3    3    0    0 -0.40932282832E+02  0.43611826119E+02 -0.21360529930E+03  0.22182125021E+03  0.00000000000E+00 0.  1.
         11    1    3    3    0    0  0.72949177630E+01 -0.36835241076E+02 -0.15494498128E+03  0.15943022936E+03  0.00000000000E+00 0. -1.
<mgrwt>
<rscale>  0 0.12074405E+03</rscale>
<asrwt>0</asrwt>
<pdfrwt beam="2">  1        1 0.17979277E+00 0.12962511E+03</pdfrwt>
<pdfrwt beam="1">  1       -1 0.17911944E-02 0.12962511E+03</pdfrwt>
<totfact> 0.93808762E+03</totfact>
</mgrwt>
</event>
<event>
 7    1  0.1020736E-005  0.1290301E+03  0.7546771E-02  0.1238217E+00
          2   -1    0    0  501    0  0.00000000000E+00  0.00000000000E+00  0.47920810633E+03  0.47920810633E+03  0.00000000000E+00 0. -1.
         -2   -1    0    0    0  501 -0.00000000000E+00 -0.00000000000E+00 -0.59316513069E+02  0.59316513069E+02  0.00000000000E+00 0.  1.
         23    2    1    2    0    0 -0.43816463451E+02  0.30643576911E+02  0.79750707248E+01  0.10687198680E+03  0.92190609791E+02 0.  0.
          5    1    1    2  502    0  0.70880627651E+02 -0.29403866143E+02  0.38694470920E+03  0.39450849002E+03  0.47000000000E+01 0. -1.
         -5    1    1    2    0  502 -0.27064164200E+02 -0.12397107685E+01  0.24971813331E+02  0.37144142576E+02  0.47000000000E+01 0.  1.
        -11    1    3    3    0    0 -0.22675885453E+02  0.63273456763E+02  0.15806803107E+00  0.67214217970E+02  0.00000000000E+00 0. -1.
         11    1    3    3    0    0 -0.21140577998E+02 -0.32629879852E+02  0.78170026937E+01  0.39657768827E+02  0.00000000000E+00 0.  1.
<mgrwt>
<rscale>  0 0.12300738E+03</rscale>
<asrwt>0</asrwt>
<pdfrwt beam="1">  1        2 0.73724322E-01 0.12903013E+03</pdfrwt>
<pdfrwt beam="2">  1       -2 0.91256177E-02 0.12903013E+03</pdfrwt>
<totfact> 0.48233672E+03</totfact>
</mgrwt>
</event>
<event>
 7    1  0.1020736E-005  0.1327916E+03  0.7546771E-02  0.1243122E+00
          2   -1    0    0  501    0  0.00000000000E+00  0.00000000000E+00  0.92727768028E+02  0.92727768028E+02  0.00000000000E+00 0. -1.
         -2   -1    0    0    0  501 -0.00000000000E+00 -0.00000000000E+00 -0.14282659903E+03  0.14282659903E+03  0.00000000000E+00 0.  1.
         23    2    1    2    0    0  0.14642542272E+01 -0.44814003144E+02 -0.52179568609E+02  0.10274650381E+03  0.76313155788E+02 0.  0.
          5    1    1    2  502    0 -0.60333634942E+02  0.40701398649E+01 -0.41176495703E+01  0.60792751063E+02  0.47000000000E+01 0.  1.
         -5    1    1    2    0  502  0.58869380714E+02  0.40743863279E+02  0.61983871730E+01  0.72015112193E+02  0.47000000000E+01 0.  1.
        -11    1    3    3    0    0 -0.18902988457E+02  0.14699035119E+02 -0.23724076555E+02  0.33707809398E+02  0.00000000000E+00 0.  1.
         11    1    3    3    0    0  0.20367242684E+02 -0.59513038262E+02 -0.28455492054E+02  0.69038694410E+02  0.00000000000E+00 0. -1.
<mgrwt>
<rscale>  0 0.11998494E+03</rscale>
<asrwt>0</asrwt>
<pdfrwt beam="1">  1        2 0.14265811E-01 0.13279156E+03</pdfrwt>
<pdfrwt beam="2">  1       -2 0.21973323E-01 0.13279156E+03</pdfrwt>
<totfact> 0.69793853E+03</totfact>
</mgrwt>
</event>
<event>
 7    1  0.1020736E-005  0.1327051E+03  0.7546771E-02  0.1236357E+00
          1   -1    0    0  501    0  0.00000000000E+00  0.00000000000E+00  0.15815811931E+03  0.15815811931E+03  0.00000000000E+00 0. -1.
         -1   -1    0    0    0  501 -0.00000000000E+00 -0.00000000000E+00 -0.87321743709E+02  0.87321743709E+02  0.00000000000E+00 0.  1.
         23    2    1    2    0    0 -0.39713219065E+02 -0.20240978140E+02  0.39323202085E+02  0.10908438508E+03  0.91467217528E+02 0.  0.
          5    1    1    2  502    0  0.45189645955E+01 -0.20793751961E+02  0.67734124880E+02  0.71153375429E+02  0.47000000000E+01 0. -1.
         -5    1    1    2    0  502  0.35194254469E+02  0.41034730101E+02 -0.36220951363E+02  0.65242102509E+02  0.47000000000E+01 0. -1.
        -11    1    3    3    0    0 -0.12334700345E+02 -0.49918331986E+02 -0.18016120211E+01  0.51451243977E+02  0.00000000000E+00 0.  1.
         11    1    3    3    0    0 -0.27378518720E+02  0.29677353846E+02  0.41124814106E+02  0.57633141107E+02  0.00000000000E+00 0. -1.
<mgrwt>
<rscale>  0 0.12417938E+03</rscale>
<asrwt>0</asrwt>
<pdfrwt beam="1">  1        1 0.24332018E-01 0.13270511E+03</pdfrwt>
<pdfrwt beam="2">  1       -1 0.13434114E-01 0.13270511E+03</pdfrwt>
<totfact> 0.71844837E+03</totfact>
</mgrwt>
</event>
<event>
 7    1  0.1020736E-005  0.1270860E+03  0.7546771E-02  0.1246699E+00
          2   -1    0    0  501    0  0.00000000000E+00  0.00000000000E+00  0.57748530839E+03  0.57748530839E+03  0.00000000000E+00 0. -1.
         -2   -1    0    0    0  501 -0.00000000000E+00 -0.00000000000E+00 -0.21215207705E+02  0.21215207705E+02  0.00000000000E+00 0.  1.
         23    2    1    2    0    0 -0.21349402273E+02 -0.83898952168E+01  0.22034590124E+03  0.23954048351E+03  0.91110590653E+02 0.  0.
          5    1    1    2  502    0 -0.25987322152E+02  0.39734140378E+02  0.25944656303E+03  0.26379680038E+03  0.47000000000E+01 0. -1.
         -5    1    1    2    0  502  0.47336724426E+02 -0.31344245161E+02  0.76477636418E+02  0.95363232203E+02  0.47000000000E+01 0. -1.
        -11    1    3    3    0    0 -0.53654101698E+02  0.77588107789E+01  0.98240496360E+02  0.11220586838E+03  0.00000000000E+00 0.  1.
         11    1    3    3    0    0  0.32304699425E+02 -0.16148705996E+02  0.12210540488E+03  0.12733461513E+03  0.00000000000E+00 0. -1.
<mgrwt>
<rscale>  0 0.11784252E+03</rscale>
<asrwt>0</asrwt>
<pdfrwt beam="1">  1        2 0.88843882E-01 0.12708604E+03</pdfrwt>
<pdfrwt beam="2">  1       -2 0.32638785E-02 0.12708604E+03</pdfrwt>
<totfact> 0.18496245E+04</totfact>
</mgrwt>
</event>
<event>
 7    1  0.1020736E-005  0.1392175E+03  0.7546771E-02  0.1224825E+00
          3   -1    0    0  501    0  0.00000000000E+00  0.00000000000E+00  0.46988417270E+02  0.46988417270E+02  0.00000000000E+00 0. -1.
         -3   -1    0    0    0  501 -0.00000000000E+00 -0.00000000000E+00 -0.34155802699E+03  0.34155802699E+03  0.00000000000E+00 0.  1.
         23    2    1    2    0    0  0.26989375594E+01 -0.61238839584E+02 -0.15776685431E+03  0.19336316144E+03  0.93495733298E+02 0.  0.
          5    1    1    2  502    0 -0.15115153266E+02  0.97660151469E+02 -0.11060003085E+03  0.14839282283E+03  0.47000000000E+01 0. -1.
         -5    1    1    2    0  502  0.12416215707E+02 -0.36421311885E+02 -0.26202724558E+02  0.46790459991E+02  0.47000000000E+01 0. -1.
        -11    1    3    3    0    0  0.72148451494E+01 -0.78148766902E+02 -0.15737252192E+03  0.17585617537E+03  0.00000000000E+00 0.  1.
         11    1    3    3    0    0 -0.45159075900E+01  0.16909927318E+02 -0.39433238873E+00  0.17506986071E+02  0.00000000000E+00 0. -1.
<mgrwt>
<rscale>  0 0.13178912E+03</rscale>
<asrwt>0</asrwt>
<pdfrwt beam="1">  1        3 0.72289872E-02 0.13921753E+03</pdfrwt>
<pdfrwt beam="2">  1       -3 0.52547390E-01 0.13921753E+03</pdfrwt>
<totfact> 0.10529889E+03</totfact>
</mgrwt>
</event>
<event>
 7    1  0.1020736E-005  0.1269262E+03  0.7546771E-02  0.1251356E+00
          2   -1    0    0  501    0  0.00000000000E+00  0.00000000000E+00  0.24734805889E+03  0.24734805889E+03  0.00000000000E+00 0.  1.
         -2   -1    0    0    0  501 -0.00000000000E+00 -0.00000000000E+00 -0.45899258957E+02  0.45899258957E+02  0.00000000000E+00 0. -1.
         23    2    1    2    0    0 -0.21148758546E+02 -0.61862339677E+01  0.74297586585E+02  0.11358740106E+03  0.83044727885E+02 0.  0.
          5    1    1    2  502    0 -0.17582103673E+01 -0.58185603538E+02  0.60686471096E+02  0.84223473787E+02  0.47000000000E+01 0. -1.
         -5    1    1    2    0  502  0.22906968913E+02  0.64371837505E+02  0.66464742249E+02  0.95436442991E+02  0.47000000000E+01 0. -1.
        -11    1    3    3    0    0  0.20389721856E+02 -0.30968769421E+02  0.26410174233E+02  0.45522551992E+02  0.00000000000E+00 0. -1.
         11    1    3    3    0    0 -0.41538480402E+02  0.24782535453E+02  0.47887412352E+02  0.68064849073E+02  0.00000000000E+00 0.  1.
<mgrwt>
<rscale>  0 0.11512905E+03</rscale>
<asrwt>0</asrwt>
<pdfrwt beam="1">  1        2 0.38053547E-01 0.12692618E+03</pdfrwt>
<pdfrwt beam="2">  1       -2 0.70614246E-02 0.12692618E+03</pdfrwt>
<totfact> 0.14466996E+04</totfact>
</mgrwt>
</event>
<event>
 7    1  0.1020736E-005  0.1259659E+03  0.7546771E-02  0.1248441E+00
          1   -1    0    0  501    0  0.00000000000E+00  0.00000000000E+00  0.41701976028E+03  0.41701976028E+03  0.00000000000E+00 0. -1.
         -1   -1    0    0    0  501 -0.00000000000E+00 -0.00000000000E+00 -0.28803131925E+02  0.28803131925E+02  0.00000000000E+00 0.  1.
         23    2    1    2    0    0 -0.12754535034E+02 -0.91434794982E+01  0.16001909840E+03  0.18516696984E+03  0.91839062969E+02 0.  0.
          5    1    1    2  502    0  0.42859551451E+02  0.65002795037E+01  0.16281522611E+02  0.46544309671E+02  0.47000000000E+01 0. -1.
         -5    1    1    2    0  502 -0.30105016417E+02  0.26431999945E+01  0.21191600734E+03  0.21411161269E+03  0.47000000000E+01 0. -1.
        -11    1    3    3    0    0 -0.31082677172E+02  0.11877201786E+02  0.13321979764E+02  0.35842375581E+02  0.00000000000E+00 0.  1.
         11    1    3    3    0    0  0.18328142138E+02 -0.21020681284E+02  0.14669711863E+03  0.14932459426E+03  0.00000000000E+00 0. -1.
<mgrwt>
<rscale>  0 0.11681778E+03</rscale>
<asrwt>0</asrwt>
<pdfrwt beam="1">  1        1 0.64156882E-01 0.12596586E+03</pdfrwt>
<pdfrwt beam="2">  1       -1 0.44312514E-02 0.12596586E+03</pdfrwt>
<totfact> 0.11407843E+04</totfact>
</mgrwt>
</event>
<event>
 7    1  0.1020736E-005  0.1682877E+03  0.7546771E-02  0.1185981E+00
         -1   -1    0    0    0  501 -0.00000000000E+00  0.00000000000E+00  0.28421424083E+03  0.28421424083E+03  0.00000000000E+00 0. -1.
          1   -1    0    0  501    0  0.00000000000E+00 -0.00000000000E+00 -0.96694645747E+02  0.96694645747E+02  0.00000000000E+00 0.  1.
         23    2    1    2    0    0 -0.11266632218E+03 -0.14941740937E-01  0.14823481115E+03  0.20809672795E+03  0.92935399995E+02 0.  0.
          5    1    1    2  502    0  0.37997053442E+02  0.55620141610E+02  0.42062305590E+02  0.79553150626E+02  0.47000000000E+01 0.  1.
         -5    1    1    2    0  502  0.74669268738E+02 -0.55605199869E+02 -0.27775216520E+01  0.93259007998E+02  0.47000000000E+01 0.  1.
        -11    1    3    3    0    0 -0.11896322838E+03  0.15944294649E+02  0.14849549959E+03  0.19093816705E+03  0.00000000000E+00 0. -1.
         11    1    3    3    0    0  0.62969061965E+01 -0.15959236390E+02 -0.26068844475E+00  0.17158560903E+02  0.00000000000E+00 0.  1.
<mgrwt>
<rscale>  0 0.16242949E+03</rscale>
<asrwt>0</asrwt>
<pdfrwt beam="2">  1        1 0.14876099E-01 0.16828769E+03</pdfrwt>
<pdfrwt beam="1">  1       -1 0.43725268E-01 0.16828769E+03</pdfrwt>
<totfact> 0.19453061E+03</totfact>
</mgrwt>
</event>
<event>
 7    1  0.1020736E-005  0.1827161E+03  0.7546771E-02  0.1170525E+00
          2   -1    0    0  501    0  0.00000000000E+00  0.00000000000E+00  0.17081358748E+04  0.17081358748E+04  0.00000000000E+00 0. -1.
         -2   -1    0    0    0  501 -0.00000000000E+00 -0.00000000000E+00 -0.28663903842E+02  0.28663903842E+02  0.00000000000E+00 0.  1.
         23    2    1    2    0    0 -0.63617795308E+02 -0.11710715138E+03  0.26396313943E+03  0.30954702803E+03  0.91550613309E+02 0.  0.
          5    1    1    2  502    0  0.37762736208E+02  0.10216631363E+03  0.52350771635E+03  0.53473956181E+03  0.47000000000E+01 0.  1.
         -5    1    1    2    0  502  0.25855059099E+02  0.14940837756E+02  0.89200111517E+03  0.89251318880E+03  0.47000000000E+01 0.  1.
        -11    1    3    3    0    0 -0.48239237755E+02 -0.25850806705E+02  0.16597762354E+03  0.17476801704E+03  0.00000000000E+00 0. -1.
         11    1    3    3    0    0 -0.15378557553E+02 -0.91256344679E+02  0.97985515892E+02  0.13477901098E+03  0.00000000000E+00 0.  1.
<mgrwt>
<rscale>  0 0.17721547E+03</rscale>
<asrwt>0</asrwt>
<pdfrwt beam="1">  1        2 0.26279006E+00 0.18271607E+03</pdfrwt>
<pdfrwt beam="2">  1       -2 0.44098327E-02 0.18271607E+03</pdfrwt>
<totfact> 0.25111261E+03</totfact>
</mgrwt>
</event>
<event>
 7    1  0.1020736E-005  0.1221706E+03  0.7546771E-02  0.1249344E+00
          2   -1    0    0  501    0  0.00000000000E+00  0.00000000000E+00  0.86536588858E+03  0.86536588858E+03  0.00000000000E+00 0. -1.
         -2   -1    0    0    0  501 -0.00000000000E+00 -0.00000000000E+00 -0.15307985733E+02  0.15307985733E+02  0.00000000000E+00 0.  1.
         23    2    1    2    0    0 -0.32203105831E+02 -0.19166797591E+02  0.27339861377E+03  0.29121514931E+03  0.93032548166E+02 0.  0.
          5    1    1    2  502    0 -0.22249966787E+02  0.49501476496E+02  0.35494948143E+03  0.35910539060E+03  0.47000000000E+01 0. -1.
         -5    1    1    2    0  502  0.54453072618E+02 -0.30334678906E+02  0.22170980765E+03  0.23035333441E+03  0.47000000000E+01 0.  1.
        -11    1    3    3    0    0  0.29783342983E+02 -0.63449488597E+01  0.45962856178E+02  0.55135197862E+02  0.00000000000E+00 0.  1.
         11    1    3    3    0    0 -0.61986448814E+02 -0.12821848731E+02  0.22743575759E+03  0.23607995144E+03  0.00000000000E+00 0. -1.
<mgrwt>
<rscale>  0 0.11629120E+03</rscale>
<asrwt>0</asrwt>
<pdfrwt beam="1">  1        2 0.13313318E+00 0.12217059E+03</pdfrwt>
<pdfrwt beam="2">  1       -2 0.23550754E-02 0.12217059E+03</pdfrwt>
<totfact> 0.18352373E+04</totfact>
</mgrwt>
</event>
<event>
 7    1  0.1020736E-005  0.1545550E+03  0.7546771E-02  0.1203008E+00
          3   -1    0    0  501    0  0.00000000000E+00  0.00000000000E+00  0.20177741681E+03  0.20177741681E+03  0.00000000000E+00 0. -1.
         -3   -1    0    0    0  501 -0.00000000000E+00 -0.00000000000E+00 -0.17577761254E+03  0.17577761254E+03  0.00000000000E+00 0.  1.
         23    2    1    2    0    0 -0.57221652139E+02  0.70635391205E+02 -0.11117585880E+03  0.17090456281E+03  0.92653235481E+02 0.  0.
          5    1    1    2  502    0  0.29938834212E+02 -0.91204168729E+02  0.41017745027E+02  0.10449439982E+03  0.47000000000E+01 0. -1.
         -5    1    1    2    0  502  0.27282817927E+02  0.20568777524E+02  0.96157918048E+02  0.10215606671E+03  0.47000000000E+01 0. -1.
        -11    1    3    3    0    0 -0.34371585458E+02 -0.17604335909E+02 -0.31331363621E+02  0.49728994320E+02  0.00000000000E+00 0. -1.
         11    1    3    3    0    0 -0.22850066681E+02  0.88239727114E+02 -0.79844495183E+02  0.12117556849E+03  0.00000000000E+00 0.  1.
<mgrwt>
<rscale>  0 0.14795574E+03</rscale>
<asrwt>0</asrwt>
<pdfrwt beam="1">  1        3 0.31042679E-01 0.15455502E+03</pdfrwt>
<pdfrwt beam="2">  1       -3 0.27042710E-01 0.15455502E+03</pdfrwt>
<totfact> 0.31038820E+02</totfact>
</mgrwt>
</event>
<event>
 7    1  0.1020736E-005  0.1350988E+03  0.7546771E-02  0.1232610E+00
          4   -1    0    0  501    0  0.00000000000E+00  0.00000000000E+00  0.33884977170E+03  0.33884977170E+03  0.00000000000E+00 0. -1.
         -4   -1    0    0    0  501 -0.00000000000E+00 -0.00000000000E+00 -0.47452570180E+02  0.47452570180E+02  0.00000000000E+00 0.  1.
         23    2    1    2    0    0 -0.51124765926E+02  0.36360371481E+01  0.65295185649E+02  0.12291326066E+03  0.90649026034E+02 0.  0.
          5    1    1    2  502    0 -0.67623504681E+01 -0.33421035852E+02  0.74696300033E+01  0.35221873795E+02  0.47000000000E+01 0.  1.
         -5    1    1    2    0  502  0.57887116394E+02  0.29784998704E+02  0.21863238587E+03  0.22816720743E+03  0.47000000000E+01 0.  1.
        -11    1    3    3    0    0 -0.66637162204E+02 -0.24654847467E+02  0.37573303102E+02  0.80374908996E+02  0.00000000000E+00 0.  1.
         11    1    3    3    0    0  0.15512396278E+02  0.28290884615E+02  0.27721882548E+02  0.42538351667E+02  0.00000000000E+00 0. -1.
<mgrwt>
<rscale>  0 0.12658678E+03</rscale>
<asrwt>0</asrwt>
<pdfrwt beam="1">  1        4 0.52130732E-01 0.13509880E+03</pdfrwt>
<pdfrwt beam="2">  1       -4 0.73003956E-02 0.13509880E+03</pdfrwt>
<totfact> 0.75673014E+02</totfact>
</mgrwt>
</event>
<event>
 7    1  0.1020736E-005  0.1343015E+03  0.7546771E-02  0.1238847E+00
         -1   -1    0    0    0  501 -0.00000000000E+00  0.00000000000E+00  0.23416895546E+02  0.23416895546E+02  0.00000000000E+00 0.  1.
          1   -1    0    0  501    0  0.00000000000E+00 -0.00000000000E+00 -0.57729550486E+03  0.57729550486E+03  0.00000000000E+00 0. -1.
         23    2    1    2    0    0 -0.10363323401E+02 -0.14739235513E+02 -0.16858843616E+03  0.19268616512E+03  0.91549188346E+02 0.  0.
          5    1    1    2  502    0 -0.21118624360E+01 -0.19654252628E+01 -0.38657616263E+03  0.38661549681E+03  0.47000000000E+01 0. -1.
         -5    1    1    2    0  502  0.12475185837E+02  0.16704660776E+02  0.12859894721E+01  0.21410738479E+02  0.47000000000E+01 0.  1.
        -11    1    3    3    0    0 -0.79580333364E+01 -0.51131708804E+02 -0.66390708751E+02  0.84175460488E+02  0.00000000000E+00 0.  1.
         11    1    3    3    0    0 -0.24052900650E+01  0.36392473292E+02 -0.10219772741E+03  0.10851070463E+03  0.00000000000E+00 0. -1.
<mgrwt>
<rscale>  0 0.12261323E+03</rscale>
<asrwt>0</asrwt>
<pdfrwt beam="2">  1        1 0.88814685E-01 0.13430149E+03</pdfrwt>
<pdfrwt beam="1">  1       -1 0.36025996E-02 0.13430149E+03</pdfrwt>
<totfact> 0.10174492E+04</totfact>
</mgrwt>
</event>
<event>
 7    1  0.1020736E-005  0.1280134E+03  0.7546771E-02  0.1243514E+00
         -2   -1    0    0    0  501 -0.00000000000E+00  0.00000000000E+00  0.39107776876E+02  0.39107776876E+02  0.00000000000E+00 0.  1.
          2   -1    0    0  501    0  0.00000000000E+00 -0.00000000000E+00 -0.36402365582E+03  0.36402365582E+03  0.00000000000E+00 0. -1.
         23    2    1    2    0    0  0.21218369154E+02  0.17673785433E+02 -0.78994121152E+02  0.12588616858E+03  0.94046129014E+02 0.  0.
          5    1    1    2  502    0 -0.68397286647E+02 -0.20791047284E+02 -0.19428996299E+03  0.20707760909E+03  0.47000000000E+01 0. -1.
         -5    1    1    2    0  502  0.47178917493E+02  0.31172618510E+01 -0.51631794804E+02  0.70167655026E+02  0.47000000000E+01 0. -1.
        -11    1    3    3    0    0  0.58688982379E+02  0.98461224040E+01 -0.43843629751E+02  0.73916213707E+02  0.00000000000E+00 0. -1.
         11    1    3    3    0    0 -0.37470613225E+02  0.78276630286E+01 -0.35150491401E+02  0.51969954875E+02  0.00000000000E+00 0.  1.
<mgrwt>
<rscale>  0 0.11974750E+03</rscale>
<asrwt>0</asrwt>
<pdfrwt beam="2">  1        2 0.56003637E-01 0.12801338E+03</pdfrwt>
<pdfrwt beam="1">  1       -2 0.60165813E-02 0.12801338E+03</pdfrwt>
<totfact> 0.12268087E+04</totfact>
</mgrwt>
</event>
<event>
 7    1  0.1020736E-005  0.1375288E+03  0.7546771E-02  0.1229168E+00
         -3   -1    0    0    0  501 -0.00000000000E+00  0.00000000000E+00  0.93228515130E+02  0.93228515130E+02  0.00000000000E+00 0.  1.
          3   -1    0    0  501    0  0.00000000000E+00 -0.00000000000E+00 -0.16652518725E+03  0.16652518725E+03  0.00000000000E+00 0. -1.
         23    2    1    2    0    0 -0.25695500312E+02  0.51203442554E+02 -0.47235301446E+01  0.10607723173E+03  0.89151646587E+02 0.  0.
          5    1    1    2  502    0  0.40034411868E+02  0.21119232192E+02 -0.65469097915E+02  0.79731229038E+02  0.47000000000E+01 0. -1.
         -5    1    1    2    0  502 -0.14338911556E+02 -0.72322674745E+02 -0.31040440579E+01  0.73945241608E+02  0.47000000000E+01 0. -1.
        -11    1    3    3    0    0 -0.52368415774E+02  0.16185567481E+02 -0.21625737391E+02  0.58924494763E+02  0.00000000000E+00 0. -1.
         11    1    3    3    0    0  0.26672915462E+02  0.35017875072E+02  0.16902207246E+02  0.47152736969E+02  0.00000000000E+00 0.  1.
<mgrwt>
<rscale>  0 0.12885258E+03</rscale>
<asrwt>0</asrwt>
<pdfrwt beam="2">  1        3 0.25619259E-01 0.13752884E+03</pdfrwt>
<pdfrwt beam="1">  1       -3 0.14342849E-01 0.13752884E+03</pdfrwt>
<totfact> 0.13281129E+03</totfact>
</mgrwt>
</event>
<event>
 7    1  0.1020736E-005  0.1402123E+03  0.7546771E-02  0.1224089E+00
         -1   -1    0    0    0  501 -0.00000000000E+00  0.00000000000E+00  0.12960289486E+03  0.12960289486E+03  0.00000000000E+00 0.  1.
          1   -1    0    0  501    0  0.00000000000E+00 -0.00000000000E+00 -0.15818870689E+03  0.15818870689E+03  0.00000000000E+00 0. -1.
         23    2    1    2    0    0 -0.40994112688E+02 -0.48536277156E+02  0.55586873659E+02  0.12425402979E+03  0.91174974200E+02 0.  0.
          5    1    1    2  502    0 -0.77736833166E+01  0.67192366137E+02 -0.42266708280E+01  0.67935255690E+02  0.47000000000E+01 0.  1.
         -5    1    1    2    0  502  0.48767796005E+02 -0.18656088980E+02 -0.79946014864E+02  0.95602316268E+02  0.47000000000E+01 0.  1.
        -11    1    3    3    0    0 -0.44396817211E+02 -0.20135445185E+02  0.75166399474E+02  0.89590742497E+02  0.00000000000E+00 0.  1.
         11    1    3    3    0    0  0.34027045229E+01 -0.28400831971E+02 -0.19579525816E+02  0.34663287292E+02  0.00000000000E+00 0. -1.
<mgrwt>
<rscale>  0 0.13229528E+03</rscale>
<asrwt>0</asrwt>
<pdfrwt beam="2">  1        1 0.24336724E-01 0.14021233E+03</pdfrwt>
<pdfrwt beam="1">  1       -1 0.19938907E-01 0.14021233E+03</pdfrwt>
<totfact> 0.38640590E+03</totfact>
</mgrwt>
</event>
<event>
 7    1  0.1020736E-005  0.1418344E+03  0.7546771E-02  0.1222646E+00
         -1   -1    0    0    0  501 -0.00000000000E+00  0.00000000000E+00  0.29496374703E+02  0.29496374703E+02  0.00000000000E+00 0.  1.
          1   -1    0    0  501    0  0.00000000000E+00 -0.00000000000E+00 -0.93760455210E+03  0.93760455210E+03  0.00000000000E+00 0. -1.
         23    2    1    2    0    0  0.33936768362E+02 -0.57827849757E+02 -0.10833348477E+03  0.15484693651E+03  0.88009461828E+02 0.  0.
          5    1    1    2  502    0  0.13608269865E+02 -0.22827984468E+02 -0.42773093113E+03  0.42858154571E+03  0.47000000000E+01 0. -1.
         -5    1    1    2    0  502 -0.47545038228E+02  0.80655834225E+02 -0.37204376151E+03  0.38367244458E+03  0.47000000000E+01 0. -1.
        -11    1    3    3    0    0  0.55786363323E+02 -0.64513205112E+02 -0.70523863757E+02  0.11066927002E+03  0.00000000000E+00 0.  1.
         11    1    3    3    0    0 -0.21849594961E+02  0.66853553547E+01 -0.37809621013E+02  0.44177666499E+02  0.00000000000E+00 0. -1.
<mgrwt>
<rscale>  0 0.13329538E+03</rscale>
<asrwt>0</asrwt>
<pdfrwt beam="2">  1        1 0.14424684E+00 0.14183436E+03</pdfrwt>
<pdfrwt beam="1">  1       -1 0.45379043E-02 0.14183436E+03</pdfrwt>
<totfact> 0.35677380E+03</totfact>
</mgrwt>
</event>
<event>
 7    1  0.1020736E-005  0.1749853E+03  0.7546771E-02  0.1178115E+00
         -2   -1    0    0    0  501 -0.00000000000E+00  0.00000000000E+00  0.80826756084E+02  0.80826756084E+02  0.00000000000E+00 0.  1.
          2   -1    0    0  501    0  0.00000000000E+00 -0.00000000000E+00 -0.42774069410E+03  0.42774069410E+03  0.00000000000E+00 0. -1.
         23    2    1    2    0    0  0.11019707305E+02 -0.12195770309E+03 -0.48014973192E+02  0.16221440511E+03  0.94936611908E+02 0.  0.
          5    1    1    2  502    0 -0.35113391573E+01  0.11333487045E+03 -0.30976186878E+03  0.32989638936E+03  0.47000000000E+01 0. -1.
         -5    1    1    2    0  502 -0.75083681473E+01  0.86228326474E+01  0.10862903955E+02  0.16456655718E+02  0.47000000000E+01 0. -1.
        -11    1    3    3    0    0  0.80831162381E+01 -0.10584276371E+03  0.54556238292E+01  0.10629106844E+03  0.00000000000E+00 0.  1.
         11    1    3    3    0    0  0.29365910664E+01 -0.16114939382E+02 -0.53470597021E+02  0.55923336669E+02  0.00000000000E+00 0. -1.
<mgrwt>
<rscale>  0 0.16974452E+03</rscale>
<asrwt>0</asrwt>
<pdfrwt beam="2">  1        2 0.65806261E-01 0.17498526E+03</pdfrwt>
<pdfrwt beam="1">  1       -2 0.12434885E-01 0.17498526E+03</pdfrwt>
<totfact> 0.33896598E+03</totfact>
</mgrwt>
</event>
<event>
 7    1  0.1020736E-005  0.1830728E+03  0.7546771E-02  0.1170070E+00
          1   -1    0    0  501    0  0.00000000000E+00  0.00000000000E+00  0.30470296044E+03  0.30470296044E+03  0.00000000000E+00 0. -1.
         -1   -1    0    0    0  501 -0.00000000000E+00 -0.00000000000E+00 -0.10610088958E+03  0.10610088958E+03  0.00000000000E+00 0.  1.
         23    2    1    2    0    0 -0.94806309155E+02  0.94338281570E+02  0.36947693874E+02  0.16657489562E+03  0.92163529356E+02 0.  0.
          5    1    1    2  502    0  0.22830262868E+02 -0.10021726062E+03  0.12852586702E+03  0.16463811443E+03  0.47000000000E+01 0. -1.
         -5    1    1    2    0  502  0.71976046287E+02  0.58789790488E+01  0.33128509968E+02  0.79590839966E+02  0.47000000000E+01 0. -1.
        -11    1    3    3    0    0 -0.24906543982E+02  0.34284074532E+01  0.45073743226E+02  0.51611357657E+02  0.00000000000E+00 0. -1.
         11    1    3    3    0    0 -0.69899765173E+02  0.90909874117E+02 -0.81260493517E+01  0.11496353796E+03  0.00000000000E+00 0.  1.
<mgrwt>
<rscale>  0 0.17767709E+03</rscale>
<asrwt>0</asrwt>
<pdfrwt beam="1">  1        1 0.46877378E-01 0.18307278E+03</pdfrwt>
<pdfrwt beam="2">  1       -1 0.16323214E-01 0.18307278E+03</pdfrwt>
<totfact> 0.23742418E+03</totfact>
</mgrwt>
</event>
<event>
 7    1  0.1020736E-005  0.1899466E+03  0.7546771E-02  0.1163341E+00
          2   -1    0    0  501    0  0.00000000000E+00  0.00000000000E+00  0.14245925918E+04  0.14245925918E+04  0.00000000000E+00 0. -1.
         -2   -1    0    0    0  501 -0.00000000000E+00 -0.00000000000E+00 -0.46146542678E+02  0.46146542678E+02  0.00000000000E+00 0.  1.
         23    2    1    2    0    0  0.59787740750E+02 -0.12992799406E+03  0.14651929292E+03  0.22425478548E+03  0.91468289756E+02 0.  0.
          5    1    1    2  502    0 -0.94556522253E+02  0.76082426266E+02  0.67266572609E+03  0.68354278618E+03  0.47000000000E+01 0.  1.
         -5    1    1    2    0  502  0.34768781502E+02  0.53845567790E+02  0.55926103008E+03  0.56294156278E+03  0.47000000000E+01 0.  1.
        -11    1    3    3    0    0  0.14078788177E+02 -0.64292198561E+01  0.70547426734E+02  0.72225248793E+02  0.00000000000E+00 0. -1.
         11    1    3    3    0    0  0.45708952573E+02 -0.12349877420E+03  0.75971866184E+02  0.15202953669E+03  0.00000000000E+00 0.  1.
<mgrwt>
<rscale>  0 0.18468843E+03</rscale>
<asrwt>0</asrwt>
<pdfrwt beam="1">  1        2 0.21916806E+00 0.18994657E+03</pdfrwt>
<pdfrwt beam="2">  1       -2 0.70994692E-02 0.18994657E+03</pdfrwt>
<totfact> 0.17131308E+03</totfact>
</mgrwt>
</event>
<event>
 7    1  0.1318481E-005  0.1255136E+03  0.7546771E-02  0.1248371E+00
         -2   -1    0    0    0  501 -0.00000000000E+00  0.00000000000E+00  0.24456779358E+02  0.24456779358E+02  0.00000000000E+00 0.  1.
          2   -1    0    0  501    0  0.00000000000E+00 -0.00000000000E+00 -0.55375712056E+03  0.55375712056E+03  0.00000000000E+00 0. -1.
         23    2    1    2    0    0 -0.92026499389E+01  0.66392874426E+01 -0.13700692307E+03  0.16633068172E+03  0.93628146462E+02 0.  0.
          5    1    1    2  502    0  0.35249723207E+02  0.43220282946E+02 -0.28706008492E+03  0.29246558464E+03  0.47000000000E+01 0.  1.
         -5    1    1    2    0  502 -0.26047073268E+02 -0.49859570389E+02 -0.10523333322E+03  0.11941763356E+03  0.47000000000E+01 0.  1.
        -11    1    3    3    0    0 -0.34635883207E+02  0.36913008862E+02 -0.10044221743E+03  0.11247601376E+03  0.00000000000E+00 0. -1.
         11    1    3    3    0    0  0.25433233268E+02 -0.30273721419E+02 -0.36564705639E+02  0.53854667964E+02  0.00000000000E+00 0.  1.
<mgrwt>
<rscale>  0 0.11685876E+03</rscale>
<asrwt>0</asrwt>
<pdfrwt beam="2">  1        2 0.85193398E-01 0.12551358E+03</pdfrwt>
<pdfrwt beam="1">  1       -2 0.37625817E-02 0.12551358E+03</pdfrwt>
<totfact> 0.15700856E+04</totfact>
</mgrwt>
</event>
<event>
 7    1  0.1020736E-005  0.1271809E+03  0.7546771E-02  0.1240579E+00
          2   -1    0    0  501    0  0.00000000000E+00  0.00000000000E+00  0.17903781007E+03  0.17903781007E+03  0.00000000000E+00 0. -1.
         -2   -1    0    0    0  501 -0.00000000000E+00 -0.00000000000E+00 -0.82145312391E+02  0.82145312391E+02  0.00000000000E+00 0.  1.
         23    2    1    2    0    0  0.14042874530E+02  0.18793866361E+02  0.87251951367E+01  0.10643028037E+03  0.10344497963E+03 0.  0.
          5    1    1    2  502    0 -0.49663213465E+02 -0.34336871977E+01  0.10175975696E+03  0.11338149371E+03  0.47000000000E+01 0. -1.
         -5    1    1    2    0  502  0.35620338936E+02 -0.15360179164E+02 -0.13592454420E+02  0.41371348382E+02  0.47000000000E+01 0. -1.
        -11    1    3    3    0    0 -0.10074728973E+02  0.22624996995E+02 -0.42778445924E+02  0.49430618937E+02  0.00000000000E+00 0.  1.
         11    1    3    3    0    0  0.24117603503E+02 -0.38311306337E+01  0.51503641060E+02  0.56999661430E+02  0.00000000000E+00 0. -1.
<mgrwt>
<rscale>  0 0.12153924E+03</rscale>
<asrwt>0</asrwt>
<pdfrwt beam="1">  1        2 0.27544278E-01 0.12718085E+03</pdfrwt>
<pdfrwt beam="2">  1       -2 0.12637740E-01 0.12718085E+03</pdfrwt>
<totfact> 0.82481648E+03</totfact>
</mgrwt>
</event>
<event>
 7    1  0.1020736E-005  0.1357799E+03  0.7546771E-02  0.1231197E+00
          1   -1    0    0  501    0  0.00000000000E+00  0.00000000000E+00  0.94012527845E+02  0.94012527845E+02  0.00000000000E+00 0. -1.
         -1   -1    0    0    0  501 -0.00000000000E+00 -0.00000000000E+00 -0.17107509252E+03  0.17107509252E+03  0.00000000000E+00 0.  1.
         23    2    1    2    0    0 -0.39835452021E+02 -0.34995527417E+02 -0.74582966335E+02  0.12928509608E+03  0.91326157390E+02 0.  0.
          5    1    1    2  502    0 -0.90824014829E+01  0.70805246567E+02 -0.16461905137E+02  0.73409517631E+02  0.47000000000E+01 0.  1.
         -5    1    1    2    0  502  0.48917853504E+02 -0.35809719149E+02  0.13982306793E+02  0.62393006661E+02  0.47000000000E+01 0.  1.
        -11    1    3    3    0    0 -0.59594156548E+02  0.19242564411E+01 -0.25725577787E+02  0.64938213788E+02  0.00000000000E+00 0. -1.
         11    1    3    3    0    0  0.19758704527E+02 -0.36919783858E+02 -0.48857388548E+02  0.64346882290E+02  0.00000000000E+00 0.  1.
<mgrwt>
<rscale>  0 0.12751044E+03</rscale>
<asrwt>0</asrwt>
<pdfrwt beam="1">  1        1 0.14463466E-01 0.13577989E+03</pdfrwt>
<pdfrwt beam="2">  1       -1 0.26319245E-01 0.13577989E+03</pdfrwt>
<totfact> 0.47699603E+03</totfact>
</mgrwt>
</event>
<event>
 7    1  0.1020736E-005  0.1415183E+03  0.7546771E-02  0.1222203E+00
         -2   -1    0    0    0  501 -0.00000000000E+00  0.00000000000E+00  0.46965165382E+02  0.46965165382E+02  0.00000000000E+00 0.  1.
          2   -1    0    0  501    0  0.00000000000E+00 -0.00000000000E+00 -0.36580601908E+03  0.36580601908E+03  0.00000000000E+00 0. -1.
         23    2    1    2    0    0 -0.29336438544E+02 -0.59513586166E+02 -0.91364008824E+02  0.14486607074E+03  0.90754078578E+02 0.  0.
          5    1    1    2  502    0  0.61773582673E+02  0.24212919352E+02 -0.20350489459E+03  0.21409944676E+03  0.47000000000E+01 0. -1.
         -5    1    1    2    0  502 -0.32437144129E+02  0.35300666814E+02 -0.23971950278E+02  0.53805666959E+02  0.47000000000E+01 0. -1.
        -11    1    3    3    0    0 -0.36531090664E+02  0.11100723029E+02 -0.49309328528E+02  0.62363102205E+02  0.00000000000E+00 0. -1.
         11    1    3    3    0    0  0.71946521199E+01 -0.70614309195E+02 -0.42054680296E+02  0.82502968535E+02  0.00000000000E+00 0.  1.
<mgrwt>
<rscale>  0 0.13360500E+03</rscale>
<asrwt>0</asrwt>
<pdfrwt beam="2">  1        2 0.56277847E-01 0.14151832E+03</pdfrwt>
<pdfrwt beam="1">  1       -2 0.72254104E-02 0.14151832E+03</pdfrwt>
<totfact> 0.93010565E+03</totfact>
</mgrwt>
</event>
<event>
 7    1  0.1020736E-005  0.1417256E+03  0.7546771E-02  0.1223142E+00
         -3   -1    0    0    0  501 -0.00000000000E+00  0.00000000000E+00  0.84975578698E+02  0.84975578698E+02  0.00000000000E+00 0.  1.
          3   -1    0    0  501    0  0.00000000000E+00 -0.00000000000E+00 -0.31438986053E+03  0.31438986053E+03  0.00000000000E+00 0. -1.
         23    2    1    2    0    0  0.24376067987E+02 -0.62191214826E+02  0.20889850701E+02  0.11172278292E+03  0.87084180363E+02 0.  0.
          5    1    1    2  502    0 -0.39081315057E+02 -0.25212635621E+02 -0.49425502866E+02  0.68029379793E+02  0.47000000000E+01 0. -1.
         -5    1    1    2    0  502  0.14705247070E+02  0.87403850446E+02 -0.20087862967E+03  0.21961327652E+03  0.47000000000E+01 0. -1.
        -11    1    3    3    0    0 -0.13644960076E+02 -0.42255247149E+02 -0.23272282575E+02  0.50132723678E+02  0.00000000000E+00 0. -1.
         11    1    3    3    0    0  0.38021028063E+02 -0.19935967677E+02  0.44162133277E+02  0.61590059244E+02  0.00000000000E+00 0.  1.
<mgrwt>
<rscale>  0 0.13295042E+03</rscale>
<asrwt>0</asrwt>
<pdfrwt beam="2">  1        3 0.48367670E-01 0.14172558E+03</pdfrwt>
<pdfrwt beam="1">  1       -3 0.13073166E-01 0.14172558E+03</pdfrwt>
<totfact> 0.46866617E+02</totfact>
</mgrwt>
</event>
<event>
 7    1  0.1020736E-005  0.1490738E+03  0.7546771E-02  0.1210603E+00
         -2   -1    0    0    0  501 -0.00000000000E+00  0.00000000000E+00  0.17147388828E+03  0.17147388828E+03  0.00000000000E+00 0.  1.
          2   -1    0    0  501    0  0.00000000000E+00 -0.00000000000E+00 -0.10783281837E+03  0.10783281837E+03  0.00000000000E+00 0. -1.
         23    2    1    2    0    0 -0.13956004299E+01  0.81216308238E+02  0.28750978347E+02  0.12620440722E+03  0.92211155624E+02 0.  0.
          5    1    1    2  502    0 -0.32093415969E+02 -0.11379478981E+02  0.62014755127E+02  0.70904158862E+02  0.47000000000E+01 0.  1.
         -5    1    1    2    0  502  0.33489016398E+02 -0.69836829256E+02 -0.27124663563E+02  0.82198140571E+02  0.47000000000E+01 0.  1.
        -11    1    3    3    0    0  0.42670707010E+02  0.21732151058E+02  0.19078733052E+02  0.51546810582E+02  0.00000000000E+00 0.  1.
         11    1    3    3    0    0 -0.44066307440E+02  0.59484157179E+02  0.96722452955E+01  0.74657596638E+02  0.00000000000E+00 0. -1.
<mgrwt>
<rscale>  0 0.14204516E+03</rscale>
<asrwt>0</asrwt>
<pdfrwt beam="2">  1        2 0.16589664E-01 0.14907379E+03</pdfrwt>
<pdfrwt beam="1">  1       -2 0.26380598E-01 0.14907379E+03</pdfrwt>
<totfact> 0.42915134E+03</totfact>
</mgrwt>
</event>
<event>
 7    1  0.1020736E-005  0.1419410E+03  0.7546771E-02  0.1221919E+00
         -1   -1    0    0    0  501 -0.00000000000E+00  0.00000000000E+00  0.31789880203E+02  0.31789880203E+02  0.00000000000E+00 0.  1.
          1   -1    0    0  501    0  0.00000000000E+00 -0.00000000000E+00 -0.51450565597E+03  0.51450565597E+03  0.00000000000E+00 0. -1.
         23    2    1    2    0    0 -0.38451549285E+02  0.55163770191E+02 -0.18164544950E+03  0.21344335394E+03  0.89674036579E+02 0.  0.
          5    1    1    2  502    0  0.27890495375E+02 -0.40077054753E+01 -0.27078995024E+03  0.27229254229E+03  0.47000000000E+01 0.  1.
         -5    1    1    2    0  502  0.10561053909E+02 -0.51156064716E+02 -0.30280376027E+02  0.60559639936E+02  0.47000000000E+01 0.  1.
        -11    1    3    3    0    0  0.10617778458E+02  0.64084716530E+01  0.57637565600E+01  0.13675767547E+02  0.00000000000E+00 0.  1.
         11    1    3    3    0    0 -0.49069327742E+02  0.48755298538E+02 -0.18740920606E+03  0.19976758640E+03  0.00000000000E+00 0. -1.
<mgrwt>
<rscale>  0 0.13380349E+03</rscale>
<asrwt>0</asrwt>
<pdfrwt beam="2">  1        1 0.79154714E-01 0.14194095E+03</pdfrwt>
<pdfrwt beam="1">  1       -1 0.48907509E-02 0.14194095E+03</pdfrwt>
<totfact> 0.75896046E+03</totfact>
</mgrwt>
</event>
<event>
 7    1  0.1020736E-005  0.2260911E+03  0.7546771E-02  0.1129422E+00
          1   -1    0    0  501    0  0.00000000000E+00  0.00000000000E+00  0.15705823597E+03  0.15705823597E+03  0.00000000000E+00 0. -1.
         -1   -1    0    0    0  501 -0.00000000000E+00 -0.00000000000E+00 -0.81366578053E+02  0.81366578053E+02  0.00000000000E+00 0.  1.
         23    2    1    2    0    0  0.22887512088E+02  0.23124374941E+02  0.42275693993E+02  0.10500887952E+03  0.90449187666E+02 0.  0.
          5    1    1    2  502    0 -0.46488358143E+02 -0.65204261481E+02  0.26316544756E+02  0.84424011312E+02  0.47000000000E+01 0. -1.
         -5    1    1    2    0  502  0.23600846054E+02  0.42079886540E+02  0.70994191701E+01  0.48991923194E+02  0.47000000000E+01 0. -1.
        -11    1    3    3    0    0  0.34213442314E+02 -0.96914941578E+01 -0.14547586886E+02  0.38420267805E+02  0.00000000000E+00 0.  1.
         11    1    3    3    0    0 -0.11325930226E+02  0.32815869099E+02  0.56823280879E+02  0.66588611715E+02  0.00000000000E+00 0. -1.
<mgrwt>
<rscale>  0 0.22609105E+03</rscale>
<asrwt>0</asrwt>
<pdfrwt beam="1">  1        1 0.24162806E-01 0.22609105E+03</pdfrwt>
<pdfrwt beam="2">  1       -1 0.12517935E-01 0.22609105E+03</pdfrwt>
<totfact> 0.83854574E+03</totfact>
</mgrwt>
</event>
<event>
 7    1  0.1020736E-005  0.1565193E+03  0.7546771E-02  0.1200645E+00
         -2   -1    0    0    0  501 -0.00000000000E+00  0.00000000000E+00  0.15374347907E+02  0.15374347907E+02  0.00000000000E+00 0.  1.
          2   -1    0    0  501    0  0.00000000000E+00 -0.00000000000E+00 -0.22214029389E+04  0.22214029389E+04  0.00000000000E+00 0. -1.
         23    2    1    2    0    0 -0.46242526848E+01 -0.94086570360E+02 -0.34573867567E+03  0.36991444961E+03  0.91803059546E+02 0.  0.
          5    1    1    2  502    0  0.61394584736E+02  0.73468010599E+02 -0.11685952711E+04  0.11725202946E+04  0.47000000000E+01 0. -1.
         -5    1    1    2    0  502 -0.56770332051E+02  0.20618559761E+02 -0.69169464417E+03  0.69434254254E+03  0.47000000000E+01 0. -1.
        -11    1    3    3    0    0  0.39352101675E+02 -0.21458561797E+02 -0.91807091572E+02  0.10216457235E+03  0.00000000000E+00 0.  1.
         11    1    3    3    0    0 -0.43976354360E+02 -0.72628008563E+02 -0.25393158409E+03  0.26774987726E+03  0.00000000000E+00 0. -1.
<mgrwt>
<rscale>  0 0.14986018E+03</rscale>
<asrwt>0</asrwt>
<pdfrwt beam="2">  1        2 0.34175440E+00 0.15651928E+03</pdfrwt>
<pdfrwt beam="1">  1       -2 0.23652836E-02 0.15651928E+03</pdfrwt>
<totfact> 0.34308717E+03</totfact>
</mgrwt>
</event>
<event>
 7    1  0.1020736E-005  0.1430707E+03  0.7546771E-02  0.1219828E+00
          2   -1    0    0  501    0  0.00000000000E+00  0.00000000000E+00  0.43338451864E+03  0.43338451864E+03  0.00000000000E+00 0.  1.
         -2   -1    0    0    0  501 -0.00000000000E+00 -0.00000000000E+00 -0.56569205068E+02  0.56569205068E+02  0.00000000000E+00 0. -1.
         23    2    1    2    0    0  0.66427192097E+01 -0.69283750041E+02  0.35296251362E+02  0.11967749112E+03  0.90733195595E+02 0.  0.
          5    1    1    2  502    0 -0.18757069622E+02  0.10387226180E+03  0.23941520725E+03  0.26169257899E+03  0.47000000000E+01 0.  1.
         -5    1    1    2    0  502  0.12114350412E+02 -0.34588511762E+02  0.10210385496E+03  0.10858365360E+03  0.47000000000E+01 0.  1.
        -11    1    3    3    0    0  0.29540420216E+02 -0.74737151395E+02  0.47305438224E+02  0.93252789292E+02  0.00000000000E+00 0.  1.
         11    1    3    3    0    0 -0.22897701006E+02  0.54534013549E+01 -0.12009186862E+02  0.26424701830E+02  0.00000000000E+00 0. -1.
<mgrwt>
<rscale>  0 0.13527763E+03</rscale>
<asrwt>0</asrwt>
<pdfrwt beam="1">  1        2 0.66674539E-01 0.14307068E+03</pdfrwt>
<pdfrwt beam="2">  1       -2 0.87029549E-02 0.14307068E+03</pdfrwt>
<totfact> 0.58227775E+03</totfact>
</mgrwt>
</event>
<event>
 7    1  0.1020736E-005  0.1236334E+03  0.7546771E-02  0.1247316E+00
          1   -1    0    0  501    0  0.00000000000E+00  0.00000000000E+00  0.24364476501E+03  0.24364476501E+03  0.00000000000E+00 0. -1.
         -1   -1    0    0    0  501 -0.00000000000E+00 -0.00000000000E+00 -0.51688896650E+02  0.51688896650E+02  0.00000000000E+00 0.  1.
         23    2    1    2    0    0  0.40631865369E+02 -0.83057207784E+01  0.84340534986E+02  0.13142431049E+03  0.91864520159E+02 0.  0.
          5    1    1    2  502    0 -0.62315282490E+02  0.81363695524E+01  0.12210567747E+03  0.13740917514E+03  0.47000000000E+01 0. -1.
         -5    1    1    2    0  502  0.21683417121E+02  0.16935122591E+00 -0.14490344098E+02  0.26500176036E+02  0.47000000000E+01 0.  1.
        -11    1    3    3    0    0  0.20322646569E+02  0.26655067153E+02  0.84593213926E+02  0.90991837056E+02  0.00000000000E+00 0.  1.
         11    1    3    3    0    0  0.20309218800E+02 -0.34960787931E+02 -0.25267894060E+00  0.40432473430E+02  0.00000000000E+00 0. -1.
<mgrwt>
<rscale>  0 0.11747848E+03</rscale>
<asrwt>0</asrwt>
<pdfrwt beam="1">  1        1 0.37483809E-01 0.12363339E+03</pdfrwt>
<pdfrwt beam="2">  1       -1 0.79521381E-02 0.12363339E+03</pdfrwt>
<totfact> 0.93052496E+03</totfact>
</mgrwt>
</event>
<event>
 7    1  0.1020736E-005  0.2078746E+03  0.7546771E-02  0.1148120E+00
         -1   -1    0    0    0  501 -0.00000000000E+00  0.00000000000E+00  0.22594112144E+03  0.22594112144E+03  0.00000000000E+00 0.  1.
          1   -1    0    0  501    0  0.00000000000E+00 -0.00000000000E+00 -0.21455672314E+03  0.21455672314E+03  0.00000000000E+00 0. -1.
         23    2    1    2    0    0 -0.15038022554E+03  0.70525523004E+02  0.10467708271E+03  0.21264836849E+03  0.81694402188E+02 0.  0.
          5    1    1    2  502    0  0.91161135817E+02  0.22481493890E+02 -0.63806775192E+02  0.11361850558E+03  0.47000000000E+01 0. -1.
         -5    1    1    2    0  502  0.59219089719E+02 -0.93007016894E+02 -0.29485909222E+02  0.11423097050E+03  0.47000000000E+01 0. -1.
        -11    1    3    3    0    0 -0.60921088512E+02  0.68184871720E+02  0.75328020295E+02  0.11846884147E+03  0.00000000000E+00 0.  1.
         11    1    3    3    0    0 -0.89459137023E+02  0.23406512835E+01  0.29349062418E+02  0.94179527023E+02  0.00000000000E+00 0. -1.
<mgrwt>
<rscale>  0 0.20193089E+03</rscale>
<asrwt>0</asrwt>
<pdfrwt beam="2">  1        1 0.33008727E-01 0.20787462E+03</pdfrwt>
<pdfrwt beam="1">  1       -1 0.34760172E-01 0.20787462E+03</pdfrwt>
<totfact> 0.10587782E+03</totfact>
</mgrwt>
</event>
<event>
 7    1  0.1020736E-005  0.2088622E+03  0.7546771E-02  0.1145041E+00
          1   -1    0    0  501    0  0.00000000000E+00  0.00000000000E+00  0.24620071988E+03  0.24620071988E+03  0.00000000000E+00 0. -1.
         -1   -1    0    0    0  501 -0.00000000000E+00 -0.00000000000E+00 -0.17753095973E+03  0.17753095973E+03  0.00000000000E+00 0.  1.
         23    2    1    2    0    0  0.11380365268E+02  0.16694065691E+03 -0.18818511335E+02  0.19728605076E+03  0.10280541723E+03 0.  0.
          5    1    1    2  502    0  0.10367666631E+02 -0.13434595666E+03  0.11591772364E+03  0.17780701121E+03  0.47000000000E+01 0.  1.
         -5    1    1    2    0  502 -0.21748031899E+02 -0.32594700259E+02 -0.28429452147E+02  0.48638617639E+02  0.47000000000E+01 0.  1.
        -11    1    3    3    0    0  0.46015806038E+02  0.38711497003E+02 -0.23035643993E+02  0.64394683784E+02  0.00000000000E+00 0.  1.
         11    1    3    3    0    0 -0.34635440770E+02  0.12822915991E+03  0.42171326577E+01  0.13289136698E+03  0.00000000000E+00 0. -1.
<mgrwt>
<rscale>  0 0.20567088E+03</rscale>
<asrwt>0</asrwt>
<pdfrwt beam="1">  1        1 0.37877034E-01 0.20886222E+03</pdfrwt>
<pdfrwt beam="2">  1       -1 0.27312455E-01 0.20886222E+03</pdfrwt>
<totfact> 0.13438544E+03</totfact>
</mgrwt>
</event>
<event>
 7    1  0.1020736E-005  0.1261568E+03  0.7546771E-02  0.1249644E+00
         -2   -1    0    0    0  501 -0.00000000000E+00  0.00000000000E+00  0.10568499724E+02  0.10568499724E+02  0.00000000000E+00 0.  1.
          2   -1    0    0  501    0  0.00000000000E+00 -0.00000000000E+00 -0.11270564316E+04  0.11270564316E+04  0.00000000000E+00 0. -1.
         23    2    1    2    0    0 -0.10039463261E+02  0.13925326079E+02 -0.40044948193E+03  0.41055780912E+03  0.88900064803E+02 0.  0.
          5    1    1    2  502    0  0.11155263424E+02  0.53513177908E+02 -0.40962410654E+03  0.41328210556E+03  0.47000000000E+01 0. -1.
         -5    1    1    2    0  502 -0.11158001621E+01 -0.67438503987E+02 -0.30641434343E+03  0.31378501668E+03  0.47000000000E+01 0. -1.
        -11    1    3    3    0    0  0.32136115524E+02  0.30087294837E+02 -0.16237129940E+03  0.16823321342E+03  0.00000000000E+00 0.  1.
         11    1    3    3    0    0 -0.42175578786E+02 -0.16161968758E+02 -0.23807818254E+03  0.24232459570E+03  0.00000000000E+00 0. -1.
<mgrwt>
<rscale>  0 0.11611705E+03</rscale>
<asrwt>0</asrwt>
<pdfrwt beam="2">  1        2 0.17339335E+00 0.12615680E+03</pdfrwt>
<pdfrwt beam="1">  1       -2 0.16259225E-02 0.12615680E+03</pdfrwt>
<totfact> 0.21934075E+04</totfact>
</mgrwt>
</event>
<event>
 7    1  0.1020736E-005  0.1331386E+03  0.7546771E-02  0.1235896E+00
          4   -1    0    0  501    0  0.00000000000E+00  0.00000000000E+00  0.43930335770E+03  0.43930335770E+03  0.00000000000E+00 0.  1.
         -4   -1    0    0    0  501 -0.00000000000E+00 -0.00000000000E+00 -0.33151472423E+02  0.33151472423E+02  0.00000000000E+00 0. -1.
         23    2    1    2    0    0 -0.27498005274E+02 -0.36662059004E+02  0.12333694907E+03  0.15986856860E+03  0.90805888330E+02 0.  0.
          5    1    1    2  502    0  0.49411996792E+02 -0.26130071796E+02  0.70754248633E+02  0.90291637368E+02  0.47000000000E+01 0.  1.
         -5    1    1    2    0  502 -0.21913991518E+02  0.62792130800E+02  0.21206068757E+03  0.22229462415E+03  0.47000000000E+01 0.  1.
        -11    1    3    3    0    0  0.21378154310E+02 -0.24942738680E+02  0.76423116052E+01  0.33727890850E+02  0.00000000000E+00 0. -1.
         11    1    3    3    0    0 -0.48876159584E+02 -0.11719320325E+02  0.11569463747E+03  0.12614067775E+03  0.00000000000E+00 0.  1.
<mgrwt>
<rscale>  0 0.12447275E+03</rscale>
<asrwt>0</asrwt>
<pdfrwt beam="1">  1        4 0.67585128E-01 0.13313858E+03</pdfrwt>
<pdfrwt beam="2">  1       -4 0.51002268E-02 0.13313858E+03</pdfrwt>
<totfact> 0.78474067E+02</totfact>
</mgrwt>
</event>
<event>
 7    1  0.1020736E-005  0.1618972E+03  0.7546771E-02  0.1193631E+00
         -1   -1    0    0    0  501 -0.00000000000E+00  0.00000000000E+00  0.61176055719E+02  0.61176055719E+02  0.00000000000E+00 0.  1.
          1   -1    0    0  501    0  0.00000000000E+00 -0.00000000000E+00 -0.39168355786E+03  0.39168355786E+03  0.00000000000E+00 0. -1.
         23    2    1    2    0    0  0.77068227195E+02  0.68166928738E+02 -0.20770244081E+03  0.24965578967E+03  0.92744097272E+02 0.  0.
          5    1    1    2  502    0 -0.62369794096E+02 -0.10409193616E+03 -0.10368402044E+03  0.15967964330E+03  0.47000000000E+01 0. -1.
         -5    1    1    2    0  502 -0.14698433099E+02  0.35925007418E+02 -0.19121040886E+02  0.43524180615E+02  0.47000000000E+01 0. -1.
        -11    1    3    3    0    0  0.39620017397E+02  0.22671495130E+01 -0.14728654565E+02  0.42329883189E+02  0.00000000000E+00 0.  1.
         11    1    3    3    0    0  0.37448209798E+02  0.65899779225E+02 -0.19297378625E+03  0.20732590648E+03  0.00000000000E+00 0. -1.
<mgrwt>
<rscale>  0 0.15570675E+03</rscale>
<asrwt>0</asrwt>
<pdfrwt beam="2">  1        1 0.60259008E-01 0.16189722E+03</pdfrwt>
<pdfrwt beam="1">  1       -1 0.94117010E-02 0.16189722E+03</pdfrwt>
<totfact> 0.40607736E+03</totfact>
</mgrwt>
</event>
<event>
 6    1  0.2211293E-005  0.1473461E+03  0.7546771E-02  0.1232036E+00
          1   -1    0    0  501    0  0.00000000000E+00  0.00000000000E+00  0.11480042501E+04  0.11480042501E+04  0.00000000000E+00 0. -1.
         -1   -1    0    0    0  501 -0.00000000000E+00 -0.00000000000E+00 -0.11466556951E+02  0.11466556951E+02  0.00000000000E+00 0.  1.
          5    1    1    2  502    0  0.40430581820E+02  0.70126311858E+02  0.27710756253E+03  0.28872655363E+03  0.47000000000E+01 0.  1.
         -5    1    1    2    0  502 -0.45888431126E+02  0.77008325222E+01  0.50337955703E+03  0.50554734632E+03  0.47000000000E+01 0.  1.
        -11    1    1    2    0    0  0.10850287532E+02 -0.36732316118E+02  0.13667395991E+03  0.14193929373E+03  0.00000000000E+00 0. -1.
         11    1    1    2    0    0 -0.53924382256E+01 -0.41094828262E+02  0.21937661372E+03  0.22325761341E+03  0.00000000000E+00 0.  1.
<mgrwt>
<rscale>  0 0.12696104E+03</rscale>
<asrwt>0</asrwt>
<pdfrwt beam="1">  1        1 0.17661595E+00 0.14734614E+03</pdfrwt>
<pdfrwt beam="2">  1       -1 0.17640866E-02 0.14734614E+03</pdfrwt>
<totfact> 0.99775578E+03</totfact>
</mgrwt>
</event>
<event>
 7    1  0.1020736E-005  0.1376217E+03  0.7546771E-02  0.1228646E+00
          3   -1    0    0  501    0  0.00000000000E+00  0.00000000000E+00  0.10919480656E+03  0.10919480656E+03  0.00000000000E+00 0. -1.
         -3   -1    0    0    0  501 -0.00000000000E+00 -0.00000000000E+00 -0.13720238917E+03  0.13720238917E+03  0.00000000000E+00 0.  1.
         23    2    1    2    0    0  0.53057111859E+02  0.22346860432E+02 -0.64863771662E+01  0.10710296295E+03  0.90080698789E+02 0.  0.
          5    1    1    2  502    0  0.10605695747E+02 -0.61573795935E+02 -0.11460697862E+02  0.63696551898E+02  0.47000000000E+01 0.  1.
         -5    1    1    2    0  502 -0.63662807606E+02  0.39226935504E+02 -0.10060507582E+02  0.75597680877E+02  0.47000000000E+01 0.  1.
        -11    1    3    3    0    0  0.26587146199E+02 -0.33021552325E+02 -0.15366334122E+02  0.45093497151E+02  0.00000000000E+00 0.  1.
         11    1    3    3    0    0  0.26469965659E+02  0.55368412757E+02  0.88799569559E+01  0.62009465800E+02  0.00000000000E+00 0. -1.
<mgrwt>
<rscale>  0 0.12920103E+03</rscale>
<asrwt>0</asrwt>
<pdfrwt beam="1">  1        3 0.16799201E-01 0.13762166E+03</pdfrwt>
<pdfrwt beam="2">  1       -3 0.21108060E-01 0.13762166E+03</pdfrwt>
<totfact> 0.14326467E+03</totfact>
</mgrwt>
</event>
<event>
 7    1  0.1020736E-005  0.1517763E+03  0.7546771E-02  0.1207035E+00
         -1   -1    0    0    0  501 -0.00000000000E+00  0.00000000000E+00  0.16047641058E+03  0.16047641058E+03  0.00000000000E+00 0.  1.
          1   -1    0    0  501    0  0.00000000000E+00 -0.00000000000E+00 -0.12213986463E+03  0.12213986463E+03  0.00000000000E+00 0. -1.
         23    2    1    2    0    0  0.85799262311E+02 -0.70482771980E+01  0.36348261525E+02  0.13082692845E+03  0.91560348769E+02 0.  0.
          5    1    1    2  502    0  0.28154103681E+02  0.17282455582E+02 -0.13969582683E+02  0.36174245885E+02  0.47000000000E+01 0. -1.
         -5    1    1    2    0  502 -0.11395336599E+03 -0.10234178384E+02  0.15957867109E+02  0.11561510088E+03  0.47000000000E+01 0. -1.
        -11    1    3    3    0    0  0.46876552563E+02 -0.47286984328E+02  0.52620469452E+01  0.66791909728E+02  0.00000000000E+00 0.  1.
         11    1    3    3    0    0  0.38922709747E+02  0.40238707130E+02  0.31086214580E+02  0.64035018720E+02  0.00000000000E+00 0. -1.
<mgrwt>
<rscale>  0 0.14478255E+03</rscale>
<asrwt>0</asrwt>
<pdfrwt beam="2">  1        1 0.18790748E-01 0.15177632E+03</pdfrwt>
<pdfrwt beam="1">  1       -1 0.24688679E-01 0.15177632E+03</pdfrwt>
<totfact> 0.38070698E+03</totfact>
</mgrwt>
</event>
<event>
 7    1  0.1020736E-005  0.1555498E+03  0.7546771E-02  0.1202764E+00
          1   -1    0    0  501    0  0.00000000000E+00  0.00000000000E+00  0.69888135128E+03  0.69888135128E+03  0.00000000000E+00 0. -1.
         -1   -1    0    0    0  501 -0.00000000000E+00 -0.00000000000E+00 -0.30943317673E+02  0.30943317673E+02  0.00000000000E+00 0.  1.
         23    2    1    2    0    0 -0.49550532564E+02  0.78200922421E+02  0.40030959258E+03  0.42027546611E+03  0.88391503889E+02 0.  0.
          5    1    1    2  502    0 -0.17588714575E+02 -0.23876571291E+02  0.19296898584E+03  0.19529099578E+03  0.47000000000E+01 0.  1.
         -5    1    1    2    0  502  0.67139247139E+02 -0.54324351130E+02  0.74659455195E+02  0.11425820707E+03  0.47000000000E+01 0.  1.
        -11    1    3    3    0    0 -0.11307703308E+01  0.71983710215E+02  0.16607416472E+03  0.18100707545E+03  0.00000000000E+00 0.  1.
         11    1    3    3    0    0 -0.48419762233E+02  0.62172122062E+01  0.23423542786E+03  0.23926839066E+03  0.00000000000E+00 0. -1.
<mgrwt>
<rscale>  0 0.14815063E+03</rscale>
<asrwt>0</asrwt>
<pdfrwt beam="1">  1        1 0.10752020E+00 0.15554976E+03</pdfrwt>
<pdfrwt beam="2">  1       -1 0.47605109E-02 0.15554976E+03</pdfrwt>
<totfact> 0.52198060E+03</totfact>
</mgrwt>
</event>
<event>
 7    1  0.1020736E-005  0.1313640E+03  0.7546771E-02  0.1238508E+00
         -2   -1    0    0    0  501 -0.00000000000E+00  0.00000000000E+00  0.19561068030E+02  0.19561068030E+02  0.00000000000E+00 0.  1.
          2   -1    0    0  501    0  0.00000000000E+00 -0.00000000000E+00 -0.75368953258E+03  0.75368953258E+03  0.00000000000E+00 0. -1.
         23    2    1    2    0    0 -0.91993990512E+01  0.39325728157E+02 -0.20787946147E+03  0.23085358656E+03  0.91914993818E+02 0.  0.
          5    1    1    2  502    0  0.38494311710E+02 -0.22860799728E+02 -0.49245211516E+03  0.49450541344E+03  0.47000000000E+01 0.  1.
         -5    1    1    2    0  502 -0.29294912659E+02 -0.16464928429E+02 -0.33796887922E+02  0.47891600611E+02  0.47000000000E+01 0.  1.
        -11    1    3    3    0    0  0.16918814181E+02  0.10945112613E+02 -0.75078727913E+00  0.20164459947E+02  0.00000000000E+00 0.  1.
         11    1    3    3    0    0 -0.26118213232E+02  0.28380615543E+02 -0.20712867419E+03  0.21068912662E+03  0.00000000000E+00 0. -1.
<mgrwt>
<rscale>  0 0.12282514E+03</rscale>
<asrwt>0</asrwt>
<pdfrwt beam="2">  1        2 0.11595222E+00 0.13136403E+03</pdfrwt>
<pdfrwt beam="1">  1       -2 0.30093956E-02 0.13136403E+03</pdfrwt>
<totfact> 0.15318404E+04</totfact>
</mgrwt>
</event>
<event>
 7    1  0.1020736E-005  0.2475598E+03  0.7546771E-02  0.1117417E+00
          2   -1    0    0  501    0  0.00000000000E+00  0.00000000000E+00  0.23929469813E+04  0.23929469813E+04  0.00000000000E+00 0.  1.
         -2   -1    0    0    0  501 -0.00000000000E+00 -0.00000000000E+00 -0.28442253184E+02  0.28442253184E+02  0.00000000000E+00 0. -1.
         23    2    1    2    0    0 -0.21262159922E+03  0.21282002241E+02  0.67375544042E+03  0.71261218909E+03  0.90602817116E+02 0.  0.
          5    1    1    2  502    0 -0.10679976221E+02  0.16905294015E+02  0.11517086461E+03  0.11698832811E+03  0.47000000000E+01 0.  1.
         -5    1    1    2    0  502  0.22330157544E+03 -0.38187296257E+02  0.15755784231E+04  0.15917887173E+04  0.47000000000E+01 0.  1.
        -11    1    3    3    0    0 -0.11785630941E+03  0.98773794675E+01  0.50566777327E+03  0.51931451859E+03  0.00000000000E+00 0.  1.
         11    1    3    3    0    0 -0.94765289808E+02  0.11404622774E+02  0.16808766715E+03  0.19329767050E+03  0.00000000000E+00 0. -1.
<mgrwt>
<rscale>  0 0.24360049E+03</rscale>
<asrwt>0</asrwt>
<pdfrwt beam="1">  1        2 0.36814553E+00 0.24755976E+03</pdfrwt>
<pdfrwt beam="2">  1       -2 0.43757331E-02 0.24755976E+03</pdfrwt>
<totfact> 0.11040109E+03</totfact>
</mgrwt>
</event>
<event>
 7    1  0.1020736E-005  0.1270609E+03  0.7546771E-02  0.1246557E+00
         -2   -1    0    0    0  501 -0.00000000000E+00  0.00000000000E+00  0.22780603952E+02  0.22780603952E+02  0.00000000000E+00 0. -1.
          2   -1    0    0  501    0  0.00000000000E+00 -0.00000000000E+00 -0.61395535575E+03  0.61395535575E+03  0.00000000000E+00 0.  1.
         23    2    1    2    0    0  0.72072377255E+01  0.21562661416E+02 -0.14608944232E+03  0.17386945127E+03  0.91496274708E+02 0.  0.
          5    1    1    2  502    0  0.42407943955E+01 -0.30578573162E+02 -0.19097866092E+02  0.36603988348E+02  0.47000000000E+01 0. -1.
         -5    1    1    2    0  502 -0.11448032121E+02  0.90159117469E+01 -0.42598744339E+03  0.42626252008E+03  0.47000000000E+01 0. -1.
        -11    1    3    3    0    0  0.24597003494E+02 -0.14017511576E+02 -0.68776550617E+01  0.29134264205E+02  0.00000000000E+00 0. -1.
         11    1    3    3    0    0 -0.17389765768E+02  0.35580172992E+02 -0.13921178726E+03  0.14473518707E+03  0.00000000000E+00 0.  1.
<mgrwt>
<rscale>  0 0.11792673E+03</rscale>
<asrwt>0</asrwt>
<pdfrwt beam="2">  1        2 0.94454669E-01 0.12706090E+03</pdfrwt>
<pdfrwt beam="1">  1       -2 0.35047084E-02 0.12706090E+03</pdfrwt>
<totfact> 0.15537650E+04</totfact>
</mgrwt>
</event>
<event>
 6    1  0.1020736E-005  0.2681031E+03  0.7546771E-02  0.1132296E+00
         -2   -1    0    0    0  501 -0.00000000000E+00  0.00000000000E+00  0.13539138552E+03  0.13539138552E+03  0.00000000000E+00 0.  1.
          2   -1    0    0  501    0  0.00000000000E+00 -0.00000000000E+00 -0.33092307754E+03  0.33092307754E+03  0.00000000000E+00 0. -1.
          5    1    1    2  502    0  0.50292266521E+02 -0.53056543481E+02 -0.22117647364E+03  0.23299234187E+03  0.47000000000E+01 0. -1.
         -5    1    1    2    0  502  0.67435259916E+02  0.81033022939E+02  0.13161346058E+02  0.10634461019E+03  0.47000000000E+01 0.  1.
        -11    1    1    2    0    0 -0.10011390425E+03 -0.91839835167E+01  0.11656025944E+02  0.10120771867E+03  0.00000000000E+00 0.  1.
         11    1    1    2    0    0 -0.17613622188E+02 -0.18792495942E+02  0.82740961085E+00  0.25769792335E+02  0.00000000000E+00 0. -1.
<mgrwt>
<rscale>  0 0.22214208E+03</rscale>
<asrwt>0</asrwt>
<pdfrwt beam="2">  1        2 0.50911242E-01 0.26810310E+03</pdfrwt>
<pdfrwt beam="1">  1       -2 0.20829444E-01 0.26810310E+03</pdfrwt>
<totfact> 0.19203478E+03</totfact>
</mgrwt>
</event>
<event>
 7    1  0.1020736E-005  0.1322178E+03  0.7546771E-02  0.1237836E+00
         -2   -1    0    0    0  501 -0.00000000000E+00  0.00000000000E+00  0.12085373943E+02  0.12085373943E+02  0.00000000000E+00 0. -1.
          2   -1    0    0  501    0  0.00000000000E+00 -0.00000000000E+00 -0.11143994086E+04  0.11143994086E+04  0.00000000000E+00 0.  1.
         23    2    1    2    0    0  0.96277826579E+01  0.41987603258E+02 -0.46115432081E+03  0.47183424721E+03  0.90047744062E+02 0.  0.
          5    1    1    2  502    0  0.42441653337E+01  0.42921903923E+02 -0.28085717791E+03  0.28418857676E+03  0.47000000000E+01 0. -1.
         -5    1    1    2    0  502 -0.13871947992E+02 -0.84909507181E+02 -0.36030253599E+03  0.37046195863E+03  0.47000000000E+01 0. -1.
        -11    1    3    3    0    0 -0.13300849088E+02  0.65463206027E+02 -0.29470085925E+03  0.30217700173E+03  0.00000000000E+00 0.  1.
         11    1    3    3    0    0  0.22928631746E+02 -0.23475602769E+02 -0.16645346156E+03  0.16965724548E+03  0.00000000000E+00 0. -1.
<mgrwt>
<rscale>  0 0.12324605E+03</rscale>
<asrwt>0</asrwt>
<pdfrwt beam="2">  1        2 0.17144617E+00 0.13221779E+03</pdfrwt>
<pdfrwt beam="1">  1       -2 0.18592871E-02 0.13221779E+03</pdfrwt>
<totfact> 0.18432846E+04</totfact>
</mgrwt>
</event>
<event>
 7    1  0.1020736E-005  0.1658283E+03  0.7546771E-02  0.1189189E+00
         -1   -1    0    0    0  501 -0.00000000000E+00  0.00000000000E+00  0.15302337761E+02  0.15302337761E+02  0.00000000000E+00 0.  1.
          1   -1    0    0  501    0  0.00000000000E+00 -0.00000000000E+00 -0.15653093493E+04  0.15653093493E+04  0.00000000000E+00 0. -1.
         23    2    1    2    0    0  0.53387169341E+02  0.94987988418E+02 -0.63734753185E+03  0.65300920724E+03  0.91303015225E+02 0.  0.
          5    1    1    2  502    0 -0.93192952617E+02 -0.58615158223E+02 -0.66796013452E+03  0.67698854827E+03  0.47000000000E+01 0.  1.
         -5    1    1    2    0  502  0.39805783276E+02 -0.36372830195E+02 -0.24469934518E+03  0.25061393155E+03  0.47000000000E+01 0.  1.
        -11    1    3    3    0    0  0.70144893299E+02  0.33352788220E+02 -0.37968073357E+03  0.38754377041E+03  0.00000000000E+00 0.  1.
         11    1    3    3    0    0 -0.16757723958E+02  0.61635200198E+02 -0.25766679828E+03  0.26546543683E+03  0.00000000000E+00 0. -1.
<mgrwt>
<rscale>  0 0.15956497E+03</rscale>
<asrwt>0</asrwt>
<pdfrwt beam="2">  1        1 0.24081700E+00 0.16582833E+03</pdfrwt>
<pdfrwt beam="1">  1       -1 0.23542041E-02 0.16582833E+03</pdfrwt>
<totfact> 0.34735466E+03</totfact>
</mgrwt>
</event>
<event>
 7    1  0.1020736E-005  0.1414646E+03  0.7546771E-02  0.1222239E+00
          2   -1    0    0  501    0  0.00000000000E+00  0.00000000000E+00  0.56310181077E+03  0.56310181077E+03  0.00000000000E+00 0.  1.
         -2   -1    0    0    0  501 -0.00000000000E+00 -0.00000000000E+00 -0.29471253665E+02  0.29471253665E+02  0.00000000000E+00 0. -1.
         23    2    1    2    0    0  0.51790472150E+02 -0.41280104401E+02  0.18739404996E+03  0.21855174358E+03  0.90895734977E+02 0.  0.
          5    1    1    2  502    0 -0.35097133683E+02  0.85012607943E+02  0.19532049877E+03  0.21594244498E+03  0.47000000000E+01 0.  1.
         -5    1    1    2    0  502 -0.16693338467E+02 -0.43732503542E+02  0.15091600837E+03  0.15807887587E+03  0.47000000000E+01 0.  1.
        -11    1    3    3    0    0  0.66480349941E+02 -0.59273361731E+02  0.14360580009E+03  0.16898400563E+03  0.00000000000E+00 0.  1.
         11    1    3    3    0    0 -0.14689877791E+02  0.17993257330E+02  0.43788249874E+02  0.49567737954E+02  0.00000000000E+00 0. -1.
<mgrwt>
<rscale>  0 0.13357955E+03</rscale>
<asrwt>0</asrwt>
<pdfrwt beam="1">  1        2 0.86631040E-01 0.14146459E+03</pdfrwt>
<pdfrwt beam="2">  1       -2 0.45340394E-02 0.14146459E+03</pdfrwt>
<totfact> 0.11782349E+04</totfact>
</mgrwt>
</event>
<event>
 7    1  0.1020736E-005  0.1445794E+03  0.7546771E-02  0.1211588E+00
          3   -1    0    0  501    0  0.00000000000E+00  0.00000000000E+00  0.15558316977E+03  0.15558316977E+03  0.00000000000E+00 0. -1.
         -3   -1    0    0    0  501 -0.00000000000E+00 -0.00000000000E+00 -0.12343762769E+03  0.12343762769E+03  0.00000000000E+00 0.  1.
         23    2    1    2    0    0  0.30493903939E+02 -0.65934057245E+02  0.56237550930E+01  0.13202896837E+03  0.11010378642E+03 0.  0.
          5    1    1    2  502    0  0.42892112428E+02  0.15175320273E+02 -0.15440743350E+02  0.48275565343E+02  0.47000000000E+01 0. -1.
         -5    1    1    2    0  502 -0.73386016368E+02  0.50758736971E+02  0.41962530333E+02  0.98716263752E+02  0.47000000000E+01 0. -1.
        -11    1    3    3    0    0  0.47722281423E+02 -0.13371897664E+02  0.42717231507E+02  0.65429241620E+02  0.00000000000E+00 0. -1.
         11    1    3    3    0    0 -0.17228377483E+02 -0.52562159581E+02 -0.37093476414E+02  0.66599726748E+02  0.00000000000E+00 0.  1.
<mgrwt>
<rscale>  0 0.14130205E+03</rscale>
<asrwt>0</asrwt>
<pdfrwt beam="1">  1        3 0.23935872E-01 0.14457936E+03</pdfrwt>
<pdfrwt beam="2">  1       -3 0.18990404E-01 0.14457936E+03</pdfrwt>
<totfact> 0.93180358E+02</totfact>
</mgrwt>
</event>
<event>
 7    1  0.1020736E-005  0.1673751E+03  0.7546771E-02  0.1186194E+00
          2   -1    0    0  501    0  0.00000000000E+00  0.00000000000E+00  0.11086216471E+03  0.11086216471E+03  0.00000000000E+00 0. -1.
         -2   -1    0    0    0  501 -0.00000000000E+00 -0.00000000000E+00 -0.31314969478E+03  0.31314969478E+03  0.00000000000E+00 0.  1.
         23    2    1    2    0    0  0.88045561979E+02  0.68098075594E+02 -0.20964208613E+03  0.25647524037E+03  0.97161596122E+02 0.  0.
          5    1    1    2  502    0 -0.33321906803E+02  0.34961582577E+02  0.14180172618E+02  0.50555207691E+02  0.47000000000E+01 0. -1.
         -5    1    1    2    0  502 -0.54723655176E+02 -0.10305965817E+03 -0.68256165545E+01  0.11698141143E+03  0.47000000000E+01 0. -1.
        -11    1    3    3    0    0 -0.11131274136E+02  0.21855163247E+02 -0.59307387714E+01  0.25233451742E+02  0.00000000000E+00 0.  1.
         11    1    3    3    0    0  0.99176836114E+02  0.46242912347E+02 -0.20371134736E+03  0.23124178863E+03  0.00000000000E+00 0. -1.
<mgrwt>
<rscale>  0 0.16223675E+03</rscale>
<asrwt>0</asrwt>
<pdfrwt beam="1">  1        2 0.17055718E-01 0.16737512E+03</pdfrwt>
<pdfrwt beam="2">  1       -2 0.48176876E-01 0.16737512E+03</pdfrwt>
<totfact> 0.13619990E+03</totfact>
</mgrwt>
</event>
<event>
 7    1  0.1020736E-005  0.1383089E+03  0.7546771E-02  0.1227848E+00
         -2   -1    0    0    0  501 -0.00000000000E+00  0.00000000000E+00  0.19398173327E+02  0.19398173327E+02  0.00000000000E+00 0.  1.
          2   -1    0    0  501    0  0.00000000000E+00 -0.00000000000E+00 -0.92325954703E+03  0.92325954703E+03  0.00000000000E+00 0. -1.
         23    2    1    2    0    0 -0.57516176106E+02  0.13983286004E+02 -0.21664638501E+03  0.24166285957E+03  0.89228015522E+02 0.  0.
          5    1    1    2  502    0 -0.35341993196E+02  0.15385449540E+02 -0.14650554001E+03  0.15156428271E+03  0.47000000000E+01 0. -1.
         -5    1    1    2    0  502  0.92858169302E+02 -0.29368735544E+02 -0.54070944868E+03  0.54943057807E+03  0.47000000000E+01 0. -1.
        -11    1    3    3    0    0 -0.92774009218E+01  0.47232090531E+02 -0.88010319313E+02  0.10031329348E+03  0.00000000000E+00 0.  1.
         11    1    3    3    0    0 -0.48238775184E+02 -0.33248804526E+02 -0.12863606570E+03  0.14134956608E+03  0.00000000000E+00 0. -1.
<mgrwt>
<rscale>  0 0.12973606E+03</rscale>
<asrwt>0</asrwt>
<pdfrwt beam="2">  1        2 0.14203988E+00 0.13830891E+03</pdfrwt>
<pdfrwt beam="1">  1       -2 0.29843353E-02 0.13830891E+03</pdfrwt>
<totfact> 0.12036375E+04</totfact>
</mgrwt>
</event>
<event>
 7    1  0.1020736E-005  0.1630600E+03  0.7546771E-02  0.1192636E+00
          2   -1    0    0  501    0  0.00000000000E+00  0.00000000000E+00  0.71797508758E+03  0.71797508758E+03  0.00000000000E+00 0.  1.
         -2   -1    0    0    0  501 -0.00000000000E+00 -0.00000000000E+00 -0.33639127735E+02  0.33639127735E+02  0.00000000000E+00 0. -1.
         23    2    1    2    0    0  0.98197505482E+02 -0.36330586083E+02  0.22560306943E+03  0.26476268057E+03  0.90773732521E+02 0.  0.
          5    1    1    2  502    0 -0.14887710776E+01  0.60175524593E+02  0.21989786711E+03  0.22803612030E+03  0.47000000000E+01 0. -1.
         -5    1    1    2    0  502 -0.96708734404E+02 -0.23844938509E+02  0.23883502330E+03  0.25881541445E+03  0.47000000000E+01 0. -1.
        -11    1    3    3    0    0  0.11417298970E+03 -0.33585148030E+02  0.21386886022E+03  0.24475155386E+03  0.00000000000E+00 0.  1.
         11    1    3    3    0    0 -0.15975484222E+02 -0.27454380531E+01  0.11734209217E+02  0.20011126709E+02  0.00000000000E+00 0. -1.
<mgrwt>
<rscale>  0 0.15655982E+03</rscale>
<asrwt>0</asrwt>
<pdfrwt beam="1">  1        2 0.11045769E+00 0.16305996E+03</pdfrwt>
<pdfrwt beam="2">  1       -2 0.51752510E-02 0.16305996E+03</pdfrwt>
<totfact> 0.73459461E+03</totfact>
</mgrwt>
</event>
<event>
 7    1  0.1020736E-005  0.1325118E+03  0.7546771E-02  0.1236955E+00
         -2   -1    0    0    0  501 -0.00000000000E+00  0.00000000000E+00  0.12646912242E+03  0.12646912242E+03  0.00000000000E+00 0.  1.
          2   -1    0    0  501    0  0.00000000000E+00 -0.00000000000E+00 -0.13001091725E+03  0.13001091725E+03  0.00000000000E+00 0. -1.
         23    2    1    2    0    0  0.11086000428E+01 -0.43970392899E+02  0.51090853776E+02  0.11314788079E+03  0.90871024762E+02 0.  0.
          5    1    1    2  502    0 -0.62259758073E+02  0.31200173951E+02 -0.26522688669E+02  0.74667739648E+02  0.47000000000E+01 0.  1.
         -5    1    1    2    0  502  0.61151158030E+02  0.12770218948E+02 -0.28109959937E+02  0.68664419229E+02  0.47000000000E+01 0.  1.
        -11    1    3    3    0    0  0.11881558814E+02 -0.30728204568E+02  0.76067153502E+02  0.82895149663E+02  0.00000000000E+00 0.  1.
         11    1    3    3    0    0 -0.10772958771E+02 -0.13242188331E+02 -0.24976299725E+02  0.30252731124E+02  0.00000000000E+00 0. -1.
<mgrwt>
<rscale>  0 0.12380103E+03</rscale>
<asrwt>0</asrwt>
<pdfrwt beam="2">  1        2 0.20001680E-01 0.13251182E+03</pdfrwt>
<pdfrwt beam="1">  1       -2 0.19456788E-01 0.13251182E+03</pdfrwt>
<totfact> 0.58107095E+03</totfact>
</mgrwt>
</event>
<event>
 7    1  0.1020736E-005  0.1353134E+03  0.7546771E-02  0.1236009E+00
         -3   -1    0    0    0  501 -0.00000000000E+00  0.00000000000E+00  0.16858936898E+03  0.16858936898E+03  0.00000000000E+00 0.  1.
          3   -1    0    0  501    0  0.00000000000E+00 -0.00000000000E+00 -0.91651941300E+02  0.91651941300E+02  0.00000000000E+00 0. -1.
         23    2    1    2    0    0 -0.42850483034E+02 -0.29145202294E+02  0.79111430273E+02  0.12491049552E+03  0.81599061136E+02 0.  0.
          5    1    1    2  502    0 -0.30725130200E+02  0.34750088930E+02  0.29199260819E+02  0.55011718196E+02  0.47000000000E+01 0.  1.
         -5    1    1    2    0  502  0.73575613234E+02 -0.56048866364E+01 -0.31373263407E+02  0.80319096569E+02  0.47000000000E+01 0.  1.
        -11    1    3    3    0    0 -0.30501688565E+01  0.18700105997E+02 -0.56344389596E+01  0.19767255671E+02  0.00000000000E+00 0. -1.
         11    1    3    3    0    0 -0.39800314177E+02 -0.47845308291E+02  0.84745869232E+02  0.10514323985E+03  0.00000000000E+00 0.  1.
<mgrwt>
<rscale>  0 0.12440051E+03</rscale>
<asrwt>0</asrwt>
<pdfrwt beam="2">  1        3 0.14100299E-01 0.13531335E+03</pdfrwt>
<pdfrwt beam="1">  1       -3 0.25936826E-01 0.13531335E+03</pdfrwt>
<totfact> 0.13334224E+03</totfact>
</mgrwt>
</event>
<event>
 7    1  0.1020736E-005  0.1438023E+03  0.7546771E-02  0.1218622E+00
          1   -1    0    0  501    0  0.00000000000E+00  0.00000000000E+00  0.89903809688E+03  0.89903809688E+03  0.00000000000E+00 0. -1.
         -1   -1    0    0    0  501 -0.00000000000E+00 -0.00000000000E+00 -0.18846334999E+02  0.18846334999E+02  0.00000000000E+00 0.  1.
         23    2    1    2    0    0 -0.51940040372E+02  0.48554818369E+02  0.35204544092E+03  0.37051103258E+03  0.91033480729E+02 0.  0.
          5    1    1    2  502    0 -0.98532566533E+01  0.35385445447E+02  0.18686453090E+03  0.19049844967E+03  0.47000000000E+01 0.  1.
         -5    1    1    2    0  502  0.61793297025E+02 -0.83940263816E+02  0.34128179006E+03  0.35687494963E+03  0.47000000000E+01 0.  1.
        -11    1    3    3    0    0 -0.14523897418E+02 -0.26163428405E+02  0.12627922608E+03  0.12977639046E+03  0.00000000000E+00 0. -1.
         11    1    3    3    0    0 -0.37416142953E+02  0.74718246774E+02  0.22576621484E+03  0.24073464212E+03  0.00000000000E+00 0.  1.
<mgrwt>
<rscale>  0 0.13613781E+03</rscale>
<asrwt>0</asrwt>
<pdfrwt beam="1">  1        1 0.13831352E+00 0.14380230E+03</pdfrwt>
<pdfrwt beam="2">  1       -1 0.28994369E-02 0.14380230E+03</pdfrwt>
<totfact> 0.73663751E+03</totfact>
</mgrwt>
</event>
<event>
 7    1  0.1020736E-005  0.1637061E+03  0.7546771E-02  0.1192428E+00
         -2   -1    0    0    0  501 -0.00000000000E+00  0.00000000000E+00  0.10100380293E+04  0.10100380293E+04  0.00000000000E+00 0.  1.
          2   -1    0    0  501    0  0.00000000000E+00 -0.00000000000E+00 -0.22756680732E+02  0.22756680732E+02  0.00000000000E+00 0. -1.
         23    2    1    2    0    0 -0.79651450417E+02 -0.69506523967E+02  0.39321853421E+03  0.41658831256E+03  0.88031222245E+02 0.  0.
          5    1    1    2  502    0  0.11362625461E+03  0.56117324989E+02  0.45264487470E+03  0.47007398619E+03  0.47000000000E+01 0. -1.
         -5    1    1    2    0  502 -0.33974804190E+02  0.13389198979E+02  0.14141793966E+03  0.14613241128E+03  0.47000000000E+01 0. -1.
        -11    1    3    3    0    0 -0.49948370608E+01 -0.57610932882E+02  0.12166868422E+03  0.13471167991E+03  0.00000000000E+00 0. -1.
         11    1    3    3    0    0 -0.74656613357E+02 -0.11895591085E+02  0.27154984998E+03  0.28187663265E+03  0.00000000000E+00 0.  1.
<mgrwt>
<rscale>  0 0.15673941E+03</rscale>
<asrwt>0</asrwt>
<pdfrwt beam="2">  1        2 0.35010286E-02 0.16370613E+03</pdfrwt>
<pdfrwt beam="1">  1       -2 0.15539043E+00 0.16370613E+03</pdfrwt>
<totfact> 0.72053203E+02</totfact>
</mgrwt>
</event>
<event>
 7    1  0.1020736E-005  0.1381532E+03  0.7546771E-02  0.1227376E+00
         -2   -1    0    0    0  501 -0.00000000000E+00  0.00000000000E+00  0.14026800103E+02  0.14026800103E+02  0.00000000000E+00 0.  1.
          2   -1    0    0  501    0  0.00000000000E+00 -0.00000000000E+00 -0.15129346453E+04  0.15129346453E+04  0.00000000000E+00 0. -1.
         23    2    1    2    0    0 -0.54583850551E+02 -0.21970127972E+02 -0.28058834499E+03  0.30083391523E+03  0.91154494892E+02 0.  0.
          5    1    1    2  502    0  0.86994646731E+02 -0.13364519598E+02 -0.87835839678E+03  0.88276964274E+03  0.47000000000E+01 0. -1.
         -5    1    1    2    0  502 -0.32410796180E+02  0.35334647569E+02 -0.33996110345E+03  0.34335788747E+03  0.47000000000E+01 0. -1.
        -11    1    3    3    0    0 -0.64974375721E+02  0.38560062390E+01 -0.25446755609E+03  0.26265999960E+03  0.00000000000E+00 0.  1.
         11    1    3    3    0    0  0.10390525170E+02 -0.25826134211E+02 -0.26120788903E+02  0.38173915629E+02  0.00000000000E+00 0. -1.
<mgrwt>
<rscale>  0 0.13005394E+03</rscale>
<asrwt>0</asrwt>
<pdfrwt beam="2">  1        2 0.23275892E+00 0.13815323E+03</pdfrwt>
<pdfrwt beam="1">  1       -2 0.21579717E-02 0.13815323E+03</pdfrwt>
<totfact> 0.90695621E+03</totfact>
</mgrwt>
</event>
<event>
 7    1  0.1020736E-005  0.1950431E+03  0.7546771E-02  0.1158611E+00
         -2   -1    0    0    0  501 -0.00000000000E+00  0.00000000000E+00  0.19599819259E+03  0.19599819259E+03  0.00000000000E+00 0.  1.
          2   -1    0    0  501    0  0.00000000000E+00 -0.00000000000E+00 -0.17990721291E+03  0.17990721291E+03  0.00000000000E+00 0. -1.
         23    2    1    2    0    0  0.34711405425E+02  0.14565042560E+03  0.39594783774E+02  0.17945121685E+03  0.90642507604E+02 0.  0.
          5    1    1    2  502    0 -0.58401490434E+02 -0.26594798884E+02  0.20060627997E+02  0.67398339803E+02  0.47000000000E+01 0.  1.
         -5    1    1    2    0  502  0.23690085009E+02 -0.11905562671E+03 -0.43564432086E+02  0.12905584885E+03  0.47000000000E+01 0.  1.
        -11    1    3    3    0    0  0.22112329611E+02  0.63604790228E+02 -0.27480634504E+02  0.72730390715E+02  0.00000000000E+00 0.  1.
         11    1    3    3    0    0  0.12599075814E+02  0.82045635367E+02  0.67075418278E+02  0.10672082614E+03  0.00000000000E+00 0. -1.
<mgrwt>
<rscale>  0 0.18983453E+03</rscale>
<asrwt>0</asrwt>
<pdfrwt beam="2">  1        2 0.27678033E-01 0.19504312E+03</pdfrwt>
<pdfrwt beam="1">  1       -2 0.30153568E-01 0.19504312E+03</pdfrwt>
<totfact> 0.19189387E+03</totfact>
</mgrwt>
</event>
<event>
 7    1  0.1020736E-005  0.1277202E+03  0.7546771E-02  0.1245568E+00
          2   -1    0    0  501    0  0.00000000000E+00  0.00000000000E+00  0.15977704097E+03  0.15977704097E+03  0.00000000000E+00 0. -1.
         -2   -1    0    0    0  501 -0.00000000000E+00 -0.00000000000E+00 -0.94675603998E+02  0.94675603998E+02  0.00000000000E+00 0.  1.
         23    2    1    2    0    0 -0.62490730953E+01 -0.25473902572E+02 -0.25256970794E+02  0.98001063570E+02  0.90985291451E+02 0.  0.
          5    1    1    2  502    0  0.44140960599E+02 -0.33843339986E+02  0.51320566015E+02  0.75826687652E+02  0.47000000000E+01 0. -1.
         -5    1    1    2    0  502 -0.37891887504E+02  0.59317242558E+02  0.39037841752E+02  0.80624893748E+02  0.47000000000E+01 0. -1.
        -11    1    3    3    0    0  0.81251636609E+01 -0.55926198823E+02 -0.30019476676E+02  0.63991616476E+02  0.00000000000E+00 0.  1.
         11    1    3    3    0    0 -0.14374236756E+02  0.30452296252E+02  0.47625058820E+01  0.34009447094E+02  0.00000000000E+00 0. -1.
<mgrwt>
<rscale>  0 0.11851447E+03</rscale>
<asrwt>0</asrwt>
<pdfrwt beam="1">  1        2 0.24581083E-01 0.12772022E+03</pdfrwt>
<pdfrwt beam="2">  1       -2 0.14565478E-01 0.12772022E+03</pdfrwt>
<totfact> 0.74331577E+03</totfact>
</mgrwt>
</event>
<event>
 7    1  0.1020736E-005  0.1293740E+03  0.7546771E-02  0.1242670E+00
         -2   -1    0    0    0  501 -0.00000000000E+00  0.00000000000E+00  0.23898645702E+03  0.23898645702E+03  0.00000000000E+00 0.  1.
          2   -1    0    0  501    0  0.00000000000E+00 -0.00000000000E+00 -0.70103576971E+02  0.70103576971E+02  0.00000000000E+00 0. -1.
         23    2    1    2    0    0 -0.22598502433E+02 -0.24552665579E+02  0.14990955448E+03  0.17833213090E+03  0.90641870504E+02 0.  0.
          5    1    1    2  502    0 -0.11131422933E+02  0.54911635793E+02 -0.30081437795E+02  0.63766599578E+02  0.47000000000E+01 0.  1.
         -5    1    1    2    0  502  0.33729925366E+02 -0.30358970214E+02  0.49054763368E+02  0.66991303515E+02  0.47000000000E+01 0.  1.
        -11    1    3    3    0    0  0.20754135482E+02  0.85178224624E+01  0.42923059653E+01  0.22841001064E+02  0.00000000000E+00 0. -1.
         11    1    3    3    0    0 -0.43352637915E+02 -0.33070488041E+02  0.14561724851E+03  0.15549112983E+03  0.00000000000E+00 0.  1.
<mgrwt>
<rscale>  0 0.12025898E+03</rscale>
<asrwt>0</asrwt>
<pdfrwt beam="2">  1        2 0.10785166E-01 0.12937404E+03</pdfrwt>
<pdfrwt beam="1">  1       -2 0.36767147E-01 0.12937404E+03</pdfrwt>
<totfact> 0.38880128E+03</totfact>
</mgrwt>
</event>
<event>
 7    1  0.1020736E-005  0.1295922E+03  0.7546771E-02  0.1241753E+00
          2   -1    0    0  501    0  0.00000000000E+00  0.00000000000E+00  0.26590152460E+03  0.26590152460E+03  0.00000000000E+00 0. -1.
         -2   -1    0    0    0  501 -0.00000000000E+00 -0.00000000000E+00 -0.60123435779E+02  0.60123435779E+02  0.00000000000E+00 0.  1.
         23    2    1    2    0    0 -0.53822548379E+01  0.33769067600E+02  0.20668323309E+02  0.10006087519E+03  0.91737018491E+02 0.  0.
          5    1    1    2  502    0 -0.22891729209E+02 -0.62120477870E+02  0.17070348052E+03  0.18315226807E+03  0.47000000000E+01 0.  1.
         -5    1    1    2    0  502  0.28273984047E+02  0.28351410269E+02  0.14406284996E+02  0.42811817125E+02  0.47000000000E+01 0.  1.
        -11    1    3    3    0    0  0.21890951000E+01  0.22830263030E+02 -0.35541018776E+02  0.42298665027E+02  0.00000000000E+00 0.  1.
         11    1    3    3    0    0 -0.75713499380E+01  0.10938804570E+02  0.56209342085E+02  0.57762210163E+02  0.00000000000E+00 0. -1.
<mgrwt>
<rscale>  0 0.12081843E+03</rscale>
<asrwt>0</asrwt>
<pdfrwt beam="1">  1        2 0.40907926E-01 0.12959222E+03</pdfrwt>
<pdfrwt beam="2">  1       -2 0.92497595E-02 0.12959222E+03</pdfrwt>
<totfact> 0.88471531E+03</totfact>
</mgrwt>
</event>
<event>
 7    1  0.1020736E-005  0.1306791E+03  0.7546771E-02  0.1238860E+00
          1   -1    0    0  501    0  0.00000000000E+00  0.00000000000E+00  0.90654560303E+02  0.90654560303E+02  0.00000000000E+00 0. -1.
         -1   -1    0    0    0  501 -0.00000000000E+00 -0.00000000000E+00 -0.15607357887E+03  0.15607357887E+03  0.00000000000E+00 0.  1.
         23    2    1    2    0    0  0.30295170082E+02 -0.23123506956E+02 -0.56000185679E+02  0.11571008171E+03  0.93809958477E+02 0.  0.
          5    1    1    2  502    0 -0.31577760708E+02 -0.23996748593E+02 -0.53193443192E+02  0.66517902199E+02  0.47000000000E+01 0. -1.
         -5    1    1    2    0  502  0.12825906264E+01  0.47120255549E+02  0.43774610303E+02  0.64500155262E+02  0.47000000000E+01 0. -1.
        -11    1    3    3    0    0  0.59759888285E+02 -0.14829668969E+02 -0.58586286348E+02  0.84991271773E+02  0.00000000000E+00 0.  1.
         11    1    3    3    0    0 -0.29464718204E+02 -0.82938379871E+01  0.25861006696E+01  0.30718809939E+02  0.00000000000E+00 0. -1.
<mgrwt>
<rscale>  0 0.12260546E+03</rscale>
<asrwt>0</asrwt>
<pdfrwt beam="1">  1        1 0.13946856E-01 0.13067906E+03</pdfrwt>
<pdfrwt beam="2">  1       -1 0.24011320E-01 0.13067906E+03</pdfrwt>
<totfact> 0.57997781E+03</totfact>
</mgrwt>
</event>
<event>
 6    1  0.1020736E-005  0.3138659E+03  0.7546771E-02  0.1078508E+00
          2   -1    0    0  501    0  0.00000000000E+00  0.00000000000E+00  0.22115087895E+03  0.22115087895E+03  0.00000000000E+00 0. -1.
         -2   -1    0    0    0  501 -0.00000000000E+00 -0.00000000000E+00 -0.11136263497E+03  0.11136263497E+03  0.00000000000E+00 0.  1.
          5    1    1    2  502    0  0.45084837036E+01 -0.63166529759E+02 -0.24307208370E+02  0.67994612182E+02  0.47000000000E+01 0.  1.
         -5    1    1    2    0  502  0.41865109376E+02  0.38296329445E+02  0.37688005557E+02  0.68277170378E+02  0.47000000000E+01 0.  1.
        -11    1    1    2    0    0  0.24331724939E+01 -0.56886043979E+02 -0.49773661593E+01  0.57155196630E+02  0.00000000000E+00 0.  1.
         11    1    1    2    0    0 -0.48806765573E+02  0.81756244292E+02  0.10138481296E+03  0.13908653473E+03  0.00000000000E+00 0. -1.
<mgrwt>
<rscale>  0 0.31386586E+03</rscale>
<asrwt>0</asrwt>
<pdfrwt beam="1">  1        2 0.34023212E-01 0.31386586E+03</pdfrwt>
<pdfrwt beam="2">  1       -2 0.17132713E-01 0.31386586E+03</pdfrwt>
<totfact> 0.41766156E+03</totfact>
</mgrwt>
</event>
<event>
 7    1  0.1020736E-005  0.1581156E+03  0.7546771E-02  0.1197830E+00
          2   -1    0    0  501    0  0.00000000000E+00  0.00000000000E+00  0.46393374754E+03  0.46393374754E+03  0.00000000000E+00 0. -1.
         -2   -1    0    0    0  501 -0.00000000000E+00 -0.00000000000E+00 -0.25365978353E+03  0.25365978353E+03  0.00000000000E+00 0.  1.
         23    2    1    2    0    0  0.95399520520E+02  0.16550130327E+02 -0.22040822688E+03  0.25880416771E+03  0.94999133769E+02 0.  0.
          5    1    1    2  502    0  0.11070970509E+02 -0.32778413756E+02  0.38116875277E+02  0.51691169238E+02  0.47000000000E+01 0. -1.
         -5    1    1    2    0  502 -0.10647049103E+03  0.16228283429E+02  0.39256531561E+03  0.40709819413E+03  0.47000000000E+01 0. -1.
        -11    1    3    3    0    0  0.19454551925E+02  0.29670432410E+02 -0.13419311735E+02  0.37932730951E+02  0.00000000000E+00 0. -1.
         11    1    3    3    0    0  0.75944968596E+02 -0.13120302083E+02 -0.20698891514E+03  0.22087143675E+03  0.00000000000E+00 0.  1.
<mgrwt>
<rscale>  0 0.15217126E+03</rscale>
<asrwt>0</asrwt>
<pdfrwt beam="1">  1        2 0.71374423E-01 0.15811556E+03</pdfrwt>
<pdfrwt beam="2">  1       -2 0.39024582E-01 0.15811556E+03</pdfrwt>
<totfact> 0.42743022E+02</totfact>
</mgrwt>
</event>
<event>
 7    1  0.1020736E-005  0.1320053E+03  0.7546771E-02  0.1237855E+00
         -2   -1    0    0    0  501 -0.00000000000E+00  0.00000000000E+00  0.30956029621E+02  0.30956029621E+02  0.00000000000E+00 0.  1.
          2   -1    0    0  501    0  0.00000000000E+00 -0.00000000000E+00 -0.54760581721E+03  0.54760581721E+03  0.00000000000E+00 0. -1.
         23    2    1    2    0    0 -0.40608919401E+02 -0.12284605586E+02 -0.10044225969E+03  0.14192228592E+03  0.90847629790E+02 0.  0.
          5    1    1    2  502    0 -0.53713588010E+01 -0.43407925351E+02 -0.67989609742E+02  0.80980099478E+02  0.47000000000E+01 0. -1.
         -5    1    1    2    0  502  0.45980278202E+02  0.55692530937E+02 -0.34821791815E+03  0.35565946143E+03  0.47000000000E+01 0. -1.
        -11    1    3    3    0    0 -0.35899894162E+02 -0.50115301568E+02 -0.68801750505E+02  0.92379796085E+02  0.00000000000E+00 0. -1.
         11    1    3    3    0    0 -0.47090252393E+01  0.37830695982E+02 -0.31640509190E+02  0.49542489834E+02  0.00000000000E+00 0.  1.
<mgrwt>
<rscale>  0 0.12323443E+03</rscale>
<asrwt>0</asrwt>
<pdfrwt beam="2">  1        2 0.84247050E-01 0.13200530E+03</pdfrwt>
<pdfrwt beam="1">  1       -2 0.47624660E-02 0.13200530E+03</pdfrwt>
<totfact> 0.11239472E+04</totfact>
</mgrwt>
</event>
<event>
 7    1  0.1020736E-005  0.1852663E+03  0.7546771E-02  0.1168304E+00
         -1   -1    0    0    0  501 -0.00000000000E+00  0.00000000000E+00  0.64125623421E+03  0.64125623421E+03  0.00000000000E+00 0.  1.
          1   -1    0    0  501    0  0.00000000000E+00 -0.00000000000E+00 -0.63409578556E+02  0.63409578556E+02  0.00000000000E+00 0. -1.
         23    2    1    2    0    0 -0.36319737195E+02  0.13182631923E+03  0.98150742969E+02  0.19043652600E+03  0.89079741455E+02 0.  0.
          5    1    1    2  502    0  0.33352648241E+02 -0.46909051715E+02  0.37448004871E+03  0.37890665758E+03  0.47000000000E+01 0.  1.
         -5    1    1    2    0  502  0.29670889541E+01 -0.84917267512E+02  0.10521586398E+03  0.13532262919E+03  0.47000000000E+01 0.  1.
        -11    1    3    3    0    0  0.16732359889E+02  0.55332823263E+02  0.74668531388E+02  0.94430306456E+02  0.00000000000E+00 0.  1.
         11    1    3    3    0    0 -0.53052097084E+02  0.76493495964E+02  0.23482211580E+02  0.96006219541E+02  0.00000000000E+00 0. -1.
<mgrwt>
<rscale>  0 0.17948318E+03</rscale>
<asrwt>0</asrwt>
<pdfrwt beam="2">  1        1 0.97553202E-02 0.18526627E+03</pdfrwt>
<pdfrwt beam="1">  1       -1 0.98654801E-01 0.18526627E+03</pdfrwt>
<totfact> 0.68694757E+02</totfact>
</mgrwt>
</event>
<event>
 7    1  0.1020736E-005  0.4189242E+03  0.7546771E-02  0.1077635E+00
         -1   -1    0    0    0  501 -0.00000000000E+00  0.00000000000E+00  0.37714704012E+03  0.37714704012E+03  0.00000000000E+00 0.  1.
          1   -1    0    0  501    0  0.00000000000E+00 -0.00000000000E+00 -0.42575357448E+03  0.42575357448E+03  0.00000000000E+00 0. -1.
         23    2    1    2    0    0  0.27933774125E+01  0.99106833362E+02  0.25290760287E+03  0.28675305738E+03  0.91842762106E+02 0.  0.
          5    1    1    2  502    0 -0.14826432381E+03 -0.13488847745E+03 -0.30642020460E+03  0.36618662298E+03  0.47000000000E+01 0. -1.
         -5    1    1    2    0  502  0.14547094640E+03  0.35781644086E+02  0.49060673647E+01  0.14996093424E+03  0.47000000000E+01 0.  1.
        -11    1    3    3    0    0 -0.24554819309E+02  0.10404932657E+03  0.20970796482E+03  0.23538613387E+03  0.00000000000E+00 0. -1.
         11    1    3    3    0    0  0.27348196721E+02 -0.49424932064E+01  0.43199638048E+02  0.51366923506E+02  0.00000000000E+00 0.  1.
<mgrwt>
<rscale>  0 0.31572158E+03</rscale>
<asrwt>0</asrwt>
<pdfrwt beam="2">  1        1 0.65500550E-01 0.41892425E+03</pdfrwt>
<pdfrwt beam="1">  1       -1 0.58022622E-01 0.41892425E+03</pdfrwt>
<totfact> 0.17222189E+02</totfact>
</mgrwt>
</event>
<event>
 7    1  0.1020736E-005  0.1723764E+03  0.7546771E-02  0.1181684E+00
          2   -1    0    0  501    0  0.00000000000E+00  0.00000000000E+00  0.70640892888E+02  0.70640892888E+02  0.00000000000E+00 0. -1.
         -2   -1    0    0    0  501 -0.00000000000E+00 -0.00000000000E+00 -0.40119891841E+03  0.40119891841E+03  0.00000000000E+00 0.  1.
         23    2    1    2    0    0 -0.10011435289E+03  0.63767034594E+02 -0.22344624318E+03  0.26889506810E+03  0.91034145793E+02 0.  0.
          5    1    1    2  502    0  0.76708376076E+02  0.16653288213E+02 -0.18219897793E+02  0.80719029009E+02  0.47000000000E+01 0. -1.
         -5    1    1    2    0  502  0.23405976817E+02 -0.80420322807E+02 -0.88891884552E+02  0.12222571419E+03  0.47000000000E+01 0. -1.
        -11    1    3    3    0    0 -0.63371006219E+02  0.23259598579E+02 -0.19680796882E+03  0.20806313933E+03  0.00000000000E+00 0.  1.
         11    1    3    3    0    0 -0.36743346673E+02  0.40507436015E+02 -0.26638274361E+02  0.60831928773E+02  0.00000000000E+00 0. -1.
<mgrwt>
<rscale>  0 0.16637269E+03</rscale>
<asrwt>0</asrwt>
<pdfrwt beam="1">  1        2 0.10867830E-01 0.17237643E+03</pdfrwt>
<pdfrwt beam="2">  1       -2 0.61722909E-01 0.17237643E+03</pdfrwt>
<totfact> 0.14136391E+03</totfact>
</mgrwt>
</event>
<event>
 7    1  0.1020736E-005  0.1797560E+03  0.7546771E-02  0.1192576E+00
         -2   -1    0    0    0  501 -0.00000000000E+00  0.00000000000E+00  0.36588583506E+02  0.36588583506E+02  0.00000000000E+00 0.  1.
          2   -1    0    0  501    0  0.00000000000E+00 -0.00000000000E+00 -0.90520419392E+03  0.90520419392E+03  0.00000000000E+00 0. -1.
         23    2    1    2    0    0 -0.41966093721E+02 -0.20938131861E+02 -0.74495138793E+02  0.12758177745E+03  0.92347310982E+02 0.  0.
          5    1    1    2  502    0 -0.58430332583E+01  0.50773069454E+02 -0.71564427685E+03  0.71748231101E+03  0.47000000000E+01 0. -1.
         -5    1    1    2    0  502  0.47809126980E+02 -0.29834937593E+02 -0.78476194770E+02  0.96728688967E+02  0.47000000000E+01 0.  1.
        -11    1    3    3    0    0  0.23582006727E+02 -0.48410172869E+01 -0.50505534796E+02  0.55949580290E+02  0.00000000000E+00 0. -1.
         11    1    3    3    0    0 -0.65548100449E+02 -0.16097114574E+02 -0.23989603998E+02  0.71632197160E+02  0.00000000000E+00 0.  1.
<mgrwt>
<rscale>  0 0.15661211E+03</rscale>
<asrwt>0</asrwt>
<pdfrwt beam="2">  1        2 0.13926217E+00 0.17975603E+03</pdfrwt>
<pdfrwt beam="1">  1       -2 0.56290135E-02 0.17975603E+03</pdfrwt>
<totfact> 0.48475638E+03</totfact>
</mgrwt>
</event>
<event>
 7    1  0.1020736E-005  0.1557366E+03  0.7546771E-02  0.1202656E+00
          1   -1    0    0  501    0  0.00000000000E+00  0.00000000000E+00  0.32481397515E+03  0.32481397515E+03  0.00000000000E+00 0. -1.
         -1   -1    0    0    0  501 -0.00000000000E+00 -0.00000000000E+00 -0.69517399375E+02  0.69517399375E+02  0.00000000000E+00 0.  1.
         23    2    1    2    0    0  0.63546546929E+02  0.67759336353E+02  0.51451424284E+02  0.13780312788E+03  0.87823468980E+02 0.  0.
          5    1    1    2  502    0  0.12042059106E+02  0.12566373257E+02 -0.63425090402E+01  0.19111314587E+02  0.47000000000E+01 0.  1.
         -5    1    1    2    0  502 -0.75588606034E+02 -0.80325709610E+02  0.21018766053E+03  0.23741693205E+03  0.47000000000E+01 0.  1.
        -11    1    3    3    0    0  0.73321549953E+02  0.79705335843E+02  0.31915670432E+02  0.11290527122E+03  0.00000000000E+00 0.  1.
         11    1    3    3    0    0 -0.97750030246E+01 -0.11945999490E+02  0.19535753852E+02  0.24897856665E+02  0.00000000000E+00 0. -1.
<mgrwt>
<rscale>  0 0.14823738E+03</rscale>
<asrwt>0</asrwt>
<pdfrwt beam="1">  1        1 0.49971380E-01 0.15573662E+03</pdfrwt>
<pdfrwt beam="2">  1       -1 0.10694985E-01 0.15573662E+03</pdfrwt>
<totfact> 0.42150802E+03</totfact>
</mgrwt>
</event>
<event>
 7    1  0.1020736E-005  0.1666706E+03  0.7546771E-02  0.1188051E+00
          2   -1    0    0  501    0  0.00000000000E+00  0.00000000000E+00  0.49512704259E+03  0.49512704259E+03  0.00000000000E+00 0. -1.
         -2   -1    0    0    0  501 -0.00000000000E+00 -0.00000000000E+00 -0.49082993508E+02  0.49082993508E+02  0.00000000000E+00 0.  1.
         23    2    1    2    0    0 -0.23220444199E+02 -0.10778390669E+03  0.17976539174E+03  0.23007085024E+03  0.91980652811E+02 0.  0.
          5    1    1    2  502    0  0.11287200573E+02  0.44797356489E+02  0.69380870386E+01  0.46951369490E+02  0.47000000000E+01 0.  1.
         -5    1    1    2    0  502  0.11933243626E+02  0.62986550203E+02  0.25934057031E+03  0.26718781637E+03  0.47000000000E+01 0.  1.
        -11    1    3    3    0    0  0.24344619877E+02 -0.22872619231E+02  0.96054026245E+02  0.10169657411E+03  0.00000000000E+00 0. -1.
         11    1    3    3    0    0 -0.47565064076E+02 -0.84911287462E+02  0.83711365491E+02  0.12837427613E+03  0.00000000000E+00 0.  1.
<mgrwt>
<rscale>  0 0.16057300E+03</rscale>
<asrwt>0</asrwt>
<pdfrwt beam="1">  1        2 0.76173388E-01 0.16667065E+03</pdfrwt>
<pdfrwt beam="2">  1       -2 0.75512301E-02 0.16667065E+03</pdfrwt>
<totfact> 0.63274134E+03</totfact>
</mgrwt>
</event>
<event>
 7    1  0.1020736E-005  0.1286090E+03  0.7546771E-02  0.1242532E+00
          4   -1    0    0  501    0  0.00000000000E+00  0.00000000000E+00  0.11471316089E+04  0.11471316089E+04  0.00000000000E+00 0. -1.
         -4   -1    0    0    0  501 -0.00000000000E+00 -0.00000000000E+00 -0.14843435026E+02  0.14843435026E+02  0.00000000000E+00 0.  1.
         23    2    1    2    0    0 -0.17756626705E+02  0.24501822520E+02  0.22551797450E+03  0.24612981906E+03  0.93839724580E+02 0.  0.
          5    1    1    2  502    0  0.43143959938E+02 -0.59982523666E+02  0.72856363137E+03  0.73231575115E+03  0.47000000000E+01 0. -1.
         -5    1    1    2    0  502 -0.25387333233E+02  0.35480701146E+02  0.17820656795E+03  0.18352947367E+03  0.47000000000E+01 0. -1.
        -11    1    3    3    0    0 -0.34390963983E+02 -0.26744209538E+02  0.11977185978E+03  0.12744916454E+03  0.00000000000E+00 0. -1.
         11    1    3    3    0    0  0.16634337278E+02  0.51246032058E+02  0.10574611472E+03  0.11868065452E+03  0.00000000000E+00 0.  1.
<mgrwt>
<rscale>  0 0.12034289E+03</rscale>
<asrwt>0</asrwt>
<pdfrwt beam="1">  1        4 0.17648172E+00 0.12860903E+03</pdfrwt>
<pdfrwt beam="2">  1       -4 0.22836063E-02 0.12860903E+03</pdfrwt>
<totfact> 0.28398541E+02</totfact>
</mgrwt>
</event>
<event>
 7    1  0.1020736E-005  0.1511424E+03  0.7546771E-02  0.1207927E+00
         -1   -1    0    0    0  501 -0.00000000000E+00  0.00000000000E+00  0.68957341489E+02  0.68957341489E+02  0.00000000000E+00 0.  1.
          1   -1    0    0  501    0  0.00000000000E+00 -0.00000000000E+00 -0.27732805307E+03  0.27732805307E+03  0.00000000000E+00 0. -1.
         23    2    1    2    0    0 -0.21059783071E+01 -0.84945642205E+02 -0.10549778493E+03  0.16345528444E+03  0.91474860547E+02 0.  0.
          5    1    1    2  502    0 -0.47453746244E+02  0.73454724381E+02 -0.27536004272E+02  0.91802919875E+02  0.47000000000E+01 0. -1.
         -5    1    1    2    0  502  0.49559724551E+02  0.11490917825E+02 -0.75336922380E+02  0.91027190244E+02  0.47000000000E+01 0. -1.
        -11    1    3    3    0    0  0.41426798946E+02 -0.34860390335E+02 -0.26487261315E+02  0.60274385083E+02  0.00000000000E+00 0.  1.
         11    1    3    3    0    0 -0.43532777253E+02 -0.50085251870E+02 -0.79010523614E+02  0.10318089936E+03  0.00000000000E+00 0. -1.
<mgrwt>
<rscale>  0 0.14409135E+03</rscale>
<asrwt>0</asrwt>
<pdfrwt beam="2">  1        1 0.42665855E-01 0.15114235E+03</pdfrwt>
<pdfrwt beam="1">  1       -1 0.10608822E-01 0.15114235E+03</pdfrwt>
<totfact> 0.51859061E+03</totfact>
</mgrwt>
</event>
<event>
 7    1  0.1020736E-005  0.1479239E+03  0.7546771E-02  0.1212962E+00
         -1   -1    0    0    0  501 -0.00000000000E+00  0.00000000000E+00  0.87510691050E+02  0.87510691050E+02  0.00000000000E+00 0.  1.
          1   -1    0    0  501    0  0.00000000000E+00 -0.00000000000E+00 -0.22815162322E+03  0.22815162322E+03  0.00000000000E+00 0. -1.
         23    2    1    2    0    0  0.61179603790E+02  0.50127642593E+02 -0.13067273794E+02  0.12032537322E+03  0.89731361981E+02 0.  0.
          5    1    1    2  502    0  0.47354953273E+00 -0.72740663808E+02 -0.10049565504E+03  0.12414868144E+03  0.47000000000E+01 0.  1.
         -5    1    1    2    0  502 -0.61653153323E+02  0.22613021215E+02 -0.27078003338E+02  0.71188259621E+02  0.47000000000E+01 0.  1.
        -11    1    3    3    0    0  0.18355808996E+01  0.35363460961E+02 -0.40071068884E+02  0.53475548523E+02  0.00000000000E+00 0. -1.
         11    1    3    3    0    0  0.59344022890E+02  0.14764181632E+02  0.27003795089E+02  0.66849824692E+02  0.00000000000E+00 0.  1.
<mgrwt>
<rscale>  0 0.14027298E+03</rscale>
<asrwt>0</asrwt>
<pdfrwt beam="2">  1        1 0.35100250E-01 0.14792391E+03</pdfrwt>
<pdfrwt beam="1">  1       -1 0.13463183E-01 0.14792391E+03</pdfrwt>
<totfact> 0.45646060E+03</totfact>
</mgrwt>
</event>
<event>
 7    1  0.1020736E-005  0.1335941E+03  0.7546771E-02  0.1234725E+00
          1   -1    0    0  501    0  0.00000000000E+00  0.00000000000E+00  0.38071256920E+03  0.38071256920E+03  0.00000000000E+00 0. -1.
         -1   -1    0    0    0  501 -0.00000000000E+00 -0.00000000000E+00 -0.42656157808E+02  0.42656157808E+02  0.00000000000E+00 0.  1.
         23    2    1    2    0    0 -0.38940593435E+02 -0.26579869723E+02  0.72351507778E+02  0.12596919282E+03  0.91709528241E+02 0.  0.
          5    1    1    2  502    0 -0.94999522704E+01  0.67878445481E+02  0.11894046763E+03  0.13735595107E+03  0.47000000000E+01 0.  1.
         -5    1    1    2    0  502  0.48440545706E+02 -0.41298575758E+02  0.14676443598E+03  0.16004358312E+03  0.47000000000E+01 0.  1.
        -11    1    3    3    0    0  0.78230390773E+01 -0.41495862378E+02  0.63245689094E+02  0.76046852163E+02  0.00000000000E+00 0. -1.
         11    1    3    3    0    0 -0.46763632513E+02  0.14915992656E+02  0.91058186843E+01  0.49922340656E+02  0.00000000000E+00 0.  1.
<mgrwt>
<rscale>  0 0.12522038E+03</rscale>
<asrwt>0</asrwt>
<pdfrwt beam="1">  1        1 0.58571162E-01 0.13359411E+03</pdfrwt>
<pdfrwt beam="2">  1       -1 0.65624861E-02 0.13359411E+03</pdfrwt>
<totfact> 0.71795775E+03</totfact>
</mgrwt>
</event>
<event>
 7    1  0.1020736E-005  0.1629195E+03  0.7546771E-02  0.1192874E+00
          2   -1    0    0  501    0  0.00000000000E+00  0.00000000000E+00  0.49669273414E+02  0.49669273414E+02  0.00000000000E+00 0. -1.
         -2   -1    0    0    0  501 -0.00000000000E+00 -0.00000000000E+00 -0.49594328294E+03  0.49594328294E+03  0.00000000000E+00 0.  1.
         23    2    1    2    0    0 -0.61037207676E+02  0.84798382499E+02 -0.28307388410E+03  0.31501107583E+03  0.90470147762E+02 0.  0.
          5    1    1    2  502    0  0.38668971345E+02  0.11399531159E+02 -0.95128073027E+00  0.40598443204E+02  0.47000000000E+01 0.  1.
         -5    1    1    2    0  502  0.22368236331E+02 -0.96197913658E+02 -0.16224884469E+03  0.19000303732E+03  0.47000000000E+01 0.  1.
        -11    1    3    3    0    0 -0.61044432423E+01  0.48649561312E+02 -0.21437942485E+03  0.21991494229E+03  0.00000000000E+00 0.  1.
         11    1    3    3    0    0 -0.54932764434E+02  0.36148821187E+02 -0.68694459257E+02  0.95096133540E+02  0.00000000000E+00 0. -1.
<mgrwt>
<rscale>  0 0.15635517E+03</rscale>
<asrwt>0</asrwt>
<pdfrwt beam="1">  1        2 0.76414267E-02 0.16291950E+03</pdfrwt>
<pdfrwt beam="2">  1       -2 0.76298966E-01 0.16291950E+03</pdfrwt>
<totfact> 0.13946718E+03</totfact>
</mgrwt>
</event>
<event>
 7    1  0.1020736E-005  0.1345016E+03  0.7546771E-02  0.1232217E+00
          2   -1    0    0  501    0  0.00000000000E+00  0.00000000000E+00  0.70504117930E+03  0.70504117930E+03  0.00000000000E+00 0.  1.
         -2   -1    0    0    0  501 -0.00000000000E+00 -0.00000000000E+00 -0.23817267514E+02  0.23817267514E+02  0.00000000000E+00 0. -1.
         23    2    1    2    0    0  0.62629469156E+00 -0.49658967370E+02  0.17261154322E+03  0.20276223230E+03  0.94081734206E+02 0.  0.
          5    1    1    2  502    0 -0.18252159685E+02  0.70870222633E+02  0.15601318659E+03  0.17238890388E+03  0.47000000000E+01 0. -1.
         -5    1    1    2    0  502  0.17625864993E+02 -0.21211255263E+02  0.35259918197E+03  0.35370731063E+03  0.47000000000E+01 0. -1.
        -11    1    3    3    0    0  0.17736983508E+02  0.24492268119E+02  0.46457126758E+02  0.55432268655E+02  0.00000000000E+00 0.  1.
         11    1    3    3    0    0 -0.17110688816E+02 -0.74151235489E+02  0.12615441646E+03  0.14732996365E+03  0.00000000000E+00 0. -1.
<mgrwt>
<rscale>  0 0.12684279E+03</rscale>
<asrwt>0</asrwt>
<pdfrwt beam="1">  1        2 0.10846786E+00 0.13450162E+03</pdfrwt>
<pdfrwt beam="2">  1       -2 0.36641955E-02 0.13450162E+03</pdfrwt>
<totfact> 0.12436813E+04</totfact>
</mgrwt>
</event>
<event>
 7    1  0.1020736E-005  0.1290085E+03  0.7546771E-02  0.1243415E+00
          1   -1    0    0  501    0  0.00000000000E+00  0.00000000000E+00  0.41751874463E+03  0.41751874463E+03  0.00000000000E+00 0. -1.
         -1   -1    0    0    0  501 -0.00000000000E+00 -0.00000000000E+00 -0.31306132046E+02  0.31306132046E+02  0.00000000000E+00 0.  1.
         23    2    1    2    0    0  0.15806225662E+02 -0.27712854090E+02  0.12591866577E+03  0.15831473823E+03  0.90499761879E+02 0.  0.
          5    1    1    2  502    0 -0.39855515042E+02  0.68707268202E+02  0.13917768957E+03  0.16031740410E+03  0.47000000000E+01 0. -1.
         -5    1    1    2    0  502  0.24049289381E+02 -0.40994414112E+02  0.12111625723E+03  0.13019273434E+03  0.47000000000E+01 0. -1.
        -11    1    3    3    0    0  0.53497771408E+02 -0.10896320722E+02  0.75078482375E+02  0.92830597685E+02  0.00000000000E+00 0. -1.
         11    1    3    3    0    0 -0.37691545746E+02 -0.16816533368E+02  0.50840183398E+02  0.65484140547E+02  0.00000000000E+00 0.  1.
<mgrwt>
<rscale>  0 0.11980771E+03</rscale>
<asrwt>0</asrwt>
<pdfrwt beam="1">  1        1 0.64233649E-01 0.12900853E+03</pdfrwt>
<pdfrwt beam="2">  1       -1 0.48163283E-02 0.12900853E+03</pdfrwt>
<totfact> 0.10093432E+04</totfact>
</mgrwt>
</event>
<event>
 7    1  0.1020736E-005  0.1585757E+03  0.7546771E-02  0.1198581E+00
         -1   -1    0    0    0  501 -0.00000000000E+00  0.00000000000E+00  0.60483026002E+02  0.60483026002E+02  0.00000000000E+00 0.  1.
          1   -1    0    0  501    0  0.00000000000E+00 -0.00000000000E+00 -0.34978718310E+03  0.34978718310E+03  0.00000000000E+00 0. -1.
         23    2    1    2    0    0  0.96678689867E+02  0.13228426820E+02 -0.12813391804E+03  0.18416824594E+03  0.89318987383E+02 0.  0.
          5    1    1    2  502    0 -0.95306729972E+02 -0.53452059667E+02 -0.80425524726E+02  0.13576026844E+03  0.47000000000E+01 0. -1.
         -5    1    1    2    0  502 -0.13719598958E+01  0.40223632847E+02 -0.80744714327E+02  0.90341694721E+02  0.47000000000E+01 0. -1.
        -11    1    3    3    0    0  0.64537510349E+02  0.29336347830E+02 -0.25366793646E+02  0.75293995550E+02  0.00000000000E+00 0.  1.
         11    1    3    3    0    0  0.32141179518E+02 -0.16107921010E+02 -0.10276712440E+03  0.10887425038E+03  0.00000000000E+00 0. -1.
<mgrwt>
<rscale>  0 0.15155006E+03</rscale>
<asrwt>0</asrwt>
<pdfrwt beam="2">  1        1 0.53813414E-01 0.15857570E+03</pdfrwt>
<pdfrwt beam="1">  1       -1 0.93050807E-02 0.15857570E+03</pdfrwt>
<totfact> 0.47598777E+03</totfact>
</mgrwt>
</event>
<event>
 7    1  0.1020736E-005  0.1339182E+03  0.7546771E-02  0.1235672E+00
         -1   -1    0    0    0  501 -0.00000000000E+00  0.00000000000E+00  0.32208775894E+02  0.32208775894E+02  0.00000000000E+00 0.  1.
          1   -1    0    0  501    0  0.00000000000E+00 -0.00000000000E+00 -0.44375972430E+03  0.44375972430E+03  0.00000000000E+00 0. -1.
         23    2    1    2    0    0 -0.46450948788E+02  0.12329036790E+02 -0.13062545243E+03  0.16475598904E+03  0.88157990618E+02 0.  0.
          5    1    1    2  502    0  0.80568984023E+02  0.11527977586E+02 -0.12108403190E+03  0.14597153228E+03  0.47000000000E+01 0. -1.
         -5    1    1    2    0  502 -0.34118035236E+02 -0.23857014375E+02 -0.15984146408E+03  0.16524097888E+03  0.47000000000E+01 0. -1.
        -11    1    3    3    0    0 -0.13508804342E+02 -0.22533656411E+02 -0.10903598458E+03  0.11215658429E+03  0.00000000000E+00 0. -1.
         11    1    3    3    0    0 -0.32942144446E+02  0.34862693201E+02 -0.21589467849E+02  0.52599404748E+02  0.00000000000E+00 0.  1.
<mgrwt>
<rscale>  0 0.12461507E+03</rscale>
<asrwt>0</asrwt>
<pdfrwt beam="2">  1        1 0.68270731E-01 0.13391823E+03</pdfrwt>
<pdfrwt beam="1">  1       -1 0.49551960E-02 0.13391823E+03</pdfrwt>
<totfact> 0.89811970E+03</totfact>
</mgrwt>
</event>
<event>
 7    1  0.1020736E-005  0.1465263E+03  0.7546771E-02  0.1215180E+00
          2   -1    0    0  501    0  0.00000000000E+00  0.00000000000E+00  0.42414901542E+03  0.42414901542E+03  0.00000000000E+00 0. -1.
         -2   -1    0    0    0  501 -0.00000000000E+00 -0.00000000000E+00 -0.59120509413E+02  0.59120509413E+02  0.00000000000E+00 0.  1.
         23    2    1    2    0    0 -0.12000366992E+02  0.75498006668E+02  0.35549044729E+02  0.12267741062E+03  0.89118206194E+02 0.  0.
          5    1    1    2  502    0  0.24654329984E+02 -0.39359239968E+02  0.23632502042E+02  0.52321801485E+02  0.47000000000E+01 0.  1.
         -5    1    1    2    0  502 -0.12653962992E+02 -0.36138766700E+02  0.30584695923E+03  0.30827031273E+03  0.47000000000E+01 0.  1.
        -11    1    3    3    0    0  0.82646884945E+01 -0.12698200536E+02 -0.13016684363E+02  0.19974569947E+02  0.00000000000E+00 0.  1.
         11    1    3    3    0    0 -0.20265055487E+02  0.88196207204E+02  0.48565729091E+02  0.10270284067E+03  0.00000000000E+00 0. -1.
<mgrwt>
<rscale>  0 0.13863297E+03</rscale>
<asrwt>0</asrwt>
<pdfrwt beam="1">  1        2 0.65253693E-01 0.14652630E+03</pdfrwt>
<pdfrwt beam="2">  1       -2 0.90954633E-02 0.14652630E+03</pdfrwt>
<totfact> 0.55708639E+03</totfact>
</mgrwt>
</event>
<event>
 7    1  0.1020736E-005  0.1437637E+03  0.7546771E-02  0.1218786E+00
         -2   -1    0    0    0  501 -0.00000000000E+00  0.00000000000E+00  0.12882382118E+03  0.12882382118E+03  0.00000000000E+00 0.  1.
          2   -1    0    0  501    0  0.00000000000E+00 -0.00000000000E+00 -0.13047765573E+03  0.13047765573E+03  0.00000000000E+00 0. -1.
         23    2    1    2    0    0  0.63869672572E+02  0.31029921139E+02 -0.71972411525E+01  0.11543094369E+03  0.90721063715E+02 0.  0.
          5    1    1    2  502    0  0.19058889925E+02 -0.11912810276E+02 -0.40826207863E+02  0.46840426795E+02  0.47000000000E+01 0. -1.
         -5    1    1    2    0  502 -0.82928562498E+02 -0.19117110863E+02  0.46369614465E+02  0.97030106417E+02  0.47000000000E+01 0. -1.
        -11    1    3    3    0    0 -0.16555239752E+02  0.98717388677E+01 -0.23802116578E+02  0.30627894886E+02  0.00000000000E+00 0. -1.
         11    1    3    3    0    0  0.80424912324E+02  0.21158182271E+02  0.16604875426E+02  0.84803048809E+02  0.00000000000E+00 0.  1.
<mgrwt>
<rscale>  0 0.13602102E+03</rscale>
<asrwt>0</asrwt>
<pdfrwt beam="2">  1        2 0.20073485E-01 0.14376370E+03</pdfrwt>
<pdfrwt beam="1">  1       -2 0.19819049E-01 0.14376370E+03</pdfrwt>
<totfact> 0.56398701E+03</totfact>
</mgrwt>
</event>
<event>
 7    1  0.1020736E-005  0.1694595E+03  0.7546771E-02  0.1182401E+00
         -1   -1    0    0    0  501 -0.00000000000E+00  0.00000000000E+00  0.41562265433E+02  0.41562265433E+02  0.00000000000E+00 0.  1.
          1   -1    0    0  501    0  0.00000000000E+00 -0.00000000000E+00 -0.65237624625E+03  0.65237624625E+03  0.00000000000E+00 0. -1.
         23    2    1    2    0    0  0.63881445592E+02  0.94921615945E+02 -0.35189432698E+03  0.38449397876E+03  0.10447511705E+03 0.  0.
          5    1    1    2  502    0 -0.19199554179E+02 -0.11678961401E+03 -0.16579107267E+03  0.20375771543E+03  0.47000000000E+01 0.  1.
         -5    1    1    2    0  502 -0.44681891412E+02  0.21867998068E+02 -0.93128581173E+02  0.10568681749E+03  0.47000000000E+01 0.  1.
        -11    1    3    3    0    0  0.32927040028E+02  0.10355573684E+03 -0.18515980805E+03  0.21469078954E+03  0.00000000000E+00 0.  1.
         11    1    3    3    0    0  0.30954405564E+02 -0.86341208949E+01 -0.16673451893E+03  0.16980318922E+03  0.00000000000E+00 0. -1.
<mgrwt>
<rscale>  0 0.16570647E+03</rscale>
<asrwt>0</asrwt>
<pdfrwt beam="2">  1        1 0.10036557E+00 0.16945953E+03</pdfrwt>
<pdfrwt beam="1">  1       -1 0.63941954E-02 0.16945953E+03</pdfrwt>
<totfact> 0.37200198E+03</totfact>
</mgrwt>
</event>
<event>
 7    1  0.1020736E-005  0.1609857E+03  0.7546771E-02  0.1194271E+00
          1   -1    0    0  501    0  0.00000000000E+00  0.00000000000E+00  0.26782870011E+03  0.26782870011E+03  0.00000000000E+00 0. -1.
         -1   -1    0    0    0  501 -0.00000000000E+00 -0.00000000000E+00 -0.96806905915E+02  0.96806905915E+02  0.00000000000E+00 0.  1.
         23    2    1    2    0    0 -0.10624294195E+03 -0.29966374424E+00  0.13784637623E+02  0.13960248683E+03  0.89505226559E+02 0.  0.
          5    1    1    2  502    0  0.42514678801E+02  0.59191650173E+02  0.59067929321E+02  0.93926884533E+02  0.47000000000E+01 0. -1.
         -5    1    1    2    0  502  0.63728263147E+02 -0.58891986429E+02  0.98169227254E+02  0.13110623467E+03  0.47000000000E+01 0.  1.
        -11    1    3    3    0    0 -0.98376827019E+02  0.28926171481E+02  0.27808865997E+02  0.10624526587E+03  0.00000000000E+00 0.  1.
         11    1    3    3    0    0 -0.78661149300E+01 -0.29225835225E+02 -0.14024228375E+02  0.33357220960E+02  0.00000000000E+00 0. -1.
<mgrwt>
<rscale>  0 0.15516072E+03</rscale>
<asrwt>0</asrwt>
<pdfrwt beam="1">  1        1 0.41204415E-01 0.16098566E+03</pdfrwt>
<pdfrwt beam="2">  1       -1 0.14893370E-01 0.16098566E+03</pdfrwt>
<totfact> 0.32073052E+03</totfact>
</mgrwt>
</event>
<event>
 7    1  0.1020736E-005  0.1980602E+03  0.7546771E-02  0.1155811E+00
         -1   -1    0    0    0  501 -0.00000000000E+00  0.00000000000E+00  0.42989083707E+02  0.42989083707E+02  0.00000000000E+00 0.  1.
          1   -1    0    0  501    0  0.00000000000E+00 -0.00000000000E+00 -0.13778251363E+04  0.13778251363E+04  0.00000000000E+00 0. -1.
         23    2    1    2    0    0  0.11069060828E+03 -0.10654213786E+03 -0.19678902124E+03  0.26566104025E+03  0.90808763487E+02 0.  0.
          5    1    1    2  502    0 -0.12936205305E+03  0.72186750153E+02 -0.71040905458E+03  0.72570557563E+03  0.47000000000E+01 0. -1.
         -5    1    1    2    0  502  0.18671444767E+02  0.34355387702E+02 -0.42763797676E+03  0.42944760411E+03  0.47000000000E+01 0. -1.
        -11    1    3    3    0    0  0.41687324009E+02 -0.56296429746E+01 -0.10400239406E+03  0.11218744954E+03  0.00000000000E+00 0.  1.
         11    1    3    3    0    0  0.69003284273E+02 -0.10091249488E+03 -0.92786627179E+02  0.15347359071E+03  0.00000000000E+00 0. -1.
<mgrwt>
<rscale>  0 0.19296844E+03</rscale>
<asrwt>0</asrwt>
<pdfrwt beam="2">  1        1 0.21197308E+00 0.19806015E+03</pdfrwt>
<pdfrwt beam="1">  1       -1 0.66137058E-02 0.19806015E+03</pdfrwt>
<totfact> 0.10008668E+03</totfact>
</mgrwt>
</event>
<event>
 7    1  0.1020736E-005  0.1516181E+03  0.7546771E-02  0.1206942E+00
          2   -1    0    0  501    0  0.00000000000E+00  0.00000000000E+00  0.46243395179E+03  0.46243395179E+03  0.00000000000E+00 0. -1.
         -2   -1    0    0    0  501 -0.00000000000E+00 -0.00000000000E+00 -0.49550913728E+02  0.49550913728E+02  0.00000000000E+00 0.  1.
         23    2    1    2    0    0  0.77057074436E+02  0.37745526363E+02  0.89474956985E+02  0.15480028143E+03  0.92708369211E+02 0.  0.
          5    1    1    2  502    0 -0.72083756126E+02 -0.17772538196E+02  0.67633429667E+02  0.10054005082E+03  0.47000000000E+01 0. -1.
         -5    1    1    2    0  502 -0.49733183106E+01 -0.19972988167E+02  0.25577465141E+03  0.25664453326E+03  0.47000000000E+01 0. -1.
        -11    1    3    3    0    0  0.41385156981E+02  0.63656767423E+02  0.32080328980E+02  0.82426104873E+02  0.00000000000E+00 0.  1.
         11    1    3    3    0    0  0.35671917456E+02 -0.25911241060E+02  0.57394628004E+02  0.72374176555E+02  0.00000000000E+00 0. -1.
<mgrwt>
<rscale>  0 0.14485496E+03</rscale>
<asrwt>0</asrwt>
<pdfrwt beam="1">  1        2 0.71143682E-01 0.15161807E+03</pdfrwt>
<pdfrwt beam="2">  1       -2 0.76232178E-02 0.15161807E+03</pdfrwt>
<totfact> 0.66856322E+03</totfact>
</mgrwt>
</event>
<event>
 7    1  0.1020736E-005  0.1404718E+03  0.7546771E-02  0.1223934E+00
         -2   -1    0    0    0  501 -0.00000000000E+00  0.00000000000E+00  0.25038408248E+02  0.25038408248E+02  0.00000000000E+00 0. -1.
          2   -1    0    0  501    0  0.00000000000E+00 -0.00000000000E+00 -0.64072582420E+03  0.64072582420E+03  0.00000000000E+00 0.  1.
         23    2    1    2    0    0 -0.38859389999E+02  0.50946938713E+02 -0.23091471921E+03  0.25615180020E+03  0.90479248675E+02 0.  0.
          5    1    1    2  502    0 -0.43597775266E+02 -0.19715562405E+02 -0.18593941290E+03  0.19205474396E+03  0.47000000000E+01 0.  1.
         -5    1    1    2    0  502  0.82457165265E+02 -0.31231376307E+02 -0.19883328384E+03  0.21755768829E+03  0.47000000000E+01 0.  1.
        -11    1    3    3    0    0 -0.14825865937E+02  0.63893007761E+02 -0.21448631951E+03  0.22429111440E+03  0.00000000000E+00 0.  1.
         11    1    3    3    0    0 -0.24033524063E+02 -0.12946069048E+02 -0.16428399696E+02  0.31860685794E+02  0.00000000000E+00 0. -1.
<mgrwt>
<rscale>  0 0.13240220E+03</rscale>
<asrwt>0</asrwt>
<pdfrwt beam="2">  1        2 0.98573200E-01 0.14047176E+03</pdfrwt>
<pdfrwt beam="1">  1       -2 0.38520630E-02 0.14047176E+03</pdfrwt>
<totfact> 0.12958896E+04</totfact>
</mgrwt>
</event>
<event>
 7    1  0.1020736E-005  0.1465541E+03  0.7546771E-02  0.1211683E+00
         -2   -1    0    0    0  501 -0.00000000000E+00  0.00000000000E+00  0.41608262725E+02  0.41608262725E+02  0.00000000000E+00 0.  1.
          2   -1    0    0  501    0  0.00000000000E+00 -0.00000000000E+00 -0.49304740076E+03  0.49304740076E+03  0.00000000000E+00 0. -1.
         23    2    1    2    0    0 -0.40522341054E+02  0.64866188252E+02 -0.12964364594E+03  0.18105920894E+03  0.10062444885E+03 0.  0.
          5    1    1    2  502    0 -0.20799119203E+02 -0.65158037174E+02 -0.86382791258E+02  0.11028259062E+03  0.47000000000E+01 0. -1.
         -5    1    1    2    0  502  0.61321460257E+02  0.29184892138E+00 -0.23541270083E+03  0.24331386392E+03  0.47000000000E+01 0. -1.
        -11    1    3    3    0    0 -0.45439937544E+02 -0.12607148612E+02 -0.63355347617E+02  0.78978656559E+02  0.00000000000E+00 0. -1.
         11    1    3    3    0    0  0.49175964895E+01  0.77473336864E+02 -0.66288298328E+02  0.10208055239E+03  0.00000000000E+00 0.  1.
<mgrwt>
<rscale>  0 0.14123051E+03</rscale>
<asrwt>0</asrwt>
<pdfrwt beam="2">  1        2 0.75853446E-01 0.14655413E+03</pdfrwt>
<pdfrwt beam="1">  1       -2 0.64012712E-02 0.14655413E+03</pdfrwt>
<totfact> 0.81317504E+03</totfact>
</mgrwt>
</event>
<event>
 7    1  0.1020736E-005  0.1379750E+03  0.7546771E-02  0.1226702E+00
         -2   -1    0    0    0  501 -0.00000000000E+00  0.00000000000E+00  0.78441106706E+02  0.78441106706E+02  0.00000000000E+00 0.  1.
          2   -1    0    0  501    0  0.00000000000E+00 -0.00000000000E+00 -0.22126361303E+03  0.22126361303E+03  0.00000000000E+00 0. -1.
         23    2    1    2    0    0 -0.21306644108E+02  0.54383325042E+02 -0.14713469084E+02  0.11142561237E+03  0.93742529266E+02 0.  0.
          5    1    1    2  502    0  0.13977237900E+01  0.35033057244E+02 -0.73391806780E+02  0.81472179510E+02  0.47000000000E+01 0. -1.
         -5    1    1    2    0  502  0.19908920318E+02 -0.89416382287E+02 -0.54717230463E+02  0.10680692786E+03  0.47000000000E+01 0. -1.
        -11    1    3    3    0    0 -0.39168132992E+02 -0.11131751454E+02  0.41982257147E+01  0.40935114897E+02  0.00000000000E+00 0.  1.
         11    1    3    3    0    0  0.17861488884E+02  0.65515076497E+02 -0.18911694799E+02  0.70490497471E+02  0.00000000000E+00 0. -1.
<mgrwt>
<rscale>  0 0.13050934E+03</rscale>
<asrwt>0</asrwt>
<pdfrwt beam="2">  1        2 0.34040556E-01 0.13797499E+03</pdfrwt>
<pdfrwt beam="1">  1       -2 0.12067863E-01 0.13797499E+03</pdfrwt>
<totfact> 0.71051960E+03</totfact>
</mgrwt>
</event>
<event>
 7    1  0.1020736E-005  0.2283537E+03  0.7546771E-02  0.1127804E+00
          2   -1    0    0  501    0  0.00000000000E+00  0.00000000000E+00  0.22984903330E+03  0.22984903330E+03  0.00000000000E+00 0. -1.
         -2   -1    0    0    0  501 -0.00000000000E+00 -0.00000000000E+00 -0.56717043066E+02  0.56717043066E+02  0.00000000000E+00 0.  1.
         23    2    1    2    0    0 -0.20324594412E+02  0.30779404450E+02  0.70744181736E+02  0.12082884952E+03  0.90743654047E+02 0.  0.
          5    1    1    2  502    0 -0.17217260173E+02  0.42653876927E+02  0.49046513214E+02  0.67405027433E+02  0.47000000000E+01 0. -1.
         -5    1    1    2    0  502  0.37541854586E+02 -0.73433281377E+02  0.53341295286E+02  0.98332199417E+02  0.47000000000E+01 0. -1.
        -11    1    3    3    0    0  0.29429045643E+02 -0.77062225734E+00  0.50647275161E+02  0.58581644457E+02  0.00000000000E+00 0. -1.
         11    1    3    3    0    0 -0.49753640055E+02  0.31550026707E+02  0.20096906576E+02  0.62247205060E+02  0.00000000000E+00 0.  1.
<mgrwt>
<rscale>  0 0.22835374E+03</rscale>
<asrwt>0</asrwt>
<pdfrwt beam="1">  1        2 0.35361389E-01 0.22835374E+03</pdfrwt>
<pdfrwt beam="2">  1       -2 0.87256991E-02 0.22835374E+03</pdfrwt>
<totfact> 0.11798563E+04</totfact>
</mgrwt>
</event>
<event>
 7    1  0.1020736E-005  0.1963510E+03  0.7546771E-02  0.1165860E+00
          2   -1    0    0  501    0  0.00000000000E+00  0.00000000000E+00  0.53465551265E+03  0.53465551265E+03  0.00000000000E+00 0. -1.
         -2   -1    0    0    0  501 -0.00000000000E+00 -0.00000000000E+00 -0.54755623428E+02  0.54755623428E+02  0.00000000000E+00 0.  1.
         23    2    1    2    0    0 -0.31073215978E+02  0.10843502425E+03  0.18363048699E+03  0.23398281326E+03  0.91126845186E+02 0.  0.
          5    1    1    2  502    0  0.43886596188E+02 -0.53544856679E+02  0.29038572891E+03  0.29856162941E+03  0.47000000000E+01 0. -1.
         -5    1    1    2    0  502 -0.12813380210E+02 -0.54890167566E+02  0.58836733259E+01  0.56866693412E+02  0.47000000000E+01 0.  1.
        -11    1    3    3    0    0  0.23394034210E+02  0.31604882981E+02  0.10212304863E+03  0.10943156092E+03  0.00000000000E+00 0.  1.
         11    1    3    3    0    0 -0.54467250187E+02  0.76830141264E+02  0.81507438356E+02  0.12455125233E+03  0.00000000000E+00 0. -1.
<mgrwt>
<rscale>  0 0.18202211E+03</rscale>
<asrwt>0</asrwt>
<pdfrwt beam="1">  1        2 0.82254691E-01 0.19635105E+03</pdfrwt>
<pdfrwt beam="2">  1       -2 0.84239424E-02 0.19635105E+03</pdfrwt>
<totfact> 0.49384257E+03</totfact>
</mgrwt>
</event>
<event>
 7    1  0.1020736E-005  0.3926501E+03  0.7546771E-02  0.1046994E+00
          1   -1    0    0  501    0  0.00000000000E+00  0.00000000000E+00  0.66714268016E+03  0.66714268016E+03  0.00000000000E+00 0. -1.
         -1   -1    0    0    0  501 -0.00000000000E+00 -0.00000000000E+00 -0.27594270634E+03  0.27594270634E+03  0.00000000000E+00 0.  1.
         23    2    1    2    0    0  0.45993122989E+01 -0.37219212128E+03 -0.46412146310E+01  0.38553324894E+03  0.10033053546E+03 0.  0.
          5    1    1    2  502    0 -0.34174082675E+02  0.26150053636E+02  0.63355586687E+02  0.76731438123E+02  0.47000000000E+01 0.  1.
         -5    1    1    2    0  502  0.29574770376E+02  0.34604206765E+03  0.33248560177E+03  0.48082069944E+03  0.47000000000E+01 0.  1.
        -11    1    3    3    0    0 -0.10652102965E+02 -0.17817534801E+03 -0.50675364528E+02  0.18554760712E+03  0.00000000000E+00 0.  1.
         11    1    3    3    0    0  0.15251415264E+02 -0.19401677327E+03  0.46034149897E+02  0.19998564182E+03  0.00000000000E+00 0. -1.
<mgrwt>
<rscale>  0 0.39085162E+03</rscale>
<asrwt>0</asrwt>
<pdfrwt beam="1">  1        1 0.10263733E+00 0.39265015E+03</pdfrwt>
<pdfrwt beam="2">  1       -1 0.42452724E-01 0.39265015E+03</pdfrwt>
<totfact> 0.16695368E+02</totfact>
</mgrwt>
</event>
<event>
 7    1  0.1020736E-005  0.1505741E+03  0.7546771E-02  0.1208431E+00
         -1   -1    0    0    0  501 -0.00000000000E+00  0.00000000000E+00  0.15553471255E+02  0.15553471255E+02  0.00000000000E+00 0.  1.
          1   -1    0    0  501    0  0.00000000000E+00 -0.00000000000E+00 -0.12805967896E+04  0.12805967896E+04  0.00000000000E+00 0. -1.
         23    2    1    2    0    0  0.60447473307E+02 -0.58224519699E+02 -0.43587794969E+03  0.45342386972E+03  0.92518251599E+02 0.  0.
          5    1    1    2  502    0 -0.58808822392E+02 -0.63416032010E+01 -0.16377996402E+03  0.17419718751E+03  0.47000000000E+01 0.  1.
         -5    1    1    2    0  502 -0.16386509149E+01  0.64566122900E+02 -0.66538540459E+03  0.66852920358E+03  0.47000000000E+01 0.  1.
        -11    1    3    3    0    0  0.27768154909E+02  0.16727987687E+02 -0.54784133645E+02  0.63656871572E+02  0.00000000000E+00 0.  1.
         11    1    3    3    0    0  0.32679318398E+02 -0.74952507386E+02 -0.38109381605E+03  0.38976699815E+03  0.00000000000E+00 0. -1.
<mgrwt>
<rscale>  0 0.14370302E+03</rscale>
<asrwt>0</asrwt>
<pdfrwt beam="2">  1        1 0.19701492E+00 0.15057411E+03</pdfrwt>
<pdfrwt beam="1">  1       -1 0.23928414E-02 0.15057411E+03</pdfrwt>
<totfact> 0.52138295E+03</totfact>
</mgrwt>
</event>
<event>
 7    1  0.1020736E-005  0.2821179E+03  0.7546771E-02  0.1096358E+00
         -1   -1    0    0    0  501 -0.00000000000E+00  0.00000000000E+00  0.17049728066E+03  0.17049728066E+03  0.00000000000E+00 0.  1.
          1   -1    0    0  501    0  0.00000000000E+00 -0.00000000000E+00 -0.45490438821E+03  0.45490438821E+03  0.00000000000E+00 0. -1.
         23    2    1    2    0    0  0.20703403360E+03  0.14526309423E+03 -0.93603718053E+02  0.28481918368E+03  0.91628891416E+02 0.  0.
          5    1    1    2  502    0 -0.33349910507E+02 -0.80131220675E+02 -0.10454250382E+03  0.13595754544E+03  0.47000000000E+01 0.  1.
         -5    1    1    2    0  502 -0.17368412310E+03 -0.65131873551E+02 -0.86260885685E+02  0.20462493975E+03  0.47000000000E+01 0.  1.
        -11    1    3    3    0    0  0.52797023888E+02 -0.49788308275E+01 -0.10745111386E+02  0.54108889349E+02  0.00000000000E+00 0. -1.
         11    1    3    3    0    0  0.15423700972E+03  0.15024192505E+03 -0.82858606666E+02  0.23071029433E+03  0.00000000000E+00 0.  1.
<mgrwt>
<rscale>  0 0.27877929E+03</rscale>
<asrwt>0</asrwt>
<pdfrwt beam="2">  1        1 0.69985289E-01 0.28211788E+03</pdfrwt>
<pdfrwt beam="1">  1       -1 0.26230351E-01 0.28211788E+03</pdfrwt>
<totfact> 0.66005934E+02</totfact>
</mgrwt>
</event>
<event>
 7    1  0.1020736E-005  0.2032749E+03  0.7546771E-02  0.1150886E+00
         -2   -1    0    0    0  501 -0.00000000000E+00  0.00000000000E+00  0.39575904317E+02  0.39575904317E+02  0.00000000000E+00 0.  1.
          2   -1    0    0  501    0  0.00000000000E+00 -0.00000000000E+00 -0.97464808053E+03  0.97464808053E+03  0.00000000000E+00 0. -1.
         23    2    1    2    0    0  0.92018376017E+01 -0.16003104533E+03 -0.37311971096E+03  0.41663611147E+03  0.93127447005E+02 0.  0.
          5    1    1    2  502    0 -0.38208980836E+02  0.14044523827E+02 -0.23194937583E+03  0.23554145668E+03  0.47000000000E+01 0. -1.
         -5    1    1    2    0  502  0.29007143234E+02  0.14598652150E+03 -0.33000308943E+03  0.36204641671E+03  0.47000000000E+01 0. -1.
        -11    1    3    3    0    0  0.20368406863E+02 -0.11985750171E+03 -0.16832120045E+03  0.20763602586E+03  0.00000000000E+00 0.  1.
         11    1    3    3    0    0 -0.11166569262E+02 -0.40173543623E+02 -0.20479851051E+03  0.20900008561E+03  0.00000000000E+00 0. -1.
<mgrwt>
<rscale>  0 0.19864657E+03</rscale>
<asrwt>0</asrwt>
<pdfrwt beam="2">  1        2 0.14994584E+00 0.20327492E+03</pdfrwt>
<pdfrwt beam="1">  1       -2 0.60886013E-02 0.20327492E+03</pdfrwt>
<totfact> 0.39050531E+03</totfact>
</mgrwt>
</event>
<event>
 7    1  0.1020736E-005  0.1132598E+03  0.7546771E-02  0.1287196E+00
         -2   -1    0    0    0  501 -0.00000000000E+00  0.00000000000E+00  0.12813719949E+02  0.12813719949E+02  0.00000000000E+00 0.  1.
          2   -1    0    0  501    0  0.00000000000E+00 -0.00000000000E+00 -0.59339164598E+03  0.59339164598E+03  0.00000000000E+00 0. -1.
         23    2    1    2    0    0  0.29360598397E+01 -0.15318991410E+02 -0.17627045550E+03  0.18633357292E+03  0.58357818390E+02 0.  0.
          5    1    1    2  502    0 -0.11234983325E+02 -0.43440169619E+02 -0.25805027767E+03  0.26196432771E+03  0.47000000000E+01 0. -1.
         -5    1    1    2    0  502  0.82989234853E+01  0.58759161029E+02 -0.14625719285E+03  0.15790746530E+03  0.47000000000E+01 0.  1.
        -11    1    3    3    0    0 -0.27234850653E+02 -0.12881531493E+02 -0.89586158314E+02  0.94516404424E+02  0.00000000000E+00 0. -1.
         11    1    3    3    0    0  0.30170910493E+02 -0.24374599164E+01 -0.86684297188E+02  0.91817168491E+02  0.00000000000E+00 0.  1.
<mgrwt>
<rscale>  0 0.96789358E+02</rscale>
<asrwt>0</asrwt>
<pdfrwt beam="2">  1        2 0.91291004E-01 0.11325984E+03</pdfrwt>
<pdfrwt beam="1">  1       -2 0.19713419E-02 0.11325984E+03</pdfrwt>
<totfact> 0.36997976E+04</totfact>
</mgrwt>
</event>
<event>
 7    1  0.1020736E-005  0.1316139E+03  0.7546771E-02  0.1240500E+00
          2   -1    0    0  501    0  0.00000000000E+00  0.00000000000E+00  0.66746362062E+03  0.66746362062E+03  0.00000000000E+00 0. -1.
         -2   -1    0    0    0  501 -0.00000000000E+00 -0.00000000000E+00 -0.20266849723E+02  0.20266849723E+02  0.00000000000E+00 0.  1.
         23    2    1    2    0    0 -0.35964471963E+02 -0.20077190333E+02  0.20395812475E+03  0.22536404850E+03  0.86565009631E+02 0.  0.
          5    1    1    2  502    0  0.20451127427E+02 -0.39684296427E+01  0.34623291088E+01  0.21635035700E+02  0.47000000000E+01 0.  1.
         -5    1    1    2    0  502  0.15513344536E+02  0.24045619976E+02  0.43977631704E+03  0.44073138614E+03  0.47000000000E+01 0.  1.
        -11    1    3    3    0    0 -0.28210955405E+02  0.30943033331E+02  0.67028675135E+02  0.79032731238E+02  0.00000000000E+00 0.  1.
         11    1    3    3    0    0 -0.77535165578E+01 -0.51020223664E+02  0.13692944961E+03  0.14633131727E+03  0.00000000000E+00 0. -1.
<mgrwt>
<rscale>  0 0.12158805E+03</rscale>
<asrwt>0</asrwt>
<pdfrwt beam="1">  1        2 0.10268669E+00 0.13161387E+03</pdfrwt>
<pdfrwt beam="2">  1       -2 0.31179774E-02 0.13161387E+03</pdfrwt>
<totfact> 0.16807191E+04</totfact>
</mgrwt>
</event>
<event>
 7    1  0.1020736E-005  0.1369605E+03  0.7546771E-02  0.1229458E+00
          2   -1    0    0  501    0  0.00000000000E+00  0.00000000000E+00  0.22639103890E+03  0.22639103890E+03  0.00000000000E+00 0. -1.
         -2   -1    0    0    0  501 -0.00000000000E+00 -0.00000000000E+00 -0.65828448455E+02  0.65828448455E+02  0.00000000000E+00 0.  1.
         23    2    1    2    0    0  0.27443685323E+02  0.48785545306E+02  0.60707096025E+02  0.12272231975E+03  0.90786733404E+02 0.  0.
          5    1    1    2  502    0 -0.13190045100E+02 -0.17419986851E+02 -0.28669335610E+02  0.36351809252E+02  0.47000000000E+01 0.  1.
         -5    1    1    2    0  502 -0.14253640224E+02 -0.31365558455E+02  0.12852483003E+03  0.13314535835E+03  0.47000000000E+01 0.  1.
        -11    1    3    3    0    0  0.46605271258E+02  0.61724796073E+02  0.27148486339E+02  0.81969763143E+02  0.00000000000E+00 0.  1.
         11    1    3    3    0    0 -0.19161585935E+02 -0.12939250767E+02  0.33558609685E+02  0.40752556607E+02  0.00000000000E+00 0. -1.
<mgrwt>
<rscale>  0 0.12865964E+03</rscale>
<asrwt>0</asrwt>
<pdfrwt beam="1">  1        2 0.34829390E-01 0.13696047E+03</pdfrwt>
<pdfrwt beam="2">  1       -2 0.10127454E-01 0.13696047E+03</pdfrwt>
<totfact> 0.91490337E+03</totfact>
</mgrwt>
</event>
<event>
 7    1  0.1020736E-005  0.1648455E+03  0.7546771E-02  0.1190220E+00
          2   -1    0    0  501    0  0.00000000000E+00  0.00000000000E+00  0.59615678905E+03  0.59615678905E+03  0.00000000000E+00 0. -1.
         -2   -1    0    0    0  501 -0.00000000000E+00 -0.00000000000E+00 -0.39594736247E+02  0.39594736247E+02  0.00000000000E+00 0.  1.
         23    2    1    2    0    0  0.74269985658E+02  0.77641157941E+02  0.23192300257E+03  0.27165736804E+03  0.92006881900E+02 0.  0.
          5    1    1    2  502    0 -0.40513926521E+02 -0.58825546944E+02  0.51470180648E+02  0.88165144537E+02  0.47000000000E+01 0.  1.
         -5    1    1    2    0  502 -0.33756059137E+02 -0.18815610997E+02  0.27316886959E+03  0.27592901271E+03  0.47000000000E+01 0.  1.
        -11    1    3    3    0    0  0.66173914147E+02  0.71086135385E+01  0.14409840559E+03  0.15872576915E+03  0.00000000000E+00 0.  1.
         11    1    3    3    0    0  0.80960715114E+01  0.70532544402E+02  0.87824596976E+02  0.11293159889E+03  0.00000000000E+00 0. -1.
<mgrwt>
<rscale>  0 0.15865809E+03</rscale>
<asrwt>0</asrwt>
<pdfrwt beam="1">  1        2 0.91716423E-01 0.16484551E+03</pdfrwt>
<pdfrwt beam="2">  1       -2 0.60914983E-02 0.16484551E+03</pdfrwt>
<totfact> 0.71386114E+03</totfact>
</mgrwt>
</event>
<event>
 7    1  0.1020736E-005  0.1319415E+03  0.7546771E-02  0.1237655E+00
          3   -1    0    0  501    0  0.00000000000E+00  0.00000000000E+00  0.15563286863E+03  0.15563286863E+03  0.00000000000E+00 0. -1.
         -3   -1    0    0    0  501 -0.00000000000E+00 -0.00000000000E+00 -0.10138155441E+03  0.10138155441E+03  0.00000000000E+00 0.  1.
         23    2    1    2    0    0  0.39028156367E+02  0.16130689131E+02 -0.23966084544E+02  0.10363087639E+03  0.91551019721E+02 0.  0.
          5    1    1    2  502    0 -0.43897478620E+02 -0.66512182913E+02  0.37237565047E+02  0.88088508647E+02  0.47000000000E+01 0. -1.
         -5    1    1    2    0  502  0.48693222531E+01  0.50381493782E+02  0.40979833718E+02  0.65295037993E+02  0.47000000000E+01 0. -1.
        -11    1    3    3    0    0  0.23590392537E+02  0.52425438450E+02 -0.28071799476E+02  0.63976238891E+02  0.00000000000E+00 0.  1.
         11    1    3    3    0    0  0.15437763829E+02 -0.36294749319E+02  0.41057149314E+01  0.39654637501E+02  0.00000000000E+00 0. -1.
<mgrwt>
<rscale>  0 0.12335999E+03</rscale>
<asrwt>0</asrwt>
<pdfrwt beam="1">  1        3 0.23943518E-01 0.13194147E+03</pdfrwt>
<pdfrwt beam="2">  1       -3 0.15597162E-01 0.13194147E+03</pdfrwt>
<totfact> 0.12914443E+03</totfact>
</mgrwt>
</event>
<event>
 7    1  0.1020736E-005  0.1255882E+03  0.7546771E-02  0.1249234E+00
          1   -1    0    0  501    0  0.00000000000E+00  0.00000000000E+00  0.59093092654E+02  0.59093092654E+02  0.00000000000E+00 0. -1.
         -1   -1    0    0    0  501 -0.00000000000E+00 -0.00000000000E+00 -0.30699914315E+03  0.30699914315E+03  0.00000000000E+00 0.  1.
         23    2    1    2    0    0 -0.10356771387E+02  0.64408664614E+01 -0.21824206299E+03  0.23704824389E+03  0.91725265873E+02 0.  0.
          5    1    1    2  502    0 -0.69384334036E+01 -0.37905202333E+02  0.36713798768E+02  0.53431631474E+02  0.47000000000E+01 0.  1.
         -5    1    1    2    0  502  0.17295204790E+02  0.31464335871E+02 -0.66377786272E+02  0.75612360438E+02  0.47000000000E+01 0.  1.
        -11    1    3    3    0    0 -0.48518636347E+02  0.15980759150E+02 -0.97672651295E+02  0.11022426932E+03  0.00000000000E+00 0. -1.
         11    1    3    3    0    0  0.38161864960E+02 -0.95398926882E+01 -0.12056941169E+03  0.12682397457E+03  0.00000000000E+00 0.  1.
<mgrwt>
<rscale>  0 0.11635506E+03</rscale>
<asrwt>0</asrwt>
<pdfrwt beam="1">  1        1 0.90912451E-02 0.12558821E+03</pdfrwt>
<pdfrwt beam="2">  1       -1 0.47230637E-01 0.12558821E+03</pdfrwt>
<totfact> 0.31960391E+03</totfact>
</mgrwt>
</event>
<event>
 7    1  0.1020736E-005  0.1593078E+03  0.7546771E-02  0.1197401E+00
         -2   -1    0    0    0  501 -0.00000000000E+00  0.00000000000E+00  0.17053767788E+02  0.17053767788E+02  0.00000000000E+00 0.  1.
          2   -1    0    0  501    0  0.00000000000E+00 -0.00000000000E+00 -0.14259777174E+04  0.14259777174E+04  0.00000000000E+00 0. -1.
         23    2    1    2    0    0  0.74675050877E+02 -0.64634658532E+02 -0.40512871601E+03  0.42667335125E+03  0.90370735419E+02 0.  0.
          5    1    1    2  502    0 -0.16777264168E+02 -0.36195579797E+02 -0.34890415096E+03  0.35120904479E+03  0.47000000000E+01 0. -1.
         -5    1    1    2    0  502 -0.57897786709E+02  0.10083023833E+03 -0.65489108268E+03  0.66514908918E+03  0.47000000000E+01 0. -1.
        -11    1    3    3    0    0  0.20693699995E+02 -0.59945100871E+02 -0.31652112503E+03  0.32281150371E+03  0.00000000000E+00 0. -1.
         11    1    3    3    0    0  0.53981350882E+02 -0.46895576612E+01 -0.88607590984E+02  0.10386184754E+03  0.00000000000E+00 0.  1.
<mgrwt>
<rscale>  0 0.15252735E+03</rscale>
<asrwt>0</asrwt>
<pdfrwt beam="2">  1        2 0.21938120E+00 0.15930783E+03</pdfrwt>
<pdfrwt beam="1">  1       -2 0.26236564E-02 0.15930783E+03</pdfrwt>
<totfact> 0.76108444E+03</totfact>
</mgrwt>
</event>
<event>
 7    1  0.1020736E-005  0.1433350E+03  0.7546771E-02  0.1214417E+00
         -2   -1    0    0    0  501 -0.00000000000E+00  0.00000000000E+00  0.27925722863E+02  0.27925722863E+02  0.00000000000E+00 0.  1.
          2   -1    0    0  501    0  0.00000000000E+00 -0.00000000000E+00 -0.93385411082E+03  0.93385411082E+03  0.00000000000E+00 0. -1.
         23    2    1    2    0    0  0.67337705471E+02  0.19520331963E+02 -0.17258162867E+03  0.21455671268E+03  0.10646480388E+03 0.  0.
          5    1    1    2  502    0 -0.42775153711E+02 -0.64461599096E+02 -0.26619501593E+03  0.27724878366E+03  0.47000000000E+01 0.  1.
         -5    1    1    2    0  502 -0.24562551760E+02  0.44941267133E+02 -0.46715174336E+03  0.46997433734E+03  0.47000000000E+01 0.  1.
        -11    1    3    3    0    0  0.65536024622E+02  0.55623661111E+02 -0.90232037905E+02  0.12462256161E+03  0.00000000000E+00 0. -1.
         11    1    3    3    0    0  0.18016808489E+01 -0.36103329148E+02 -0.82349590765E+02  0.89934151070E+02  0.00000000000E+00 0.  1.
<mgrwt>
<rscale>  0 0.13919429E+03</rscale>
<asrwt>0</asrwt>
<pdfrwt beam="2">  1        2 0.14366987E+00 0.14333500E+03</pdfrwt>
<pdfrwt beam="1">  1       -2 0.42962648E-02 0.14333500E+03</pdfrwt>
<totfact> 0.69246133E+03</totfact>
</mgrwt>
</event>
<event>
 7    1  0.1020736E-005  0.1418620E+03  0.7546771E-02  0.1221368E+00
         -1   -1    0    0    0  501 -0.00000000000E+00  0.00000000000E+00  0.45637604563E+02  0.45637604563E+02  0.00000000000E+00 0.  1.
          1   -1    0    0  501    0  0.00000000000E+00 -0.00000000000E+00 -0.38546984592E+03  0.38546984592E+03  0.00000000000E+00 0. -1.
         23    2    1    2    0    0  0.29342624793E+01 -0.67032952174E+02 -0.94654845763E+02  0.14784646005E+03  0.91635197107E+02 0.  0.
          5    1    1    2  502    0 -0.25691938104E+02  0.46179995786E+02 -0.24636797752E+03  0.25201574959E+03  0.47000000000E+01 0.  1.
         -5    1    1    2    0  502  0.22757675625E+02  0.20852956388E+02  0.11905819288E+01  0.31245240842E+02  0.47000000000E+01 0.  1.
        -11    1    3    3    0    0 -0.18213826758E+02 -0.24590758413E+02  0.10614366722E+02  0.32390024165E+02  0.00000000000E+00 0.  1.
         11    1    3    3    0    0  0.21148089237E+02 -0.42442193762E+02 -0.10526921248E+03  0.11545643588E+03  0.00000000000E+00 0. -1.
<mgrwt>
<rscale>  0 0.13418973E+03</rscale>
<asrwt>0</asrwt>
<pdfrwt beam="2">  1        1 0.59303055E-01 0.14186202E+03</pdfrwt>
<pdfrwt beam="1">  1       -1 0.70211697E-02 0.14186202E+03</pdfrwt>
<totfact> 0.64119177E+03</totfact>
</mgrwt>
</event>
<event>
 7    1  0.1020736E-005  0.2221195E+03  0.7546771E-02  0.1132313E+00
         -3   -1    0    0    0  501 -0.00000000000E+00  0.00000000000E+00  0.19971647742E+03  0.19971647742E+03  0.00000000000E+00 0.  1.
          3   -1    0    0  501    0  0.00000000000E+00 -0.00000000000E+00 -0.61758875912E+02  0.61758875912E+02  0.00000000000E+00 0. -1.
         23    2    1    2    0    0  0.12522613291E+02  0.21615839804E+02  0.68902821665E+02  0.11655684909E+03  0.90630237016E+02 0.  0.
          5    1    1    2  502    0  0.73262909821E+01  0.48499731472E+02  0.48311263245E+02  0.69007004345E+02  0.47000000000E+01 0. -1.
         -5    1    1    2    0  502 -0.19848904273E+02 -0.70115571276E+02  0.20743516599E+02  0.75911499900E+02  0.47000000000E+01 0. -1.
        -11    1    3    3    0    0  0.26424371861E+02 -0.18828458506E+02 -0.33261194840E+01  0.32616274294E+02  0.00000000000E+00 0. -1.
         11    1    3    3    0    0 -0.13901758570E+02  0.40444298310E+02  0.72228941149E+02  0.83940574793E+02  0.00000000000E+00 0.  1.
<mgrwt>
<rscale>  0 0.22211947E+03</rscale>
<asrwt>0</asrwt>
<pdfrwt beam="2">  1        3 0.95013656E-02 0.22211947E+03</pdfrwt>
<pdfrwt beam="1">  1       -3 0.30725612E-01 0.22211947E+03</pdfrwt>
<totfact> 0.20450013E+03</totfact>
</mgrwt>
</event>
<event>
 7    1  0.1020736E-005  0.1487446E+03  0.7546771E-02  0.1211552E+00
         -2   -1    0    0    0  501 -0.00000000000E+00  0.00000000000E+00  0.28762761690E+03  0.28762761690E+03  0.00000000000E+00 0.  1.
          2   -1    0    0  501    0  0.00000000000E+00 -0.00000000000E+00 -0.73476135052E+02  0.73476135052E+02  0.00000000000E+00 0. -1.
         23    2    1    2    0    0 -0.58597822414E+02 -0.55379651078E+02  0.16439401371E+03  0.20425745586E+03  0.90526824662E+02 0.  0.
          5    1    1    2  502    0  0.35025442526E+02  0.78088257286E+02 -0.12239577100E+02  0.86582069724E+02  0.47000000000E+01 0.  1.
         -5    1    1    2    0  502  0.23572379888E+02 -0.22708606208E+02  0.61997045230E+02  0.70264226365E+02  0.47000000000E+01 0.  1.
        -11    1    3    3    0    0 -0.66603318254E+02 -0.40334032206E+02  0.16944735480E+03  0.18648121140E+03  0.00000000000E+00 0.  1.
         11    1    3    3    0    0  0.80054958399E+01 -0.15045618872E+02 -0.50533410862E+01  0.17776244458E+02  0.00000000000E+00 0. -1.
<mgrwt>
<rscale>  0 0.14132850E+03</rscale>
<asrwt>0</asrwt>
<pdfrwt beam="2">  1        2 0.11304021E-01 0.14874460E+03</pdfrwt>
<pdfrwt beam="1">  1       -2 0.44250402E-01 0.14874460E+03</pdfrwt>
<totfact> 0.26058638E+03</totfact>
</mgrwt>
</event>
<event>
 7    1  0.1020736E-005  0.1380171E+03  0.7546771E-02  0.1233448E+00
         -2   -1    0    0    0  501 -0.00000000000E+00  0.00000000000E+00  0.71050518831E+02  0.71050518831E+02  0.00000000000E+00 0.  1.
          2   -1    0    0  501    0  0.00000000000E+00 -0.00000000000E+00 -0.20393385237E+03  0.20393385237E+03  0.00000000000E+00 0. -1.
         23    2    1    2    0    0  0.58525547613E+02 -0.11342135291E+00 -0.23391252255E+02  0.98810473131E+02  0.76099318857E+02 0.  0.
          5    1    1    2  502    0  0.33208826375E+02  0.74121830596E+01 -0.65733806858E+02  0.74167310663E+02  0.47000000000E+01 0. -1.
         -5    1    1    2    0  502 -0.91734373988E+02 -0.72987617067E+01 -0.43758274426E+02  0.10200658741E+03  0.47000000000E+01 0. -1.
        -11    1    3    3    0    0  0.31767896651E+02  0.75872356111E+01 -0.50375087357E+02  0.60036778962E+02  0.00000000000E+00 0. -1.
         11    1    3    3    0    0  0.26757650962E+02 -0.77006569641E+01  0.26983835103E+02  0.38773694170E+02  0.00000000000E+00 0.  1.
<mgrwt>
<rscale>  0 0.12604327E+03</rscale>
<asrwt>0</asrwt>
<pdfrwt beam="2">  1        2 0.31374439E-01 0.13801712E+03</pdfrwt>
<pdfrwt beam="1">  1       -2 0.10930849E-01 0.13801712E+03</pdfrwt>
<totfact> 0.90800074E+03</totfact>
</mgrwt>
</event>
<event>
 7    1  0.1020736E-005  0.1250756E+03  0.7546771E-02  0.1250401E+00
         -2   -1    0    0    0  501 -0.00000000000E+00  0.00000000000E+00  0.60108117095E+01  0.60108117095E+01  0.00000000000E+00 0.  1.
          2   -1    0    0  501    0  0.00000000000E+00 -0.00000000000E+00 -0.24997884008E+04  0.24997884008E+04  0.00000000000E+00 0. -1.
         23    2    1    2    0    0  0.43138063577E+01  0.34263684273E+00 -0.51466044857E+03  0.52273376461E+03  0.91413811920E+02 0.  0.
          5    1    1    2  502    0 -0.15847155611E+02 -0.58380040969E+02 -0.72088146818E+03  0.72343039934E+03  0.47000000000E+01 0. -1.
         -5    1    1    2    0  502  0.11533349253E+02  0.58037404126E+02 -0.12582356723E+04  0.12596350485E+04  0.47000000000E+01 0. -1.
        -11    1    3    3    0    0  0.32449920788E+02  0.34419615365E+02 -0.27159023314E+03  0.27567909246E+03  0.00000000000E+00 0. -1.
         11    1    3    3    0    0 -0.28136114430E+02 -0.34076978523E+02 -0.24307021543E+03  0.24705467215E+03  0.00000000000E+00 0.  1.
<mgrwt>
<rscale>  0 0.11567886E+03</rscale>
<asrwt>0</asrwt>
<pdfrwt beam="2">  1        2 0.38458253E+00 0.12507564E+03</pdfrwt>
<pdfrwt beam="1">  1       -2 0.92474097E-03 0.12507564E+03</pdfrwt>
<totfact> 0.94763828E+03</totfact>
</mgrwt>
</event>
<event>
 7    1  0.1020736E-005  0.1407671E+03  0.7546771E-02  0.1223442E+00
          1   -1    0    0  501    0  0.00000000000E+00  0.00000000000E+00  0.25695252465E+03  0.25695252465E+03  0.00000000000E+00 0. -1.
         -1   -1    0    0    0  501 -0.00000000000E+00 -0.00000000000E+00 -0.64318009496E+02  0.64318009496E+02  0.00000000000E+00 0.  1.
         23    2    1    2    0    0  0.63067389216E+02  0.14611627292E+02  0.54076887792E+02  0.12375198038E+03  0.90549696969E+02 0.  0.
          5    1    1    2  502    0  0.20386168907E+02 -0.31953660672E+02  0.43202439920E+01  0.38436789944E+02  0.47000000000E+01 0. -1.
         -5    1    1    2    0  502 -0.83453558123E+02  0.17342033380E+02  0.13423738337E+03  0.15908176382E+03  0.47000000000E+01 0. -1.
        -11    1    3    3    0    0  0.47017334821E+02 -0.33028483134E+02  0.13190899562E+02  0.58953458788E+02  0.00000000000E+00 0.  1.
         11    1    3    3    0    0  0.16050054395E+02  0.47640110426E+02  0.40885988230E+02  0.64798521596E+02  0.00000000000E+00 0. -1.
<mgrwt>
<rscale>  0 0.13274273E+03</rscale>
<asrwt>0</asrwt>
<pdfrwt beam="1">  1        1 0.39531157E-01 0.14076705E+03</pdfrwt>
<pdfrwt beam="2">  1       -1 0.98950786E-02 0.14076705E+03</pdfrwt>
<totfact> 0.63141078E+03</totfact>
</mgrwt>
</event>
<event>
 7    1  0.1020736E-005  0.1659292E+03  0.7546771E-02  0.1188813E+00
         -1   -1    0    0    0  501 -0.00000000000E+00  0.00000000000E+00  0.17407271860E+03  0.17407271860E+03  0.00000000000E+00 0.  1.
          1   -1    0    0  501    0  0.00000000000E+00 -0.00000000000E+00 -0.14247477516E+03  0.14247477516E+03  0.00000000000E+00 0. -1.
         23    2    1    2    0    0 -0.96196064906E+02 -0.51511945819E+02  0.45219062976E+02  0.15006019790E+03  0.92553421712E+02 0.  0.
          5    1    1    2  502    0 -0.11772779455E+02  0.12410946005E+02 -0.44144561852E+02  0.47575857932E+02  0.47000000000E+01 0.  1.
         -5    1    1    2    0  502  0.10796884436E+03  0.39100999815E+02  0.30523442315E+02  0.11891143793E+03  0.47000000000E+01 0.  1.
        -11    1    3    3    0    0 -0.74203404736E+02  0.94323641783E+00  0.54970335473E+02  0.92351354898E+02  0.00000000000E+00 0.  1.
         11    1    3    3    0    0 -0.21992660170E+02 -0.52455182237E+02 -0.97512724968E+01  0.57708842998E+02  0.00000000000E+00 0. -1.
<mgrwt>
<rscale>  0 0.15989707E+03</rscale>
<asrwt>0</asrwt>
<pdfrwt beam="2">  1        1 0.21919196E-01 0.16592916E+03</pdfrwt>
<pdfrwt beam="1">  1       -1 0.26780418E-01 0.16592916E+03</pdfrwt>
<totfact> 0.27460334E+03</totfact>
</mgrwt>
</event>
<event>
 7    1  0.1020736E-005  0.1335246E+03  0.7546771E-02  0.1235621E+00
          1   -1    0    0  501    0  0.00000000000E+00  0.00000000000E+00  0.33441725452E+03  0.33441725452E+03  0.00000000000E+00 0. -1.
         -1   -1    0    0    0  501 -0.00000000000E+00 -0.00000000000E+00 -0.15871972272E+03  0.15871972272E+03  0.00000000000E+00 0.  1.
         23    2    1    2    0    0 -0.46655928171E+02  0.53506317676E+01 -0.12687071781E+03  0.16241601196E+03  0.89874228841E+02 0.  0.
          5    1    1    2  502    0 -0.25555581854E+02 -0.42717178565E+02  0.87939166503E+02  0.10115943907E+03  0.47000000000E+01 0. -1.
         -5    1    1    2    0  502  0.72211510025E+02  0.37366546797E+02  0.21462908310E+03  0.22956152621E+03  0.47000000000E+01 0. -1.
        -11    1    3    3    0    0 -0.35667729173E+02  0.36846077112E+02 -0.11681556843E+03  0.12757624124E+03  0.00000000000E+00 0.  1.
         11    1    3    3    0    0 -0.10988198998E+02 -0.31495445344E+02 -0.10055149386E+02  0.34839770720E+02  0.00000000000E+00 0. -1.
<mgrwt>
<rscale>  0 0.12464783E+03</rscale>
<asrwt>0</asrwt>
<pdfrwt beam="1">  1        1 0.51448808E-01 0.13352457E+03</pdfrwt>
<pdfrwt beam="2">  1       -1 0.24418419E-01 0.13352457E+03</pdfrwt>
<totfact> 0.10958721E+03</totfact>
</mgrwt>
</event>
<event>
 7    1  0.1020736E-005  0.1497543E+03  0.7546771E-02  0.1218612E+00
          1   -1    0    0  501    0  0.00000000000E+00  0.00000000000E+00  0.33744395628E+03  0.33744395628E+03  0.00000000000E+00 0. -1.
         -1   -1    0    0    0  501 -0.00000000000E+00 -0.00000000000E+00 -0.13921023377E+03  0.13921023377E+03  0.00000000000E+00 0.  1.
         23    2    1    2    0    0 -0.41374075243E+02  0.14028355975E+02 -0.99922515630E+02  0.14300244750E+03  0.92501794505E+02 0.  0.
          5    1    1    2  502    0  0.83456921909E+02  0.95553082591E+01  0.25580893647E+03  0.26928918231E+03  0.47000000000E+01 0. -1.
         -5    1    1    2    0  502 -0.42082846666E+02 -0.23583664234E+02  0.42347301674E+02  0.64362560245E+02  0.47000000000E+01 0.  1.
        -11    1    3    3    0    0 -0.21035602355E+02  0.18823055006E+02 -0.11423754210E+03  0.11767336143E+03  0.00000000000E+00 0.  1.
         11    1    3    3    0    0 -0.20338472888E+02 -0.47946990316E+01  0.14315026466E+02  0.25329086066E+02  0.00000000000E+00 0. -1.
<mgrwt>
<rscale>  0 0.13614535E+03</rscale>
<asrwt>0</asrwt>
<pdfrwt beam="1">  1        1 0.51914455E-01 0.14975428E+03</pdfrwt>
<pdfrwt beam="2">  1       -1 0.21416959E-01 0.14975428E+03</pdfrwt>
<totfact> 0.13446470E+03</totfact>
</mgrwt>
</event>
<event>
 7    1  0.1020736E-005  0.2125548E+03  0.7546771E-02  0.1163346E+00
          2   -1    0    0  501    0  0.00000000000E+00  0.00000000000E+00  0.52491840259E+03  0.52491840259E+03  0.00000000000E+00 0. -1.
         -2   -1    0    0    0  501 -0.00000000000E+00 -0.00000000000E+00 -0.74707202338E+02  0.74707202338E+02  0.00000000000E+00 0.  1.
         23    2    1    2    0    0  0.81263939092E+02 -0.14889106090E+02  0.24205057193E+02  0.12353655368E+03  0.88599559953E+02 0.  0.
          5    1    1    2  502    0  0.52938289844E+02  0.49957114085E+02  0.16721585826E+03  0.18243192986E+03  0.47000000000E+01 0. -1.
         -5    1    1    2    0  502 -0.13420222894E+03 -0.35068007996E+02  0.25879028480E+03  0.29365712139E+03  0.47000000000E+01 0.  1.
        -11    1    3    3    0    0  0.79469033801E+02  0.11095646592E+02  0.43358917786E+02  0.91205462874E+02  0.00000000000E+00 0.  1.
         11    1    3    3    0    0  0.17949052913E+01 -0.25984752681E+02 -0.19153860593E+02  0.32331090803E+02  0.00000000000E+00 0. -1.
<mgrwt>
<rscale>  0 0.18468301E+03</rscale>
<asrwt>0</asrwt>
<pdfrwt beam="1">  1        2 0.80756675E-01 0.21255482E+03</pdfrwt>
<pdfrwt beam="2">  1       -2 0.11493416E-01 0.21255482E+03</pdfrwt>
<totfact> 0.30902993E+03</totfact>
</mgrwt>
</event>
<event>
 7    1  0.1020736E-005  0.1452466E+03  0.7546771E-02  0.1212572E+00
          4   -1    0    0  501    0  0.00000000000E+00  0.00000000000E+00  0.76069017257E+03  0.76069017257E+03  0.00000000000E+00 0. -1.
         -4   -1    0    0    0  501 -0.00000000000E+00 -0.00000000000E+00 -0.24454261127E+02  0.24454261127E+02  0.00000000000E+00 0.  1.
         23    2    1    2    0    0 -0.48937471454E+00 -0.73955014784E+02  0.33191966658E+03  0.35553040914E+03  0.10373824300E+03 0.  0.
          5    1    1    2  502    0 -0.61139173988E+02  0.42018035571E+02  0.23783416855E+03  0.24918004663E+03  0.47000000000E+01 0.  1.
         -5    1    1    2    0  502  0.61628548703E+02  0.31936979212E+02  0.16648207632E+03  0.18043397793E+03  0.47000000000E+01 0.  1.
        -11    1    3    3    0    0 -0.40183834505E+02 -0.58832159649E+02  0.12134834511E+03  0.14071739205E+03  0.00000000000E+00 0.  1.
         11    1    3    3    0    0  0.39694459790E+02 -0.15122855135E+02  0.21057132147E+03  0.21481301709E+03  0.00000000000E+00 0. -1.
<mgrwt>
<rscale>  0 0.14056377E+03</rscale>
<asrwt>0</asrwt>
<pdfrwt beam="1">  1        4 0.11702924E+00 0.14524663E+03</pdfrwt>
<pdfrwt beam="2">  1       -4 0.37621946E-02 0.14524663E+03</pdfrwt>
<totfact> 0.37488575E+02</totfact>
</mgrwt>
</event>
<event>
 7    1  0.1020736E-005  0.1845271E+03  0.7546771E-02  0.1170100E+00
         -2   -1    0    0    0  501 -0.00000000000E+00  0.00000000000E+00  0.43003172489E+02  0.43003172489E+02  0.00000000000E+00 0.  1.
          2   -1    0    0  501    0  0.00000000000E+00 -0.00000000000E+00 -0.68826641932E+03  0.68826641932E+03  0.00000000000E+00 0. -1.
         23    2    1    2    0    0 -0.11408058559E+03  0.73510476583E+02 -0.26992624249E+03  0.31302549519E+03  0.81893919655E+02 0.  0.
          5    1    1    2  502    0 -0.25857929568E+02 -0.38759462019E+01 -0.37348288191E+02  0.45832740604E+02  0.47000000000E+01 0. -1.
         -5    1    1    2    0  502  0.13993851516E+03 -0.69634530381E+02 -0.33798871615E+03  0.37241135602E+03  0.47000000000E+01 0. -1.
        -11    1    3    3    0    0 -0.89478967478E+02  0.40277223697E+02 -0.24692994819E+03  0.26571251322E+03  0.00000000000E+00 0. -1.
         11    1    3    3    0    0 -0.24601618112E+02  0.33233252886E+02 -0.22996294305E+02  0.47312981970E+02  0.00000000000E+00 0.  1.
<mgrwt>
<rscale>  0 0.17764703E+03</rscale>
<asrwt>0</asrwt>
<pdfrwt beam="2">  1        2 0.10588714E+00 0.18452712E+03</pdfrwt>
<pdfrwt beam="1">  1       -2 0.66158727E-02 0.18452712E+03</pdfrwt>
<totfact> 0.53466209E+03</totfact>
</mgrwt>
</event>
<event>
 7    1  0.1020736E-005  0.1352101E+03  0.7546771E-02  0.1231796E+00
          1   -1    0    0  501    0  0.00000000000E+00  0.00000000000E+00  0.50366807399E+03  0.50366807399E+03  0.00000000000E+00 0. -1.
         -1   -1    0    0    0  501 -0.00000000000E+00 -0.00000000000E+00 -0.37928049741E+02  0.37928049741E+02  0.00000000000E+00 0.  1.
         23    2    1    2    0    0  0.42489943904E+02  0.29165453777E+02  0.79015277882E+02  0.13191599951E+03  0.92208447337E+02 0.  0.
          5    1    1    2  502    0 -0.19769349086E+02 -0.10226741600E+02  0.37772212115E+03  0.37840653299E+03  0.47000000000E+01 0. -1.
         -5    1    1    2    0  502 -0.22720594818E+02 -0.18938712177E+02  0.90026252221E+01  0.31273591235E+02  0.47000000000E+01 0. -1.
        -11    1    3    3    0    0 -0.15885418652E+02  0.14292719244E+02 -0.10664340969E+02  0.23882138041E+02  0.00000000000E+00 0.  1.
         11    1    3    3    0    0  0.58375362555E+02  0.14872734533E+02  0.89679618851E+02  0.10803386147E+03  0.00000000000E+00 0. -1.
<mgrwt>
<rscale>  0 0.12711804E+03</rscale>
<asrwt>0</asrwt>
<pdfrwt beam="1">  1        1 0.77487391E-01 0.13521011E+03</pdfrwt>
<pdfrwt beam="2">  1       -1 0.58350849E-02 0.13521011E+03</pdfrwt>
<totfact> 0.59888201E+03</totfact>
</mgrwt>
</event>
<event>
 7    1  0.1020736E-005  0.2412427E+03  0.7546771E-02  0.1120567E+00
          3   -1    0    0  501    0  0.00000000000E+00  0.00000000000E+00  0.82392380259E+03  0.82392380259E+03  0.00000000000E+00 0. -1.
         -3   -1    0    0    0  501 -0.00000000000E+00 -0.00000000000E+00 -0.82403979338E+02  0.82403979338E+02  0.00000000000E+00 0.  1.
         23    2    1    2    0    0 -0.12558434086E+03  0.17242687691E+03  0.17451516329E+03  0.29013597898E+03  0.90669121140E+02 0.  0.
          5    1    1    2  502    0  0.11477141424E+03 -0.15344317387E+03  0.35877431147E+03  0.40676575778E+03  0.47000000000E+01 0. -1.
         -5    1    1    2    0  502  0.10812926621E+02 -0.18983703042E+02  0.20823034849E+03  0.20942604517E+03  0.47000000000E+01 0.  1.
        -11    1    3    3    0    0 -0.13586793675E+03  0.13132272975E+03  0.14935153501E+03  0.24085604953E+03  0.00000000000E+00 0.  1.
         11    1    3    3    0    0  0.10283595887E+02  0.41104147160E+02  0.25163628284E+02  0.49279929450E+02  0.00000000000E+00 0. -1.
<mgrwt>
<rscale>  0 0.23884219E+03</rscale>
<asrwt>0</asrwt>
<pdfrwt beam="1">  1        3 0.12675750E+00 0.24124273E+03</pdfrwt>
<pdfrwt beam="2">  1       -3 0.12677536E-01 0.24124273E+03</pdfrwt>
<totfact> 0.63760576E+01</totfact>
</mgrwt>
</event>
<event>
 7    1  0.1020736E-005  0.1937566E+03  0.7546771E-02  0.1159853E+00
          1   -1    0    0  501    0  0.00000000000E+00  0.00000000000E+00  0.24264092957E+03  0.24264092957E+03  0.00000000000E+00 0. -1.
         -1   -1    0    0    0  501 -0.00000000000E+00 -0.00000000000E+00 -0.14629431493E+03  0.14629431493E+03  0.00000000000E+00 0.  1.
         23    2    1    2    0    0 -0.36379088008E+02 -0.14349880903E+03  0.20619341152E+01  0.17345616617E+03  0.90373910922E+02 0.  0.
          5    1    1    2  502    0 -0.17098717444E+02  0.87790178958E+02  0.10428932796E+03  0.13746939873E+03  0.47000000000E+01 0.  1.
         -5    1    1    2    0  502  0.53477805452E+02  0.55708630067E+02 -0.10004647443E+02  0.78009679594E+02  0.47000000000E+01 0.  1.
        -11    1    3    3    0    0  0.26039738051E+02 -0.27917200064E+02 -0.14951562057E+02  0.40999844208E+02  0.00000000000E+00 0.  1.
         11    1    3    3    0    0 -0.62418826058E+02 -0.11558160896E+03  0.17013496172E+02  0.13245632197E+03  0.00000000000E+00 0. -1.
<mgrwt>
<rscale>  0 0.18846565E+03</rscale>
<asrwt>0</asrwt>
<pdfrwt beam="1">  1        1 0.37329374E-01 0.19375663E+03</pdfrwt>
<pdfrwt beam="2">  1       -1 0.22506818E-01 0.19375663E+03</pdfrwt>
<totfact> 0.18829075E+03</totfact>
</mgrwt>
</event>
<event>
 7    1  0.1020736E-005  0.1253867E+03  0.7546771E-02  0.1250176E+00
         -1   -1    0    0    0  501 -0.00000000000E+00  0.00000000000E+00  0.15235829918E+03  0.15235829918E+03  0.00000000000E+00 0.  1.
          1   -1    0    0  501    0  0.00000000000E+00 -0.00000000000E+00 -0.77010366007E+02  0.77010366007E+02  0.00000000000E+00 0. -1.
         23    2    1    2    0    0  0.96960009534E+01  0.17331877355E+01  0.30768914662E+02  0.96293117261E+02  0.90711751985E+02 0.  0.
          5    1    1    2  502    0 -0.10887536987E+02 -0.61980547493E+02  0.11402307687E+02  0.64126666448E+02  0.47000000000E+01 0.  1.
         -5    1    1    2    0  502  0.11915360340E+01  0.60247359757E+02  0.33176710820E+02  0.68948881475E+02  0.47000000000E+01 0.  1.
        -11    1    3    3    0    0  0.26799089738E+02 -0.12955002517E+02  0.55407424830E+02  0.62896788688E+02  0.00000000000E+00 0.  1.
         11    1    3    3    0    0 -0.17103088785E+02  0.14688190253E+02 -0.24638510167E+02  0.33396328573E+02  0.00000000000E+00 0. -1.
<mgrwt>
<rscale>  0 0.11580856E+03</rscale>
<asrwt>0</asrwt>
<pdfrwt beam="2">  1        1 0.11847749E-01 0.12538665E+03</pdfrwt>
<pdfrwt beam="1">  1       -1 0.23439738E-01 0.12538665E+03</pdfrwt>
<totfact> 0.74395381E+03</totfact>
</mgrwt>
</event>
<event>
 7    1  0.1020736E-005  0.1525788E+03  0.7546771E-02  0.1216138E+00
         -1   -1    0    0    0  501 -0.00000000000E+00  0.00000000000E+00  0.29278727257E+02  0.29278727257E+02  0.00000000000E+00 0.  1.
          1   -1    0    0  501    0  0.00000000000E+00 -0.00000000000E+00 -0.10112149385E+04  0.10112149385E+04  0.00000000000E+00 0. -1.
         23    2    1    2    0    0 -0.30431305027E+02  0.32417775971E+02 -0.91104198306E+02  0.13668950704E+03  0.91690075035E+02 0.  0.
          5    1    1    2  502    0  0.85169706467E+02 -0.40856119988E+02 -0.48001457512E+03  0.48924348107E+03  0.47000000000E+01 0. -1.
         -5    1    1    2    0  502 -0.54738401440E+02  0.84383440169E+01 -0.41081743784E+03  0.41456067768E+03  0.47000000000E+01 0.  1.
        -11    1    3    3    0    0 -0.63491734302E+02  0.20534986732E+02 -0.61517230831E+02  0.90759328412E+02  0.00000000000E+00 0.  1.
         11    1    3    3    0    0  0.33060429275E+02  0.11882789239E+02 -0.29586967475E+02  0.45930178623E+02  0.00000000000E+00 0. -1.
<mgrwt>
<rscale>  0 0.13793244E+03</rscale>
<asrwt>0</asrwt>
<pdfrwt beam="2">  1        1 0.15557154E+00 0.15257877E+03</pdfrwt>
<pdfrwt beam="1">  1       -1 0.45044194E-02 0.15257877E+03</pdfrwt>
<totfact> 0.31869777E+03</totfact>
</mgrwt>
</event>
<event>
 7    1  0.1020736E-005  0.1280499E+03  0.7546771E-02  0.1243508E+00
         -2   -1    0    0    0  501 -0.00000000000E+00  0.00000000000E+00  0.19944740210E+02  0.19944740210E+02  0.00000000000E+00 0.  1.
          2   -1    0    0  501    0  0.00000000000E+00 -0.00000000000E+00 -0.68499341722E+03  0.68499341722E+03  0.00000000000E+00 0. -1.
         23    2    1    2    0    0 -0.22160563815E+02  0.16524331641E+02 -0.20173886965E+03  0.22425868229E+03  0.93964040632E+02 0.  0.
          5    1    1    2  502    0  0.18804929973E+02  0.42820278143E+02 -0.34507218770E+03  0.34825867733E+03  0.47000000000E+01 0.  1.
         -5    1    1    2    0  502  0.33556338418E+01 -0.59344609784E+02 -0.11823761967E+03  0.13242079781E+03  0.47000000000E+01 0.  1.
        -11    1    3    3    0    0 -0.36856746308E+02  0.46153103757E+02 -0.16272517025E+03  0.17311270828E+03  0.00000000000E+00 0. -1.
         11    1    3    3    0    0  0.14696182493E+02 -0.29628772116E+02 -0.39013699393E+02  0.51145974009E+02  0.00000000000E+00 0.  1.
<mgrwt>
<rscale>  0 0.11975150E+03</rscale>
<asrwt>0</asrwt>
<pdfrwt beam="2">  1        2 0.10538361E+00 0.12804991E+03</pdfrwt>
<pdfrwt beam="1">  1       -2 0.30684213E-02 0.12804991E+03</pdfrwt>
<totfact> 0.16656100E+04</totfact>
</mgrwt>
</event>
<event>
 7    1  0.1020736E-005  0.1257366E+03  0.7546771E-02  0.1247895E+00
         -2   -1    0    0    0  501 -0.00000000000E+00  0.00000000000E+00  0.75864817636E+02  0.75864817636E+02  0.00000000000E+00 0.  1.
          2   -1    0    0  501    0  0.00000000000E+00 -0.00000000000E+00 -0.62731968921E+03  0.62731968921E+03  0.00000000000E+00 0. -1.
         23    2    1    2    0    0  0.24566170081E+01 -0.13331397146E+02  0.36823719922E+02  0.10161871779E+03  0.93736952899E+02 0.  0.
          5    1    1    2  502    0 -0.14810635809E+02 -0.22598474264E+02 -0.53634800713E+03  0.53704871355E+03  0.47000000000E+01 0.  1.
         -5    1    1    2    0  502  0.12354018800E+02  0.35929871410E+02 -0.51930584373E+02  0.64517075518E+02  0.47000000000E+01 0.  1.
        -11    1    3    3    0    0  0.14064394379E+02  0.16686686963E+02  0.58752028386E+02  0.62674185679E+02  0.00000000000E+00 0.  1.
         11    1    3    3    0    0 -0.11607777370E+02 -0.30018084109E+02 -0.21928308464E+02  0.38944532108E+02  0.00000000000E+00 0. -1.
<mgrwt>
<rscale>  0 0.11713796E+03</rscale>
<asrwt>0</asrwt>
<pdfrwt beam="2">  1        2 0.96510716E-01 0.12573662E+03</pdfrwt>
<pdfrwt beam="1">  1       -2 0.11671511E-01 0.12573662E+03</pdfrwt>
<totfact> 0.24230917E+03</totfact>
</mgrwt>
</event>
<event>
 7    1  0.1020736E-005  0.1279037E+03  0.7546771E-02  0.1245981E+00
         -1   -1    0    0    0  501 -0.00000000000E+00  0.00000000000E+00  0.69747150275E+02  0.69747150275E+02  0.00000000000E+00 0.  1.
          1   -1    0    0  501    0  0.00000000000E+00 -0.00000000000E+00 -0.22103836668E+03  0.22103836668E+03  0.00000000000E+00 0. -1.
         23    2    1    2    0    0  0.25054600368E+02 -0.10468260202E+02 -0.10958802094E+01  0.93509044529E+02  0.89473029367E+02 0.  0.
          5    1    1    2  502    0  0.13619084259E+02 -0.38397457965E+02 -0.12201301096E+03  0.12872105141E+03  0.47000000000E+01 0.  1.
         -5    1    1    2    0  502 -0.38673684627E+02  0.48865718167E+02 -0.28182325243E+02  0.68555421016E+02  0.47000000000E+01 0.  1.
        -11    1    3    3    0    0 -0.22048706061E+02 -0.31914932277E+02 -0.12025070626E+02  0.40611706006E+02  0.00000000000E+00 0. -1.
         11    1    3    3    0    0  0.47103306429E+02  0.21446672075E+02  0.10929190416E+02  0.52897338523E+02  0.00000000000E+00 0.  1.
<mgrwt>
<rscale>  0 0.11826831E+03</rscale>
<asrwt>0</asrwt>
<pdfrwt beam="2">  1        1 0.34005902E-01 0.12790374E+03</pdfrwt>
<pdfrwt beam="1">  1       -1 0.10730331E-01 0.12790374E+03</pdfrwt>
<totfact> 0.66783488E+03</totfact>
</mgrwt>
</event>
<event>
 7    1  0.1020736E-005  0.2155320E+03  0.7546771E-02  0.1137259E+00
          2   -1    0    0  501    0  0.00000000000E+00  0.00000000000E+00  0.43381651384E+03  0.43381651384E+03  0.00000000000E+00 0. -1.
         -2   -1    0    0    0  501 -0.00000000000E+00 -0.00000000000E+00 -0.26770563149E+02  0.26770563149E+02  0.00000000000E+00 0.  1.
         23    2    1    2    0    0 -0.13109766211E+02 -0.15537772125E+02  0.13097710095E+03  0.15724964123E+03  0.84611821635E+02 0.  0.
          5    1    1    2  502    0  0.28623595590E+02  0.34125825748E+02  0.27502912984E+03  0.27865210293E+03  0.47000000000E+01 0. -1.
         -5    1    1    2    0  502 -0.15513829379E+02 -0.18588053623E+02  0.10397199027E+01  0.24685332831E+02  0.47000000000E+01 0.  1.
        -11    1    3    3    0    0 -0.40591679763E+02  0.52441766827E+01  0.30541136289E+02  0.51068061064E+02  0.00000000000E+00 0.  1.
         11    1    3    3    0    0  0.27481913552E+02 -0.20781948808E+02  0.10043596466E+03  0.10618158016E+03  0.00000000000E+00 0. -1.
<mgrwt>
<rscale>  0 0.21553202E+03</rscale>
<asrwt>0</asrwt>
<pdfrwt beam="1">  1        2 0.66740997E-01 0.21553202E+03</pdfrwt>
<pdfrwt beam="2">  1       -2 0.41185485E-02 0.21553202E+03</pdfrwt>
<totfact> 0.18729013E+04</totfact>
</mgrwt>
</event>
<event>
 7    1  0.1020736E-005  0.1285399E+03  0.7546771E-02  0.1244469E+00
          3   -1    0    0  501    0  0.00000000000E+00  0.00000000000E+00  0.14865653605E+02  0.14865653605E+02  0.00000000000E+00 0. -1.
         -3   -1    0    0    0  501 -0.00000000000E+00 -0.00000000000E+00 -0.85963670867E+03  0.85963670867E+03  0.00000000000E+00 0.  1.
         23    2    1    2    0    0  0.16774988024E+02 -0.24810699001E+02 -0.42552162959E+03  0.43599058301E+03  0.90123028231E+02 0.  0.
          5    1    1    2  502    0 -0.69721018344E+02  0.14420230666E+02 -0.19011531062E+03  0.20306374562E+03  0.47000000000E+01 0. -1.
         -5    1    1    2    0  502  0.52946030319E+02  0.10390468335E+02 -0.22913411485E+03  0.23544803365E+03  0.47000000000E+01 0. -1.
        -11    1    3    3    0    0  0.26914092724E+02  0.29371343388E+02 -0.17558618925E+03  0.18004875466E+03  0.00000000000E+00 0. -1.
         11    1    3    3    0    0 -0.10139104699E+02 -0.54182042388E+02 -0.24993544033E+03  0.25594182835E+03  0.00000000000E+00 0.  1.
<mgrwt>
<rscale>  0 0.11917194E+03</rscale>
<asrwt>0</asrwt>
<pdfrwt beam="1">  1        3 0.22870231E-02 0.12853988E+03</pdfrwt>
<pdfrwt beam="2">  1       -3 0.13225183E+00 0.12853988E+03</pdfrwt>
<totfact> 0.83299923E+02</totfact>
</mgrwt>
</event>
<event>
 6    1  0.1020736E-005  0.1145027E+03  0.7546771E-02  0.1310663E+00
          2   -1    0    0  501    0  0.00000000000E+00  0.00000000000E+00  0.11276483110E+04  0.11276483110E+04  0.00000000000E+00 0.  1.
         -2   -1    0    0    0  501 -0.00000000000E+00 -0.00000000000E+00 -0.47061006421E+02  0.47061006421E+02  0.00000000000E+00 0. -1.
          5    1    1    2  502    0  0.14962344018E+02  0.27530061566E+01  0.19592860865E+02  0.25247197434E+02  0.47000000000E+01 0. -1.
         -5    1    1    2    0  502 -0.44335270443E+01 -0.19997714160E+02  0.10969906833E+04  0.10971919677E+04  0.47000000000E+01 0.  1.
        -11    1    1    2    0    0  0.75364430299E+01  0.18272899579E+02 -0.17594207642E+02  0.26462293459E+02  0.00000000000E+00 0. -1.
         11    1    1    2    0    0 -0.18065260004E+02 -0.10281915756E+01 -0.18402031953E+02  0.25807858821E+02  0.00000000000E+00 0.  1.
<mgrwt>
<rscale>  0 0.86850578E+02</rscale>
<asrwt>0</asrwt>
<pdfrwt beam="1">  1        2 0.17348434E+00 0.11450270E+03</pdfrwt>
<pdfrwt beam="2">  1       -2 0.72401557E-02 0.11450270E+03</pdfrwt>
<totfact> 0.24057247E+03</totfact>
</mgrwt>
</event>
<event>
 7    1  0.1020736E-005  0.1323137E+03  0.7546771E-02  0.1238012E+00
         -2   -1    0    0    0  501 -0.00000000000E+00  0.00000000000E+00  0.27515314143E+02  0.27515314143E+02  0.00000000000E+00 0.  1.
          2   -1    0    0  501    0  0.00000000000E+00 -0.00000000000E+00 -0.48912616302E+03  0.48912616302E+03  0.00000000000E+00 0. -1.
         23    2    1    2    0    0 -0.15946423033E+02  0.40317156017E+02 -0.21406457925E+03  0.23595289216E+03  0.89276882517E+02 0.  0.
          5    1    1    2  502    0  0.36970480904E+02  0.39762147807E+01 -0.22211731497E+03  0.22525722708E+03  0.47000000000E+01 0. -1.
         -5    1    1    2    0  502 -0.21024057871E+02 -0.44293370798E+02 -0.25428954652E+02  0.55431357919E+02  0.47000000000E+01 0. -1.
        -11    1    3    3    0    0 -0.17458127445E+02  0.53235013075E+02 -0.21568852184E+03  0.22284589133E+03  0.00000000000E+00 0. -1.
         11    1    3    3    0    0  0.15117044124E+01 -0.12917857057E+02  0.16239425869E+01  0.13107000828E+02  0.00000000000E+00 0.  1.
<mgrwt>
<rscale>  0 0.12313568E+03</rscale>
<asrwt>0</asrwt>
<pdfrwt beam="2">  1        2 0.75250186E-01 0.13231374E+03</pdfrwt>
<pdfrwt beam="1">  1       -2 0.42331249E-02 0.13231374E+03</pdfrwt>
<totfact> 0.15182197E+04</totfact>
</mgrwt>
</event>
<event>
 7    1  0.1020736E-005  0.1897084E+03  0.7546771E-02  0.1165745E+00
         -2   -1    0    0    0  501 -0.00000000000E+00  0.00000000000E+00  0.72107259275E+02  0.72107259275E+02  0.00000000000E+00 0.  1.
          2   -1    0    0  501    0  0.00000000000E+00 -0.00000000000E+00 -0.42711875035E+03  0.42711875035E+03  0.00000000000E+00 0. -1.
         23    2    1    2    0    0  0.41018399518E+02 -0.12770955599E+03 -0.15807673765E+03  0.22578026396E+03  0.89421657427E+02 0.  0.
          5    1    1    2  502    0 -0.50011931672E+02 -0.31409317166E+01 -0.94094774908E+02  0.10670977194E+03  0.47000000000E+01 0. -1.
         -5    1    1    2    0  502  0.89935321544E+01  0.13085048771E+03 -0.10283997852E+03  0.16673597373E+03  0.47000000000E+01 0.  1.
        -11    1    3    3    0    0 -0.26540691928E+02 -0.59652868371E+02 -0.62153443530E+02  0.90143904816E+02  0.00000000000E+00 0.  1.
         11    1    3    3    0    0  0.67559091445E+02 -0.68056687621E+02 -0.95923294116E+02  0.13563635914E+03  0.00000000000E+00 0. -1.
<mgrwt>
<rscale>  0 0.18214302E+03</rscale>
<asrwt>0</asrwt>
<pdfrwt beam="2">  1        2 0.65710578E-01 0.18970840E+03</pdfrwt>
<pdfrwt beam="1">  1       -2 0.11093424E-01 0.18970840E+03</pdfrwt>
<totfact> 0.40910848E+03</totfact>
</mgrwt>
</event>
<event>
 7    1  0.1020736E-005  0.1474923E+03  0.7546771E-02  0.1215046E+00
          2   -1    0    0  501    0  0.00000000000E+00  0.00000000000E+00  0.22967020853E+03  0.22967020853E+03  0.00000000000E+00 0.  1.
         -2   -1    0    0    0  501 -0.00000000000E+00 -0.00000000000E+00 -0.77614126523E+02  0.77614126523E+02  0.00000000000E+00 0. -1.
         23    2    1    2    0    0  0.75733775968E+02  0.19841150850E+02  0.40474421573E+02  0.12233990093E+03  0.84850435882E+02 0.  0.
          5    1    1    2  502    0 -0.17876368697E+01 -0.22028093172E+02 -0.22404567939E+02  0.31819604003E+02  0.47000000000E+01 0. -1.
         -5    1    1    2    0  502 -0.73946139098E+02  0.21869423219E+01  0.13398622837E+03  0.15312483011E+03  0.47000000000E+01 0. -1.
        -11    1    3    3    0    0  0.23147413866E+02  0.33266918682E+02  0.52922048335E+02  0.66657586569E+02  0.00000000000E+00 0.  1.
         11    1    3    3    0    0  0.52586362102E+02 -0.13425767832E+02 -0.12447626762E+02  0.55682314365E+02  0.00000000000E+00 0. -1.
<mgrwt>
<rscale>  0 0.13873185E+03</rscale>
<asrwt>0</asrwt>
<pdfrwt beam="1">  1        2 0.35333878E-01 0.14749229E+03</pdfrwt>
<pdfrwt beam="2">  1       -2 0.11940635E-01 0.14749229E+03</pdfrwt>
<totfact> 0.69739862E+03</totfact>
</mgrwt>
</event>
<event>
 7    1  0.1020736E-005  0.2128281E+03  0.7546771E-02  0.1142956E+00
         -2   -1    0    0    0  501 -0.00000000000E+00  0.00000000000E+00  0.55088829456E+03  0.55088829456E+03  0.00000000000E+00 0.  1.
          2   -1    0    0  501    0  0.00000000000E+00 -0.00000000000E+00 -0.77175795814E+02  0.77175795814E+02  0.00000000000E+00 0. -1.
         23    2    1    2    0    0  0.17211282356E+03 -0.69599758184E+01  0.27271068208E+03  0.33532268223E+03  0.91645620719E+02 0.  0.
          5    1    1    2  502    0  0.60627575845E+01 -0.60809254031E+01 -0.11485664363E+02  0.15091228218E+02  0.47000000000E+01 0. -1.
         -5    1    1    2    0  502 -0.17817558115E+03  0.13040901221E+02  0.21248748102E+03  0.27765017993E+03  0.47000000000E+01 0. -1.
        -11    1    3    3    0    0  0.77482433820E+02  0.57744661928E+01  0.20223561337E+03  0.21664744477E+03  0.00000000000E+00 0.  1.
         11    1    3    3    0    0  0.94630389741E+02 -0.12734442011E+02  0.70475068717E+02  0.11867523746E+03  0.00000000000E+00 0. -1.
<mgrwt>
<rscale>  0 0.20825472E+03</rscale>
<asrwt>0</asrwt>
<pdfrwt beam="2">  1        2 0.11873200E-01 0.21282810E+03</pdfrwt>
<pdfrwt beam="1">  1       -2 0.84752043E-01 0.21282810E+03</pdfrwt>
<totfact> 0.64527354E+02</totfact>
</mgrwt>
</event>
<event>
 7    1  0.1020736E-005  0.1462109E+03  0.7546771E-02  0.1212588E+00
          2   -1    0    0  501    0  0.00000000000E+00  0.00000000000E+00  0.18749554363E+03  0.18749554363E+03  0.00000000000E+00 0. -1.
         -2   -1    0    0    0  501 -0.00000000000E+00 -0.00000000000E+00 -0.13862960218E+03  0.13862960218E+03  0.00000000000E+00 0.  1.
         23    2    1    2    0    0  0.23093472474E+02 -0.85832792497E+02 -0.65041242262E+02  0.14078096855E+03  0.87683186376E+02 0.  0.
          5    1    1    2  502    0 -0.57129428790E+02  0.66367118908E+01  0.61595442617E+02  0.84403235304E+02  0.47000000000E+01 0. -1.
         -5    1    1    2    0  502  0.34035956316E+02  0.79196080606E+02  0.52311741095E+02  0.10094094195E+03  0.47000000000E+01 0.  1.
        -11    1    3    3    0    0 -0.42521923368E+01 -0.31558933313E+02  0.18989737883E+02  0.37076374640E+02  0.00000000000E+00 0. -1.
         11    1    3    3    0    0  0.27345664811E+02 -0.54273859183E+02 -0.84030980145E+02  0.10370459391E+03  0.00000000000E+00 0.  1.
<mgrwt>
<rscale>  0 0.14055190E+03</rscale>
<asrwt>0</asrwt>
<pdfrwt beam="1">  1        2 0.28845468E-01 0.14621087E+03</pdfrwt>
<pdfrwt beam="2">  1       -2 0.21327631E-01 0.14621087E+03</pdfrwt>
<totfact> 0.33321838E+03</totfact>
</mgrwt>
</event>
<event>
 7    1  0.1020736E-005  0.1477562E+03  0.7546771E-02  0.1212523E+00
          2   -1    0    0  501    0  0.00000000000E+00  0.00000000000E+00  0.15243363189E+03  0.15243363189E+03  0.00000000000E+00 0. -1.
         -2   -1    0    0    0  501 -0.00000000000E+00 -0.00000000000E+00 -0.14847733665E+03  0.14847733665E+03  0.00000000000E+00 0.  1.
         23    2    1    2    0    0 -0.57992384479E+02 -0.53323209642E+02  0.69058988283E+02  0.13944811245E+03  0.92033422508E+02 0.  0.
          5    1    1    2  502    0 -0.23254521131E+02 -0.24036122652E+02 -0.25798134924E+02  0.42498725990E+02  0.47000000000E+01 0. -1.
         -5    1    1    2    0  502  0.81246905610E+02  0.77359332294E+02 -0.39304558119E+02  0.11896413011E+03  0.47000000000E+01 0. -1.
        -11    1    3    3    0    0 -0.51844759243E+02 -0.64037389183E+02  0.14688923805E+02  0.83692477301E+02  0.00000000000E+00 0.  1.
         11    1    3    3    0    0 -0.61476252364E+01  0.10714179541E+02  0.54370064477E+02  0.55755635146E+02  0.00000000000E+00 0. -1.
<mgrwt>
<rscale>  0 0.14060073E+03</rscale>
<asrwt>0</asrwt>
<pdfrwt beam="1">  1        2 0.23451328E-01 0.14775620E+03</pdfrwt>
<pdfrwt beam="2">  1       -2 0.22842667E-01 0.14775620E+03</pdfrwt>
<totfact> 0.37219067E+03</totfact>
</mgrwt>
</event>
<event>
 7    1  0.1020736E-005  0.1628600E+03  0.7546771E-02  0.1192828E+00
          1   -1    0    0  501    0  0.00000000000E+00  0.00000000000E+00  0.64739380877E+03  0.64739380877E+03  0.00000000000E+00 0. -1.
         -1   -1    0    0    0  501 -0.00000000000E+00 -0.00000000000E+00 -0.35442433850E+02  0.35442433850E+02  0.00000000000E+00 0.  1.
         23    2    1    2    0    0  0.99179180747E+02  0.32624825176E+02  0.24662332617E+03  0.28285128688E+03  0.90999430566E+02 0.  0.
          5    1    1    2  502    0 -0.81589756685E+02 -0.67902457487E+02  0.16857441490E+03  0.19926629291E+03  0.47000000000E+01 0.  1.
         -5    1    1    2    0  502 -0.17589424062E+02  0.35277632311E+02  0.19675363384E+03  0.20071866284E+03  0.47000000000E+01 0.  1.
        -11    1    3    3    0    0  0.61259820601E+02  0.68213329536E+01  0.45627692633E+02  0.76688868412E+02  0.00000000000E+00 0.  1.
         11    1    3    3    0    0  0.37919360146E+02  0.25803492222E+02  0.20099563354E+03  0.20616241846E+03  0.00000000000E+00 0. -1.
<mgrwt>
<rscale>  0 0.15639468E+03</rscale>
<asrwt>0</asrwt>
<pdfrwt beam="1">  1        1 0.99599039E-01 0.16286001E+03</pdfrwt>
<pdfrwt beam="2">  1       -1 0.54526826E-02 0.16286001E+03</pdfrwt>
<totfact> 0.47649084E+03</totfact>
</mgrwt>
</event>
<event>
 7    1  0.1020736E-005  0.1344033E+03  0.7546771E-02  0.1234139E+00
          1   -1    0    0  501    0  0.00000000000E+00  0.00000000000E+00  0.60985308467E+03  0.60985308467E+03  0.00000000000E+00 0. -1.
         -1   -1    0    0    0  501 -0.00000000000E+00 -0.00000000000E+00 -0.24054052667E+02  0.24054052667E+02  0.00000000000E+00 0.  1.
         23    2    1    2    0    0 -0.23824103650E+02  0.43272619950E+02  0.18956411303E+03  0.21549781851E+03  0.89803392369E+02 0.  0.
          5    1    1    2  502    0  0.57721031236E+02  0.15079008099E+01  0.90011858580E+02  0.10704305628E+03  0.47000000000E+01 0. -1.
         -5    1    1    2    0  502 -0.33896927586E+02 -0.44780520760E+02  0.30622306039E+03  0.31136626255E+03  0.47000000000E+01 0. -1.
        -11    1    3    3    0    0 -0.10384009331E+02  0.65297541881E+02  0.84398860996E+02  0.10721363889E+03  0.00000000000E+00 0.  1.
         11    1    3    3    0    0 -0.13440094319E+02 -0.22024921931E+02  0.10516525204E+03  0.10828417963E+03  0.00000000000E+00 0. -1.
<mgrwt>
<rscale>  0 0.12559741E+03</rscale>
<asrwt>0</asrwt>
<pdfrwt beam="1">  1        1 0.93823539E-01 0.13440330E+03</pdfrwt>
<pdfrwt beam="2">  1       -1 0.37006240E-02 0.13440330E+03</pdfrwt>
<totfact> 0.90812112E+03</totfact>
</mgrwt>
</event>
<event>
 7    1  0.1020736E-005  0.1347033E+03  0.7546771E-02  0.1232820E+00
         -3   -1    0    0    0  501 -0.00000000000E+00  0.00000000000E+00  0.10004573592E+03  0.10004573592E+03  0.00000000000E+00 0.  1.
          3   -1    0    0  501    0  0.00000000000E+00 -0.00000000000E+00 -0.15206766706E+03  0.15206766706E+03  0.00000000000E+00 0. -1.
         23    2    1    2    0    0  0.32363088160E+02 -0.38365136560E+02  0.74459220482E+01  0.10486737231E+03  0.91774020517E+02 0.  0.
          5    1    1    2  502    0 -0.37978148305E+02 -0.40363910089E+02 -0.23528303372E+02  0.60392516473E+02  0.47000000000E+01 0. -1.
         -5    1    1    2    0  502  0.56150601454E+01  0.78729046649E+02 -0.35939549816E+02  0.86853514193E+02  0.47000000000E+01 0. -1.
        -11    1    3    3    0    0  0.33093819825E+02  0.19361981640E+02  0.23467874959E+02  0.44953624979E+02  0.00000000000E+00 0.  1.
         11    1    3    3    0    0 -0.73073166489E+00 -0.57727118199E+02 -0.16021952911E+02  0.59913747333E+02  0.00000000000E+00 0. -1.
<mgrwt>
<rscale>  0 0.12645013E+03</rscale>
<asrwt>0</asrwt>
<pdfrwt beam="2">  1        3 0.23395026E-01 0.13470326E+03</pdfrwt>
<pdfrwt beam="1">  1       -3 0.15391652E-01 0.13470326E+03</pdfrwt>
<totfact> 0.13818968E+03</totfact>
</mgrwt>
</event>
<event>
 7    1  0.1020736E-005  0.1527242E+03  0.7546771E-02  0.1201157E+00
          2   -1    0    0  501    0  0.00000000000E+00  0.00000000000E+00  0.54259714006E+03  0.54259714006E+03  0.00000000000E+00 0. -1.
         -2   -1    0    0    0  501 -0.00000000000E+00 -0.00000000000E+00 -0.44120649724E+02  0.44120649724E+02  0.00000000000E+00 0.  1.
         23    2    1    2    0    0 -0.35768039831E+02 -0.80143639526E+02  0.14456047745E+03  0.20125541986E+03  0.10910388056E+03 0.  0.
          5    1    1    2  502    0  0.10684129971E+02 -0.43448801381E+01  0.24481645922E+03  0.24513306044E+03  0.47000000000E+01 0.  1.
         -5    1    1    2    0  502  0.25083909860E+02  0.84488519664E+02  0.10909955366E+03  0.14032930948E+03  0.47000000000E+01 0.  1.
        -11    1    3    3    0    0 -0.43238586725E+02 -0.10151984147E+03  0.13982695018E+03  0.17812195145E+03  0.00000000000E+00 0.  1.
         11    1    3    3    0    0  0.74705468932E+01  0.21376201939E+02  0.47335272722E+01  0.23133468410E+02  0.00000000000E+00 0. -1.
<mgrwt>
<rscale>  0 0.14944440E+03</rscale>
<asrwt>0</asrwt>
<pdfrwt beam="1">  1        2 0.83476479E-01 0.15272424E+03</pdfrwt>
<pdfrwt beam="2">  1       -2 0.67877926E-02 0.15272424E+03</pdfrwt>
<totfact> 0.67021482E+03</totfact>
</mgrwt>
</event>
<event>
 7    1  0.1020736E-005  0.1529141E+03  0.7546771E-02  0.1205008E+00
          2   -1    0    0  501    0  0.00000000000E+00  0.00000000000E+00  0.14769188250E+03  0.14769188250E+03  0.00000000000E+00 0. -1.
         -2   -1    0    0    0  501 -0.00000000000E+00 -0.00000000000E+00 -0.19990998642E+03  0.19990998642E+03  0.00000000000E+00 0.  1.
         23    2    1    2    0    0  0.73068488305E+02  0.49090744394E+02 -0.12418122070E+03  0.17860067823E+03  0.93425486465E+02 0.  0.
          5    1    1    2  502    0 -0.17628591440E+02 -0.80756719565E+02  0.63678968659E+02  0.10444862872E+03  0.47000000000E+01 0. -1.
         -5    1    1    2    0  502 -0.55439896865E+02  0.31665975171E+02  0.82841481213E+01  0.64552561979E+02  0.47000000000E+01 0. -1.
        -11    1    3    3    0    0  0.13455810949E+02  0.51915898435E+02 -0.10142136905E+03  0.11472843352E+03  0.00000000000E+00 0.  1.
         11    1    3    3    0    0  0.59612677356E+02 -0.28251540408E+01 -0.22759851650E+02  0.63872244708E+02  0.00000000000E+00 0. -1.
<mgrwt>
<rscale>  0 0.14636799E+03</rscale>
<asrwt>0</asrwt>
<pdfrwt beam="1">  1        2 0.22721828E-01 0.15291407E+03</pdfrwt>
<pdfrwt beam="2">  1       -2 0.30755383E-01 0.15291407E+03</pdfrwt>
<totfact> 0.22834131E+03</totfact>
</mgrwt>
</event>
<event>
 7    1  0.1020736E-005  0.1384671E+03  0.7546771E-02  0.1226767E+00
         -2   -1    0    0    0  501 -0.00000000000E+00  0.00000000000E+00  0.37519709834E+02  0.37519709834E+02  0.00000000000E+00 0.  1.
          2   -1    0    0  501    0  0.00000000000E+00 -0.00000000000E+00 -0.42613038772E+03  0.42613038772E+03  0.00000000000E+00 0. -1.
         23    2    1    2    0    0 -0.34661629994E+02 -0.48431073235E+02 -0.12537066097E+03  0.16621363398E+03  0.91444912589E+02 0.  0.
          5    1    1    2  502    0  0.44616063513E+01  0.14904989207E+02 -0.24950846121E+03  0.25003725092E+03  0.47000000000E+01 0.  1.
         -5    1    1    2    0  502  0.30200023643E+02  0.33526084029E+02 -0.13731555706E+02  0.47399212656E+02  0.47000000000E+01 0.  1.
        -11    1    3    3    0    0  0.15535504980E+02 -0.49142854312E+02 -0.33347604043E+02  0.61387578062E+02  0.00000000000E+00 0.  1.
         11    1    3    3    0    0 -0.50197134974E+02  0.71178107628E+00 -0.92023056931E+02  0.10482605592E+03  0.00000000000E+00 0. -1.
<mgrwt>
<rscale>  0 0.13046535E+03</rscale>
<asrwt>0</asrwt>
<pdfrwt beam="2">  1        2 0.65558523E-01 0.13846712E+03</pdfrwt>
<pdfrwt beam="1">  1       -2 0.57722629E-02 0.13846712E+03</pdfrwt>
<totfact> 0.11107124E+04</totfact>
</mgrwt>
</event>
<event>
 7    1  0.1020736E-005  0.2561002E+03  0.7546771E-02  0.1111851E+00
         -1   -1    0    0    0  501 -0.00000000000E+00  0.00000000000E+00  0.33388138389E+03  0.33388138389E+03  0.00000000000E+00 0.  1.
          1   -1    0    0  501    0  0.00000000000E+00 -0.00000000000E+00 -0.18529537638E+03  0.18529537638E+03  0.00000000000E+00 0. -1.
         23    2    1    2    0    0 -0.18855301215E+03  0.12005085136E+03  0.67673027784E+02  0.25059858412E+03  0.90860147311E+02 0.  0.
          5    1    1    2  502    0  0.23197237963E+02  0.24045337605E+02 -0.25965426149E+01  0.33839653414E+02  0.47000000000E+01 0.  1.
         -5    1    1    2    0  502  0.16535577419E+03 -0.14409618897E+03  0.83509522338E+02  0.23473852273E+03  0.47000000000E+01 0.  1.
        -11    1    3    3    0    0 -0.13738220988E+03  0.34842089947E+02  0.44311034892E+02  0.14849683713E+03  0.00000000000E+00 0. -1.
         11    1    3    3    0    0 -0.51170802268E+02  0.85208761416E+02  0.23361992892E+02  0.10210174699E+03  0.00000000000E+00 0.  1.
<mgrwt>
<rscale>  0 0.25231409E+03</rscale>
<asrwt>0</asrwt>
<pdfrwt beam="2">  1        1 0.28506981E-01 0.25610023E+03</pdfrwt>
<pdfrwt beam="1">  1       -1 0.51366367E-01 0.25610023E+03</pdfrwt>
<totfact> 0.63330140E+02</totfact>
</mgrwt>
</event>
<event>
 7    1  0.1020736E-005  0.1305541E+03  0.7546771E-02  0.1239651E+00
          2   -1    0    0  501    0  0.00000000000E+00  0.00000000000E+00  0.48846504216E+02  0.48846504216E+02  0.00000000000E+00 0. -1.
         -2   -1    0    0    0  501 -0.00000000000E+00 -0.00000000000E+00 -0.28689532363E+03  0.28689532363E+03  0.00000000000E+00 0.  1.
         23    2    1    2    0    0  0.31331075084E+02 -0.20858558355E+02 -0.14212185965E+03  0.17373453441E+03  0.92565380871E+02 0.  0.
          5    1    1    2  502    0  0.12263640295E+02 -0.38974681475E+02 -0.48852121752E+00  0.41130904711E+02  0.47000000000E+01 0. -1.
         -5    1    1    2    0  502 -0.43594715379E+02  0.59833239831E+02 -0.95438438545E+02  0.12087638872E+03  0.47000000000E+01 0. -1.
        -11    1    3    3    0    0  0.51518416462E+02 -0.40700910702E+02 -0.12345317500E+03  0.13982631292E+03  0.00000000000E+00 0.  1.
         11    1    3    3    0    0 -0.20187341377E+02  0.19842352346E+02 -0.18668684646E+02  0.33908221495E+02  0.00000000000E+00 0. -1.
<mgrwt>
<rscale>  0 0.12211298E+03</rscale>
<asrwt>0</asrwt>
<pdfrwt beam="1">  1        2 0.75148466E-02 0.13055413E+03</pdfrwt>
<pdfrwt beam="2">  1       -2 0.44137743E-01 0.13055413E+03</pdfrwt>
<totfact> 0.43063050E+03</totfact>
</mgrwt>
</event>
<event>
 7    1  0.1020736E-005  0.1327034E+03  0.7546771E-02  0.1236312E+00
          2   -1    0    0  501    0  0.00000000000E+00  0.00000000000E+00  0.11022922643E+04  0.11022922643E+04  0.00000000000E+00 0. -1.
         -2   -1    0    0    0  501 -0.00000000000E+00 -0.00000000000E+00 -0.12785694426E+02  0.12785694426E+02  0.00000000000E+00 0.  1.
         23    2    1    2    0    0  0.43661755493E+02  0.87012526336E+01  0.38898204502E+03  0.40209491909E+03  0.91603667637E+02 0.  0.
          5    1    1    2  502    0 -0.47538759075E+02 -0.19754062377E+02  0.69824750854E+03  0.70015843191E+03  0.47000000000E+01 0. -1.
         -5    1    1    2    0  502  0.38770035820E+01  0.11052809743E+02  0.22770163211E+01  0.12824607726E+02  0.47000000000E+01 0. -1.
        -11    1    3    3    0    0 -0.11334306455E+01  0.42526391314E+02  0.11997650589E+03  0.12729548534E+03  0.00000000000E+00 0.  1.
         11    1    3    3    0    0  0.44795186138E+02 -0.33825138681E+02  0.26900553913E+03  0.27479943375E+03  0.00000000000E+00 0. -1.
<mgrwt>
<rscale>  0 0.12420848E+03</rscale>
<asrwt>0</asrwt>
<pdfrwt beam="1">  1        2 0.16958335E+00 0.13270345E+03</pdfrwt>
<pdfrwt beam="2">  1       -2 0.19670308E-02 0.13270345E+03</pdfrwt>
<totfact> 0.17264300E+04</totfact>
</mgrwt>
</event>
<event>
 6    1  0.1020736E-005  0.2530283E+03  0.7546771E-02  0.1188010E+00
         -1   -1    0    0    0  501 -0.00000000000E+00  0.00000000000E+00  0.54636651098E+02  0.54636651098E+02  0.00000000000E+00 0.  1.
          1   -1    0    0  501    0  0.00000000000E+00 -0.00000000000E+00 -0.39856761447E+03  0.39856761447E+03  0.00000000000E+00 0. -1.
          5    1    1    2  502    0  0.49805772364E+02  0.47538923467E+02 -0.29087197252E+03  0.29894674877E+03  0.47000000000E+01 0. -1.
         -5    1    1    2    0  502 -0.87092536772E+02 -0.45352837531E+02 -0.17339723389E+02  0.99823573572E+02  0.47000000000E+01 0.  1.
        -11    1    1    2    0    0  0.24444522978E+02 -0.77975025590E+01 -0.15986735356E+02  0.30230968511E+02  0.00000000000E+00 0. -1.
         11    1    1    2    0    0  0.12842241429E+02  0.56114166236E+01 -0.19732532107E+02  0.24202974710E+02  0.00000000000E+00 0.  1.
<mgrwt>
<rscale>  0 0.16060988E+03</rscale>
<asrwt>0</asrwt>
<pdfrwt beam="2">  1        1 0.61318097E-01 0.25302830E+03</pdfrwt>
<pdfrwt beam="1">  1       -1 0.84056382E-02 0.25302830E+03</pdfrwt>
<totfact> 0.48147301E+03</totfact>
</mgrwt>
</event>
<event>
 7    1  0.1020736E-005  0.1550267E+03  0.7546771E-02  0.1202806E+00
          1   -1    0    0  501    0  0.00000000000E+00  0.00000000000E+00  0.46785552020E+03  0.46785552020E+03  0.00000000000E+00 0. -1.
         -1   -1    0    0    0  501 -0.00000000000E+00 -0.00000000000E+00 -0.48406208852E+02  0.48406208852E+02  0.00000000000E+00 0.  1.
         23    2    1    2    0    0  0.83112804973E+02 -0.38730406647E+02  0.10807075933E+03  0.16842574238E+03  0.90995378595E+02 0.  0.
          5    1    1    2  502    0 -0.56785063229E+02  0.57664134304E+02  0.79120083795E+02  0.11327741810E+03  0.47000000000E+01 0.  1.
         -5    1    1    2    0  502 -0.26327741745E+02 -0.18933727657E+02  0.23225846823E+03  0.23455856858E+03  0.47000000000E+01 0.  1.
        -11    1    3    3    0    0  0.85809498664E+02 -0.15514314950E+02  0.39031356256E+02  0.95537483746E+02  0.00000000000E+00 0.  1.
         11    1    3    3    0    0 -0.26966936906E+01 -0.23216091698E+02  0.69039403071E+02  0.72888258636E+02  0.00000000000E+00 0. -1.
<mgrwt>
<rscale>  0 0.14811709E+03</rscale>
<asrwt>0</asrwt>
<pdfrwt beam="1">  1        1 0.71977769E-01 0.15502668E+03</pdfrwt>
<pdfrwt beam="2">  1       -1 0.74471094E-02 0.15502668E+03</pdfrwt>
<totfact> 0.46066096E+03</totfact>
</mgrwt>
</event>
<event>
 7    1  0.1020736E-005  0.1298585E+03  0.7546771E-02  0.1242403E+00
          2   -1    0    0  501    0  0.00000000000E+00  0.00000000000E+00  0.28972369037E+03  0.28972369037E+03  0.00000000000E+00 0. -1.
         -2   -1    0    0    0  501 -0.00000000000E+00 -0.00000000000E+00 -0.71987308737E+02  0.71987308737E+02  0.00000000000E+00 0.  1.
         23    2    1    2    0    0 -0.16411554741E+02 -0.31148106611E+02 -0.13036839880E+02  0.96910100897E+02  0.89342401956E+02 0.  0.
          5    1    1    2  502    0 -0.16515057681E+02 -0.28175655090E+02  0.17131489736E+03  0.17446345958E+03  0.47000000000E+01 0. -1.
         -5    1    1    2    0  502  0.32926612421E+02  0.59323761701E+02  0.59458324153E+02  0.90337438634E+02  0.47000000000E+01 0. -1.
        -11    1    3    3    0    0  0.46628754601E+01 -0.57065390419E+02 -0.23522035569E+02  0.61899009270E+02  0.00000000000E+00 0.  1.
         11    1    3    3    0    0 -0.21074430201E+02  0.25917283808E+02  0.10485195689E+02  0.35011091627E+02  0.00000000000E+00 0. -1.
<mgrwt>
<rscale>  0 0.12042140E+03</rscale>
<asrwt>0</asrwt>
<pdfrwt beam="1">  1        2 0.44572875E-01 0.12985852E+03</pdfrwt>
<pdfrwt beam="2">  1       -2 0.11074971E-01 0.12985852E+03</pdfrwt>
<totfact> 0.60887380E+03</totfact>
</mgrwt>
</event>
<event>
 7    1  0.1020736E-005  0.1275032E+03  0.7546771E-02  0.1245400E+00
          1   -1    0    0  501    0  0.00000000000E+00  0.00000000000E+00  0.10227498974E+04  0.10227498974E+04  0.00000000000E+00 0. -1.
         -1   -1    0    0    0  501 -0.00000000000E+00 -0.00000000000E+00 -0.12592642186E+02  0.12592642186E+02  0.00000000000E+00 0.  1.
         23    2    1    2    0    0  0.16593261763E+02 -0.18888964847E+02  0.33965513754E+03  0.35282502486E+03  0.92129020328E+02 0.  0.
          5    1    1    2  502    0  0.17654425745E+02 -0.48465469456E+02  0.27087263383E+03  0.27578008310E+03  0.47000000000E+01 0.  1.
         -5    1    1    2    0  502 -0.34247687507E+02  0.67354434303E+02  0.39962948387E+03  0.40673743164E+03  0.47000000000E+01 0.  1.
        -11    1    3    3    0    0 -0.13911299098E+02 -0.49590737983E+02  0.16290207945E+03  0.17085038198E+03  0.00000000000E+00 0.  1.
         11    1    3    3    0    0  0.30504560861E+02  0.30701773136E+02  0.17675305809E+03  0.18197464288E+03  0.00000000000E+00 0. -1.
<mgrwt>
<rscale>  0 0.11861497E+03</rscale>
<asrwt>0</asrwt>
<pdfrwt beam="1">  1        1 0.15734607E+00 0.12750321E+03</pdfrwt>
<pdfrwt beam="2">  1       -1 0.19373304E-02 0.12750321E+03</pdfrwt>
<totfact> 0.10608652E+04</totfact>
</mgrwt>
</event>
<event>
 7    1  0.1020736E-005  0.1292455E+03  0.7546771E-02  0.1241416E+00
          1   -1    0    0  501    0  0.00000000000E+00  0.00000000000E+00  0.74172292410E+03  0.74172292410E+03  0.00000000000E+00 0. -1.
         -1   -1    0    0    0  501 -0.00000000000E+00 -0.00000000000E+00 -0.19343699791E+02  0.19343699791E+02  0.00000000000E+00 0.  1.
         23    2    1    2    0    0 -0.31742758419E+02  0.84554177531E+01  0.20536786753E+03  0.22814528829E+03  0.93782806289E+02 0.  0.
          5    1    1    2  502    0 -0.47485696584E+02  0.42293216535E+01  0.16257652545E+03  0.16948744841E+03  0.47000000000E+01 0. -1.
         -5    1    1    2    0  502  0.79228455003E+02 -0.12684739407E+02  0.35443483133E+03  0.36343388719E+03  0.47000000000E+01 0. -1.
        -11    1    3    3    0    0  0.18817759655E+02  0.36380468095E+02  0.72589676299E+02  0.83348111211E+02  0.00000000000E+00 0. -1.
         11    1    3    3    0    0 -0.50560518074E+02 -0.27925050342E+02  0.13277819123E+03  0.14479717708E+03  0.00000000000E+00 0.  1.
<mgrwt>
<rscale>  0 0.12102497E+03</rscale>
<asrwt>0</asrwt>
<pdfrwt beam="1">  1        1 0.11411120E+00 0.12924553E+03</pdfrwt>
<pdfrwt beam="2">  1       -1 0.29759544E-02 0.12924553E+03</pdfrwt>
<totfact> 0.94476424E+03</totfact>
</mgrwt>
</event>
<event>
 7    1  0.1020736E-005  0.1428388E+03  0.7546771E-02  0.1220830E+00
          1   -1    0    0  501    0  0.00000000000E+00  0.00000000000E+00  0.23587710166E+02  0.23587710166E+02  0.00000000000E+00 0. -1.
         -1   -1    0    0    0  501 -0.00000000000E+00 -0.00000000000E+00 -0.76497412167E+03  0.76497412167E+03  0.00000000000E+00 0.  1.
         23    2    1    2    0    0  0.58035477280E+02 -0.37549909809E+02 -0.45265010203E+03  0.46642588494E+03  0.88785578384E+02 0.  0.
          5    1    1    2  502    0 -0.58057467614E+02 -0.41218355502E+01 -0.42168363198E+02  0.72027216584E+02  0.47000000000E+01 0. -1.
         -5    1    1    2    0  502  0.21990334073E-01  0.41671745359E+02 -0.24656794627E+03  0.25010873030E+03  0.47000000000E+01 0. -1.
        -11    1    3    3    0    0 -0.56024784209E+01 -0.47130184336E+02 -0.16680680262E+03  0.17342765478E+03  0.00000000000E+00 0. -1.
         11    1    3    3    0    0  0.63637955701E+02  0.95802745272E+01 -0.28584329940E+03  0.29299823017E+03  0.00000000000E+00 0.  1.
<mgrwt>
<rscale>  0 0.13456838E+03</rscale>
<asrwt>0</asrwt>
<pdfrwt beam="1">  1        1 0.36288789E-02 0.14283876E+03</pdfrwt>
<pdfrwt beam="2">  1       -1 0.11768831E+00 0.14283876E+03</pdfrwt>
<totfact> 0.17605811E+03</totfact>
</mgrwt>
</event>
<event>
 7    1  0.1020736E-005  0.1591054E+03  0.7546771E-02  0.1196943E+00
          2   -1    0    0  501    0  0.00000000000E+00  0.00000000000E+00  0.51112488421E+03  0.51112488421E+03  0.00000000000E+00 0. -1.
         -2   -1    0    0    0  501 -0.00000000000E+00 -0.00000000000E+00 -0.45094141840E+02  0.45094141840E+02  0.00000000000E+00 0.  1.
         23    2    1    2    0    0  0.94638566873E+02  0.27075664886E+02  0.14933129876E+03  0.20179970253E+03  0.93454444423E+02 0.  0.
          5    1    1    2  502    0  0.17258136289E+02  0.54574185592E+01  0.20030675497E+01  0.18807683672E+02  0.47000000000E+01 0. -1.
         -5    1    1    2    0  502 -0.11189670316E+03 -0.32533083446E+02  0.31469637606E+03  0.33561163985E+03  0.47000000000E+01 0. -1.
        -11    1    3    3    0    0  0.22557808944E+02  0.80546726668E+01  0.11888482198E+03  0.12127379516E+03  0.00000000000E+00 0. -1.
         11    1    3    3    0    0  0.72080757928E+02  0.19020992220E+02  0.30446476778E+02  0.80525907364E+02  0.00000000000E+00 0.  1.
<mgrwt>
<rscale>  0 0.15290951E+03</rscale>
<asrwt>0</asrwt>
<pdfrwt beam="1">  1        2 0.78634593E-01 0.15910537E+03</pdfrwt>
<pdfrwt beam="2">  1       -2 0.69375607E-02 0.15910537E+03</pdfrwt>
<totfact> 0.69435019E+03</totfact>
</mgrwt>
</event>
<event>
 7    1  0.1020736E-005  0.1682515E+03  0.7546771E-02  0.1185467E+00
         -1   -1    0    0    0  501 -0.00000000000E+00  0.00000000000E+00  0.11630759438E+04  0.11630759438E+04  0.00000000000E+00 0.  1.
          1   -1    0    0  501    0  0.00000000000E+00 -0.00000000000E+00 -0.21705373793E+02  0.21705373793E+02  0.00000000000E+00 0. -1.
         23    2    1    2    0    0  0.80149816924E+02  0.79210819771E+02  0.47319335043E+03  0.49574623195E+03  0.95676708115E+02 0.  0.
          5    1    1    2  502    0 -0.11023194215E+03 -0.76261282940E+02  0.59075118055E+03  0.60578536766E+03  0.47000000000E+01 0. -1.
         -5    1    1    2    0  502  0.30082125228E+02 -0.29495368308E+01  0.77426038991E+02  0.83249717955E+02  0.47000000000E+01 0. -1.
        -11    1    3    3    0    0  0.60812949802E+02  0.54032168881E+02  0.44769865989E+03  0.45502942784E+03  0.00000000000E+00 0.  1.
         11    1    3    3    0    0  0.19336867122E+02  0.25178650890E+02  0.25494690549E+02  0.40716804110E+02  0.00000000000E+00 0. -1.
<mgrwt>
<rscale>  0 0.16289452E+03</rscale>
<asrwt>0</asrwt>
<pdfrwt beam="2">  1        1 0.33392892E-02 0.16825146E+03</pdfrwt>
<pdfrwt beam="1">  1       -1 0.17893471E+00 0.16825146E+03</pdfrwt>
<totfact> 0.67681208E+02</totfact>
</mgrwt>
</event>
<event>
 7    1  0.1020736E-005  0.1503434E+03  0.7546771E-02  0.1208793E+00
          1   -1    0    0  501    0  0.00000000000E+00  0.00000000000E+00  0.80997818212E+03  0.80997818212E+03  0.00000000000E+00 0. -1.
         -1   -1    0    0    0  501 -0.00000000000E+00 -0.00000000000E+00 -0.61031338724E+02  0.61031338724E+02  0.00000000000E+00 0.  1.
         23    2    1    2    0    0 -0.39194192599E+02  0.73758210248E+02  0.19268316953E+02  0.12600356110E+03  0.92353511357E+02 0.  0.
          5    1    1    2  502    0 -0.50905659904E+00 -0.24674250561E+02  0.18962619375E+02  0.31476161026E+02  0.47000000000E+01 0.  1.
         -5    1    1    2    0  502  0.39703249198E+02 -0.49083959687E+02  0.71071590707E+03  0.71352979872E+03  0.47000000000E+01 0.  1.
        -11    1    3    3    0    0 -0.11839455627E+02  0.89922549950E+02  0.24145899868E+02  0.93857669796E+02  0.00000000000E+00 0. -1.
         11    1    3    3    0    0 -0.27354736972E+02 -0.16164339702E+02 -0.48775829147E+01  0.32145891306E+02  0.00000000000E+00 0.  1.
<mgrwt>
<rscale>  0 0.14342484E+03</rscale>
<asrwt>0</asrwt>
<pdfrwt beam="1">  1        1 0.12461202E+00 0.15034337E+03</pdfrwt>
<pdfrwt beam="2">  1       -1 0.93894373E-02 0.15034337E+03</pdfrwt>
<totfact> 0.15124333E+03</totfact>
</mgrwt>
</event>
<event>
 7    1  0.1020736E-005  0.2090530E+03  0.7546771E-02  0.1146103E+00
         -2   -1    0    0    0  501 -0.00000000000E+00  0.00000000000E+00  0.12213967866E+03  0.12213967866E+03  0.00000000000E+00 0.  1.
          2   -1    0    0  501    0  0.00000000000E+00 -0.00000000000E+00 -0.32750524937E+03  0.32750524937E+03  0.00000000000E+00 0. -1.
         23    2    1    2    0    0  0.51479032294E+01 -0.16748754548E+03 -0.96312778879E+02  0.21385761831E+03  0.91544255594E+02 0.  0.
          5    1    1    2  502    0 -0.71018317628E+01  0.11661043088E+03 -0.13488086211E+03  0.17850312482E+03  0.47000000000E+01 0.  1.
         -5    1    1    2    0  502  0.19539285334E+01  0.50877114600E+02  0.25828070277E+02  0.57284184911E+02  0.47000000000E+01 0.  1.
        -11    1    3    3    0    0 -0.99070037285E+01 -0.17131911124E+03 -0.74502068489E+02  0.18708004920E+03  0.00000000000E+00 0.  1.
         11    1    3    3    0    0  0.15054906958E+02  0.38315657553E+01 -0.21810710390E+02  0.26777569108E+02  0.00000000000E+00 0. -1.
<mgrwt>
<rscale>  0 0.20437028E+03</rscale>
<asrwt>0</asrwt>
<pdfrwt beam="2">  1        2 0.50385423E-01 0.20905297E+03</pdfrwt>
<pdfrwt beam="1">  1       -2 0.18790720E-01 0.20905297E+03</pdfrwt>
<totfact> 0.23007038E+03</totfact>
</mgrwt>
</event>
<event>
 7    1  0.1020736E-005  0.1283172E+03  0.7546771E-02  0.1244276E+00
          3   -1    0    0  501    0  0.00000000000E+00  0.00000000000E+00  0.18032330890E+03  0.18032330890E+03  0.00000000000E+00 0.  1.
         -3   -1    0    0    0  501 -0.00000000000E+00 -0.00000000000E+00 -0.70445315328E+02  0.70445315328E+02  0.00000000000E+00 0. -1.
         23    2    1    2    0    0 -0.24288011265E+02 -0.15821084277E+02  0.60166847228E+02  0.11315869545E+03  0.91348928029E+02 0.  0.
          5    1    1    2  502    0 -0.46352763676E+02  0.30554785936E+02  0.17083811698E+02  0.58276241009E+02  0.47000000000E+01 0. -1.
         -5    1    1    2    0  502  0.70640774941E+02 -0.14733701659E+02  0.32627334648E+02  0.79333687770E+02  0.47000000000E+01 0. -1.
        -11    1    3    3    0    0 -0.36164556942E+02 -0.17272350452E+02 -0.10545099969E+02  0.41441626443E+02  0.00000000000E+00 0. -1.
         11    1    3    3    0    0  0.11876545677E+02  0.14512661750E+01  0.70711947197E+02  0.71717069008E+02  0.00000000000E+00 0.  1.
<mgrwt>
<rscale>  0 0.11928821E+03</rscale>
<asrwt>0</asrwt>
<pdfrwt beam="1">  1        3 0.27742047E-01 0.12831716E+03</pdfrwt>
<pdfrwt beam="2">  1       -3 0.10837741E-01 0.12831716E+03</pdfrwt>
<totfact> 0.18191601E+03</totfact>
</mgrwt>
</event>
<event>
 7    1  0.1020736E-005  0.3225717E+03  0.7546771E-02  0.1105620E+00
         -2   -1    0    0    0  501 -0.00000000000E+00  0.00000000000E+00  0.29172373294E+03  0.29172373294E+03  0.00000000000E+00 0.  1.
          2   -1    0    0  501    0  0.00000000000E+00 -0.00000000000E+00 -0.25843461429E+03  0.25843461429E+03  0.00000000000E+00 0. -1.
         23    2    1    2    0    0 -0.42982348862E+02  0.95678791677E+02  0.15080791176E+03  0.20684629333E+03  0.95081277462E+02 0.  0.
          5    1    1    2  502    0  0.13005193428E+03 -0.38007498859E+02 -0.17705965826E+03  0.22300288824E+03  0.47000000000E+01 0. -1.
         -5    1    1    2    0  502 -0.87069585420E+02 -0.57671292818E+02  0.59540865155E+02  0.12030916567E+03  0.47000000000E+01 0.  1.
        -11    1    3    3    0    0 -0.60645475752E+02  0.65561071506E+02  0.55028010746E+02  0.10490095230E+03  0.00000000000E+00 0.  1.
         11    1    3    3    0    0  0.17663126890E+02  0.30117720171E+02  0.95779901010E+02  0.10194534103E+03  0.00000000000E+00 0. -1.
<mgrwt>
<rscale>  0 0.26255078E+03</rscale>
<asrwt>0</asrwt>
<pdfrwt beam="2">  1        2 0.39759171E-01 0.32257170E+03</pdfrwt>
<pdfrwt beam="1">  1       -2 0.44880574E-01 0.32257170E+03</pdfrwt>
<totfact> 0.61476941E+02</totfact>
</mgrwt>
</event>
<event>
 7    1  0.1020736E-005  0.1278452E+03  0.7546771E-02  0.1245080E+00
          2   -1    0    0  501    0  0.00000000000E+00  0.00000000000E+00  0.15152359231E+03  0.15152359231E+03  0.00000000000E+00 0. -1.
         -2   -1    0    0    0  501 -0.00000000000E+00 -0.00000000000E+00 -0.12111805040E+03  0.12111805040E+03  0.00000000000E+00 0.  1.
         23    2    1    2    0    0  0.26778868857E+02 -0.66174729134E+00 -0.63027327192E+02  0.11429363694E+03  0.91504348229E+02 0.  0.
          5    1    1    2  502    0  0.46534099924E+01  0.35538932167E+02 -0.15730219682E+02  0.39423339982E+02  0.47000000000E+01 0. -1.
         -5    1    1    2    0  502 -0.31432278849E+02 -0.34877184876E+02  0.10916308878E+03  0.11892466578E+03  0.47000000000E+01 0. -1.
        -11    1    3    3    0    0  0.51965643665E+02  0.15822066989E+02 -0.64289400805E+02  0.84165865891E+02  0.00000000000E+00 0.  1.
         11    1    3    3    0    0 -0.25186774808E+02 -0.16483814280E+02  0.12620736134E+01  0.30127771047E+02  0.00000000000E+00 0. -1.
<mgrwt>
<rscale>  0 0.11880570E+03</rscale>
<asrwt>0</asrwt>
<pdfrwt beam="1">  1        2 0.23311322E-01 0.12784518E+03</pdfrwt>
<pdfrwt beam="2">  1       -2 0.18633546E-01 0.12784518E+03</pdfrwt>
<totfact> 0.52512421E+03</totfact>
</mgrwt>
</event>
<event>
 7    1  0.1020736E-005  0.1709590E+03  0.7546771E-02  0.1182757E+00
          1   -1    0    0  501    0  0.00000000000E+00  0.00000000000E+00  0.26676108188E+03  0.26676108188E+03  0.00000000000E+00 0. -1.
         -1   -1    0    0    0  501 -0.00000000000E+00 -0.00000000000E+00 -0.96637005230E+02  0.96637005230E+02  0.00000000000E+00 0.  1.
         23    2    1    2    0    0  0.11546213642E+03 -0.16366407001E+02  0.69740710741E+02  0.16514622654E+03  0.93862373617E+02 0.  0.
          5    1    1    2  502    0 -0.12816682422E+02  0.32535125572E+01  0.93380459001E+02  0.94429088821E+02  0.47000000000E+01 0. -1.
         -5    1    1    2    0  502 -0.10264545400E+03  0.13112894443E+02  0.70029069082E+01  0.10382277175E+03  0.47000000000E+01 0. -1.
        -11    1    3    3    0    0  0.32785586588E+02  0.32761156782E+02  0.47643844546E+02  0.66468970240E+02  0.00000000000E+00 0.  1.
         11    1    3    3    0    0  0.82676549836E+02 -0.49127563782E+02  0.22096866195E+02  0.98677256303E+02  0.00000000000E+00 0. -1.
<mgrwt>
<rscale>  0 0.16537621E+03</rscale>
<asrwt>0</asrwt>
<pdfrwt beam="1">  1        1 0.41040166E-01 0.17095900E+03</pdfrwt>
<pdfrwt beam="2">  1       -1 0.14867232E-01 0.17095900E+03</pdfrwt>
<totfact> 0.32403780E+03</totfact>
</mgrwt>
</event>
<event>
 7    1  0.1020736E-005  0.1273337E+03  0.7546771E-02  0.1244646E+00
         -2   -1    0    0    0  501 -0.00000000000E+00  0.00000000000E+00  0.16583790218E+02  0.16583790218E+02  0.00000000000E+00 0.  1.
          2   -1    0    0  501    0  0.00000000000E+00 -0.00000000000E+00 -0.78253775644E+03  0.78253775644E+03  0.00000000000E+00 0. -1.
         23    2    1    2    0    0  0.15566571857E+02 -0.18595025334E+02 -0.26755497462E+03  0.28471369922E+03  0.94276895106E+02 0.  0.
          5    1    1    2  502    0 -0.22913277331E+02  0.37539949362E+02 -0.48989021997E+03  0.49188289633E+03  0.47000000000E+01 0.  1.
         -5    1    1    2    0  502  0.73467054749E+01 -0.18944924028E+02 -0.85087716221E+01  0.22524951105E+02  0.47000000000E+01 0.  1.
        -11    1    3    3    0    0  0.25011495932E+02  0.20279080341E+02 -0.30650569876E+02  0.44455297345E+02  0.00000000000E+00 0.  1.
         11    1    3    3    0    0 -0.94449240755E+01 -0.38874105675E+02 -0.23690440475E+03  0.24025840187E+03  0.00000000000E+00 0. -1.
<mgrwt>
<rscale>  0 0.11906580E+03</rscale>
<asrwt>0</asrwt>
<pdfrwt beam="2">  1        2 0.12039047E+00 0.12733373E+03</pdfrwt>
<pdfrwt beam="1">  1       -2 0.25513514E-02 0.12733373E+03</pdfrwt>
<totfact> 0.18587063E+04</totfact>
</mgrwt>
</event>
<event>
 7    1  0.1020736E-005  0.2568611E+03  0.7546771E-02  0.1111256E+00
         -2   -1    0    0    0  501 -0.00000000000E+00  0.00000000000E+00  0.89500717348E+02  0.89500717348E+02  0.00000000000E+00 0.  1.
          2   -1    0    0  501    0  0.00000000000E+00 -0.00000000000E+00 -0.18367931745E+04  0.18367931745E+04  0.00000000000E+00 0. -1.
         23    2    1    2    0    0  0.18275952223E+02 -0.22364709746E+03 -0.10583028609E+03  0.26485606172E+03  0.92718117674E+02 0.  0.
          5    1    1    2  502    0 -0.38712382784E+01 -0.23070047247E+01 -0.36398407570E+03  0.36404231364E+03  0.47000000000E+01 0.  1.
         -5    1    1    2    0  502 -0.14404713945E+02  0.22595410218E+03 -0.12774780954E+04  0.12973955165E+04  0.47000000000E+01 0.  1.
        -11    1    3    3    0    0  0.30154031826E+02 -0.41086464454E+02  0.45875279210E+01  0.51170388010E+02  0.00000000000E+00 0.  1.
         11    1    3    3    0    0 -0.11878079603E+02 -0.18256063300E+03 -0.11041781401E+03  0.21368567371E+03  0.00000000000E+00 0. -1.
<mgrwt>
<rscale>  0 0.25326954E+03</rscale>
<asrwt>0</asrwt>
<pdfrwt beam="2">  1        2 0.28258354E+00 0.25686106E+03</pdfrwt>
<pdfrwt beam="1">  1       -2 0.13769343E-01 0.25686106E+03</pdfrwt>
<totfact> 0.35955020E+02</totfact>
</mgrwt>
</event>
<event>
 7    1  0.1020736E-005  0.1959919E+03  0.7546771E-02  0.1164661E+00
          1   -1    0    0  501    0  0.00000000000E+00  0.00000000000E+00  0.12096544675E+03  0.12096544675E+03  0.00000000000E+00 0. -1.
         -1   -1    0    0    0  501 -0.00000000000E+00 -0.00000000000E+00 -0.33192533571E+03  0.33192533571E+03  0.00000000000E+00 0.  1.
         23    2    1    2    0    0  0.74492899377E+02 -0.91525179538E+02 -0.20861661008E+03  0.25688488001E+03  0.92427815252E+02 0.  0.
          5    1    1    2  502    0  0.20219611802E+02 -0.18952723977E+02 -0.36879752213E+02  0.46370729678E+02  0.47000000000E+01 0. -1.
         -5    1    1    2    0  502 -0.94712511179E+02  0.11047790351E+03  0.34536473333E+02  0.14963517277E+03  0.47000000000E+01 0.  1.
        -11    1    3    3    0    0  0.55408960966E+02 -0.78285651001E+02 -0.21267964502E+03  0.23330543825E+03  0.00000000000E+00 0.  1.
         11    1    3    3    0    0  0.19083938411E+02 -0.13239528537E+02  0.40630349443E+01  0.23579441769E+02  0.00000000000E+00 0. -1.
<mgrwt>
<rscale>  0 0.18328479E+03</rscale>
<asrwt>0</asrwt>
<pdfrwt beam="1">  1        1 0.18610069E-01 0.19599189E+03</pdfrwt>
<pdfrwt beam="2">  1       -1 0.51065435E-01 0.19599189E+03</pdfrwt>
<totfact> 0.11018249E+03</totfact>
</mgrwt>
</event>
<event>
 7    1  0.1020736E-005  0.1331742E+03  0.7546771E-02  0.1236053E+00
          1   -1    0    0  501    0  0.00000000000E+00  0.00000000000E+00  0.23683052888E+03  0.23683052888E+03  0.00000000000E+00 0. -1.
         -1   -1    0    0    0  501 -0.00000000000E+00 -0.00000000000E+00 -0.60820799613E+02  0.60820799613E+02  0.00000000000E+00 0.  1.
         23    2    1    2    0    0 -0.17749145762E+02 -0.42392428275E+02  0.45043825299E+02  0.11086952253E+03  0.90282637748E+02 0.  0.
          5    1    1    2  502    0 -0.26980881052E+02  0.68094091604E+02  0.44049223748E+02  0.85599050033E+02  0.47000000000E+01 0.  1.
         -5    1    1    2    0  502  0.44730026814E+02 -0.25701663329E+02  0.86916680223E+02  0.10118275593E+03  0.47000000000E+01 0.  1.
        -11    1    3    3    0    0 -0.28818773834E+02  0.17807320169E+02  0.35236466220E+02  0.48879759907E+02  0.00000000000E+00 0. -1.
         11    1    3    3    0    0  0.11069628072E+02 -0.60199748444E+02  0.98073590797E+01  0.61989762626E+02  0.00000000000E+00 0.  1.
<mgrwt>
<rscale>  0 0.12437268E+03</rscale>
<asrwt>0</asrwt>
<pdfrwt beam="1">  1        1 0.36435465E-01 0.13317423E+03</pdfrwt>
<pdfrwt beam="2">  1       -1 0.93570462E-02 0.13317423E+03</pdfrwt>
<totfact> 0.75776474E+03</totfact>
</mgrwt>
</event>
<event>
 7    1  0.1020736E-005  0.1419306E+03  0.7546771E-02  0.1221965E+00
          1   -1    0    0  501    0  0.00000000000E+00  0.00000000000E+00  0.20310092177E+03  0.20310092177E+03  0.00000000000E+00 0. -1.
         -1   -1    0    0    0  501 -0.00000000000E+00 -0.00000000000E+00 -0.79625953642E+02  0.79625953642E+02  0.00000000000E+00 0.  1.
         23    2    1    2    0    0 -0.54220746205E+02  0.39911405645E+02  0.46539452943E+02  0.12128535380E+03  0.89506462044E+02 0.  0.
          5    1    1    2  502    0  0.85190479518E+02  0.64363972259E+01  0.52595923490E+02  0.10043538310E+03  0.47000000000E+01 0. -1.
         -5    1    1    2    0  502 -0.30969733313E+02 -0.46347802871E+02  0.24339591700E+02  0.61006138515E+02  0.47000000000E+01 0. -1.
        -11    1    3    3    0    0  0.84121798826E+01 -0.22229731662E+02  0.94838708807E+01  0.25590419048E+02  0.00000000000E+00 0. -1.
         11    1    3    3    0    0 -0.62632926088E+02  0.62141137307E+02  0.37055582062E+02  0.95694934757E+02  0.00000000000E+00 0.  1.
<mgrwt>
<rscale>  0 0.13377114E+03</rscale>
<asrwt>0</asrwt>
<pdfrwt beam="1">  1        1 0.31246295E-01 0.14193059E+03</pdfrwt>
<pdfrwt beam="2">  1       -1 0.12250147E-01 0.14193059E+03</pdfrwt>
<totfact> 0.60918447E+03</totfact>
</mgrwt>
</event>
<event>
 7    1  0.1020736E-005  0.1266950E+03  0.7546771E-02  0.1246257E+00
         -1   -1    0    0    0  501 -0.00000000000E+00  0.00000000000E+00  0.77634368224E+02  0.77634368224E+02  0.00000000000E+00 0.  1.
          1   -1    0    0  501    0  0.00000000000E+00 -0.00000000000E+00 -0.15968402523E+03  0.15968402523E+03  0.00000000000E+00 0. -1.
         23    2    1    2    0    0  0.19293541068E+02  0.74338921225E+01 -0.29066091143E+02  0.99990796732E+02  0.93412088606E+02 0.  0.
          5    1    1    2  502    0 -0.39990190966E+02  0.33814931142E+02  0.15314082898E+02  0.54765646866E+02  0.47000000000E+01 0.  1.
         -5    1    1    2    0  502  0.20696649898E+02 -0.41248823265E+02 -0.68297648763E+02  0.82561949857E+02  0.47000000000E+01 0.  1.
        -11    1    3    3    0    0  0.38055107975E+02  0.28292421145E+02  0.13234731078E+02  0.49232209416E+02  0.00000000000E+00 0.  1.
         11    1    3    3    0    0 -0.18761566907E+02 -0.20858529022E+02 -0.42300822221E+02  0.50758587316E+02  0.00000000000E+00 0. -1.
<mgrwt>
<rscale>  0 0.11810460E+03</rscale>
<asrwt>0</asrwt>
<pdfrwt beam="2">  1        1 0.24566773E-01 0.12669495E+03</pdfrwt>
<pdfrwt beam="1">  1       -1 0.11943749E-01 0.12669495E+03</pdfrwt>
<totfact> 0.84843632E+03</totfact>
</mgrwt>
</event>
<event>
 7    1  0.1020736E-005  0.1621178E+03  0.7546771E-02  0.1193251E+00
         -1   -1    0    0    0  501 -0.00000000000E+00  0.00000000000E+00  0.48772213008E+02  0.48772213008E+02  0.00000000000E+00 0.  1.
          1   -1    0    0  501    0  0.00000000000E+00 -0.00000000000E+00 -0.51839875583E+03  0.51839875583E+03  0.00000000000E+00 0. -1.
         23    2    1    2    0    0 -0.41004473624E+02 -0.94743485550E+02 -0.12804107377E+03  0.18906674873E+03  0.93241750254E+02 0.  0.
          5    1    1    2  502    0 -0.61846466265E+00  0.11103255239E+03 -0.28459775143E+03  0.30552672601E+03  0.47000000000E+01 0. -1.
         -5    1    1    2    0  502  0.41622938287E+02 -0.16289066839E+02 -0.56987717622E+02  0.72577494100E+02  0.47000000000E+01 0. -1.
        -11    1    3    3    0    0 -0.96371365404E+01 -0.94150310606E+02 -0.12605721500E+03  0.15763114172E+03  0.00000000000E+00 0. -1.
         11    1    3    3    0    0 -0.31367337084E+02 -0.59317494390E+00 -0.19838587771E+01  0.31435607007E+02  0.00000000000E+00 0.  1.
<mgrwt>
<rscale>  0 0.15603172E+03</rscale>
<asrwt>0</asrwt>
<pdfrwt beam="2">  1        1 0.79753658E-01 0.16211776E+03</pdfrwt>
<pdfrwt beam="1">  1       -1 0.75034171E-02 0.16211776E+03</pdfrwt>
<totfact> 0.39908526E+03</totfact>
</mgrwt>
</event>
<event>
 6    1  0.1020736E-005  0.1470292E+03  0.7546771E-02  0.1207665E+00
         -4   -1    0    0    0  501 -0.00000000000E+00  0.00000000000E+00  0.90649600607E+03  0.90649600607E+03  0.00000000000E+00 0.  1.
          4   -1    0    0  501    0  0.00000000000E+00 -0.00000000000E+00 -0.29854443089E+02  0.29854443089E+02  0.00000000000E+00 0. -1.
          5    1    1    2  502    0  0.18706460151E+02 -0.40519454958E+02  0.41149122694E+02  0.60885944026E+02  0.47000000000E+01 0. -1.
         -5    1    1    2    0  502  0.43999232070E+02  0.76418245747E+02  0.14730016859E+03  0.17174140553E+03  0.47000000000E+01 0.  1.
        -11    1    1    2    0    0  0.30177727552E+02  0.18521435140E+02  0.10885921835E+03  0.11447300214E+03  0.00000000000E+00 0.  1.
         11    1    1    2    0    0 -0.92883419773E+02 -0.54420225930E+02  0.57933305335E+03  0.58925009746E+03  0.00000000000E+00 0. -1.
<mgrwt>
<rscale>  0 0.14429416E+03</rscale>
<asrwt>0</asrwt>
<pdfrwt beam="2">  1        4 0.45929920E-02 0.14702924E+03</pdfrwt>
<pdfrwt beam="1">  1       -4 0.13946090E+00 0.14702924E+03</pdfrwt>
<totfact> 0.17801767E+02</totfact>
</mgrwt>
</event>
<event>
 7    1  0.1020736E-005  0.1855024E+03  0.7546771E-02  0.1167711E+00
          3   -1    0    0  501    0  0.00000000000E+00  0.00000000000E+00  0.83467554471E+02  0.83467554471E+02  0.00000000000E+00 0. -1.
         -3   -1    0    0    0  501 -0.00000000000E+00 -0.00000000000E+00 -0.37507285242E+03  0.37507285242E+03  0.00000000000E+00 0.  1.
         23    2    1    2    0    0  0.14533429341E+02  0.13627838148E+03 -0.16977730569E+03  0.23660981658E+03  0.91525154728E+02 0.  0.
          5    1    1    2  502    0  0.22436198038E+02 -0.14525740817E+03 -0.93445918473E+02  0.17423354238E+03  0.47000000000E+01 0. -1.
         -5    1    1    2    0  502 -0.36969627379E+02  0.89790266963E+01 -0.28382073782E+02  0.47697047929E+02  0.47000000000E+01 0. -1.
        -11    1    3    3    0    0 -0.13057809064E+02  0.16073992761E+02 -0.83668572131E+02  0.86193442809E+02  0.00000000000E+00 0.  1.
         11    1    3    3    0    0  0.27591238405E+02  0.12020438871E+03 -0.86108733563E+02  0.15041637377E+03  0.00000000000E+00 0. -1.
<mgrwt>
<rscale>  0 0.18009558E+03</rscale>
<asrwt>0</asrwt>
<pdfrwt beam="1">  1        3 0.12841162E-01 0.18550236E+03</pdfrwt>
<pdfrwt beam="2">  1       -3 0.57703515E-01 0.18550236E+03</pdfrwt>
<totfact> 0.34984600E+02</totfact>
</mgrwt>
</event>
<event>
 7    1  0.1020736E-005  0.1531044E+03  0.7546771E-02  0.1205190E+00
         -3   -1    0    0    0  501 -0.00000000000E+00  0.00000000000E+00  0.25069074027E+02  0.25069074027E+02  0.00000000000E+00 0.  1.
          3   -1    0    0  501    0  0.00000000000E+00 -0.00000000000E+00 -0.78511980733E+03  0.78511980733E+03  0.00000000000E+00 0. -1.
         23    2    1    2    0    0  0.85999001103E+02  0.20510112399E+02 -0.33465941886E+03  0.35808411780E+03  0.91710500426E+02 0.  0.
          5    1    1    2  502    0 -0.87957551288E+02  0.25198687589E+02 -0.17506757154E+03  0.19759111642E+03  0.47000000000E+01 0.  1.
         -5    1    1    2    0  502  0.19585501855E+01 -0.45708799988E+02 -0.25032374291E+03  0.25451364714E+03  0.47000000000E+01 0.  1.
        -11    1    3    3    0    0  0.58984075517E+02  0.48400523913E+02 -0.13857475215E+03  0.15819195243E+03  0.00000000000E+00 0.  1.
         11    1    3    3    0    0  0.27014925586E+02 -0.27890411514E+02 -0.19608466670E+03  0.19989216537E+03  0.00000000000E+00 0. -1.
<mgrwt>
<rscale>  0 0.14622495E+03</rscale>
<asrwt>0</asrwt>
<pdfrwt beam="2">  1        3 0.12078765E+00 0.15310437E+03</pdfrwt>
<pdfrwt beam="1">  1       -3 0.38567810E-02 0.15310437E+03</pdfrwt>
<totfact> 0.47425238E+02</totfact>
</mgrwt>
</event>
<event>
 7    1  0.1020736E-005  0.1662324E+03  0.7546771E-02  0.1190326E+00
         -4   -1    0    0    0  501 -0.00000000000E+00  0.00000000000E+00  0.17114280936E+03  0.17114280936E+03  0.00000000000E+00 0.  1.
          4   -1    0    0  501    0  0.00000000000E+00 -0.00000000000E+00 -0.13710595846E+03  0.13710595846E+03  0.00000000000E+00 0. -1.
         23    2    1    2    0    0  0.46551028620E+01 -0.10949124698E+03  0.35047244583E+02  0.14201325419E+03  0.83243329257E+02 0.  0.
          5    1    1    2  502    0 -0.40959557643E+02 -0.37004456353E+01  0.19092198526E+02  0.45584873639E+02  0.47000000000E+01 0. -1.
         -5    1    1    2    0  502  0.36304454780E+02  0.11319169262E+03 -0.20102592210E+02  0.12065063998E+03  0.47000000000E+01 0. -1.
        -11    1    3    3    0    0  0.22352842910E+02  0.40072444523E+01  0.70869129161E+01  0.23789323844E+02  0.00000000000E+00 0. -1.
         11    1    3    3    0    0 -0.17697740048E+02 -0.11349849143E+03  0.27960331667E+02  0.11822393035E+03  0.00000000000E+00 0.  1.
<mgrwt>
<rscale>  0 0.15856516E+03</rscale>
<asrwt>0</asrwt>
<pdfrwt beam="2">  1        4 0.21093225E-01 0.16623244E+03</pdfrwt>
<pdfrwt beam="1">  1       -4 0.26329663E-01 0.16623244E+03</pdfrwt>
<totfact> 0.48009546E+02</totfact>
</mgrwt>
</event>
<event>
 7    1  0.1020736E-005  0.1728928E+03  0.7546771E-02  0.1181182E+00
          3   -1    0    0  501    0  0.00000000000E+00  0.00000000000E+00  0.89888348247E+03  0.89888348247E+03  0.00000000000E+00 0. -1.
         -3   -1    0    0    0  501 -0.00000000000E+00 -0.00000000000E+00 -0.40795231141E+02  0.40795231141E+02  0.00000000000E+00 0.  1.
         23    2    1    2    0    0  0.11176418754E+03 -0.42035531465E+02  0.15501571136E+03  0.21566013500E+03  0.90670852763E+02 0.  0.
          5    1    1    2  502    0 -0.73350225468E+02  0.84933277711E+02  0.52218780578E+03  0.53413117466E+03  0.47000000000E+01 0. -1.
         -5    1    1    2    0  502 -0.38413962068E+02 -0.42897746246E+02  0.18088473419E+03  0.18988740395E+03  0.47000000000E+01 0. -1.
        -11    1    3    3    0    0  0.96805723509E+02 -0.42975305852E+02  0.16611581841E+03  0.19700936562E+03  0.00000000000E+00 0. -1.
         11    1    3    3    0    0  0.14958464027E+02  0.93977438651E+00 -0.11100107052E+02  0.18650769381E+02  0.00000000000E+00 0.  1.
<mgrwt>
<rscale>  0 0.16684214E+03</rscale>
<asrwt>0</asrwt>
<pdfrwt beam="1">  1        3 0.13828975E+00 0.17289276E+03</pdfrwt>
<pdfrwt beam="2">  1       -3 0.62761901E-02 0.17289276E+03</pdfrwt>
<totfact> 0.16043058E+02</totfact>
</mgrwt>
</event>
<event>
 7    1  0.1020736E-005  0.1570927E+03  0.7546771E-02  0.1200078E+00
         -2   -1    0    0    0  501 -0.00000000000E+00  0.00000000000E+00  0.42782481282E+02  0.42782481282E+02  0.00000000000E+00 0.  1.
          2   -1    0    0  501    0  0.00000000000E+00 -0.00000000000E+00 -0.64378610219E+03  0.64378610219E+03  0.00000000000E+00 0. -1.
         23    2    1    2    0    0 -0.84269681618E+02  0.44165462672E+02 -0.11180458168E+03  0.17276530185E+03  0.91080281654E+02 0.  0.
          5    1    1    2  502    0  0.36402672784E+02 -0.47294151998E+02 -0.71152739366E+02  0.92987599809E+02  0.47000000000E+01 0. -1.
         -5    1    1    2    0  502  0.47867008834E+02  0.31286893255E+01 -0.41804629986E+03  0.42081568181E+03  0.47000000000E+01 0. -1.
        -11    1    3    3    0    0 -0.17953493082E+02  0.47885495215E+02 -0.11426374633E+02  0.52401437033E+02  0.00000000000E+00 0.  1.
         11    1    3    3    0    0 -0.66316188536E+02 -0.37200325431E+01 -0.10037820705E+03  0.12036386482E+03  0.00000000000E+00 0. -1.
<mgrwt>
<rscale>  0 0.15032176E+03</rscale>
<asrwt>0</asrwt>
<pdfrwt beam="2">  1        2 0.99044015E-01 0.15709269E+03</pdfrwt>
<pdfrwt beam="1">  1       -2 0.65819202E-02 0.15709269E+03</pdfrwt>
<totfact> 0.57894766E+03</totfact>
</mgrwt>
</event>
<event>
 7    1  0.1020736E-005  0.1454692E+03  0.7546771E-02  0.1215565E+00
         -4   -1    0    0    0  501 -0.00000000000E+00  0.00000000000E+00  0.40923626829E+02  0.40923626829E+02  0.00000000000E+00 0.  1.
          4   -1    0    0  501    0  0.00000000000E+00 -0.00000000000E+00 -0.47291829758E+03  0.47291829758E+03  0.00000000000E+00 0. -1.
         23    2    1    2    0    0 -0.73090975360E+02  0.13926728042E+02 -0.11708678553E+03  0.16695825970E+03  0.92895105914E+02 0.  0.
          5    1    1    2  502    0  0.88000710010E+02  0.32187198580E+02 -0.17222934891E+03  0.19612541738E+03  0.47000000000E+01 0. -1.
         -5    1    1    2    0  502 -0.14909734650E+02 -0.46113926622E+02 -0.14267853631E+03  0.15075824734E+03  0.47000000000E+01 0. -1.
        -11    1    3    3    0    0 -0.90889874579E+02 -0.71081009027E+01 -0.84767009982E+02  0.12448670765E+03  0.00000000000E+00 0.  1.
         11    1    3    3    0    0  0.17798899220E+02  0.21034828945E+02 -0.32319775546E+02  0.42471552050E+02  0.00000000000E+00 0. -1.
<mgrwt>
<rscale>  0 0.13835132E+03</rscale>
<asrwt>0</asrwt>
<pdfrwt beam="2">  1        4 0.72756669E-01 0.14546924E+03</pdfrwt>
<pdfrwt beam="1">  1       -4 0.62959419E-02 0.14546924E+03</pdfrwt>
<totfact> 0.48399225E+02</totfact>
</mgrwt>
</event>
<event>
 7    1  0.1020736E-005  0.1412346E+03  0.7546771E-02  0.1223116E+00
          3   -1    0    0  501    0  0.00000000000E+00  0.00000000000E+00  0.10855886131E+03  0.10855886131E+03  0.00000000000E+00 0. -1.
         -3   -1    0    0    0  501 -0.00000000000E+00 -0.00000000000E+00 -0.15004744735E+03  0.15004744735E+03  0.00000000000E+00 0.  1.
         23    2    1    2    0    0  0.54688882713E+02 -0.36460200362E+02 -0.38130193568E+02  0.11733179774E+03  0.89401448519E+02 0.  0.
          5    1    1    2  502    0 -0.19979978078E+01 -0.28739116266E+02 -0.40123191107E+02  0.49617429031E+02  0.47000000000E+01 0.  1.
         -5    1    1    2    0  502 -0.52690884905E+02  0.65199316627E+02  0.36764798639E+02  0.91657081885E+02  0.47000000000E+01 0.  1.
        -11    1    3    3    0    0  0.42648831365E+02  0.23937171423E+02 -0.22256262520E+02  0.53733157491E+02  0.00000000000E+00 0. -1.
         11    1    3    3    0    0  0.12040051348E+02 -0.60397371785E+02 -0.15873931048E+02  0.63598640252E+02  0.00000000000E+00 0.  1.
<mgrwt>
<rscale>  0 0.13296905E+03</rscale>
<asrwt>0</asrwt>
<pdfrwt beam="1">  1        3 0.16701363E-01 0.14123459E+03</pdfrwt>
<pdfrwt beam="2">  1       -3 0.23084223E-01 0.14123459E+03</pdfrwt>
<totfact> 0.12390603E+03</totfact>
</mgrwt>
</event>
<event>
 7    1  0.1020736E-005  0.2263174E+03  0.7546771E-02  0.1129259E+00
         -1   -1    0    0    0  501 -0.00000000000E+00  0.00000000000E+00  0.17042753285E+02  0.17042753285E+02  0.00000000000E+00 0.  1.
          1   -1    0    0  501    0  0.00000000000E+00 -0.00000000000E+00 -0.75133938015E+03  0.75133938015E+03  0.00000000000E+00 0. -1.
         23    2    1    2    0    0 -0.61130697211E+01 -0.43854531111E+02 -0.34290711748E+03  0.35512853900E+03  0.81057994525E+02 0.  0.
          5    1    1    2  502    0  0.18752628443E+02 -0.36069652259E+02 -0.21860133612E+03  0.22239899964E+03  0.47000000000E+01 0.  1.
         -5    1    1    2    0  502 -0.12639558722E+02  0.79924183370E+02 -0.17278817327E+03  0.19085459479E+03  0.47000000000E+01 0.  1.
        -11    1    3    3    0    0 -0.40226024187E+02 -0.52568840469E+01 -0.13739928106E+03  0.14326315049E+03  0.00000000000E+00 0.  1.
         11    1    3    3    0    0  0.34112954466E+02 -0.38597647064E+02 -0.20550783642E+03  0.21186538852E+03  0.00000000000E+00 0. -1.
<mgrwt>
<rscale>  0 0.22631740E+03</rscale>
<asrwt>0</asrwt>
<pdfrwt beam="2">  1        1 0.11559067E+00 0.22631740E+03</pdfrwt>
<pdfrwt beam="1">  1       -1 0.26219622E-02 0.22631740E+03</pdfrwt>
<totfact> 0.11530996E+04</totfact>
</mgrwt>
</event>
<event>
 7    1  0.1020736E-005  0.1367985E+03  0.7546771E-02  0.1232272E+00
          2   -1    0    0  501    0  0.00000000000E+00  0.00000000000E+00  0.56299096311E+02  0.56299096311E+02  0.00000000000E+00 0. -1.
         -2   -1    0    0    0  501 -0.00000000000E+00 -0.00000000000E+00 -0.49253807965E+03  0.49253807965E+03  0.00000000000E+00 0.  1.
         23    2    1    2    0    0 -0.28443171984E+02  0.47739888587E+02 -0.39239367433E+03  0.40518396479E+03  0.84339425422E+02 0.  0.
          5    1    1    2  502    0 -0.27003662218E+02  0.18048191951E+02  0.18150061190E+02  0.37502662933E+02  0.47000000000E+01 0.  1.
         -5    1    1    2    0  502  0.55446834202E+02 -0.65788080539E+02 -0.61995370205E+02  0.10615054824E+03  0.47000000000E+01 0.  1.
        -11    1    3    3    0    0 -0.44884640104E+02 -0.54182761857E+01 -0.18686734660E+03  0.19225866394E+03  0.00000000000E+00 0.  1.
         11    1    3    3    0    0  0.16441468120E+02  0.53158164773E+02 -0.20552632772E+03  0.21292530085E+03  0.00000000000E+00 0. -1.
<mgrwt>
<rscale>  0 0.12680685E+03</rscale>
<asrwt>0</asrwt>
<pdfrwt beam="1">  1        2 0.86613996E-02 0.13679852E+03</pdfrwt>
<pdfrwt beam="2">  1       -2 0.75775088E-01 0.13679852E+03</pdfrwt>
<totfact> 0.11999889E+03</totfact>
</mgrwt>
</event>
<event>
 7    1  0.1020736E-005  0.1583300E+03  0.7546771E-02  0.1199115E+00
          2   -1    0    0  501    0  0.00000000000E+00  0.00000000000E+00  0.85370817722E+03  0.85370817722E+03  0.00000000000E+00 0. -1.
         -2   -1    0    0    0  501 -0.00000000000E+00 -0.00000000000E+00 -0.38084485651E+02  0.38084485651E+02  0.00000000000E+00 0.  1.
         23    2    1    2    0    0 -0.97864701162E+01  0.96681689157E+02  0.11850554179E+03  0.17692057327E+03  0.88397973946E+02 0.  0.
          5    1    1    2  502    0  0.64155967698E+01 -0.11594251350E+03  0.67518973927E+03  0.68511831119E+03  0.47000000000E+01 0.  1.
         -5    1    1    2    0  502  0.33708733464E+01  0.19260824345E+02  0.21928410514E+02  0.29753778403E+02  0.47000000000E+01 0.  1.
        -11    1    3    3    0    0  0.31756986818E+02  0.67236625377E+02  0.95524867543E+02  0.12105482362E+03  0.00000000000E+00 0. -1.
         11    1    3    3    0    0 -0.41543456934E+02  0.29445063780E+02  0.22980674242E+02  0.55865749648E+02  0.00000000000E+00 0.  1.
<mgrwt>
<rscale>  0 0.15111031E+03</rscale>
<asrwt>0</asrwt>
<pdfrwt beam="1">  1        2 0.13133971E+00 0.15833000E+03</pdfrwt>
<pdfrwt beam="2">  1       -2 0.58591523E-02 0.15833000E+03</pdfrwt>
<totfact> 0.49011650E+03</totfact>
</mgrwt>
</event>
<event>
 7    1  0.1020736E-005  0.1339831E+03  0.7546771E-02  0.1234172E+00
         -1   -1    0    0    0  501 -0.00000000000E+00  0.00000000000E+00  0.44745315806E+02  0.44745315806E+02  0.00000000000E+00 0. -1.
          1   -1    0    0  501    0  0.00000000000E+00 -0.00000000000E+00 -0.33165348617E+03  0.33165348617E+03  0.00000000000E+00 0.  1.
         23    2    1    2    0    0 -0.34796213739E+02 -0.33405606331E+02 -0.83829751962E+02  0.13310407978E+03  0.91447021362E+02 0.  0.
          5    1    1    2  502    0  0.17070165792E+02 -0.30095892989E+02 -0.16144725584E+03  0.16518008280E+03  0.47000000000E+01 0. -1.
         -5    1    1    2    0  502  0.17726047947E+02  0.63501499320E+02 -0.41631162568E+02  0.78114639399E+02  0.47000000000E+01 0. -1.
        -11    1    3    3    0    0 -0.41114956613E+02  0.45297351739E+01 -0.85105358503E+02  0.94624944935E+02  0.00000000000E+00 0.  1.
         11    1    3    3    0    0  0.63187428744E+01 -0.37935341505E+02  0.12756065414E+01  0.38479134848E+02  0.00000000000E+00 0. -1.
<mgrwt>
<rscale>  0 0.12557584E+03</rscale>
<asrwt>0</asrwt>
<pdfrwt beam="2">  1        1 0.51023612E-01 0.13398313E+03</pdfrwt>
<pdfrwt beam="1">  1       -1 0.68838950E-02 0.13398313E+03</pdfrwt>
<totfact> 0.79413592E+03</totfact>
</mgrwt>
</event>
<event>
 7    1  0.1020736E-005  0.1397953E+03  0.7546771E-02  0.1224741E+00
         -2   -1    0    0    0  501 -0.00000000000E+00  0.00000000000E+00  0.15170474820E+02  0.15170474820E+02  0.00000000000E+00 0.  1.
          2   -1    0    0  501    0  0.00000000000E+00 -0.00000000000E+00 -0.14393103305E+04  0.14393103305E+04  0.00000000000E+00 0. -1.
         23    2    1    2    0    0 -0.61449989160E+02 -0.11837514835E+02 -0.26813632190E+03  0.29005524617E+03  0.91207076398E+02 0.  0.
          5    1    1    2  502    0  0.22715882938E+02 -0.54103164872E+02 -0.36458268569E+03  0.36930446585E+03  0.47000000000E+01 0. -1.
         -5    1    1    2    0  502  0.38734106221E+02  0.65940679707E+02 -0.79142084811E+03  0.79512109332E+03  0.47000000000E+01 0. -1.
        -11    1    3    3    0    0 -0.23199983711E+02  0.28899641546E+02 -0.37410684858E+02  0.52659166982E+02  0.00000000000E+00 0.  1.
         11    1    3    3    0    0 -0.38250005448E+02 -0.40737156381E+02 -0.23072563704E+03  0.23739607919E+03  0.00000000000E+00 0. -1.
<mgrwt>
<rscale>  0 0.13184681E+03</rscale>
<asrwt>0</asrwt>
<pdfrwt beam="2">  1        2 0.22143234E+00 0.13979525E+03</pdfrwt>
<pdfrwt beam="1">  1       -2 0.23339194E-02 0.13979525E+03</pdfrwt>
<totfact> 0.88448211E+03</totfact>
</mgrwt>
</event>
<event>
 7    1  0.1020736E-005  0.1344570E+03  0.7546771E-02  0.1234056E+00
         -1   -1    0    0    0  501 -0.00000000000E+00  0.00000000000E+00  0.94636794509E+03  0.94636794509E+03  0.00000000000E+00 0.  1.
          1   -1    0    0  501    0  0.00000000000E+00 -0.00000000000E+00 -0.14958565319E+02  0.14958565319E+02  0.00000000000E+00 0. -1.
         23    2    1    2    0    0  0.45739646175E+02 -0.19037007346E+02  0.44624158320E+03  0.45787197640E+03  0.89781252592E+02 0.  0.
          5    1    1    2  502    0  0.89902030713E+01  0.56913527438E+02  0.13299080655E+03  0.14501247527E+03  0.47000000000E+01 0. -1.
         -5    1    1    2    0  502 -0.54729849247E+02 -0.37876520092E+02  0.35217699002E+03  0.35844205874E+03  0.47000000000E+01 0. -1.
        -11    1    3    3    0    0 -0.11004331588E+02  0.26578845567E+02  0.15658993053E+03  0.15921035359E+03  0.00000000000E+00 0.  1.
         11    1    3    3    0    0  0.56743977763E+02 -0.45615852913E+02  0.28965165267E+03  0.29866162281E+03  0.00000000000E+00 0. -1.
<mgrwt>
<rscale>  0 0.12565063E+03</rscale>
<asrwt>0</asrwt>
<pdfrwt beam="2">  1        1 0.23013185E-02 0.13445697E+03</pdfrwt>
<pdfrwt beam="1">  1       -1 0.14559502E+00 0.13445697E+03</pdfrwt>
<totfact> 0.19646640E+03</totfact>
</mgrwt>
</event>
<event>
 7    1  0.1020736E-005  0.2521506E+03  0.7546771E-02  0.1115535E+00
         -2   -1    0    0    0  501 -0.00000000000E+00  0.00000000000E+00  0.81734900377E+02  0.81734900377E+02  0.00000000000E+00 0.  1.
          2   -1    0    0  501    0  0.00000000000E+00 -0.00000000000E+00 -0.71620460578E+03  0.71620460578E+03  0.00000000000E+00 0. -1.
         23    2    1    2    0    0 -0.50474846655E+02 -0.21309259818E+03 -0.27226389656E+03  0.35660858447E+03  0.71315409281E+02 0.  0.
          5    1    1    2  502    0  0.37265766469E+02  0.22826811118E+03 -0.32811575761E+03  0.40146868910E+03  0.47000000000E+01 0.  1.
         -5    1    1    2    0  502  0.13209080187E+02 -0.15175513010E+02 -0.34090051227E+02  0.39862232591E+02  0.47000000000E+01 0.  1.
        -11    1    3    3    0    0 -0.61614652330E+01 -0.99855198677E+02 -0.75636978023E+02  0.12541920428E+03  0.00000000000E+00 0.  1.
         11    1    3    3    0    0 -0.44313381422E+02 -0.11323739950E+03 -0.19662691854E+03  0.23118938019E+03  0.00000000000E+00 0. -1.
<mgrwt>
<rscale>  0 0.24650320E+03</rscale>
<asrwt>0</asrwt>
<pdfrwt beam="2">  1        2 0.11018532E+00 0.25215062E+03</pdfrwt>
<pdfrwt beam="1">  1       -2 0.12574600E-01 0.25215062E+03</pdfrwt>
<totfact> 0.18645062E+03</totfact>
</mgrwt>
</event>
<event>
 7    1  0.1020736E-005  0.2689000E+03  0.7546771E-02  0.1103970E+00
         -2   -1    0    0    0  501 -0.00000000000E+00  0.00000000000E+00  0.20819060806E+03  0.20819060806E+03  0.00000000000E+00 0.  1.
          2   -1    0    0  501    0  0.00000000000E+00 -0.00000000000E+00 -0.33181994740E+03  0.33181994740E+03  0.00000000000E+00 0. -1.
         23    2    1    2    0    0  0.22797830533E+03 -0.68620474809E+02 -0.37958095998E+02  0.25779294443E+03  0.91288048971E+02 0.  0.
          5    1    1    2  502    0 -0.48462336108E+02  0.41507463684E+02  0.25952215128E+02  0.69044007941E+02  0.47000000000E+01 0. -1.
         -5    1    1    2    0  502 -0.17951596922E+03  0.27113011125E+02 -0.11162345847E+03  0.21317360310E+03  0.47000000000E+01 0. -1.
        -11    1    3    3    0    0  0.20369956456E+02 -0.43431804393E+01 -0.34660358117E+02  0.40436849125E+02  0.00000000000E+00 0. -1.
         11    1    3    3    0    0  0.20760834887E+03 -0.64277294370E+02 -0.32977378811E+01  0.21735609531E+03  0.00000000000E+00 0.  1.
<mgrwt>
<rscale>  0 0.26535115E+03</rscale>
<asrwt>0</asrwt>
<pdfrwt beam="2">  1        2 0.51049222E-01 0.26890001E+03</pdfrwt>
<pdfrwt beam="1">  1       -2 0.32029325E-01 0.26890001E+03</pdfrwt>
<totfact> 0.88958495E+02</totfact>
</mgrwt>
</event>
<event>
 7    1  0.1020736E-005  0.1328888E+03  0.7546771E-02  0.1236355E+00
         -4   -1    0    0    0  501 -0.00000000000E+00  0.00000000000E+00  0.29844459714E+02  0.29844459714E+02  0.00000000000E+00 0.  1.
          4   -1    0    0  501    0  0.00000000000E+00 -0.00000000000E+00 -0.45963946724E+03  0.45963946724E+03  0.00000000000E+00 0. -1.
         23    2    1    2    0    0 -0.42619935138E+02 -0.14817133608E+02 -0.18260703240E+03  0.20883943372E+03  0.90733535544E+02 0.  0.
          5    1    1    2  502    0  0.89177642993E+01 -0.44607644331E+02 -0.34734405485E+02  0.57427670833E+02  0.47000000000E+01 0. -1.
         -5    1    1    2    0  502  0.33702170838E+02  0.59424777940E+02 -0.21245356963E+03  0.22321682240E+03  0.47000000000E+01 0. -1.
        -11    1    3    3    0    0 -0.31671528265E+02 -0.43317837226E+02 -0.16519518521E+03  0.17369217006E+03  0.00000000000E+00 0. -1.
         11    1    3    3    0    0 -0.10948406872E+02  0.28500703618E+02 -0.17411847196E+02  0.35147263656E+02  0.00000000000E+00 0.  1.
<mgrwt>
<rscale>  0 0.12418099E+03</rscale>
<asrwt>0</asrwt>
<pdfrwt beam="2">  1        4 0.70713772E-01 0.13288881E+03</pdfrwt>
<pdfrwt beam="1">  1       -4 0.45914548E-02 0.13288881E+03</pdfrwt>
<totfact> 0.84232892E+02</totfact>
</mgrwt>
</event>
<event>
 7    1  0.1020736E-005  0.1541290E+03  0.7546771E-02  0.1204284E+00
          2   -1    0    0  501    0  0.00000000000E+00  0.00000000000E+00  0.56798150971E+03  0.56798150971E+03  0.00000000000E+00 0. -1.
         -2   -1    0    0    0  501 -0.00000000000E+00 -0.00000000000E+00 -0.35666760275E+02  0.35666760275E+02  0.00000000000E+00 0.  1.
         23    2    1    2    0    0  0.47801354380E+02 -0.76457800412E+02  0.19638662063E+03  0.23404920593E+03  0.89891942409E+02 0.  0.
          5    1    1    2  502    0 -0.14296469533E+02 -0.33857817577E+02  0.60028750890E+02  0.70542765651E+02  0.47000000000E+01 0.  1.
         -5    1    1    2    0  502 -0.33504884846E+02  0.11031561799E+03  0.27589937791E+03  0.29905629840E+03  0.47000000000E+01 0.  1.
        -11    1    3    3    0    0 -0.11761920344E+02  0.81281060864E+01  0.28220668059E+01  0.14573020956E+02  0.00000000000E+00 0.  1.
         11    1    3    3    0    0  0.59563274724E+02 -0.84585906498E+02  0.19356455382E+03  0.21947618498E+03  0.00000000000E+00 0. -1.
<mgrwt>
<rscale>  0 0.14694021E+03</rscale>
<asrwt>0</asrwt>
<pdfrwt beam="1">  1        2 0.87381764E-01 0.15412904E+03</pdfrwt>
<pdfrwt beam="2">  1       -2 0.54871943E-02 0.15412904E+03</pdfrwt>
<totfact> 0.88059666E+03</totfact>
</mgrwt>
</event>
<event>
 7    1  0.1020736E-005  0.1432913E+03  0.7546771E-02  0.1219161E+00
         -1   -1    0    0    0  501 -0.00000000000E+00  0.00000000000E+00  0.41719929492E+02  0.41719929492E+02  0.00000000000E+00 0.  1.
          1   -1    0    0  501    0  0.00000000000E+00 -0.00000000000E+00 -0.55858942191E+03  0.55858942191E+03  0.00000000000E+00 0. -1.
         23    2    1    2    0    0 -0.69471029654E+02  0.89650274760E+01 -0.79753348171E+02  0.14030618961E+03  0.91753117759E+02 0.  0.
          5    1    1    2  502    0  0.70971829661E+02  0.11191813978E+02 -0.10544343235E+03  0.12768188882E+03  0.47000000000E+01 0. -1.
         -5    1    1    2    0  502 -0.15008000067E+01 -0.20156841454E+02 -0.33167271189E+03  0.33232127298E+03  0.47000000000E+01 0. -1.
        -11    1    3    3    0    0 -0.51182687318E+02  0.15314107264E+02 -0.99322603539E+02  0.11277929303E+03  0.00000000000E+00 0. -1.
         11    1    3    3    0    0 -0.18288342336E+02 -0.63490797876E+01  0.19569255368E+02  0.27526896578E+02  0.00000000000E+00 0.  1.
<mgrwt>
<rscale>  0 0.13575290E+03</rscale>
<asrwt>0</asrwt>
<pdfrwt beam="2">  1        1 0.85936837E-01 0.14329126E+03</pdfrwt>
<pdfrwt beam="1">  1       -1 0.64184505E-02 0.14329126E+03</pdfrwt>
<totfact> 0.45445463E+03</totfact>
</mgrwt>
</event>
<event>
 7    1  0.1020736E-005  0.1581348E+03  0.7546771E-02  0.1201383E+00
          1   -1    0    0  501    0  0.00000000000E+00  0.00000000000E+00  0.31631726719E+03  0.31631726719E+03  0.00000000000E+00 0. -1.
         -1   -1    0    0    0  501 -0.00000000000E+00 -0.00000000000E+00 -0.15171105385E+03  0.15171105385E+03  0.00000000000E+00 0.  1.
         23    2    1    2    0    0  0.79677673817E+02  0.55043316083E+02 -0.99517180709E+02  0.16018455015E+03  0.79856887622E+02 0.  0.
          5    1    1    2  502    0 -0.95594180424E+02 -0.36717461848E+02  0.26390894206E+03  0.28311912517E+03  0.47000000000E+01 0. -1.
         -5    1    1    2    0  502  0.15916506607E+02 -0.18325854235E+02  0.21445198660E+00  0.24724645713E+02  0.47000000000E+01 0. -1.
        -11    1    3    3    0    0  0.76803366575E+02  0.14233466389E+02 -0.88035829128E+02  0.11769305796E+03  0.00000000000E+00 0. -1.
         11    1    3    3    0    0  0.28743072422E+01  0.40809849694E+02 -0.11481351581E+02  0.42491492187E+02  0.00000000000E+00 0.  1.
<mgrwt>
<rscale>  0 0.14926204E+03</rscale>
<asrwt>0</asrwt>
<pdfrwt beam="1">  1        1 0.48664195E-01 0.15813482E+03</pdfrwt>
<pdfrwt beam="2">  1       -1 0.23340162E-01 0.15813482E+03</pdfrwt>
<totfact> 0.12685725E+03</totfact>
</mgrwt>
</event>
<event>
 7    1  0.1020736E-005  0.1631873E+03  0.7546771E-02  0.1193108E+00
         -1   -1    0    0    0  501 -0.00000000000E+00  0.00000000000E+00  0.99589959052E+02  0.99589959052E+02  0.00000000000E+00 0.  1.
          1   -1    0    0  501    0  0.00000000000E+00 -0.00000000000E+00 -0.24094980274E+03  0.24094980274E+03  0.00000000000E+00 0. -1.
         23    2    1    2    0    0 -0.52700774894E+02 -0.90703528028E+02 -0.22512077365E+02  0.13866133251E+03  0.87838885659E+02 0.  0.
          5    1    1    2  502    0  0.90890447600E+01 -0.20919775736E+02  0.10446733370E+02  0.25523949334E+02  0.47000000000E+01 0. -1.
         -5    1    1    2    0  502  0.43611730133E+02  0.11162330376E+03 -0.12929449969E+03  0.17635447995E+03  0.47000000000E+01 0. -1.
        -11    1    3    3    0    0  0.16512397746E+02 -0.73491210651E+01  0.15533131883E+02  0.23831639596E+02  0.00000000000E+00 0.  1.
         11    1    3    3    0    0 -0.69213172639E+02 -0.83354406963E+02 -0.38045209249E+02  0.11482969291E+03  0.00000000000E+00 0. -1.
<mgrwt>
<rscale>  0 0.15615417E+03</rscale>
<asrwt>0</asrwt>
<pdfrwt beam="2">  1        1 0.37069200E-01 0.16318734E+03</pdfrwt>
<pdfrwt beam="1">  1       -1 0.15321532E-01 0.16318734E+03</pdfrwt>
<totfact> 0.35002803E+03</totfact>
</mgrwt>
</event>
<event>
 7    1  0.1020736E-005  0.1426890E+03  0.7546771E-02  0.1219199E+00
          2   -1    0    0  501    0  0.00000000000E+00  0.00000000000E+00  0.28733696277E+03  0.28733696277E+03  0.00000000000E+00 0. -1.
         -2   -1    0    0    0  501 -0.00000000000E+00 -0.00000000000E+00 -0.58607613263E+02  0.58607613263E+02  0.00000000000E+00 0.  1.
         23    2    1    2    0    0 -0.68090523805E+02 -0.99345582727E+01  0.10601181973E+03  0.15774326006E+03  0.94389699071E+02 0.  0.
          5    1    1    2  502    0  0.32679919628E+02 -0.40584691113E+02  0.11436996782E+03  0.12576833401E+03  0.47000000000E+01 0. -1.
         -5    1    1    2    0  502  0.35410604177E+02  0.50519249385E+02  0.83475619538E+01  0.62432981967E+02  0.47000000000E+01 0. -1.
        -11    1    3    3    0    0 -0.72905707258E+02 -0.41514761790E+02  0.67314102059E+02  0.10756349722E+03  0.00000000000E+00 0. -1.
         11    1    3    3    0    0  0.48151834524E+01  0.31580203517E+02  0.38697717670E+02  0.50179762841E+02  0.00000000000E+00 0.  1.
<mgrwt>
<rscale>  0 0.13572575E+03</rscale>
<asrwt>0</asrwt>
<pdfrwt beam="1">  1        2 0.44205686E-01 0.14268897E+03</pdfrwt>
<pdfrwt beam="2">  1       -2 0.90165560E-02 0.14268897E+03</pdfrwt>
<totfact> 0.85384110E+03</totfact>
</mgrwt>
</event>
<event>
 7    1  0.1020736E-005  0.5047197E+03  0.7546771E-02  0.1043923E+00
         -2   -1    0    0    0  501 -0.00000000000E+00  0.00000000000E+00  0.16248733092E+03  0.16248733092E+03  0.00000000000E+00 0.  1.
          2   -1    0    0  501    0  0.00000000000E+00 -0.00000000000E+00 -0.91931689046E+03  0.91931689046E+03  0.00000000000E+00 0. -1.
         23    2    1    2    0    0 -0.15006461084E+03  0.95605631623E+02 -0.35510073297E+02  0.20143849109E+03  0.87502435170E+02 0.  0.
          5    1    1    2  502    0 -0.11608079731E+03 -0.17332164548E+03 -0.43123529959E+03  0.47906274945E+03  0.47000000000E+01 0. -1.
         -5    1    1    2    0  502  0.26614540816E+03  0.77716013853E+02 -0.29008418665E+03  0.40130298085E+03  0.47000000000E+01 0.  1.
        -11    1    3    3    0    0 -0.82197060097E+02  0.95762026404E+02 -0.42610093266E+02  0.13320038453E+03  0.00000000000E+00 0. -1.
         11    1    3    3    0    0 -0.67867550748E+02 -0.15639478101E+00  0.71000199695E+01  0.68238106564E+02  0.00000000000E+00 0.  1.
<mgrwt>
<rscale>  0 0.39958537E+03</rscale>
<asrwt>0</asrwt>
<pdfrwt beam="2">  1        2 0.14143337E+00 0.50471974E+03</pdfrwt>
<pdfrwt beam="1">  1       -2 0.24998051E-01 0.50471974E+03</pdfrwt>
<totfact> 0.41526296E+02</totfact>
</mgrwt>
</event>
<event>
 7    1  0.1020736E-005  0.1261409E+03  0.7546771E-02  0.1247166E+00
          1   -1    0    0  501    0  0.00000000000E+00  0.00000000000E+00  0.15528398909E+03  0.15528398909E+03  0.00000000000E+00 0. -1.
         -1   -1    0    0    0  501 -0.00000000000E+00 -0.00000000000E+00 -0.81540450024E+02  0.81540450024E+02  0.00000000000E+00 0.  1.
         23    2    1    2    0    0 -0.16828209940E+02 -0.19257035524E+01  0.10633843654E+02  0.95777063315E+02  0.93665736758E+02 0.  0.
          5    1    1    2  502    0  0.53356393618E+01 -0.37729653370E+02  0.85586815064E+02  0.93803990872E+02  0.47000000000E+01 0. -1.
         -5    1    1    2    0  502  0.11492570579E+02  0.39655356922E+02 -0.22477119654E+02  0.47243384924E+02  0.47000000000E+01 0. -1.
        -11    1    3    3    0    0 -0.18362596395E+02 -0.45890761254E+02 -0.35491180752E+01  0.49555455339E+02  0.00000000000E+00 0.  1.
         11    1    3    3    0    0  0.15343864541E+01  0.43965057701E+02  0.14182961729E+02  0.46221607976E+02  0.00000000000E+00 0. -1.
<mgrwt>
<rscale>  0 0.11756661E+03</rscale>
<asrwt>0</asrwt>
<pdfrwt beam="1">  1        1 0.23889844E-01 0.12614091E+03</pdfrwt>
<pdfrwt beam="2">  1       -1 0.12544685E-01 0.12614091E+03</pdfrwt>
<totfact> 0.81437129E+03</totfact>
</mgrwt>
</event>
<event>
 7    1  0.1020736E-005  0.1304337E+03  0.7546771E-02  0.1240449E+00
         -3   -1    0    0    0  501 -0.00000000000E+00  0.00000000000E+00  0.13398107649E+03  0.13398107649E+03  0.00000000000E+00 0.  1.
          3   -1    0    0  501    0  0.00000000000E+00 -0.00000000000E+00 -0.17144535842E+03  0.17144535842E+03  0.00000000000E+00 0. -1.
         23    2    1    2    0    0 -0.35290742839E+02 -0.11932348902E+02  0.82239749720E+02  0.12838972676E+03  0.91283777432E+02 0.  0.
          5    1    1    2  502    0 -0.40257560872E+02  0.12805811022E+02 -0.82237253081E+02  0.92572759479E+02  0.47000000000E+01 0. -1.
         -5    1    1    2    0  502  0.75548303711E+02 -0.87346211998E+00 -0.37466778566E+02  0.84463948675E+02  0.47000000000E+01 0. -1.
        -11    1    3    3    0    0 -0.46062225646E+02  0.18315905241E+02  0.82538045738E+02  0.96279437111E+02  0.00000000000E+00 0.  1.
         11    1    3    3    0    0  0.10771482807E+02 -0.30248254143E+02 -0.29829601831E+00  0.32110289645E+02  0.00000000000E+00 0. -1.
<mgrwt>
<rscale>  0 0.12161961E+03</rscale>
<asrwt>0</asrwt>
<pdfrwt beam="2">  1        3 0.26376209E-01 0.13043366E+03</pdfrwt>
<pdfrwt beam="1">  1       -3 0.20612473E-01 0.13043366E+03</pdfrwt>
<totfact> 0.66642050E+02</totfact>
</mgrwt>
</event>
<event>
 7    1  0.1020736E-005  0.1413237E+03  0.7546771E-02  0.1219437E+00
          2   -1    0    0  501    0  0.00000000000E+00  0.00000000000E+00  0.46665038989E+03  0.46665038989E+03  0.00000000000E+00 0.  1.
         -2   -1    0    0    0  501 -0.00000000000E+00 -0.00000000000E+00 -0.36480921007E+02  0.36480921007E+02  0.00000000000E+00 0. -1.
         23    2    1    2    0    0 -0.19105406932E+02 -0.63139834199E+02  0.19748468867E+03  0.23089137485E+03  0.99794636552E+02 0.  0.
          5    1    1    2  502    0  0.56794025541E+02  0.48529872427E+02  0.63280103000E+02  0.98016178719E+02  0.47000000000E+01 0. -1.
         -5    1    1    2    0  502 -0.37688618609E+02  0.14609961772E+02  0.16940467721E+03  0.17422375733E+03  0.47000000000E+01 0. -1.
        -11    1    3    3    0    0  0.24197597515E+02 -0.22643295551E+02  0.10547817207E+02  0.34777852245E+02  0.00000000000E+00 0. -1.
         11    1    3    3    0    0 -0.43303004447E+02 -0.40496538648E+02  0.18693687146E+03  0.19611352260E+03  0.00000000000E+00 0.  1.
<mgrwt>
<rscale>  0 0.13555592E+03</rscale>
<asrwt>0</asrwt>
<pdfrwt beam="1">  1        2 0.71792363E-01 0.14132366E+03</pdfrwt>
<pdfrwt beam="2">  1       -2 0.56124497E-02 0.14132366E+03</pdfrwt>
<totfact> 0.10519552E+04</totfact>
</mgrwt>
</event>
<event>
 7    1  0.1020736E-005  0.1610056E+03  0.7546771E-02  0.1195028E+00
          4   -1    0    0  501    0  0.00000000000E+00  0.00000000000E+00  0.12542386517E+04  0.12542386517E+04  0.00000000000E+00 0. -1.
         -4   -1    0    0    0  501 -0.00000000000E+00 -0.00000000000E+00 -0.18687742604E+02  0.18687742604E+02  0.00000000000E+00 0.  1.
         23    2    1    2    0    0  0.54615489761E+02 -0.85531454349E+02  0.42053387785E+03  0.44215833339E+03  0.91415359537E+02 0.  0.
          5    1    1    2  502    0 -0.87725979477E+02  0.68576526126E+02  0.72078879871E+03  0.72935393997E+03  0.47000000000E+01 0. -1.
         -5    1    1    2    0  502  0.33110489715E+02  0.16954928223E+02  0.94228232583E+02  0.10141412099E+03  0.47000000000E+01 0. -1.
        -11    1    3    3    0    0  0.47428951093E+02 -0.68067024152E+01  0.86363101622E+02  0.98764477022E+02  0.00000000000E+00 0.  1.
         11    1    3    3    0    0  0.71865386687E+01 -0.78724751934E+02  0.33417077623E+03  0.34339385636E+03  0.00000000000E+00 0. -1.
<mgrwt>
<rscale>  0 0.15451865E+03</rscale>
<asrwt>0</asrwt>
<pdfrwt beam="1">  1        4 0.19295973E+00 0.16100562E+03</pdfrwt>
<pdfrwt beam="2">  1       -4 0.28750383E-02 0.16100562E+03</pdfrwt>
<totfact> 0.16066744E+02</totfact>
</mgrwt>
</event>
<event>
 7    1  0.1020736E-005  0.1288291E+03  0.7546771E-02  0.1243180E+00
         -2   -1    0    0    0  501 -0.00000000000E+00  0.00000000000E+00  0.85229251519E+01  0.85229251519E+01  0.00000000000E+00 0.  1.
          2   -1    0    0  501    0  0.00000000000E+00 -0.00000000000E+00 -0.16368287804E+04  0.16368287804E+04  0.00000000000E+00 0. -1.
         23    2    1    2    0    0 -0.30562155615E+02 -0.61084036156E+01 -0.46759130930E+03  0.47750959038E+03  0.91664706527E+02 0.  0.
          5    1    1    2  502    0  0.65202934372E+02 -0.59836867130E+01 -0.10272787019E+04  0.10293740081E+04  0.47000000000E+01 0. -1.
         -5    1    1    2    0  502 -0.34640778756E+02  0.12092090329E+02 -0.13343584407E+03  0.13846810710E+03  0.47000000000E+01 0. -1.
        -11    1    3    3    0    0 -0.57249053728E+02  0.15372180231E+02 -0.35171873539E+03  0.35667888486E+03  0.00000000000E+00 0.  1.
         11    1    3    3    0    0  0.26686898112E+02 -0.21480583846E+02 -0.11587257391E+03  0.12083070553E+03  0.00000000000E+00 0. -1.
<mgrwt>
<rscale>  0 0.11994991E+03</rscale>
<asrwt>0</asrwt>
<pdfrwt beam="2">  1        2 0.25181971E+00 0.12882915E+03</pdfrwt>
<pdfrwt beam="1">  1       -2 0.13112198E-02 0.12882915E+03</pdfrwt>
<totfact> 0.16029161E+04</totfact>
</mgrwt>
</event>
<event>
 7    1  0.1020736E-005  0.1313833E+03  0.7546771E-02  0.1242175E+00
          1   -1    0    0  501    0  0.00000000000E+00  0.00000000000E+00  0.47591303580E+03  0.47591303580E+03  0.00000000000E+00 0. -1.
         -1   -1    0    0    0  501 -0.00000000000E+00 -0.00000000000E+00 -0.29296098294E+02  0.29296098294E+02  0.00000000000E+00 0.  1.
         23    2    1    2    0    0 -0.21431390578E+02  0.34277489648E+02  0.11171330099E+03  0.14545642622E+03  0.83925321046E+02 0.  0.
          5    1    1    2  502    0  0.50802053563E+02  0.17592813817E+02  0.71123190343E+02  0.89280199086E+02  0.47000000000E+01 0. -1.
         -5    1    1    2    0  502 -0.29370662985E+02 -0.51870303465E+02  0.26378044617E+03  0.27047250879E+03  0.47000000000E+01 0. -1.
        -11    1    3    3    0    0  0.46045895432E+01 -0.18109775243E+02 -0.73568995406E+00  0.18700466410E+02  0.00000000000E+00 0.  1.
         11    1    3    3    0    0 -0.26035980121E+02  0.52387264891E+02  0.11244899095E+03  0.12675595981E+03  0.00000000000E+00 0. -1.
<mgrwt>
<rscale>  0 0.12056069E+03</rscale>
<asrwt>0</asrwt>
<pdfrwt beam="1">  1        1 0.73217384E-01 0.13138328E+03</pdfrwt>
<pdfrwt beam="2">  1       -1 0.45070924E-02 0.13138328E+03</pdfrwt>
<totfact> 0.94297528E+03</totfact>
</mgrwt>
</event>
<event>
 7    1  0.1020736E-005  0.1185831E+03  0.7546771E-02  0.1254530E+00
         -1   -1    0    0    0  501 -0.00000000000E+00  0.00000000000E+00  0.21419131480E+02  0.21419131480E+02  0.00000000000E+00 0.  1.
          1   -1    0    0  501    0  0.00000000000E+00 -0.00000000000E+00 -0.70300809434E+03  0.70300809434E+03  0.00000000000E+00 0. -1.
         23    2    1    2    0    0 -0.49512398590E+01 -0.38618885649E+02 -0.14933726264E+03  0.17912562510E+03  0.90930954301E+02 0.  0.
          5    1    1    2  502    0  0.22919706658E+01 -0.18382919613E+02 -0.40849067137E+03  0.40893753002E+03  0.47000000000E+01 0. -1.
         -5    1    1    2    0  502  0.26592691932E+01  0.57001805262E+02 -0.12376102885E+03  0.13636407070E+03  0.47000000000E+01 0.  1.
        -11    1    3    3    0    0 -0.42129047459E+02 -0.26438116649E+02 -0.12098526685E+03  0.13081003573E+03  0.00000000000E+00 0.  1.
         11    1    3    3    0    0  0.37177807600E+02 -0.12180769000E+02 -0.28351995787E+02  0.48315589373E+02  0.00000000000E+00 0. -1.
<mgrwt>
<rscale>  0 0.11332712E+03</rscale>
<asrwt>0</asrwt>
<pdfrwt beam="2">  1        1 0.10815511E+00 0.11858315E+03</pdfrwt>
<pdfrwt beam="1">  1       -1 0.32952505E-02 0.11858315E+03</pdfrwt>
<totfact> 0.87512834E+03</totfact>
</mgrwt>
</event>
<event>
 7    1  0.1020736E-005  0.1443619E+03  0.7546771E-02  0.1216776E+00
         -2   -1    0    0    0  501 -0.00000000000E+00  0.00000000000E+00  0.25378076331E+02  0.25378076331E+02  0.00000000000E+00 0.  1.
          2   -1    0    0  501    0  0.00000000000E+00 -0.00000000000E+00 -0.80230372840E+03  0.80230372840E+03  0.00000000000E+00 0. -1.
         23    2    1    2    0    0 -0.70600050247E+02  0.15243314937E+02 -0.19647611586E+03  0.22954969069E+03  0.94199101106E+02 0.  0.
          5    1    1    2  502    0  0.10142347666E+03 -0.34261691810E+02 -0.45688902718E+03  0.46928696796E+03  0.47000000000E+01 0. -1.
         -5    1    1    2    0  502 -0.30823426415E+02  0.19018376872E+02 -0.12356050903E+03  0.12884514608E+03  0.47000000000E+01 0. -1.
        -11    1    3    3    0    0 -0.43057160013E+02 -0.18128328570E+02 -0.17521932721E+03  0.18134047522E+03  0.00000000000E+00 0. -1.
         11    1    3    3    0    0 -0.27542890234E+02  0.33371643508E+02 -0.21256788648E+02  0.48209215472E+02  0.00000000000E+00 0.  1.
<mgrwt>
<rscale>  0 0.13746879E+03</rscale>
<asrwt>0</asrwt>
<pdfrwt beam="2">  1        2 0.12343133E+00 0.14436191E+03</pdfrwt>
<pdfrwt beam="1">  1       -2 0.39043199E-02 0.14436191E+03</pdfrwt>
<totfact> 0.97142448E+03</totfact>
</mgrwt>
</event>
<event>
 7    1  0.1020736E-005  0.1508505E+03  0.7546771E-02  0.1210523E+00
          2   -1    0    0  501    0  0.00000000000E+00  0.00000000000E+00  0.12002730751E+04  0.12002730751E+04  0.00000000000E+00 0. -1.
         -2   -1    0    0    0  501 -0.00000000000E+00 -0.00000000000E+00 -0.19131447972E+02  0.19131447972E+02  0.00000000000E+00 0.  1.
         23    2    1    2    0    0  0.35591242865E+02  0.76574561827E+02  0.25823449236E+03  0.28425027685E+03  0.83562950862E+02 0.  0.
          5    1    1    2  502    0 -0.10588891456E+02  0.28537075615E+02  0.39982702956E+03  0.40101151215E+03  0.47000000000E+01 0.  1.
         -5    1    1    2    0  502 -0.25002351409E+02 -0.10511163744E+03  0.52308010521E+03  0.53414273408E+03  0.47000000000E+01 0.  1.
        -11    1    3    3    0    0  0.94885228875E+01  0.12885302311E+02 -0.10003832763E+01  0.16033210811E+02  0.00000000000E+00 0.  1.
         11    1    3    3    0    0  0.26102719977E+02  0.63689259517E+02  0.25923487563E+03  0.26821706603E+03  0.00000000000E+00 0. -1.
<mgrwt>
<rscale>  0 0.14210626E+03</rscale>
<asrwt>0</asrwt>
<pdfrwt beam="1">  1        2 0.18465734E+00 0.15085054E+03</pdfrwt>
<pdfrwt beam="2">  1       -2 0.29433006E-02 0.15085054E+03</pdfrwt>
<totfact> 0.84976807E+03</totfact>
</mgrwt>
</event>
<event>
 7    1  0.1020736E-005  0.1655238E+03  0.7546771E-02  0.1189362E+00
         -1   -1    0    0    0  501 -0.00000000000E+00  0.00000000000E+00  0.22697637306E+02  0.22697637306E+02  0.00000000000E+00 0.  1.
          1   -1    0    0  501    0  0.00000000000E+00 -0.00000000000E+00 -0.12562919154E+04  0.12562919154E+04  0.00000000000E+00 0. -1.
         23    2    1    2    0    0  0.20513540563E+02  0.10655029786E+03 -0.31622627706E+03  0.34680814445E+03  0.92212035197E+02 0.  0.
          5    1    1    2  502    0 -0.91838163515E+01 -0.67618281079E+02 -0.85444427020E+03  0.85717773845E+03  0.47000000000E+01 0.  1.
         -5    1    1    2    0  502 -0.11329724212E+02 -0.38932016782E+02 -0.62923730830E+02  0.75003669797E+02  0.47000000000E+01 0.  1.
        -11    1    3    3    0    0  0.45183191001E+02  0.18495153599E+02 -0.82988677448E+02  0.96284536870E+02  0.00000000000E+00 0. -1.
         11    1    3    3    0    0 -0.24669650438E+02  0.88055144262E+02 -0.23323759961E+03  0.25052360759E+03  0.00000000000E+00 0.  1.
<mgrwt>
<rscale>  0 0.15941176E+03</rscale>
<asrwt>0</asrwt>
<pdfrwt beam="2">  1        1 0.19327565E+00 0.16552380E+03</pdfrwt>
<pdfrwt beam="1">  1       -1 0.34919446E-02 0.16552380E+03</pdfrwt>
<totfact> 0.31254784E+03</totfact>
</mgrwt>
</event>
<event>
 7    1  0.1020736E-005  0.1351042E+03  0.7546771E-02  0.1232225E+00
         -2   -1    0    0    0  501 -0.00000000000E+00  0.00000000000E+00  0.46773847122E+02  0.46773847122E+02  0.00000000000E+00 0.  1.
          2   -1    0    0  501    0  0.00000000000E+00 -0.00000000000E+00 -0.36669390841E+03  0.36669390841E+03  0.00000000000E+00 0. -1.
         23    2    1    2    0    0  0.26291083853E+02  0.44006419050E+02 -0.60925643721E+02  0.12135262426E+03  0.91579142518E+02 0.  0.
          5    1    1    2  502    0  0.18827183168E+02 -0.31387503663E+02 -0.23751120900E+03  0.24036077595E+03  0.47000000000E+01 0. -1.
         -5    1    1    2    0  502 -0.45118267021E+02 -0.12618915387E+02 -0.21483208560E+02  0.51754355320E+02  0.47000000000E+01 0. -1.
        -11    1    3    3    0    0  0.29819807955E+02 -0.20795778413E+02 -0.71087969046E+01  0.37043492542E+02  0.00000000000E+00 0. -1.
         11    1    3    3    0    0 -0.35287241018E+01  0.64802197463E+02 -0.53816846816E+02  0.84309131718E+02  0.00000000000E+00 0.  1.
<mgrwt>
<rscale>  0 0.12683740E+03</rscale>
<asrwt>0</asrwt>
<pdfrwt beam="2">  1        2 0.56414448E-01 0.13510419E+03</pdfrwt>
<pdfrwt beam="1">  1       -2 0.71959764E-02 0.13510419E+03</pdfrwt>
<totfact> 0.93053452E+03</totfact>
</mgrwt>
</event>
<event>
 7    1  0.1020736E-005  0.1392124E+03  0.7546771E-02  0.1225282E+00
          2   -1    0    0  501    0  0.00000000000E+00  0.00000000000E+00  0.28131213619E+03  0.28131213619E+03  0.00000000000E+00 0.  1.
         -2   -1    0    0    0  501 -0.00000000000E+00 -0.00000000000E+00 -0.63325453245E+02  0.63325453245E+02  0.00000000000E+00 0. -1.
         23    2    1    2    0    0 -0.38852789344E+02  0.47396051515E+02  0.37987326789E+02  0.11708567540E+03  0.92250167746E+02 0.  0.
          5    1    1    2  502    0 -0.15875040133E+02 -0.71038899441E+02  0.13222588749E+03  0.15101098455E+03  0.47000000000E+01 0. -1.
         -5    1    1    2    0  502  0.54727829476E+02  0.23642847926E+02  0.47773468669E+02  0.76540929481E+02  0.47000000000E+01 0. -1.
        -11    1    3    3    0    0  0.26894352147E+01 -0.25725147219E+02  0.15010604032E+02  0.29905425839E+02  0.00000000000E+00 0.  1.
         11    1    3    3    0    0 -0.41542224559E+02  0.73121198734E+02  0.22976722757E+02  0.87180249565E+02  0.00000000000E+00 0. -1.
<mgrwt>
<rscale>  0 0.13147601E+03</rscale>
<asrwt>0</asrwt>
<pdfrwt beam="1">  1        2 0.43278790E-01 0.13921245E+03</pdfrwt>
<pdfrwt beam="2">  1       -2 0.97423776E-02 0.13921245E+03</pdfrwt>
<totfact> 0.77233372E+03</totfact>
</mgrwt>
</event>
<event>
 7    1  0.1020736E-005  0.2393725E+03  0.7546771E-02  0.1122952E+00
          1   -1    0    0  501    0  0.00000000000E+00  0.00000000000E+00  0.21224666232E+03  0.21224666232E+03  0.00000000000E+00 0. -1.
         -1   -1    0    0    0  501 -0.00000000000E+00 -0.00000000000E+00 -0.25383035153E+03  0.25383035153E+03  0.00000000000E+00 0.  1.
         23    2    1    2    0    0  0.40335639273E+02 -0.20011961258E+03 -0.37417242148E+02  0.22666821432E+03  0.91124125460E+02 0.  0.
          5    1    1    2  502    0  0.13427513837E+02  0.16376415575E+03 -0.33941948320E+02  0.16784857071E+03  0.47000000000E+01 0. -1.
         -5    1    1    2    0  502 -0.53763153110E+02  0.36355456832E+02  0.29775501255E+02  0.71560228820E+02  0.47000000000E+01 0. -1.
        -11    1    3    3    0    0 -0.12275923113E+02 -0.63775694106E+02  0.22480610027E+02  0.68727107273E+02  0.00000000000E+00 0.  1.
         11    1    3    3    0    0  0.52611562386E+02 -0.13634391847E+03 -0.59897852175E+02  0.15794110705E+03  0.00000000000E+00 0. -1.
<mgrwt>
<rscale>  0 0.23531715E+03</rscale>
<asrwt>0</asrwt>
<pdfrwt beam="1">  1        1 0.32653333E-01 0.23937254E+03</pdfrwt>
<pdfrwt beam="2">  1       -1 0.39050823E-01 0.23937254E+03</pdfrwt>
<totfact> 0.87685998E+02</totfact>
</mgrwt>
</event>
<event>
 7    1  0.1020736E-005  0.2697021E+03  0.7546771E-02  0.1155655E+00
          1   -1    0    0  501    0  0.00000000000E+00  0.00000000000E+00  0.43572371019E+03  0.43572371019E+03  0.00000000000E+00 0. -1.
         -1   -1    0    0    0  501 -0.00000000000E+00 -0.00000000000E+00 -0.67124980998E+02  0.67124980998E+02  0.00000000000E+00 0.  1.
         23    2    1    2    0    0 -0.39217279206E+02 -0.87088958184E+01  0.59141407437E+02  0.92357425241E+02  0.58466640649E+02 0.  0.
          5    1    1    2  502    0 -0.18313081177E+02  0.97884773405E+01  0.34304136785E+03  0.34370140135E+03  0.47000000000E+01 0. -1.
         -5    1    1    2    0  502  0.57530360383E+02 -0.10795815221E+01 -0.33584046091E+02  0.66789864605E+02  0.47000000000E+01 0.  1.
        -11    1    3    3    0    0  0.14728989558E+02 -0.65845949431E+01  0.80658738612E+01  0.18037692344E+02  0.00000000000E+00 0. -1.
         11    1    3    3    0    0 -0.53946268764E+02 -0.21243008752E+01  0.51075533575E+02  0.74319732896E+02  0.00000000000E+00 0.  1.
<mgrwt>
<rscale>  0 0.19314475E+03</rscale>
<asrwt>0</asrwt>
<pdfrwt beam="1">  1        1 0.67034415E-01 0.26970214E+03</pdfrwt>
<pdfrwt beam="2">  1       -1 0.10326920E-01 0.26970214E+03</pdfrwt>
<totfact> 0.31287307E+03</totfact>
</mgrwt>
</event>
<event>
 7    1  0.1020736E-005  0.1553276E+03  0.7546771E-02  0.1201560E+00
          1   -1    0    0  501    0  0.00000000000E+00  0.00000000000E+00  0.54650312507E+02  0.54650312507E+02  0.00000000000E+00 0. -1.
         -1   -1    0    0    0  501 -0.00000000000E+00 -0.00000000000E+00 -0.39559216596E+03  0.39559216596E+03  0.00000000000E+00 0.  1.
         23    2    1    2    0    0  0.55066322583E+02 -0.73959879961E+02 -0.10925382240E+03  0.17130521407E+03  0.94375393668E+02 0.  0.
          5    1    1    2  502    0  0.33099249272E+01  0.23530846583E+02  0.92335774501E+01  0.25923064951E+02  0.47000000000E+01 0.  1.
         -5    1    1    2    0  502 -0.58376247510E+02  0.50429033379E+02 -0.24092160849E+03  0.25301419944E+03  0.47000000000E+01 0.  1.
        -11    1    3    3    0    0  0.65671626376E+02 -0.77178281339E+02 -0.53757783094E+02  0.11471333342E+03  0.00000000000E+00 0. -1.
         11    1    3    3    0    0 -0.10605303793E+02  0.32184013775E+01 -0.55496039311E+02  0.56591880647E+02  0.00000000000E+00 0.  1.
<mgrwt>
<rscale>  0 0.14911914E+03</rscale>
<asrwt>0</asrwt>
<pdfrwt beam="1">  1        1 0.84077405E-02 0.15532757E+03</pdfrwt>
<pdfrwt beam="2">  1       -1 0.60860332E-01 0.15532757E+03</pdfrwt>
<totfact> 0.22408980E+03</totfact>
</mgrwt>
</event>
<event>
 7    1  0.1020736E-005  0.1546491E+03  0.7546771E-02  0.1209943E+00
         -1   -1    0    0    0  501 -0.00000000000E+00  0.00000000000E+00  0.37058524664E+02  0.37058524664E+02  0.00000000000E+00 0.  1.
          1   -1    0    0  501    0  0.00000000000E+00 -0.00000000000E+00 -0.49540880941E+03  0.49540880941E+03  0.00000000000E+00 0. -1.
         23    2    1    2    0    0 -0.90585974176E+01  0.66201274087E+02 -0.14462955258E+03  0.18270020353E+03  0.89425891161E+02 0.  0.
          5    1    1    2  502    0 -0.35741278885E+02 -0.51827586995E+01 -0.24413732368E+03  0.24683886003E+03  0.47000000000E+01 0. -1.
         -5    1    1    2    0  502  0.44799876302E+02 -0.61018515387E+02 -0.69583408475E+02  0.10292827052E+03  0.47000000000E+01 0.  1.
        -11    1    3    3    0    0 -0.25481725757E+02 -0.14394391941E+02 -0.34400136080E+02  0.45165099681E+02  0.00000000000E+00 0.  1.
         11    1    3    3    0    0  0.16423128339E+02  0.80595666027E+02 -0.11022941650E+03  0.13753510384E+03  0.00000000000E+00 0. -1.
<mgrwt>
<rscale>  0 0.14254682E+03</rscale>
<asrwt>0</asrwt>
<pdfrwt beam="2">  1        1 0.76216743E-01 0.15464911E+03</pdfrwt>
<pdfrwt beam="1">  1       -1 0.57013113E-02 0.15464911E+03</pdfrwt>
<totfact> 0.63825266E+03</totfact>
</mgrwt>
</event>
<event>
 7    1  0.1020736E-005  0.1321245E+03  0.7546771E-02  0.1235953E+00
          1   -1    0    0  501    0  0.00000000000E+00  0.00000000000E+00  0.18480349685E+03  0.18480349685E+03  0.00000000000E+00 0. -1.
         -1   -1    0    0    0  501 -0.00000000000E+00 -0.00000000000E+00 -0.84644267397E+02  0.84644267397E+02  0.00000000000E+00 0.  1.
         23    2    1    2    0    0 -0.40645149427E+02 -0.13403622198E+02  0.50519273451E+00  0.10395511824E+03  0.94735031156E+02 0.  0.
          5    1    1    2  502    0  0.58976818995E+01  0.27698621388E+02  0.11938958977E+03  0.12279234677E+03  0.47000000000E+01 0.  1.
         -5    1    1    2    0  502  0.34747467528E+02 -0.14294999190E+02 -0.19735553050E+02  0.42700299245E+02  0.47000000000E+01 0.  1.
        -11    1    3    3    0    0 -0.28823873036E+02 -0.82391193624E+01 -0.46436852224E+02  0.55272778011E+02  0.00000000000E+00 0.  1.
         11    1    3    3    0    0 -0.11821276392E+02 -0.51645028354E+01  0.46942044958E+02  0.48682340226E+02  0.00000000000E+00 0. -1.
<mgrwt>
<rscale>  0 0.12443649E+03</rscale>
<asrwt>0</asrwt>
<pdfrwt beam="1">  1        1 0.28431307E-01 0.13212452E+03</pdfrwt>
<pdfrwt beam="2">  1       -1 0.13022195E-01 0.13212452E+03</pdfrwt>
<totfact> 0.62040170E+03</totfact>
</mgrwt>
</event>
<event>
 7    1  0.2203849E-005  0.1551517E+03  0.7546771E-02  0.1204225E+00
          1   -1    0    0  501    0  0.00000000000E+00  0.00000000000E+00  0.98929316981E+03  0.98929316981E+03  0.00000000000E+00 0. -1.
         -1   -1    0    0    0  501 -0.00000000000E+00 -0.00000000000E+00 -0.24879070703E+02  0.24879070703E+02  0.00000000000E+00 0.  1.
         23    2    1    2    0    0  0.33848926482E+02 -0.85448740374E+02  0.21345199128E+03  0.24735012925E+03  0.84694136775E+02 0.  0.
          5    1    1    2  502    0 -0.20939571140E+02  0.60553712900E+02  0.12805963079E+03  0.14327099087E+03  0.47000000000E+01 0.  1.
         -5    1    1    2    0  502 -0.12909355342E+02  0.24895027474E+02  0.62290247704E+03  0.62355112040E+03  0.47000000000E+01 0.  1.
        -11    1    3    3    0    0 -0.41228233245E+01 -0.47248562769E+02  0.29918110121E+02  0.56075999047E+02  0.00000000000E+00 0.  1.
         11    1    3    3    0    0  0.37971749807E+02 -0.38200177604E+02  0.18353388116E+03  0.19127413020E+03  0.00000000000E+00 0. -1.
<mgrwt>
<rscale>  0 0.14698695E+03</rscale>
<asrwt>0</asrwt>
<pdfrwt beam="1">  1        1 0.15219892E+00 0.15515174E+03</pdfrwt>
<pdfrwt beam="2">  1       -1 0.38275501E-02 0.15515174E+03</pdfrwt>
<totfact> 0.42072988E+03</totfact>
</mgrwt>
</event>
<event>
 7    1  0.1020736E-005  0.1332304E+03  0.7546771E-02  0.1235734E+00
          1   -1    0    0  501    0  0.00000000000E+00  0.00000000000E+00  0.24837199466E+04  0.24837199466E+04  0.00000000000E+00 0. -1.
         -1   -1    0    0    0  501 -0.00000000000E+00 -0.00000000000E+00 -0.87697647618E+01  0.87697647618E+01  0.00000000000E+00 0.  1.
         23    2    1    2    0    0  0.44537380222E+02  0.11969751247E+02  0.38323248402E+03  0.39653330051E+03  0.90800156543E+02 0.  0.
          5    1    1    2  502    0 -0.12105593434E+01 -0.63928020405E+02  0.87092961089E+03  0.87328616981E+03  0.47000000000E+01 0.  1.
         -5    1    1    2    0  502 -0.43326820879E+02  0.51958269158E+02  0.12207880869E+04  0.12226702410E+04  0.47000000000E+01 0.  1.
        -11    1    3    3    0    0  0.53588521774E+02 -0.24624432568E+02  0.29060333126E+03  0.29652721373E+03  0.00000000000E+00 0. -1.
         11    1    3    3    0    0 -0.90511415518E+01  0.36594183815E+02  0.92629152755E+02  0.10000608678E+03  0.00000000000E+00 0.  1.
<mgrwt>
<rscale>  0 0.12457557E+03</rscale>
<asrwt>0</asrwt>
<pdfrwt beam="1">  1        1 0.38211020E+00 0.13323043E+03</pdfrwt>
<pdfrwt beam="2">  1       -1 0.13491966E-02 0.13323043E+03</pdfrwt>
<totfact> 0.19937655E+03</totfact>
</mgrwt>
</event>
<event>
 7    1  0.1020736E-005  0.1291830E+03  0.7546771E-02  0.1241121E+00
         -2   -1    0    0    0  501 -0.00000000000E+00  0.00000000000E+00  0.27674610455E+02  0.27674610455E+02  0.00000000000E+00 0.  1.
          2   -1    0    0  501    0  0.00000000000E+00 -0.00000000000E+00 -0.55164819264E+03  0.55164819264E+03  0.00000000000E+00 0. -1.
         23    2    1    2    0    0  0.22589489086E+02  0.23596285521E+02 -0.12612697254E+03  0.16102844534E+03  0.94631270196E+02 0.  0.
          5    1    1    2  502    0 -0.70962784821E+02 -0.11113116978E+01 -0.27929073257E+03  0.28820540443E+03  0.47000000000E+01 0. -1.
         -5    1    1    2    0  502  0.48373295736E+02 -0.22484973823E+02 -0.11855587708E+03  0.13008895333E+03  0.47000000000E+01 0. -1.
        -11    1    3    3    0    0  0.55167558675E+01  0.41290131810E+02 -0.12966076675E+03  0.13618819338E+03  0.00000000000E+00 0. -1.
         11    1    3    3    0    0  0.17072733218E+02 -0.17693846289E+02  0.35337942128E+01  0.24840251963E+02  0.00000000000E+00 0.  1.
<mgrwt>
<rscale>  0 0.12120599E+03</rscale>
<asrwt>0</asrwt>
<pdfrwt beam="2">  1        2 0.84868939E-01 0.12918299E+03</pdfrwt>
<pdfrwt beam="1">  1       -2 0.42576331E-02 0.12918299E+03</pdfrwt>
<totfact> 0.13155833E+04</totfact>
</mgrwt>
</event>
<event>
 7    1  0.1058243E-005  0.1442334E+03  0.7546771E-02  0.1217950E+00
          2   -1    0    0  501    0  0.00000000000E+00  0.00000000000E+00  0.47207055624E+03  0.47207055624E+03  0.00000000000E+00 0.  1.
         -2   -1    0    0    0  501 -0.00000000000E+00 -0.00000000000E+00 -0.37073552960E+02  0.37073552960E+02  0.00000000000E+00 0. -1.
         23    2    1    2    0    0  0.63139287830E+02 -0.34525943856E+02  0.14959887082E+03  0.18937018872E+03  0.91118800231E+02 0.  0.
          5    1    1    2  502    0  0.61708666448E+01 -0.11667419441E+02 -0.70321729793E+01  0.15676406743E+02  0.47000000000E+01 0. -1.
         -5    1    1    2    0  502 -0.69310154475E+02  0.46193363298E+02  0.29243030544E+03  0.30409751374E+03  0.47000000000E+01 0. -1.
        -11    1    3    3    0    0  0.30172849693E+02  0.64365528659E+01  0.54998400417E-01  0.30851792431E+02  0.00000000000E+00 0. -1.
         11    1    3    3    0    0  0.32966438137E+02 -0.40962496722E+02  0.14954387242E+03  0.15851839629E+03  0.00000000000E+00 0.  1.
<mgrwt>
<rscale>  0 0.13662041E+03</rscale>
<asrwt>0</asrwt>
<pdfrwt beam="1">  1        2 0.72626235E-01 0.14423337E+03</pdfrwt>
<pdfrwt beam="2">  1       -2 0.57036239E-02 0.14423337E+03</pdfrwt>
<totfact> 0.10152024E+04</totfact>
</mgrwt>
</event>
<event>
 7    1  0.1020736E-005  0.1385916E+03  0.7546771E-02  0.1226286E+00
          1   -1    0    0  501    0  0.00000000000E+00  0.00000000000E+00  0.50098162422E+03  0.50098162422E+03  0.00000000000E+00 0. -1.
         -1   -1    0    0    0  501 -0.00000000000E+00 -0.00000000000E+00 -0.37771709605E+02  0.37771709605E+02  0.00000000000E+00 0.  1.
         23    2    1    2    0    0  0.16556483613E+01  0.59829464773E+02  0.94875021908E+02  0.14520762810E+03  0.92204552215E+02 0.  0.
          5    1    1    2  502    0  0.35898074886E+02 -0.38668870387E+02  0.51920078019E+02  0.74173700320E+02  0.47000000000E+01 0. -1.
         -5    1    1    2    0  502 -0.37553723248E+02 -0.21160594386E+02  0.31641481468E+03  0.31937200540E+03  0.47000000000E+01 0. -1.
        -11    1    3    3    0    0 -0.24992994703E+02  0.12879754030E+02 -0.78231813865E+01  0.29184585231E+02  0.00000000000E+00 0.  1.
         11    1    3    3    0    0  0.26648643065E+02  0.46949710743E+02  0.10269820329E+03  0.11602304287E+03  0.00000000000E+00 0. -1.
<mgrwt>
<rscale>  0 0.13079132E+03</rscale>
<asrwt>0</asrwt>
<pdfrwt beam="1">  1        1 0.77074091E-01 0.13859159E+03</pdfrwt>
<pdfrwt beam="2">  1       -1 0.58110326E-02 0.13859159E+03</pdfrwt>
<totfact> 0.60763220E+03</totfact>
</mgrwt>
</event>
<event>
 7    1  0.1020736E-005  0.1313542E+03  0.7546771E-02  0.1237398E+00
         -1   -1    0    0    0  501 -0.00000000000E+00  0.00000000000E+00  0.31391727848E+02  0.31391727848E+02  0.00000000000E+00 0.  1.
          1   -1    0    0  501    0  0.00000000000E+00 -0.00000000000E+00 -0.44798958840E+03  0.44798958840E+03  0.00000000000E+00 0. -1.
         23    2    1    2    0    0 -0.29088837778E+02 -0.27991478190E+02 -0.14509728297E+03  0.17777479011E+03  0.94450892740E+02 0.  0.
          5    1    1    2  502    0 -0.29705097666E+02  0.51835681599E+01 -0.21390589529E+03  0.21607194229E+03  0.47000000000E+01 0. -1.
         -5    1    1    2    0  502  0.58793935444E+02  0.22807910031E+02 -0.57594682290E+02  0.85534583842E+02  0.47000000000E+01 0. -1.
        -11    1    3    3    0    0 -0.35161527730E+02  0.18224423655E+02 -0.20190041679E+02  0.44453351200E+02  0.00000000000E+00 0.  1.
         11    1    3    3    0    0  0.60726899524E+01 -0.46215901845E+02 -0.12490724129E+03  0.13332143891E+03  0.00000000000E+00 0. -1.
<mgrwt>
<rscale>  0 0.12352162E+03</rscale>
<asrwt>0</asrwt>
<pdfrwt beam="2">  1        1 0.68921472E-01 0.13135423E+03</pdfrwt>
<pdfrwt beam="1">  1       -1 0.48294968E-02 0.13135423E+03</pdfrwt>
<totfact> 0.92039101E+03</totfact>
</mgrwt>
</event>
<event>
 7    1  0.1020736E-005  0.1559633E+03  0.7546771E-02  0.1201932E+00
         -2   -1    0    0    0  501 -0.00000000000E+00  0.00000000000E+00  0.50742612331E+02  0.50742612331E+02  0.00000000000E+00 0. -1.
          2   -1    0    0  501    0  0.00000000000E+00 -0.00000000000E+00 -0.68002856648E+03  0.68002856648E+03  0.00000000000E+00 0.  1.
         23    2    1    2    0    0  0.93249835919E+02 -0.19238270300E+01 -0.63803157512E+02  0.14417476079E+03  0.89533712822E+02 0.  0.
          5    1    1    2  502    0 -0.11456981706E+03 -0.27983646341E+02 -0.45568103410E+03  0.47071926058E+03  0.47000000000E+01 0. -1.
         -5    1    1    2    0  502  0.21319981145E+02  0.29907473371E+02 -0.10980176254E+03  0.11587715744E+03  0.47000000000E+01 0. -1.
        -11    1    3    3    0    0  0.97103770699E+02  0.23014221836E+02 -0.64686991010E+02  0.11892520127E+03  0.00000000000E+00 0. -1.
         11    1    3    3    0    0 -0.38539347799E+01 -0.24938048866E+02  0.88383349771E+00  0.25249559525E+02  0.00000000000E+00 0.  1.
<mgrwt>
<rscale>  0 0.14881849E+03</rscale>
<asrwt>0</asrwt>
<pdfrwt beam="2">  1        2 0.10461978E+00 0.15596334E+03</pdfrwt>
<pdfrwt beam="1">  1       -2 0.78065556E-02 0.15596334E+03</pdfrwt>
<totfact> 0.41741118E+03</totfact>
</mgrwt>
</event>
<event>
 7    1  0.1020736E-005  0.1487359E+03  0.7546771E-02  0.1211422E+00
         -2   -1    0    0    0  501 -0.00000000000E+00  0.00000000000E+00  0.99879199712E+02  0.99879199712E+02  0.00000000000E+00 0.  1.
          2   -1    0    0  501    0  0.00000000000E+00 -0.00000000000E+00 -0.18717146669E+03  0.18717146669E+03  0.00000000000E+00 0. -1.
         23    2    1    2    0    0 -0.67928405116E+02  0.43388416034E+02 -0.60927147050E+02  0.13599604457E+03  0.91027380629E+02 0.  0.
          5    1    1    2  502    0 -0.24362620783E+02 -0.56266740741E+01 -0.42889732875E+02  0.49867985107E+02  0.47000000000E+01 0.  1.
         -5    1    1    2    0  502  0.92291025899E+02 -0.37761741960E+02  0.16524612950E+02  0.10118663672E+03  0.47000000000E+01 0.  1.
        -11    1    3    3    0    0 -0.59935475044E+02  0.11050328187E+00 -0.68845381275E+02  0.91279570018E+02  0.00000000000E+00 0.  1.
         11    1    3    3    0    0 -0.79929300723E+01  0.43277912753E+02  0.79182342252E+01  0.44716474555E+02  0.00000000000E+00 0. -1.
<mgrwt>
<rscale>  0 0.14142675E+03</rscale>
<asrwt>0</asrwt>
<pdfrwt beam="2">  1        2 0.28795610E-01 0.14873594E+03</pdfrwt>
<pdfrwt beam="1">  1       -2 0.15366031E-01 0.14873594E+03</pdfrwt>
<totfact> 0.57856172E+03</totfact>
</mgrwt>
</event>
<event>
 7    1  0.1020736E-005  0.1674126E+03  0.7546771E-02  0.1191524E+00
          2   -1    0    0  501    0  0.00000000000E+00  0.00000000000E+00  0.72937842212E+03  0.72937842212E+03  0.00000000000E+00 0. -1.
         -2   -1    0    0    0  501 -0.00000000000E+00 -0.00000000000E+00 -0.30798631678E+02  0.30798631678E+02  0.00000000000E+00 0.  1.
         23    2    1    2    0    0 -0.28640170955E+02  0.28459235063E+02  0.27455109270E+03  0.30429625204E+03  0.12485078714E+03 0.  0.
          5    1    1    2  502    0  0.83625009513E+02 -0.47899283721E+02  0.17263916938E+03  0.19777223364E+03  0.47000000000E+01 0. -1.
         -5    1    1    2    0  502 -0.54984838558E+02  0.19440048658E+02  0.25138952837E+03  0.25810856812E+03  0.47000000000E+01 0.  1.
        -11    1    3    3    0    0 -0.74789670579E+02 -0.12786064384E+01  0.18064377822E+03  0.19551804077E+03  0.00000000000E+00 0.  1.
         11    1    3    3    0    0  0.46149499624E+02  0.29737841501E+02  0.93907314485E+02  0.10877821127E+03  0.00000000000E+00 0. -1.
<mgrwt>
<rscale>  0 0.15752105E+03</rscale>
<asrwt>0</asrwt>
<pdfrwt beam="1">  1        2 0.11221205E+00 0.16741257E+03</pdfrwt>
<pdfrwt beam="2">  1       -2 0.47382516E-02 0.16741257E+03</pdfrwt>
<totfact> 0.82439445E+03</totfact>
</mgrwt>
</event>
<event>
 7    1  0.1020736E-005  0.1421802E+03  0.7546771E-02  0.1220283E+00
         -4   -1    0    0    0  501 -0.00000000000E+00  0.00000000000E+00  0.24990458518E+03  0.24990458518E+03  0.00000000000E+00 0.  1.
          4   -1    0    0  501    0  0.00000000000E+00 -0.00000000000E+00 -0.67810597202E+02  0.67810597202E+02  0.00000000000E+00 0. -1.
         23    2    1    2    0    0 -0.38284129069E+02  0.55897781662E+02  0.10475634564E+03  0.15586236893E+03  0.93428847594E+02 0.  0.
          5    1    1    2  502    0  0.66534564111E+02  0.12597281153E+02  0.39279116324E+02  0.78424987683E+02  0.47000000000E+01 0. -1.
         -5    1    1    2    0  502 -0.28250435042E+02 -0.68495062815E+02  0.38058526010E+02  0.83427825766E+02  0.47000000000E+01 0. -1.
        -11    1    3    3    0    0 -0.26910603617E+02  0.39930251054E+02 -0.11413064833E+01  0.48165424495E+02  0.00000000000E+00 0. -1.
         11    1    3    3    0    0 -0.11373525452E+02  0.15967530608E+02  0.10589765213E+03  0.10769694443E+03  0.00000000000E+00 0.  1.
<mgrwt>
<rscale>  0 0.13495505E+03</rscale>
<asrwt>0</asrwt>
<pdfrwt beam="2">  1        4 0.10432400E-01 0.14218025E+03</pdfrwt>
<pdfrwt beam="1">  1       -4 0.38446859E-01 0.14218025E+03</pdfrwt>
<totfact> 0.77552887E+02</totfact>
</mgrwt>
</event>
<event>
 7    1  0.1020736E-005  0.1647648E+03  0.7546771E-02  0.1190269E+00
         -1   -1    0    0    0  501 -0.00000000000E+00  0.00000000000E+00  0.23697674240E+03  0.23697674240E+03  0.00000000000E+00 0.  1.
          1   -1    0    0  501    0  0.00000000000E+00 -0.00000000000E+00 -0.16414884822E+03  0.16414884822E+03  0.00000000000E+00 0. -1.
         23    2    1    2    0    0 -0.92862167857E+02  0.51948150718E+02  0.16091961080E+03  0.21428989647E+03  0.93290117421E+02 0.  0.
          5    1    1    2  502    0  0.76329688293E+02 -0.39956802307E+02  0.96967481997E+01  0.86826748708E+02  0.47000000000E+01 0. -1.
         -5    1    1    2    0  502  0.16532479564E+02 -0.11991348410E+02 -0.97788464821E+02  0.10000894545E+03  0.47000000000E+01 0. -1.
        -11    1    3    3    0    0 -0.13344322248E+02 -0.33276884155E+00 -0.11324281026E+02  0.17504885379E+02  0.00000000000E+00 0. -1.
         11    1    3    3    0    0 -0.79517845609E+02  0.52280919559E+02  0.17224389182E+03  0.19678501109E+03  0.00000000000E+00 0.  1.
<mgrwt>
<rscale>  0 0.15861524E+03</rscale>
<asrwt>0</asrwt>
<pdfrwt beam="2">  1        1 0.25253669E-01 0.16476476E+03</pdfrwt>
<pdfrwt beam="1">  1       -1 0.36457960E-01 0.16476476E+03</pdfrwt>
<totfact> 0.13590227E+03</totfact>
</mgrwt>
</event>
<event>
 7    1  0.1020736E-005  0.1132844E+03  0.7546771E-02  0.1264595E+00
          1   -1    0    0  501    0  0.00000000000E+00  0.00000000000E+00  0.52630352192E+03  0.52630352192E+03  0.00000000000E+00 0. -1.
         -1   -1    0    0    0  501 -0.00000000000E+00 -0.00000000000E+00 -0.21241957188E+02  0.21241957188E+02  0.00000000000E+00 0.  1.
         23    2    1    2    0    0  0.17423161044E+02  0.16291499446E+02  0.16945829787E+03  0.19333803350E+03  0.89969444720E+02 0.  0.
          5    1    1    2  502    0 -0.21228503796E+02  0.39602289129E+02  0.23175885753E+03  0.23612125851E+03  0.47000000000E+01 0. -1.
         -5    1    1    2    0  502  0.38053427520E+01 -0.55893788575E+02  0.10384440932E+03  0.11808618709E+03  0.47000000000E+01 0.  1.
        -11    1    3    3    0    0  0.24554296427E+02 -0.26785548009E+02  0.29739234492E+02  0.46955309852E+02  0.00000000000E+00 0.  1.
         11    1    3    3    0    0 -0.71311353823E+01  0.43077047456E+02  0.13971906338E+03  0.14638272365E+03  0.00000000000E+00 0. -1.
<mgrwt>
<rscale>  0 0.10785473E+03</rscale>
<asrwt>0</asrwt>
<pdfrwt beam="1">  1        1 0.80969763E-01 0.11328443E+03</pdfrwt>
<pdfrwt beam="2">  1       -1 0.32679938E-02 0.11328443E+03</pdfrwt>
<totfact> 0.13091460E+04</totfact>
</mgrwt>
</event>
<event>
 7    1  0.1020736E-005  0.2250240E+03  0.7546771E-02  0.1133329E+00
         -2   -1    0    0    0  501 -0.00000000000E+00  0.00000000000E+00  0.55134579058E+03  0.55134579058E+03  0.00000000000E+00 0.  1.
          2   -1    0    0  501    0  0.00000000000E+00 -0.00000000000E+00 -0.85430530097E+02  0.85430530097E+02  0.00000000000E+00 0. -1.
         23    2    1    2    0    0  0.16103198019E+03  0.95287870588E+02  0.20669186890E+03  0.29350880417E+03  0.91732287270E+02 0.  0.
          5    1    1    2  502    0  0.17506421715E+02 -0.22813721421E+02  0.17070759573E+02  0.33770423728E+02  0.47000000000E+01 0. -1.
         -5    1    1    2    0  502 -0.17853840191E+03 -0.72474149168E+02  0.24215263201E+03  0.30949709279E+03  0.47000000000E+01 0. -1.
        -11    1    3    3    0    0  0.24648221035E+02 -0.17260024235E+02  0.18726380877E+02  0.35441791399E+02  0.00000000000E+00 0. -1.
         11    1    3    3    0    0  0.13638375916E+03  0.11254789482E+03  0.18796548802E+03  0.25806701277E+03  0.00000000000E+00 0.  1.
<mgrwt>
<rscale>  0 0.22074470E+03</rscale>
<asrwt>0</asrwt>
<pdfrwt beam="2">  1        2 0.13143159E-01 0.22502405E+03</pdfrwt>
<pdfrwt beam="1">  1       -2 0.84822427E-01 0.22502405E+03</pdfrwt>
<totfact> 0.57005020E+02</totfact>
</mgrwt>
</event>
<event>
 7    1  0.1020736E-005  0.1274948E+03  0.7546771E-02  0.1243915E+00
         -1   -1    0    0    0  501 -0.00000000000E+00  0.00000000000E+00  0.68426760265E+03  0.68426760265E+03  0.00000000000E+00 0. -1.
          1   -1    0    0  501    0  0.00000000000E+00 -0.00000000000E+00 -0.18651528862E+02  0.18651528862E+02  0.00000000000E+00 0.  1.
         23    2    1    2    0    0 -0.84683793724E+01 -0.23559287424E+02  0.29575671715E+03  0.31170198079E+03  0.95180542195E+02 0.  0.
          5    1    1    2  502    0  0.63368363943E+02 -0.68091400541E+01  0.16628474312E+03  0.17814213351E+03  0.47000000000E+01 0.  1.
         -5    1    1    2    0  502 -0.54899984571E+02  0.30368427478E+02  0.20357461351E+03  0.21307501721E+03  0.47000000000E+01 0.  1.
        -11    1    3    3    0    0 -0.37153997671E+01 -0.51863260142E+02  0.26326111446E+03  0.26834682099E+03  0.00000000000E+00 0. -1.
         11    1    3    3    0    0 -0.47529796054E+01  0.28303972718E+02  0.32495602691E+02  0.43355159797E+02  0.00000000000E+00 0.  1.
<mgrwt>
<rscale>  0 0.11950548E+03</rscale>
<asrwt>0</asrwt>
<pdfrwt beam="2">  1        1 0.28694665E-02 0.12749477E+03</pdfrwt>
<pdfrwt beam="1">  1       -1 0.10527192E+00 0.12749477E+03</pdfrwt>
<totfact> 0.31230577E+03</totfact>
</mgrwt>
</event>
<event>
 7    1  0.1020736E-005  0.1479963E+03  0.7546771E-02  0.1213236E+00
         -1   -1    0    0    0  501 -0.00000000000E+00  0.00000000000E+00  0.49023430111E+03  0.49023430111E+03  0.00000000000E+00 0.  1.
          1   -1    0    0  501    0  0.00000000000E+00 -0.00000000000E+00 -0.36772871885E+02  0.36772871885E+02  0.00000000000E+00 0. -1.
         23    2    1    2    0    0  0.78565682028E+02  0.10293130574E+02  0.23238416053E+03  0.26096571709E+03  0.88443159707E+02 0.  0.
          5    1    1    2  502    0 -0.84655990023E+02  0.42282810708E+02  0.13654388665E+03  0.16619505321E+03  0.47000000000E+01 0.  1.
         -5    1    1    2    0  502  0.60903079949E+01 -0.52575941282E+02  0.84533382035E+02  0.99846402696E+02  0.47000000000E+01 0.  1.
        -11    1    3    3    0    0  0.13150151690E+02  0.13807103944E+02 -0.46881467912E+00  0.19073080401E+02  0.00000000000E+00 0. -1.
         11    1    3    3    0    0  0.65415530338E+02 -0.35139733698E+01  0.23285297521E+03  0.24189263669E+03  0.00000000000E+00 0.  1.
<mgrwt>
<rscale>  0 0.14006938E+03</rscale>
<asrwt>0</asrwt>
<pdfrwt beam="2">  1        1 0.56573653E-02 0.14799628E+03</pdfrwt>
<pdfrwt beam="1">  1       -1 0.75420657E-01 0.14799628E+03</pdfrwt>
<totfact> 0.25094965E+03</totfact>
</mgrwt>
</event>
<event>
 6    1  0.1057180E-005  0.1438462E+03  0.7546771E-02  0.1260646E+00
         -1   -1    0    0    0  501 -0.00000000000E+00  0.00000000000E+00  0.13437904749E+02  0.13437904749E+02  0.00000000000E+00 0.  1.
          1   -1    0    0  501    0  0.00000000000E+00 -0.00000000000E+00 -0.10725295977E+04  0.10725295977E+04  0.00000000000E+00 0. -1.
          5    1    1    2  502    0  0.16998554943E+02 -0.14514839548E+02 -0.96948746953E+03  0.96975650295E+03  0.47000000000E+01 0. -1.
         -5    1    1    2    0  502  0.17890424156E+02 -0.16156986320E+02 -0.24875303820E+02  0.34956919537E+02  0.47000000000E+01 0.  1.
        -11    1    1    2    0    0 -0.14683539570E+02  0.35442921616E+01 -0.23335942896E+02  0.27798103749E+02  0.00000000000E+00 0.  1.
         11    1    1    2    0    0 -0.20205439529E+02  0.27127533706E+02 -0.41392976674E+02  0.53455976181E+02  0.00000000000E+00 0. -1.
<mgrwt>
<rscale>  0 0.10995876E+03</rscale>
<asrwt>0</asrwt>
<pdfrwt beam="2">  1        1 0.16500459E+00 0.14384622E+03</pdfrwt>
<pdfrwt beam="1">  1       -1 0.20673695E-02 0.14384622E+03</pdfrwt>
<totfact> 0.89569343E+03</totfact>
</mgrwt>
</event>
<event>
 7    1  0.1020736E-005  0.1271886E+03  0.7546771E-02  0.1244452E+00
         -1   -1    0    0    0  501 -0.00000000000E+00  0.00000000000E+00  0.47195376978E+02  0.47195376978E+02  0.00000000000E+00 0.  1.
          1   -1    0    0  501    0  0.00000000000E+00 -0.00000000000E+00 -0.28491487513E+03  0.28491487513E+03  0.00000000000E+00 0. -1.
         23    2    1    2    0    0  0.13528574733E+02 -0.19186477356E+02 -0.65140639120E+02  0.11772648062E+03  0.95210703848E+02 0.  0.
          5    1    1    2  502    0 -0.50008758595E+02  0.54198678591E+02 -0.12250757057E+03  0.14306840163E+03  0.47000000000E+01 0. -1.
         -5    1    1    2    0  502  0.36480183863E+02 -0.35012201234E+02 -0.50071288464E+02  0.71315369861E+02  0.47000000000E+01 0. -1.
        -11    1    3    3    0    0  0.31308826019E+02 -0.50218218135E+02 -0.54401613157E+02  0.80384373689E+02  0.00000000000E+00 0. -1.
         11    1    3    3    0    0 -0.17780251287E+02  0.31031740779E+02 -0.10739025963E+02  0.37342106933E+02  0.00000000000E+00 0.  1.
<mgrwt>
<rscale>  0 0.11918228E+03</rscale>
<asrwt>0</asrwt>
<pdfrwt beam="2">  1        1 0.43833058E-01 0.12718860E+03</pdfrwt>
<pdfrwt beam="1">  1       -1 0.72608272E-02 0.12718860E+03</pdfrwt>
<totfact> 0.88147660E+03</totfact>
</mgrwt>
</event>
<event>
 7    1  0.1020736E-005  0.1696436E+03  0.7546771E-02  0.1208479E+00
         -2   -1    0    0    0  501 -0.00000000000E+00  0.00000000000E+00  0.59354854617E+02  0.59354854617E+02  0.00000000000E+00 0.  1.
          2   -1    0    0  501    0  0.00000000000E+00 -0.00000000000E+00 -0.58604197793E+03  0.58604197793E+03  0.00000000000E+00 0. -1.
         23    2    1    2    0    0  0.37114850364E+01  0.13235074214E+01  0.49005163510E+01  0.87396491436E+02  0.87169976837E+02 0.  0.
          5    1    1    2  502    0  0.81584305261E+02 -0.13873746653E+02 -0.24095445282E+03  0.25481290793E+03  0.47000000000E+01 0. -1.
         -5    1    1    2    0  502 -0.85295790297E+02  0.12550239232E+02 -0.29063318684E+03  0.30318743318E+03  0.47000000000E+01 0.  1.
        -11    1    3    3    0    0 -0.29465746499E+02  0.29797012514E+02  0.10812593794E+02  0.43278220342E+02  0.00000000000E+00 0.  1.
         11    1    3    3    0    0  0.33177231535E+02 -0.28473505092E+02 -0.59120774434E+01  0.44118271093E+02  0.00000000000E+00 0. -1.
<mgrwt>
<rscale>  0 0.14366657E+03</rscale>
<asrwt>0</asrwt>
<pdfrwt beam="2">  1        2 0.90160307E-01 0.16964363E+03</pdfrwt>
<pdfrwt beam="1">  1       -2 0.91315158E-02 0.16964363E+03</pdfrwt>
<totfact> 0.38992183E+03</totfact>
</mgrwt>
</event>
<event>
 7    1  0.1020736E-005  0.1344646E+03  0.7546771E-02  0.1235255E+00
          1   -1    0    0  501    0  0.00000000000E+00  0.00000000000E+00  0.45361533280E+03  0.45361533280E+03  0.00000000000E+00 0. -1.
         -1   -1    0    0    0  501 -0.00000000000E+00 -0.00000000000E+00 -0.46617024738E+02  0.46617024738E+02  0.00000000000E+00 0.  1.
         23    2    1    2    0    0  0.28499242513E+02 -0.40532687863E+02  0.37173943313E+02  0.10672152266E+03  0.86904981026E+02 0.  0.
          5    1    1    2  502    0 -0.46572868251E+02  0.55848788805E+02  0.10628478242E+03  0.12886684694E+03  0.47000000000E+01 0.  1.
         -5    1    1    2    0  502  0.18073625738E+02 -0.15316100941E+02  0.26353958233E+03  0.26464398794E+03  0.47000000000E+01 0.  1.
        -11    1    3    3    0    0  0.46763228400E+02  0.41137358823E+01  0.34780713792E+02  0.58424484638E+02  0.00000000000E+00 0. -1.
         11    1    3    3    0    0 -0.18263985887E+02 -0.44646423745E+02  0.23932295209E+01  0.48297038018E+02  0.00000000000E+00 0.  1.
<mgrwt>
<rscale>  0 0.12488118E+03</rscale>
<asrwt>0</asrwt>
<pdfrwt beam="1">  1        1 0.69786971E-01 0.13446455E+03</pdfrwt>
<pdfrwt beam="2">  1       -1 0.71718503E-02 0.13446455E+03</pdfrwt>
<totfact> 0.50367698E+03</totfact>
</mgrwt>
</event>
<event>
 7    1  0.1020736E-005  0.1555287E+03  0.7546771E-02  0.1202179E+00
         -2   -1    0    0    0  501 -0.00000000000E+00  0.00000000000E+00  0.14027113603E+03  0.14027113603E+03  0.00000000000E+00 0.  1.
          2   -1    0    0  501    0  0.00000000000E+00 -0.00000000000E+00 -0.14648405395E+03  0.14648405395E+03  0.00000000000E+00 0. -1.
         23    2    1    2    0    0  0.88967258640E+02  0.25445661445E+02  0.11645752745E+02  0.13020451035E+03  0.90856679231E+02 0.  0.
          5    1    1    2  502    0 -0.15972264008E+01  0.31640490018E+02 -0.38477988417E+02  0.50063133475E+02  0.47000000000E+01 0.  1.
         -5    1    1    2    0  502 -0.87370032240E+02 -0.57086151462E+02  0.20619317756E+02  0.10648754616E+03  0.47000000000E+01 0.  1.
        -11    1    3    3    0    0 -0.10482880619E+02 -0.17508421570E+02  0.76733055906E+01  0.21801725405E+02  0.00000000000E+00 0. -1.
         11    1    3    3    0    0  0.99450139259E+02  0.42954083015E+02  0.39724471543E+01  0.10840278494E+03  0.00000000000E+00 0.  1.
<mgrwt>
<rscale>  0 0.14862040E+03</rscale>
<asrwt>0</asrwt>
<pdfrwt beam="2">  1        2 0.22536008E-01 0.15552872E+03</pdfrwt>
<pdfrwt beam="1">  1       -2 0.21580175E-01 0.15552872E+03</pdfrwt>
<totfact> 0.43034414E+03</totfact>
</mgrwt>
</event>
<event>
 7    1  0.1020736E-005  0.1609647E+03  0.7546771E-02  0.1213194E+00
          1   -1    0    0  501    0  0.00000000000E+00  0.00000000000E+00  0.91166598909E+03  0.91166598909E+03  0.00000000000E+00 0. -1.
         -1   -1    0    0    0  501 -0.00000000000E+00 -0.00000000000E+00 -0.66848106316E+02  0.66848106316E+02  0.00000000000E+00 0.  1.
         23    2    1    2    0    0  0.18453729649E+02 -0.13944508811E+02 -0.23567902721E+02  0.95336027117E+02  0.89434459599E+02 0.  0.
          5    1    1    2  502    0  0.15009607823E+02  0.20726657144E+02  0.83429497066E+03  0.83470058747E+03  0.47000000000E+01 0. -1.
         -5    1    1    2    0  502 -0.33463337472E+02 -0.67821483324E+01  0.34090814828E+02  0.48477480817E+02  0.47000000000E+01 0.  1.
        -11    1    3    3    0    0  0.69383847660E+00  0.23211687375E+02  0.23333729366E+02  0.32920005601E+02  0.00000000000E+00 0. -1.
         11    1    3    3    0    0  0.17759891172E+02 -0.37156196186E+02 -0.46901632087E+02  0.62416021516E+02  0.00000000000E+00 0.  1.
<mgrwt>
<rscale>  0 0.14010025E+03</rscale>
<asrwt>0</asrwt>
<pdfrwt beam="1">  1        1 0.14025630E+00 0.16096468E+03</pdfrwt>
<pdfrwt beam="2">  1       -1 0.10284325E-01 0.16096468E+03</pdfrwt>
<totfact> 0.10938596E+03</totfact>
</mgrwt>
</event>
<event>
 7    1  0.1020736E-005  0.1413285E+03  0.7546771E-02  0.1222751E+00
          1   -1    0    0  501    0  0.00000000000E+00  0.00000000000E+00  0.89043589232E+03  0.89043589232E+03  0.00000000000E+00 0. -1.
         -1   -1    0    0    0  501 -0.00000000000E+00 -0.00000000000E+00 -0.23173303620E+02  0.23173303620E+02  0.00000000000E+00 0.  1.
         23    2    1    2    0    0 -0.53707905843E+02 -0.38239430786E+02  0.17859978601E+03  0.21059412723E+03  0.90028937816E+02 0.  0.
          5    1    1    2  502    0 -0.18321771343E+01 -0.32915539840E+02  0.37817768807E+03  0.37964094009E+03  0.47000000000E+01 0. -1.
         -5    1    1    2    0  502  0.55540082978E+02  0.71154970626E+02  0.31048511461E+03  0.32337412861E+03  0.47000000000E+01 0. -1.
        -11    1    3    3    0    0 -0.41428742252E+02 -0.66096470443E+02  0.10386132765E+03  0.12989326183E+03  0.00000000000E+00 0.  1.
         11    1    3    3    0    0 -0.12279163591E+02  0.27857039657E+02  0.74738458367E+02  0.80700865398E+02  0.00000000000E+00 0. -1.
<mgrwt>
<rscale>  0 0.13322235E+03</rscale>
<asrwt>0</asrwt>
<pdfrwt beam="1">  1        1 0.13699011E+00 0.14132845E+03</pdfrwt>
<pdfrwt beam="2">  1       -1 0.35651243E-02 0.14132845E+03</pdfrwt>
<totfact> 0.55260688E+03</totfact>
</mgrwt>
</event>
<event>
 7    1  0.1020736E-005  0.1661955E+03  0.7546771E-02  0.1188870E+00
          2   -1    0    0  501    0  0.00000000000E+00  0.00000000000E+00  0.37161672935E+03  0.37161672935E+03  0.00000000000E+00 0. -1.
         -2   -1    0    0    0  501 -0.00000000000E+00 -0.00000000000E+00 -0.68706782433E+02  0.68706782433E+02  0.00000000000E+00 0.  1.
         23    2    1    2    0    0 -0.63329081812E+02 -0.89376731520E+02  0.82963512469E+02  0.16464726727E+03  0.90702841628E+02 0.  0.
          5    1    1    2  502    0  0.67719510816E+02  0.27222691174E+01  0.14805862250E+03  0.16290116203E+03  0.47000000000E+01 0.  1.
         -5    1    1    2    0  502 -0.43904290042E+01  0.86654462403E+02  0.71887811945E+02  0.11277508248E+03  0.47000000000E+01 0.  1.
        -11    1    3    3    0    0 -0.63093349166E+02 -0.11248294602E+02  0.37194608426E+02  0.74099485399E+02  0.00000000000E+00 0. -1.
         11    1    3    3    0    0 -0.23573264577E+00 -0.78128436919E+02  0.45768904044E+02  0.90547781875E+02  0.00000000000E+00 0.  1.
<mgrwt>
<rscale>  0 0.15984633E+03</rscale>
<asrwt>0</asrwt>
<pdfrwt beam="1">  1        2 0.57171804E-01 0.16619554E+03</pdfrwt>
<pdfrwt beam="2">  1       -2 0.10570274E-01 0.16619554E+03</pdfrwt>
<totfact> 0.51022429E+03</totfact>
</mgrwt>
</event>
<event>
 7    1  0.1020736E-005  0.1410682E+03  0.7546771E-02  0.1221874E+00
          2   -1    0    0  501    0  0.00000000000E+00  0.00000000000E+00  0.25728728052E+03  0.25728728052E+03  0.00000000000E+00 0.  1.
         -2   -1    0    0    0  501 -0.00000000000E+00 -0.00000000000E+00 -0.72040514358E+02  0.72040514358E+02  0.00000000000E+00 0. -1.
         23    2    1    2    0    0  0.65327487583E+02  0.27489159540E+01  0.27190316425E+02  0.11747386177E+03  0.93731305975E+02 0.  0.
          5    1    1    2  502    0  0.60760724565E+01 -0.65145849239E+01  0.13671612282E+03  0.13708663944E+03  0.47000000000E+01 0.  1.
         -5    1    1    2    0  502 -0.71403560040E+02  0.37656689699E+01  0.21340326914E+02  0.74767293665E+02  0.47000000000E+01 0.  1.
        -11    1    3    3    0    0  0.28604720088E+02  0.78215358784E+01 -0.34505106445E+02  0.45497349434E+02  0.00000000000E+00 0. -1.
         11    1    3    3    0    0  0.36722767495E+02 -0.50726199245E+01  0.61695422869E+02  0.71976512339E+02  0.00000000000E+00 0.  1.
<mgrwt>
<rscale>  0 0.13383452E+03</rscale>
<asrwt>0</asrwt>
<pdfrwt beam="1">  1        2 0.39582658E-01 0.14106824E+03</pdfrwt>
<pdfrwt beam="2">  1       -2 0.11083156E-01 0.14106824E+03</pdfrwt>
<totfact> 0.69346794E+03</totfact>
</mgrwt>
</event>
<event>
 7    1  0.1020736E-005  0.1258263E+03  0.7546771E-02  0.1244925E+00
          1   -1    0    0  501    0  0.00000000000E+00  0.00000000000E+00  0.98415215598E+03  0.98415215598E+03  0.00000000000E+00 0. -1.
         -1   -1    0    0    0  501 -0.00000000000E+00 -0.00000000000E+00 -0.29921656557E+02  0.29921656557E+02  0.00000000000E+00 0.  1.
         23    2    1    2    0    0 -0.20451003119E+01 -0.14184006122E+02  0.73409133499E+02  0.12431061951E+03  0.99291796120E+02 0.  0.
          5    1    1    2  502    0 -0.53869291012E+02 -0.70630505384E+01  0.23895726220E+03  0.24510089832E+03  0.47000000000E+01 0. -1.
         -5    1    1    2    0  502  0.55914391324E+02  0.21247056660E+02  0.64186410372E+03  0.64466229471E+03  0.47000000000E+01 0. -1.
        -11    1    3    3    0    0 -0.15724532748E+02  0.14660951254E+02  0.86997652087E+02  0.89614708003E+02  0.00000000000E+00 0. -1.
         11    1    3    3    0    0  0.13679432436E+02 -0.28844957376E+02 -0.13588518588E+02  0.34695911506E+02  0.00000000000E+00 0.  1.
<mgrwt>
<rscale>  0 0.11889844E+03</rscale>
<asrwt>0</asrwt>
<pdfrwt beam="1">  1        1 0.15140800E+00 0.12582631E+03</pdfrwt>
<pdfrwt beam="2">  1       -1 0.46033325E-02 0.12582631E+03</pdfrwt>
<totfact> 0.32135025E+03</totfact>
</mgrwt>
</event>
<event>
 7    1  0.1020736E-005  0.1575573E+03  0.7546771E-02  0.1198052E+00
          2   -1    0    0  501    0  0.00000000000E+00  0.00000000000E+00  0.67710691353E+03  0.67710691353E+03  0.00000000000E+00 0. -1.
         -2   -1    0    0    0  501 -0.00000000000E+00 -0.00000000000E+00 -0.45711893356E+02  0.45711893356E+02  0.00000000000E+00 0.  1.
         23    2    1    2    0    0  0.95549875237E+02 -0.34579147707E+02  0.10163999304E+03  0.17013020166E+03  0.91039009314E+02 0.  0.
          5    1    1    2  502    0 -0.11636785032E+02  0.12009934352E+02  0.37295233744E+03  0.37335665160E+03  0.47000000000E+01 0. -1.
         -5    1    1    2    0  502 -0.83913090205E+02  0.22569213355E+02  0.15680268969E+03  0.17933195363E+03  0.47000000000E+01 0.  1.
        -11    1    3    3    0    0  0.27658764006E+02  0.22454500572E+02  0.65135154922E+02  0.74241499372E+02  0.00000000000E+00 0. -1.
         11    1    3    3    0    0  0.67891111231E+02 -0.57033648279E+02  0.36504838123E+02  0.95888702288E+02  0.00000000000E+00 0.  1.
<mgrwt>
<rscale>  0 0.15198744E+03</rscale>
<asrwt>0</asrwt>
<pdfrwt beam="1">  1        2 0.10417029E+00 0.15755731E+03</pdfrwt>
<pdfrwt beam="2">  1       -2 0.70325994E-02 0.15755731E+03</pdfrwt>
<totfact> 0.49302348E+03</totfact>
</mgrwt>
</event>
<event>
 7    1  0.1020736E-005  0.1349093E+03  0.7546771E-02  0.1233058E+00
         -1   -1    0    0    0  501 -0.00000000000E+00  0.00000000000E+00  0.24753562380E+02  0.24753562380E+02  0.00000000000E+00 0.  1.
          1   -1    0    0  501    0  0.00000000000E+00 -0.00000000000E+00 -0.94248207547E+03  0.94248207547E+03  0.00000000000E+00 0. -1.
         23    2    1    2    0    0  0.30179035912E+02 -0.40803662381E+02 -0.12160882640E+03  0.15976609032E+03  0.90337057100E+02 0.  0.
          5    1    1    2  502    0  0.22543657699E+02  0.44324055148E+02 -0.13039297238E+03  0.13963257361E+03  0.47000000000E+01 0. -1.
         -5    1    1    2    0  502 -0.52722693610E+02 -0.35203927664E+01 -0.66572671432E+03  0.66783697393E+03  0.47000000000E+01 0. -1.
        -11    1    3    3    0    0 -0.84710868108E+01 -0.51942106640E+02 -0.32126717169E+02  0.61659287298E+02  0.00000000000E+00 0.  1.
         11    1    3    3    0    0  0.38650122722E+02  0.11138444259E+02 -0.89482109230E+02  0.98106803022E+02  0.00000000000E+00 0. -1.
<mgrwt>
<rscale>  0 0.12629589E+03</rscale>
<asrwt>0</asrwt>
<pdfrwt beam="2">  1        1 0.14499723E+00 0.13490928E+03</pdfrwt>
<pdfrwt beam="1">  1       -1 0.38082408E-02 0.13490928E+03</pdfrwt>
<totfact> 0.45702154E+03</totfact>
</mgrwt>
</event>
<event>
 7    1  0.1020736E-005  0.1423076E+03  0.7546771E-02  0.1221575E+00
          2   -1    0    0  501    0  0.00000000000E+00  0.00000000000E+00  0.51391399255E+03  0.51391399255E+03  0.00000000000E+00 0.  1.
         -2   -1    0    0    0  501 -0.00000000000E+00 -0.00000000000E+00 -0.50907726385E+02  0.50907726385E+02  0.00000000000E+00 0. -1.
         23    2    1    2    0    0 -0.22414047159E+02  0.64210686968E+02  0.40707424482E+02  0.11918985877E+03  0.89015314383E+02 0.  0.
          5    1    1    2  502    0  0.65214762016E+02 -0.49238745594E+02  0.35522392353E+03  0.36453195347E+03  0.47000000000E+01 0.  1.
         -5    1    1    2    0  502 -0.42800714857E+02 -0.14971941374E+02  0.67074918162E+02  0.81099906703E+02  0.47000000000E+01 0.  1.
        -11    1    3    3    0    0 -0.14006818457E+02  0.41107032136E+02 -0.24246922979E+02  0.49738238090E+02  0.00000000000E+00 0. -1.
         11    1    3    3    0    0 -0.84072287022E+01  0.23103654832E+02  0.64954347461E+02  0.69451620681E+02  0.00000000000E+00 0.  1.
<mgrwt>
<rscale>  0 0.13404409E+03</rscale>
<asrwt>0</asrwt>
<pdfrwt beam="1">  1        2 0.79063688E-01 0.14230757E+03</pdfrwt>
<pdfrwt beam="2">  1       -2 0.78319583E-02 0.14230757E+03</pdfrwt>
<totfact> 0.56913437E+03</totfact>
</mgrwt>
</event>
<event>
 7    1  0.1020736E-005  0.2245291E+03  0.7546771E-02  0.1133807E+00
          1   -1    0    0  501    0  0.00000000000E+00  0.00000000000E+00  0.95821176820E+02  0.95821176820E+02  0.00000000000E+00 0. -1.
         -1   -1    0    0    0  501 -0.00000000000E+00 -0.00000000000E+00 -0.48675655734E+03  0.48675655734E+03  0.00000000000E+00 0.  1.
         23    2    1    2    0    0 -0.11635750383E+03 -0.14576751625E+03 -0.18256082813E+03  0.27625555024E+03  0.90561777689E+02 0.  0.
          5    1    1    2  502    0  0.12272382314E+03  0.14722269538E+03 -0.22023178655E+03  0.29199278862E+03  0.47000000000E+01 0. -1.
         -5    1    1    2    0  502 -0.63663193067E+01 -0.14551791260E+01  0.11857234160E+02  0.14329395303E+02  0.47000000000E+01 0. -1.
        -11    1    3    3    0    0 -0.51549815924E+02 -0.12031471883E+03 -0.15092619119E+03  0.19977920381E+03  0.00000000000E+00 0.  1.
         11    1    3    3    0    0 -0.64807687905E+02 -0.25452797418E+02 -0.31634636943E+02  0.76476346425E+02  0.00000000000E+00 0. -1.
<mgrwt>
<rscale>  0 0.22010189E+03</rscale>
<asrwt>0</asrwt>
<pdfrwt beam="1">  1        1 0.14741719E-01 0.22452912E+03</pdfrwt>
<pdfrwt beam="2">  1       -1 0.74885625E-01 0.22452912E+03</pdfrwt>
<totfact> 0.71260202E+02</totfact>
</mgrwt>
</event>
<event>
 7    1  0.1020736E-005  0.1304531E+03  0.7546771E-02  0.1231810E+00
         -1   -1    0    0    0  501 -0.00000000000E+00  0.00000000000E+00  0.11890916333E+03  0.11890916333E+03  0.00000000000E+00 0.  1.
          1   -1    0    0  501    0  0.00000000000E+00 -0.00000000000E+00 -0.30785656223E+03  0.30785656223E+03  0.00000000000E+00 0. -1.
         23    2    1    2    0    0 -0.26038981488E+02  0.49675747540E+02  0.69980636175E+02  0.13683167844E+03  0.10334365164E+03 0.  0.
          5    1    1    2  502    0  0.57554254427E+02 -0.69070907672E+02 -0.15170961999E+03  0.17641196469E+03  0.47000000000E+01 0. -1.
         -5    1    1    2    0  502 -0.31515272938E+02  0.19395160132E+02 -0.10721841509E+03  0.11352208243E+03  0.47000000000E+01 0.  1.
        -11    1    3    3    0    0  0.14420000356E+02  0.36794627889E+02  0.83410052354E+02  0.92298525911E+02  0.00000000000E+00 0.  1.
         11    1    3    3    0    0 -0.40458981844E+02  0.12881119651E+02 -0.13429416179E+02  0.44533152530E+02  0.00000000000E+00 0. -1.
<mgrwt>
<rscale>  0 0.12710906E+03</rscale>
<asrwt>0</asrwt>
<pdfrwt beam="2">  1        1 0.47362547E-01 0.13045315E+03</pdfrwt>
<pdfrwt beam="1">  1       -1 0.18293718E-01 0.13045315E+03</pdfrwt>
<totfact> 0.19337947E+03</totfact>
</mgrwt>
</event>
<event>
 7    1  0.1020736E-005  0.1618097E+03  0.7546771E-02  0.1193344E+00
          1   -1    0    0  501    0  0.00000000000E+00  0.00000000000E+00  0.55264421941E+03  0.55264421941E+03  0.00000000000E+00 0. -1.
         -1   -1    0    0    0  501 -0.00000000000E+00 -0.00000000000E+00 -0.87881946700E+02  0.87881946700E+02  0.00000000000E+00 0.  1.
         23    2    1    2    0    0 -0.70222370903E+02 -0.75007740014E+02 -0.89821104435E+01  0.13991042807E+03  0.94535216381E+02 0.  0.
          5    1    1    2  502    0  0.10156612468E+03  0.77323810007E+02  0.34153662502E+03  0.36464229802E+03  0.47000000000E+01 0.  1.
         -5    1    1    2    0  502 -0.31343753776E+02 -0.23160699929E+01  0.13220775814E+03  0.13597344003E+03  0.47000000000E+01 0.  1.
        -11    1    3    3    0    0 -0.86276456313E+02 -0.52786754291E+02  0.16502091221E+02  0.10248115611E+03  0.00000000000E+00 0. -1.
         11    1    3    3    0    0  0.16054085410E+02 -0.22220985723E+02 -0.25484201664E+02  0.37429271958E+02  0.00000000000E+00 0.  1.
<mgrwt>
<rscale>  0 0.15595228E+03</rscale>
<asrwt>0</asrwt>
<pdfrwt beam="1">  1        1 0.85022186E-01 0.16180969E+03</pdfrwt>
<pdfrwt beam="2">  1       -1 0.13520300E-01 0.16180969E+03</pdfrwt>
<totfact> 0.14846602E+03</totfact>
</mgrwt>
</event>
<event>
 7    1  0.1020736E-005  0.2338055E+03  0.7546771E-02  0.1127147E+00
         -1   -1    0    0    0  501 -0.00000000000E+00  0.00000000000E+00  0.61896539095E+02  0.61896539095E+02  0.00000000000E+00 0.  1.
          1   -1    0    0  501    0  0.00000000000E+00 -0.00000000000E+00 -0.83672817515E+03  0.83672817515E+03  0.00000000000E+00 0. -1.
         23    2    1    2    0    0  0.98389660382E+02 -0.17134815508E+03 -0.30545658072E+03  0.37424129964E+03  0.87818632018E+02 0.  0.
          5    1    1    2  502    0 -0.99174191930E+02  0.77403331335E+02 -0.17667705026E+03  0.21694161919E+03  0.47000000000E+01 0. -1.
         -5    1    1    2    0  502  0.78453154719E+00  0.93944823742E+02 -0.29269800507E+03  0.30744179542E+03  0.47000000000E+01 0. -1.
        -11    1    3    3    0    0  0.22447458954E+02 -0.89337315916E+02 -0.77589490376E+02  0.12043742543E+03  0.00000000000E+00 0.  1.
         11    1    3    3    0    0  0.75942201428E+02 -0.82010839162E+02 -0.22786709034E+03  0.25380387420E+03  0.00000000000E+00 0. -1.
<mgrwt>
<rscale>  0 0.22928047E+03</rscale>
<asrwt>0</asrwt>
<pdfrwt beam="2">  1        1 0.12872741E+00 0.23380552E+03</pdfrwt>
<pdfrwt beam="1">  1       -1 0.95225445E-02 0.23380552E+03</pdfrwt>
<totfact> 0.14124373E+03</totfact>
</mgrwt>
</event>
<event>
 7    1  0.1020736E-005  0.1522932E+03  0.7546771E-02  0.1206619E+00
         -2   -1    0    0    0  501 -0.00000000000E+00  0.00000000000E+00  0.30428431718E+02  0.30428431718E+02  0.00000000000E+00 0.  1.
          2   -1    0    0  501    0  0.00000000000E+00 -0.00000000000E+00 -0.63442478213E+03  0.63442478213E+03  0.00000000000E+00 0. -1.
         23    2    1    2    0    0 -0.72279645344E+02 -0.48420103538E+02 -0.28037864903E+03  0.30719188316E+03  0.90475481173E+02 0.  0.
          5    1    1    2  502    0  0.93220841084E+02  0.36089472960E+02 -0.13836112568E+03  0.17075850307E+03  0.47000000000E+01 0.  1.
         -5    1    1    2    0  502 -0.20941195740E+02  0.12330630578E+02 -0.18525657570E+03  0.18690282761E+03  0.47000000000E+01 0.  1.
        -11    1    3    3    0    0 -0.29340770768E+02 -0.57670760837E+02 -0.84388779707E+02  0.10634031985E+03  0.00000000000E+00 0.  1.
         11    1    3    3    0    0 -0.42938874576E+02  0.92506572994E+01 -0.19598986932E+03  0.20085156332E+03  0.00000000000E+00 0. -1.
<mgrwt>
<rscale>  0 0.14510637E+03</rscale>
<asrwt>0</asrwt>
<pdfrwt beam="2">  1        2 0.97603809E-01 0.15229317E+03</pdfrwt>
<pdfrwt beam="1">  1       -2 0.46812973E-02 0.15229317E+03</pdfrwt>
<totfact> 0.98506901E+03</totfact>
</mgrwt>
</event>
<event>
 7    1  0.1020736E-005  0.1437324E+03  0.7546771E-02  0.1219136E+00
          2   -1    0    0  501    0  0.00000000000E+00  0.00000000000E+00  0.65435301220E+03  0.65435301220E+03  0.00000000000E+00 0. -1.
         -2   -1    0    0    0  501 -0.00000000000E+00 -0.00000000000E+00 -0.25557590186E+02  0.25557590186E+02  0.00000000000E+00 0.  1.
         23    2    1    2    0    0  0.37033483818E+02 -0.60527251410E+02  0.25843057321E+03  0.28263346040E+03  0.89779088211E+02 0.  0.
          5    1    1    2  502    0 -0.25177102154E+02 -0.14150497661E+02  0.26973573427E+03  0.27131822534E+03  0.47000000000E+01 0. -1.
         -5    1    1    2    0  502 -0.11856381664E+02  0.74677749070E+02  0.10062911453E+03  0.12595891665E+03  0.47000000000E+01 0. -1.
        -11    1    3    3    0    0 -0.14851837644E+02 -0.38264111340E+02  0.41087521010E+02  0.58076705147E+02  0.00000000000E+00 0.  1.
         11    1    3    3    0    0  0.51885321462E+02 -0.22263140070E+02  0.21734305220E+03  0.22455675525E+03  0.00000000000E+00 0. -1.
<mgrwt>
<rscale>  0 0.13577053E+03</rscale>
<asrwt>0</asrwt>
<pdfrwt beam="1">  1        2 0.10066968E+00 0.14373241E+03</pdfrwt>
<pdfrwt beam="2">  1       -2 0.39319375E-02 0.14373241E+03</pdfrwt>
<totfact> 0.12285291E+04</totfact>
</mgrwt>
</event>
<event>
 7    1  0.1020736E-005  0.1296317E+03  0.7546771E-02  0.1241781E+00
         -2   -1    0    0    0  501 -0.00000000000E+00  0.00000000000E+00  0.26570784179E+02  0.26570784179E+02  0.00000000000E+00 0.  1.
          2   -1    0    0  501    0  0.00000000000E+00 -0.00000000000E+00 -0.57913742102E+03  0.57913742102E+03  0.00000000000E+00 0. -1.
         23    2    1    2    0    0  0.18202942722E+02 -0.29087332655E+02 -0.12362478950E+03  0.15760611861E+03  0.91537861017E+02 0.  0.
          5    1    1    2  502    0 -0.66176283710E+02  0.40211367213E+02 -0.21659686957E+03  0.23007074670E+03  0.47000000000E+01 0. -1.
         -5    1    1    2    0  502  0.47973340989E+02 -0.11124034558E+02 -0.21234497777E+03  0.21803133989E+03  0.47000000000E+01 0. -1.
        -11    1    3    3    0    0  0.19419261286E+02  0.54143247216E+01  0.78800089750E+01  0.21645257276E+02  0.00000000000E+00 0.  1.
         11    1    3    3    0    0 -0.12163185647E+01 -0.34501657377E+02 -0.13150479848E+03  0.13596086134E+03  0.00000000000E+00 0. -1.
<mgrwt>
<rscale>  0 0.12080121E+03</rscale>
<asrwt>0</asrwt>
<pdfrwt beam="2">  1        2 0.89098062E-01 0.12963168E+03</pdfrwt>
<pdfrwt beam="1">  1       -2 0.40878131E-02 0.12963168E+03</pdfrwt>
<totfact> 0.13238934E+04</totfact>
</mgrwt>
</event>
<event>
 7    1  0.1020736E-005  0.1313881E+03  0.7546771E-02  0.1238127E+00
         -1   -1    0    0    0  501 -0.00000000000E+00  0.00000000000E+00  0.26576713732E+02  0.26576713732E+02  0.00000000000E+00 0.  1.
          1   -1    0    0  501    0  0.00000000000E+00 -0.00000000000E+00 -0.50960874125E+03  0.50960874125E+03  0.00000000000E+00 0. -1.
         23    2    1    2    0    0  0.37686918795E+02  0.14741508543E+02 -0.22231547577E+03  0.24423349733E+03  0.92672620184E+02 0.  0.
          5    1    1    2  502    0 -0.83690547967E+02 -0.14316164773E+02 -0.16319052468E+03  0.18401711262E+03  0.47000000000E+01 0. -1.
         -5    1    1    2    0  502  0.46003629173E+02 -0.42534377070E+00 -0.97526027074E+02  0.10793484503E+03  0.47000000000E+01 0. -1.
        -11    1    3    3    0    0  0.24569321758E+02 -0.20151553505E+02 -0.17949362995E+02  0.36495428649E+02  0.00000000000E+00 0.  1.
         11    1    3    3    0    0  0.13117597036E+02  0.34893062049E+02 -0.20436611277E+03  0.20773806868E+03  0.00000000000E+00 0. -1.
<mgrwt>
<rscale>  0 0.12306350E+03</rscale>
<asrwt>0</asrwt>
<pdfrwt beam="2">  1        1 0.78401334E-01 0.13138807E+03</pdfrwt>
<pdfrwt beam="1">  1       -1 0.40887258E-02 0.13138807E+03</pdfrwt>
<totfact> 0.99568575E+03</totfact>
</mgrwt>
</event>
<event>
 7    1  0.1020736E-005  0.2425376E+03  0.7546771E-02  0.1120908E+00
         -1   -1    0    0    0  501 -0.00000000000E+00  0.00000000000E+00  0.97435659731E+02  0.97435659731E+02  0.00000000000E+00 0.  1.
          1   -1    0    0  501    0  0.00000000000E+00 -0.00000000000E+00 -0.63187807026E+03  0.63187807026E+03  0.00000000000E+00 0. -1.
         23    2    1    2    0    0  0.15325350745E+03  0.14040634657E+03 -0.13911165736E+03  0.26551324890E+03  0.89132779736E+02 0.  0.
          5    1    1    2  502    0 -0.17407096221E+03 -0.12966404991E+03 -0.36989462516E+03  0.42890277388E+03  0.47000000000E+01 0.  1.
         -5    1    1    2    0  502  0.20817454763E+02 -0.10742296659E+02 -0.25436128008E+02  0.34897707207E+02  0.47000000000E+01 0.  1.
        -11    1    3    3    0    0  0.19739490769E+02  0.72154251495E+02 -0.32678642875E+02  0.81631961907E+02  0.00000000000E+00 0.  1.
         11    1    3    3    0    0  0.13351401668E+03  0.68252095073E+02 -0.10643301449E+03  0.18388128699E+03  0.00000000000E+00 0. -1.
<mgrwt>
<rscale>  0 0.23833341E+03</rscale>
<asrwt>0</asrwt>
<pdfrwt beam="2">  1        1 0.97212006E-01 0.24253759E+03</pdfrwt>
<pdfrwt beam="1">  1       -1 0.14990102E-01 0.24253759E+03</pdfrwt>
<totfact> 0.10533356E+03</totfact>
</mgrwt>
</event>
<event>
 7    1  0.1020736E-005  0.1634990E+03  0.7546771E-02  0.1191846E+00
         -4   -1    0    0    0  501 -0.00000000000E+00  0.00000000000E+00  0.29268896571E+03  0.29268896571E+03  0.00000000000E+00 0.  1.
          4   -1    0    0  501    0  0.00000000000E+00 -0.00000000000E+00 -0.78979382560E+02  0.78979382560E+02  0.00000000000E+00 0. -1.
         23    2    1    2    0    0  0.62016137925E+02  0.85208428678E+02  0.85899243499E+02  0.16414146797E+03  0.91963382891E+02 0.  0.
          5    1    1    2  502    0 -0.47821730587E+02  0.11758933073E+02  0.89376909090E+02  0.10215435528E+03  0.47000000000E+01 0.  1.
         -5    1    1    2    0  502 -0.14194407337E+02 -0.96967361751E+02  0.38433430558E+02  0.10537252502E+03  0.47000000000E+01 0.  1.
        -11    1    3    3    0    0  0.58058321687E+02  0.70455324160E+02  0.10535413259E+03  0.13940665219E+03  0.00000000000E+00 0.  1.
         11    1    3    3    0    0  0.39578162375E+01  0.14753104518E+02 -0.19454889092E+02  0.24734815784E+02  0.00000000000E+00 0. -1.
<mgrwt>
<rscale>  0 0.15724173E+03</rscale>
<asrwt>0</asrwt>
<pdfrwt beam="2">  1        4 0.12150674E-01 0.16349900E+03</pdfrwt>
<pdfrwt beam="1">  1       -4 0.45029071E-01 0.16349900E+03</pdfrwt>
<totfact> 0.44876302E+02</totfact>
</mgrwt>
</event>
<event>
 7    1  0.1020736E-005  0.1833597E+03  0.7546771E-02  0.1184184E+00
          2   -1    0    0  501    0  0.00000000000E+00  0.00000000000E+00  0.11618941712E+04  0.11618941712E+04  0.00000000000E+00 0. -1.
         -2   -1    0    0    0  501 -0.00000000000E+00 -0.00000000000E+00 -0.26864113575E+02  0.26864113575E+02  0.00000000000E+00 0.  1.
         23    2    1    2    0    0  0.20504278945E+02  0.74525012642E+02  0.17130403281E+03  0.20774419334E+03  0.88533469638E+02 0.  0.
          5    1    1    2  502    0 -0.20518953508E+02 -0.57228182651E+02  0.96094251487E+03  0.96287522516E+03  0.47000000000E+01 0. -1.
         -5    1    1    2    0  502  0.14674563186E-01 -0.17296829992E+02  0.27835099812E+01  0.18138866308E+02  0.47000000000E+01 0.  1.
        -11    1    3    3    0    0  0.52827562545E+02  0.60615283386E+02  0.10074627757E+03  0.12889831802E+03  0.00000000000E+00 0. -1.
         11    1    3    3    0    0 -0.32323283601E+02  0.13909729256E+02  0.70557755236E+02  0.78845875318E+02  0.00000000000E+00 0.  1.
<mgrwt>
<rscale>  0 0.16406364E+03</rscale>
<asrwt>0</asrwt>
<pdfrwt beam="1">  1        2 0.17875291E+00 0.18335975E+03</pdfrwt>
<pdfrwt beam="2">  1       -2 0.41329415E-02 0.18335975E+03</pdfrwt>
<totfact> 0.54318717E+03</totfact>
</mgrwt>
</event>
<event>
 7    1  0.1020736E-005  0.1387940E+03  0.7546771E-02  0.1226084E+00
          2   -1    0    0  501    0  0.00000000000E+00  0.00000000000E+00  0.44648311097E+03  0.44648311097E+03  0.00000000000E+00 0. -1.
         -2   -1    0    0    0  501 -0.00000000000E+00 -0.00000000000E+00 -0.34732522833E+02  0.34732522833E+02  0.00000000000E+00 0.  1.
         23    2    1    2    0    0 -0.51427964533E+02 -0.31539674630E+02  0.16924299648E+03  0.20179889476E+03  0.91869556749E+02 0.  0.
          5    1    1    2  502    0 -0.20434294771E+02 -0.33228290653E+02  0.47214008958E+02  0.61424199991E+02  0.47000000000E+01 0.  1.
         -5    1    1    2    0  502  0.71862259304E+02  0.64767965284E+02  0.19529358270E+03  0.21799253906E+03  0.47000000000E+01 0.  1.
        -11    1    3    3    0    0 -0.39633195920E+02  0.25094636885E+02  0.46226335232E+02  0.65858978797E+02  0.00000000000E+00 0.  1.
         11    1    3    3    0    0 -0.11794768613E+02 -0.56634311516E+02  0.12301666125E+03  0.13593991596E+03  0.00000000000E+00 0. -1.
<mgrwt>
<rscale>  0 0.13092864E+03</rscale>
<asrwt>0</asrwt>
<pdfrwt beam="1">  1        2 0.68689705E-01 0.13879403E+03</pdfrwt>
<pdfrwt beam="2">  1       -2 0.53434654E-02 0.13879403E+03</pdfrwt>
<totfact> 0.11870112E+04</totfact>
</mgrwt>
</event>
<event>
 7    1  0.1020736E-005  0.1434035E+03  0.7546771E-02  0.1219348E+00
         -2   -1    0    0    0  501 -0.00000000000E+00  0.00000000000E+00  0.88627810032E+02  0.88627810032E+02  0.00000000000E+00 0. -1.
          2   -1    0    0  501    0  0.00000000000E+00 -0.00000000000E+00 -0.19058476157E+03  0.19058476157E+03  0.00000000000E+00 0.  1.
         23    2    1    2    0    0  0.69474903291E+02  0.10664336130E+02 -0.29015740583E+02  0.11832450461E+03  0.90654756836E+02 0.  0.
          5    1    1    2  502    0 -0.35076878810E+02  0.42082961267E+02 -0.80290973325E+02  0.97314405170E+02  0.47000000000E+01 0.  1.
         -5    1    1    2    0  502 -0.34398024481E+02 -0.52747297397E+02  0.73497623684E+01  0.63573661824E+02  0.47000000000E+01 0.  1.
        -11    1    3    3    0    0  0.34451235985E+02 -0.40101835566E+02 -0.10203680053E+02  0.53843847961E+02  0.00000000000E+00 0.  1.
         11    1    3    3    0    0  0.35023667306E+02  0.50766171697E+02 -0.18812060530E+02  0.64480656647E+02  0.00000000000E+00 0. -1.
<mgrwt>
<rscale>  0 0.13561934E+03</rscale>
<asrwt>0</asrwt>
<pdfrwt beam="2">  1        2 0.29320732E-01 0.14340345E+03</pdfrwt>
<pdfrwt beam="1">  1       -2 0.13635048E-01 0.14340345E+03</pdfrwt>
<totfact> 0.68770889E+03</totfact>
</mgrwt>
</event>
<event>
 7    1  0.1020736E-005  0.1416148E+03  0.7546771E-02  0.1221514E+00
         -1   -1    0    0    0  501 -0.00000000000E+00  0.00000000000E+00  0.23348273794E+02  0.23348273794E+02  0.00000000000E+00 0.  1.
          1   -1    0    0  501    0  0.00000000000E+00 -0.00000000000E+00 -0.91252751294E+03  0.91252751294E+03  0.00000000000E+00 0. -1.
         23    2    1    2    0    0  0.51858968323E+01  0.66354265664E+02 -0.18202971180E+03  0.21468565925E+03  0.92332736404E+02 0.  0.
          5    1    1    2  502    0  0.17169013463E+02  0.26442455505E+02 -0.35090293482E+03  0.35234775171E+03  0.47000000000E+01 0.  1.
         -5    1    1    2    0  502 -0.22354910295E+02 -0.92796721169E+02 -0.35624659253E+03  0.36884237577E+03  0.47000000000E+01 0.  1.
        -11    1    3    3    0    0 -0.38152556179E+02  0.65007816431E+01 -0.78092136213E+02  0.87156522667E+02  0.00000000000E+00 0.  1.
         11    1    3    3    0    0  0.43338453011E+02  0.59853484021E+02 -0.10393757559E+03  0.12752913658E+03  0.00000000000E+00 0. -1.
<mgrwt>
<rscale>  0 0.13408698E+03</rscale>
<asrwt>0</asrwt>
<pdfrwt beam="2">  1        1 0.14038886E+00 0.14161478E+03</pdfrwt>
<pdfrwt beam="1">  1       -1 0.35920418E-02 0.14161478E+03</pdfrwt>
<totfact> 0.52562695E+03</totfact>
</mgrwt>
</event>
<event>
 7    1  0.1020736E-005  0.1425421E+03  0.7546771E-02  0.1220915E+00
         -2   -1    0    0    0  501 -0.00000000000E+00  0.00000000000E+00  0.14216213831E+02  0.14216213831E+02  0.00000000000E+00 0. -1.
          2   -1    0    0  501    0  0.00000000000E+00 -0.00000000000E+00 -0.16613407334E+04  0.16613407334E+04  0.00000000000E+00 0.  1.
         23    2    1    2    0    0 -0.68035399826E+02 -0.79997895744E+01 -0.29451316223E+03  0.31545558314E+03  0.89896662615E+02 0.  0.
          5    1    1    2  502    0 -0.28710973102E+02 -0.13259184279E+02 -0.61806243666E+03  0.61888883619E+03  0.47000000000E+01 0. -1.
         -5    1    1    2    0  502  0.96746372928E+02  0.21258973853E+02 -0.73454892071E+03  0.74121252793E+03  0.47000000000E+01 0. -1.
        -11    1    3    3    0    0  0.19804180113E+02 -0.14996841073E+02 -0.69243872143E+02  0.73565104645E+02  0.00000000000E+00 0. -1.
         11    1    3    3    0    0 -0.87839579939E+02  0.69970514985E+01 -0.22526929008E+03  0.24189047850E+03  0.00000000000E+00 0.  1.
<mgrwt>
<rscale>  0 0.13450829E+03</rscale>
<asrwt>0</asrwt>
<pdfrwt beam="2">  1        2 0.25559070E+00 0.14254205E+03</pdfrwt>
<pdfrwt beam="1">  1       -2 0.21871114E-02 0.14254205E+03</pdfrwt>
<totfact> 0.74617799E+03</totfact>
</mgrwt>
</event>
<event>
 7    1  0.1020736E-005  0.1915019E+03  0.7546771E-02  0.1161857E+00
          2   -1    0    0  501    0  0.00000000000E+00  0.00000000000E+00  0.12472578693E+04  0.12472578693E+04  0.00000000000E+00 0. -1.
         -2   -1    0    0    0  501 -0.00000000000E+00 -0.00000000000E+00 -0.39576791163E+02  0.39576791163E+02  0.00000000000E+00 0.  1.
         23    2    1    2    0    0 -0.13171199101E+03 -0.60845284879E+02  0.21080984963E+03  0.27173602835E+03  0.91375484320E+02 0.  0.
          5    1    1    2  502    0  0.14944796339E+03  0.27190028697E+02  0.83796051365E+03  0.85163014499E+03  0.47000000000E+01 0. -1.
         -5    1    1    2    0  502 -0.17735972377E+02  0.33655256183E+02  0.15891071488E+03  0.16346848714E+03  0.47000000000E+01 0. -1.
        -11    1    3    3    0    0 -0.35383535493E+02  0.13141446603E+02  0.13596488080E+02  0.40119280788E+02  0.00000000000E+00 0.  1.
         11    1    3    3    0    0 -0.96328455521E+02 -0.73986731483E+02  0.19721336155E+03  0.23161674756E+03  0.00000000000E+00 0. -1.
<mgrwt>
<rscale>  0 0.18628276E+03</rscale>
<asrwt>0</asrwt>
<pdfrwt beam="1">  1        2 0.19188580E+00 0.19150192E+03</pdfrwt>
<pdfrwt beam="2">  1       -2 0.60887380E-02 0.19150192E+03</pdfrwt>
<totfact> 0.27084015E+03</totfact>
</mgrwt>
</event>
<event>
 7    1  0.1020736E-005  0.1497935E+03  0.7546771E-02  0.1220692E+00
         -4   -1    0    0    0  501 -0.00000000000E+00  0.00000000000E+00  0.20537339142E+03  0.20537339142E+03  0.00000000000E+00 0.  1.
          4   -1    0    0  501    0  0.00000000000E+00 -0.00000000000E+00 -0.98652527344E+02  0.98652527344E+02  0.00000000000E+00 0. -1.
         23    2    1    2    0    0 -0.25886073863E+02  0.25319431041E+02  0.11860989680E+03  0.15376133288E+03  0.90901471177E+02 0.  0.
          5    1    1    2  502    0 -0.60566657715E+02 -0.72035931586E+01 -0.14090542321E+01  0.61190581097E+02  0.47000000000E+01 0. -1.
         -5    1    1    2    0  502  0.86452731578E+02 -0.18115837882E+02 -0.10479978492E+02  0.89074004787E+02  0.47000000000E+01 0.  1.
        -11    1    3    3    0    0 -0.52587338649E+01 -0.23465615820E+02  0.20403817970E+00  0.24048514284E+02  0.00000000000E+00 0.  1.
         11    1    3    3    0    0 -0.20627339998E+02  0.48785046861E+02  0.11840585862E+03  0.12971281860E+03  0.00000000000E+00 0. -1.
<mgrwt>
<rscale>  0 0.13466595E+03</rscale>
<asrwt>0</asrwt>
<pdfrwt beam="2">  1        4 0.15177312E-01 0.14979351E+03</pdfrwt>
<pdfrwt beam="1">  1       -4 0.31595906E-01 0.14979351E+03</pdfrwt>
<totfact> 0.60051134E+02</totfact>
</mgrwt>
</event>
<event>
 7    1  0.1020736E-005  0.1516902E+03  0.7546771E-02  0.1208509E+00
         -1   -1    0    0    0  501 -0.00000000000E+00  0.00000000000E+00  0.27448753669E+03  0.27448753669E+03  0.00000000000E+00 0.  1.
          1   -1    0    0  501    0  0.00000000000E+00 -0.00000000000E+00 -0.10326559326E+03  0.10326559326E+03  0.00000000000E+00 0. -1.
         23    2    1    2    0    0 -0.77561413785E+02 -0.36990735102E+02  0.18908651516E+03  0.22501464358E+03  0.86566692312E+02 0.  0.
          5    1    1    2  502    0  0.66792678205E+02 -0.35868974582E+02  0.30815260611E+01  0.76022569032E+02  0.47000000000E+01 0.  1.
         -5    1    1    2    0  502  0.10768735580E+02  0.72859709684E+02 -0.20946097780E+02  0.76715917341E+02  0.47000000000E+01 0.  1.
        -11    1    3    3    0    0 -0.87035735861E+02 -0.43362708270E+02  0.19012606424E+03  0.21354967593E+03  0.00000000000E+00 0.  1.
         11    1    3    3    0    0  0.94743220757E+01  0.63719731679E+01 -0.10395490853E+01  0.11464967647E+02  0.00000000000E+00 0. -1.
<mgrwt>
<rscale>  0 0.14364340E+03</rscale>
<asrwt>0</asrwt>
<pdfrwt beam="2">  1        1 0.15887015E-01 0.15169015E+03</pdfrwt>
<pdfrwt beam="1">  1       -1 0.42228851E-01 0.15169015E+03</pdfrwt>
<totfact> 0.18933147E+03</totfact>
</mgrwt>
</event>
<event>
 7    1  0.1020736E-005  0.2036857E+03  0.7546771E-02  0.1150730E+00
         -3   -1    0    0    0  501 -0.00000000000E+00  0.00000000000E+00  0.83214245014E+03  0.83214245014E+03  0.00000000000E+00 0.  1.
          3   -1    0    0  501    0  0.00000000000E+00 -0.00000000000E+00 -0.47673032704E+02  0.47673032704E+02  0.00000000000E+00 0. -1.
         23    2    1    2    0    0 -0.14609017976E+03  0.67251794224E+02  0.27777305225E+03  0.33371195527E+03  0.91327192460E+02 0.  0.
          5    1    1    2  502    0  0.76281528932E+01 -0.40694888190E+02  0.24772173285E+03  0.25120192986E+03  0.47000000000E+01 0.  1.
         -5    1    1    2    0  502  0.13846202686E+03 -0.26556906034E+02  0.25897463234E+03  0.29490159772E+03  0.47000000000E+01 0.  1.
        -11    1    3    3    0    0 -0.52234782710E+02 -0.12406790746E+02  0.43634030939E+02  0.69183304615E+02  0.00000000000E+00 0.  1.
         11    1    3    3    0    0 -0.93855397047E+02  0.79658584971E+02  0.23413902132E+03  0.26452865065E+03  0.00000000000E+00 0. -1.
<mgrwt>
<rscale>  0 0.19883043E+03</rscale>
<asrwt>0</asrwt>
<pdfrwt beam="2">  1        3 0.73343134E-02 0.20368568E+03</pdfrwt>
<pdfrwt beam="1">  1       -3 0.12802190E+00 0.20368568E+03</pdfrwt>
<totfact> 0.15229538E+02</totfact>
</mgrwt>
</event>
<event>
 7    1  0.1020736E-005  0.1361755E+03  0.7546771E-02  0.1230032E+00
          2   -1    0    0  501    0  0.00000000000E+00  0.00000000000E+00  0.11888363356E+03  0.11888363356E+03  0.00000000000E+00 0. -1.
         -2   -1    0    0    0  501 -0.00000000000E+00 -0.00000000000E+00 -0.13831966147E+03  0.13831966147E+03  0.00000000000E+00 0.  1.
         23    2    1    2    0    0  0.31889096590E+02 -0.43607447119E+02 -0.48932850861E+02  0.11786975257E+03  0.92630074767E+02 0.  0.
          5    1    1    2  502    0  0.36469950645E+01 -0.41924527962E+02  0.17512104611E+02  0.45822815558E+02  0.47000000000E+01 0.  1.
         -5    1    1    2    0  502 -0.35536091654E+02  0.85531975080E+02  0.11984718343E+02  0.93510726898E+02  0.47000000000E+01 0.  1.
        -11    1    3    3    0    0  0.53207489400E+02 -0.27173965451E+02  0.25236063011E+01  0.59798243414E+02  0.00000000000E+00 0. -1.
         11    1    3    3    0    0 -0.21318392810E+02 -0.16433481668E+02 -0.51456457162E+02  0.58071509154E+02  0.00000000000E+00 0.  1.
<mgrwt>
<rscale>  0 0.12827916E+03</rscale>
<asrwt>0</asrwt>
<pdfrwt beam="1">  1        2 0.18289790E-01 0.13617552E+03</pdfrwt>
<pdfrwt beam="2">  1       -2 0.21279948E-01 0.13617552E+03</pdfrwt>
<totfact> 0.55360631E+03</totfact>
</mgrwt>
</event>
<event>
 7    1  0.1020736E-005  0.1755504E+03  0.7546771E-02  0.1178313E+00
          2   -1    0    0  501    0  0.00000000000E+00  0.00000000000E+00  0.17570135627E+04  0.17570135627E+04  0.00000000000E+00 0.  1.
         -2   -1    0    0    0  501 -0.00000000000E+00 -0.00000000000E+00 -0.15652481504E+02  0.15652481504E+02  0.00000000000E+00 0. -1.
         23    2    1    2    0    0  0.12272225547E+03 -0.11556845827E+02  0.68607604720E+03  0.70287893895E+03  0.90244931127E+02 0.  0.
          5    1    1    2  502    0 -0.65368510275E+02  0.65631813562E+02  0.67900128862E+03  0.68530680504E+03  0.47000000000E+01 0. -1.
         -5    1    1    2    0  502 -0.57353745197E+02 -0.54074967735E+02  0.37628374539E+03  0.38448030024E+03  0.47000000000E+01 0. -1.
        -11    1    3    3    0    0  0.67899897651E+02  0.36629533917E+02  0.41712844198E+03  0.42420308339E+03  0.00000000000E+00 0.  1.
         11    1    3    3    0    0  0.54822357821E+02 -0.48186379745E+02  0.26894760523E+03  0.27867585555E+03  0.00000000000E+00 0. -1.
<mgrwt>
<rscale>  0 0.16955493E+03</rscale>
<asrwt>0</asrwt>
<pdfrwt beam="1">  1        2 0.27030962E+00 0.17555041E+03</pdfrwt>
<pdfrwt beam="2">  1       -2 0.24080755E-02 0.17555041E+03</pdfrwt>
<totfact> 0.58150505E+03</totfact>
</mgrwt>
</event>
<event>
 7    1  0.1020736E-005  0.1407154E+03  0.7546771E-02  0.1223608E+00
         -2   -1    0    0    0  501 -0.00000000000E+00  0.00000000000E+00  0.21766171957E+03  0.21766171957E+03  0.00000000000E+00 0. -1.
          2   -1    0    0  501    0  0.00000000000E+00 -0.00000000000E+00 -0.81515969047E+02  0.81515969047E+02  0.00000000000E+00 0.  1.
         23    2    1    2    0    0  0.38894085449E+02  0.51594114244E+02  0.10951183146E+03  0.15596386590E+03  0.90317128658E+02 0.  0.
          5    1    1    2  502    0  0.45904964157E+01  0.89969592715E+00 -0.44259381150E+02  0.44753378977E+02  0.47000000000E+01 0.  1.
         -5    1    1    2    0  502 -0.43484581865E+02 -0.52493810171E+02  0.70893300209E+02  0.98460443736E+02  0.47000000000E+01 0.  1.
        -11    1    3    3    0    0 -0.20363205471E+02  0.44486728623E+02  0.33383829562E+02  0.59230137911E+02  0.00000000000E+00 0.  1.
         11    1    3    3    0    0  0.59257290921E+02  0.71073856206E+01  0.76128001900E+02  0.96733727991E+02  0.00000000000E+00 0. -1.
<mgrwt>
<rscale>  0 0.13262793E+03</rscale>
<asrwt>0</asrwt>
<pdfrwt beam="2">  1        2 0.12540918E-01 0.14071543E+03</pdfrwt>
<pdfrwt beam="1">  1       -2 0.33486418E-01 0.14071543E+03</pdfrwt>
<totfact> 0.38725650E+03</totfact>
</mgrwt>
</event>
<event>
 7    1  0.1020736E-005  0.2933204E+03  0.7546771E-02  0.1088628E+00
         -2   -1    0    0    0  501 -0.00000000000E+00  0.00000000000E+00  0.88974093376E+01  0.88974093376E+01  0.00000000000E+00 0.  1.
          2   -1    0    0  501    0  0.00000000000E+00 -0.00000000000E+00 -0.24174700038E+04  0.24174700038E+04  0.00000000000E+00 0. -1.
         23    2    1    2    0    0  0.15915894601E+02  0.28618239049E+02 -0.33411303856E+03  0.34788833254E+03  0.91227463411E+02 0.  0.
          5    1    1    2  502    0 -0.10466165170E+02 -0.10055849355E+02 -0.27705787886E+02  0.31628490353E+02  0.47000000000E+01 0. -1.
         -5    1    1    2    0  502 -0.54497294316E+01 -0.18562389694E+02 -0.20467537680E+04  0.20468505902E+04  0.47000000000E+01 0. -1.
        -11    1    3    3    0    0 -0.36355435125E+02  0.18417414704E+02 -0.18813871605E+03  0.19250219559E+03  0.00000000000E+00 0. -1.
         11    1    3    3    0    0  0.52271329726E+02  0.10200824345E+02 -0.14597432250E+03  0.15538613696E+03  0.00000000000E+00 0.  1.
<mgrwt>
<rscale>  0 0.29332044E+03</rscale>
<asrwt>0</asrwt>
<pdfrwt beam="2">  1        2 0.37191882E+00 0.29332044E+03</pdfrwt>
<pdfrwt beam="1">  1       -2 0.13688309E-02 0.29332044E+03</pdfrwt>
<totfact> 0.60002430E+03</totfact>
</mgrwt>
</event>
<event>
 7    1  0.1020736E-005  0.1318608E+03  0.7546771E-02  0.1236469E+00
         -1   -1    0    0    0  501 -0.00000000000E+00  0.00000000000E+00  0.35435742218E+03  0.35435742218E+03  0.00000000000E+00 0.  1.
          1   -1    0    0  501    0  0.00000000000E+00 -0.00000000000E+00 -0.45530182238E+02  0.45530182238E+02  0.00000000000E+00 0. -1.
         23    2    1    2    0    0  0.20407964704E+02 -0.36691928162E+02  0.21324929862E+03  0.23703058428E+03  0.94580399174E+02 0.  0.
          5    1    1    2  502    0 -0.22058381925E+02  0.82207098643E+02  0.70698490432E+02  0.11074721590E+03  0.47000000000E+01 0. -1.
         -5    1    1    2    0  502  0.16504172214E+01 -0.45515170481E+02  0.24879450896E+02  0.52109804239E+02  0.47000000000E+01 0. -1.
        -11    1    3    3    0    0  0.49131653165E+02 -0.23670544185E+02  0.19047805901E+03  0.19813153451E+03  0.00000000000E+00 0.  1.
         11    1    3    3    0    0 -0.28723688461E+02 -0.13021383977E+02  0.22771239607E+02  0.38899049766E+02  0.00000000000E+00 0. -1.
<mgrwt>
<rscale>  0 0.12410848E+03</rscale>
<asrwt>0</asrwt>
<pdfrwt beam="2">  1        1 0.70046437E-02 0.13186078E+03</pdfrwt>
<pdfrwt beam="1">  1       -1 0.54516525E-01 0.13186078E+03</pdfrwt>
<totfact> 0.34959056E+03</totfact>
</mgrwt>
</event>
<event>
 7    1  0.1020736E-005  0.1320212E+03  0.7546771E-02  0.1238112E+00
         -2   -1    0    0    0  501 -0.00000000000E+00  0.00000000000E+00  0.27987113945E+02  0.27987113945E+02  0.00000000000E+00 0. -1.
          2   -1    0    0  501    0  0.00000000000E+00 -0.00000000000E+00 -0.74811544615E+03  0.74811544615E+03  0.00000000000E+00 0.  1.
         23    2    1    2    0    0 -0.39744568420E+02  0.15056563499E+02 -0.96865757506E+02  0.13901085293E+03  0.90192635131E+02 0.  0.
          5    1    1    2  502    0  0.38560179814E+02 -0.49047953543E+02 -0.57188351700E+03  0.57529595534E+03  0.47000000000E+01 0.  1.
         -5    1    1    2    0  502  0.11843886066E+01  0.33991390045E+02 -0.51379057699E+02  0.61795751825E+02  0.47000000000E+01 0.  1.
        -11    1    3    3    0    0 -0.27445403169E+02  0.46931359346E+01 -0.11291047364E+03  0.11629295222E+03  0.00000000000E+00 0.  1.
         11    1    3    3    0    0 -0.12299165251E+02  0.10363427564E+02  0.16044716132E+02  0.22717900706E+02  0.00000000000E+00 0. -1.
<mgrwt>
<rscale>  0 0.12307273E+03</rscale>
<asrwt>0</asrwt>
<pdfrwt beam="2">  1        2 0.11509467E+00 0.13202123E+03</pdfrwt>
<pdfrwt beam="1">  1       -2 0.43057105E-02 0.13202123E+03</pdfrwt>
<totfact> 0.91040456E+03</totfact>
</mgrwt>
</event>
<event>
 7    1  0.1020736E-005  0.2426901E+03  0.7546771E-02  0.1155618E+00
          2   -1    0    0  501    0  0.00000000000E+00  0.00000000000E+00  0.22434371521E+04  0.22434371521E+04  0.00000000000E+00 0. -1.
         -2   -1    0    0    0  501 -0.00000000000E+00 -0.00000000000E+00 -0.31723225751E+02  0.31723225751E+02  0.00000000000E+00 0.  1.
         23    2    1    2    0    0 -0.28033485473E+02 -0.20388666068E+02  0.70587041577E+02  0.12032329918E+03  0.91069159850E+02 0.  0.
          5    1    1    2  502    0 -0.48065155439E+02  0.15756973146E+02  0.19239233155E+04  0.19245938677E+04  0.47000000000E+01 0. -1.
         -5    1    1    2    0  502  0.76098640911E+02  0.46316929212E+01  0.21720356926E+03  0.23024321104E+03  0.47000000000E+01 0.  1.
        -11    1    3    3    0    0 -0.15939928523E+02 -0.63299581578E+01 -0.20865428780E+02  0.27009550344E+02  0.00000000000E+00 0.  1.
         11    1    3    3    0    0 -0.12093556949E+02 -0.14058707910E+02  0.91452470357E+02  0.93313748838E+02  0.00000000000E+00 0. -1.
<mgrwt>
<rscale>  0 0.19318656E+03</rscale>
<asrwt>0</asrwt>
<pdfrwt beam="1">  1        2 0.34514405E+00 0.24269013E+03</pdfrwt>
<pdfrwt beam="2">  1       -2 0.48804980E-02 0.24269013E+03</pdfrwt>
<totfact> 0.11256844E+03</totfact>
</mgrwt>
</event>
<event>
 7    1  0.1020736E-005  0.1369312E+03  0.7546771E-02  0.1228020E+00
         -2   -1    0    0    0  501 -0.00000000000E+00  0.00000000000E+00  0.76121534405E+02  0.76121534405E+02  0.00000000000E+00 0.  1.
          2   -1    0    0  501    0  0.00000000000E+00 -0.00000000000E+00 -0.20079935496E+03  0.20079935496E+03  0.00000000000E+00 0. -1.
         23    2    1    2    0    0 -0.88310823086E+01  0.55194423683E+02 -0.47840490226E+02  0.11990457471E+03  0.94678308555E+02 0.  0.
          5    1    1    2  502    0 -0.46831310049E+02 -0.63674632297E+02 -0.55158126874E+02  0.96499426731E+02  0.47000000000E+01 0. -1.
         -5    1    1    2    0  502  0.55662392358E+02  0.84802086139E+01 -0.21679203451E+02  0.60516887919E+02  0.47000000000E+01 0. -1.
        -11    1    3    3    0    0  0.15695218932E+02  0.59670198744E+02  0.45674530448E+01  0.61868684670E+02  0.00000000000E+00 0.  1.
         11    1    3    3    0    0 -0.24526301240E+02 -0.44757750605E+01 -0.52407943271E+02  0.58035890041E+02  0.00000000000E+00 0. -1.
<mgrwt>
<rscale>  0 0.12962025E+03</rscale>
<asrwt>0</asrwt>
<pdfrwt beam="2">  1        2 0.30892209E-01 0.13693118E+03</pdfrwt>
<pdfrwt beam="1">  1       -2 0.11711005E-01 0.13693118E+03</pdfrwt>
<totfact> 0.82707056E+03</totfact>
</mgrwt>
</event>
<event>
 7    1  0.1097164E-005  0.3132355E+03  0.7546771E-02  0.1080232E+00
          1   -1    0    0  501    0  0.00000000000E+00  0.00000000000E+00  0.73409446371E+03  0.73409446371E+03  0.00000000000E+00 0. -1.
         -1   -1    0    0    0  501 -0.00000000000E+00 -0.00000000000E+00 -0.13165718523E+03  0.13165718523E+03  0.00000000000E+00 0.  1.
         23    2    1    2    0    0  0.26324542034E+03 -0.11486429325E+03  0.23025254929E+03  0.37929718992E+03  0.91422998374E+02 0.  0.
          5    1    1    2  502    0 -0.33991899047E+02  0.65350319810E+01 -0.13580272600E+01  0.34958405024E+02  0.47000000000E+01 0.  1.
         -5    1    1    2    0  502 -0.22925352129E+03  0.10832926127E+03  0.37354275646E+03  0.45149605400E+03  0.47000000000E+01 0.  1.
        -11    1    3    3    0    0  0.21302904246E+03 -0.12808224721E+03  0.20121436308E+03  0.31980252484E+03  0.00000000000E+00 0.  1.
         11    1    3    3    0    0  0.50216377883E+02  0.13217953966E+02  0.29038186202E+02  0.59494665077E+02  0.00000000000E+00 0. -1.
<mgrwt>
<rscale>  0 0.31023722E+03</rscale>
<asrwt>0</asrwt>
<pdfrwt beam="1">  1        1 0.11293761E+00 0.31323548E+03</pdfrwt>
<pdfrwt beam="2">  1       -1 0.20254952E-01 0.31323548E+03</pdfrwt>
<totfact> 0.52004609E+02</totfact>
</mgrwt>
</event>
<event>
 7    1  0.1020736E-005  0.1926671E+03  0.7546771E-02  0.1160767E+00
         -2   -1    0    0    0  501 -0.00000000000E+00  0.00000000000E+00  0.32492037351E+02  0.32492037351E+02  0.00000000000E+00 0.  1.
          2   -1    0    0  501    0  0.00000000000E+00 -0.00000000000E+00 -0.10341391045E+04  0.10341391045E+04  0.00000000000E+00 0. -1.
         23    2    1    2    0    0  0.10038266149E+03 -0.10677683268E+03 -0.42959533577E+03  0.46300560178E+03  0.91345848513E+02 0.  0.
          5    1    1    2  502    0 -0.53385411297E+02  0.64167220520E+02 -0.50235519742E+03  0.50926443888E+03  0.47000000000E+01 0. -1.
         -5    1    1    2    0  502 -0.46997250194E+02  0.42609612157E+02 -0.69696533984E+02  0.94361101220E+02  0.47000000000E+01 0. -1.
        -11    1    3    3    0    0  0.58618151654E+02 -0.10680698202E+01 -0.16148154815E+03  0.17179499082E+03  0.00000000000E+00 0.  1.
         11    1    3    3    0    0  0.41764509837E+02 -0.10570876286E+03 -0.26811378762E+03  0.29121061096E+03  0.00000000000E+00 0. -1.
<mgrwt>
<rscale>  0 0.18746613E+03</rscale>
<asrwt>0</asrwt>
<pdfrwt beam="2">  1        2 0.15909832E+00 0.19266709E+03</pdfrwt>
<pdfrwt beam="1">  1       -2 0.49987751E-02 0.19266709E+03</pdfrwt>
<totfact> 0.48463547E+03</totfact>
</mgrwt>
</event>
<event>
 7    1  0.1020736E-005  0.1494177E+03  0.7546771E-02  0.1211044E+00
          2   -1    0    0  501    0  0.00000000000E+00  0.00000000000E+00  0.13126907396E+03  0.13126907396E+03  0.00000000000E+00 0. -1.
         -2   -1    0    0    0  501 -0.00000000000E+00 -0.00000000000E+00 -0.16207386327E+03  0.16207386327E+03  0.00000000000E+00 0.  1.
         23    2    1    2    0    0  0.28634028566E+02 -0.76689158788E+02 -0.68888689867E+02  0.13914817472E+03  0.88968692640E+02 0.  0.
          5    1    1    2  502    0  0.37537886066E+02  0.71530890088E+01 -0.18451564172E+02  0.42694376598E+02  0.47000000000E+01 0.  1.
         -5    1    1    2    0  502 -0.66171914632E+02  0.69536069779E+02  0.56535464728E+02  0.11150038591E+03  0.47000000000E+01 0.  1.
        -11    1    3    3    0    0 -0.47162711754E+01 -0.30736616824E+02  0.17566620021E+02  0.35715108379E+02  0.00000000000E+00 0. -1.
         11    1    3    3    0    0  0.33350299742E+02 -0.45952541964E+02 -0.86455309888E+02  0.10343306635E+03  0.00000000000E+00 0.  1.
<mgrwt>
<rscale>  0 0.14171217E+03</rscale>
<asrwt>0</asrwt>
<pdfrwt beam="1">  1        2 0.20195242E-01 0.14941767E+03</pdfrwt>
<pdfrwt beam="2">  1       -2 0.24934440E-01 0.14941767E+03</pdfrwt>
<totfact> 0.37826224E+03</totfact>
</mgrwt>
</event>
<event>
 7    1  0.1020736E-005  0.1466204E+03  0.7546771E-02  0.1215277E+00
         -1   -1    0    0    0  501 -0.00000000000E+00  0.00000000000E+00  0.13889362437E+03  0.13889362437E+03  0.00000000000E+00 0.  1.
          1   -1    0    0  501    0  0.00000000000E+00 -0.00000000000E+00 -0.13576845536E+03  0.13576845536E+03  0.00000000000E+00 0. -1.
         23    2    1    2    0    0 -0.30067259308E+02 -0.70490389403E+02  0.39780460330E+02  0.12352919389E+03  0.88340486973E+02 0.  0.
          5    1    1    2  502    0 -0.84827240333E+01 -0.55884711423E+01  0.36806349076E+02  0.38470572507E+02  0.47000000000E+01 0. -1.
         -5    1    1    2    0  502  0.38549983342E+02  0.76078860545E+02 -0.73461640391E+02  0.11266231334E+03  0.47000000000E+01 0. -1.
        -11    1    3    3    0    0 -0.15802039333E+02  0.15598913636E+02  0.27595299253E+02  0.35419360449E+02  0.00000000000E+00 0.  1.
         11    1    3    3    0    0 -0.14265219975E+02 -0.86089303039E+02  0.12185161076E+02  0.88109833442E+02  0.00000000000E+00 0. -1.
<mgrwt>
<rscale>  0 0.13856213E+03</rscale>
<asrwt>0</asrwt>
<pdfrwt beam="2">  1        1 0.20887455E-01 0.14662039E+03</pdfrwt>
<pdfrwt beam="1">  1       -1 0.21368250E-01 0.14662039E+03</pdfrwt>
<totfact> 0.42027475E+03</totfact>
</mgrwt>
</event>
<event>
 7    1  0.1020736E-005  0.1338047E+03  0.7546771E-02  0.1234453E+00
          3   -1    0    0  501    0  0.00000000000E+00  0.00000000000E+00  0.92737836367E+02  0.92737836367E+02  0.00000000000E+00 0. -1.
         -3   -1    0    0    0  501 -0.00000000000E+00 -0.00000000000E+00 -0.15147209263E+03  0.15147209263E+03  0.00000000000E+00 0.  1.
         23    2    1    2    0    0  0.11530342061E+02 -0.46341873078E+02 -0.23640150040E+02  0.10587954188E+03  0.91493730424E+02 0.  0.
          5    1    1    2  502    0 -0.68125062771E+02  0.23591866164E+02 -0.13801121465E+02  0.73553798545E+02  0.47000000000E+01 0. -1.
         -5    1    1    2    0  502  0.56594720710E+02  0.22750006914E+02 -0.21292984758E+02  0.64776588570E+02  0.47000000000E+01 0. -1.
        -11    1    3    3    0    0  0.45644647952E+02 -0.50710882658E+02 -0.10351040408E+02  0.69008488928E+02  0.00000000000E+00 0.  1.
         11    1    3    3    0    0 -0.34114305891E+02  0.43690095802E+01 -0.13289109632E+02  0.36871052954E+02  0.00000000000E+00 0. -1.
<mgrwt>
<rscale>  0 0.12539508E+03</rscale>
<asrwt>0</asrwt>
<pdfrwt beam="1">  1        3 0.14267360E-01 0.13380471E+03</pdfrwt>
<pdfrwt beam="2">  1       -3 0.23303399E-01 0.13380471E+03</pdfrwt>
<totfact> 0.15822967E+03</totfact>
</mgrwt>
</event>
<event>
 7    1  0.1020736E-005  0.1252364E+03  0.7546771E-02  0.1252704E+00
          4   -1    0    0  501    0  0.00000000000E+00  0.00000000000E+00  0.33678890276E+03  0.33678890276E+03  0.00000000000E+00 0. -1.
         -4   -1    0    0    0  501 -0.00000000000E+00 -0.00000000000E+00 -0.37072175953E+02  0.37072175953E+02  0.00000000000E+00 0.  1.
         23    2    1    2    0    0 -0.35013501218E+01 -0.68222904636E+01  0.68053580901E+02  0.11051346038E+03  0.86735989952E+02 0.  0.
          5    1    1    2  502    0 -0.31980735152E+02 -0.48613792403E+02  0.12431308708E+03  0.13733863933E+03  0.47000000000E+01 0.  1.
         -5    1    1    2    0  502  0.35482085274E+02  0.55436082866E+02  0.10735005882E+03  0.12600897899E+03  0.47000000000E+01 0.  1.
        -11    1    3    3    0    0  0.29760790515E+02 -0.28525253757E+02  0.14204684521E+02  0.43602383149E+02  0.00000000000E+00 0.  1.
         11    1    3    3    0    0 -0.33262140637E+02  0.21702963293E+02  0.53848896380E+02  0.66911077235E+02  0.00000000000E+00 0. -1.
<mgrwt>
<rscale>  0 0.11435902E+03</rscale>
<asrwt>0</asrwt>
<pdfrwt beam="1">  1        4 0.51813675E-01 0.12523640E+03</pdfrwt>
<pdfrwt beam="2">  1       -4 0.57034119E-02 0.12523640E+03</pdfrwt>
<totfact> 0.11278883E+03</totfact>
</mgrwt>
</event>
<event>
 7    1  0.1020736E-005  0.1384269E+03  0.7546771E-02  0.1226935E+00
          2   -1    0    0  501    0  0.00000000000E+00  0.00000000000E+00  0.54379440497E+03  0.54379440497E+03  0.00000000000E+00 0. -1.
         -2   -1    0    0    0  501 -0.00000000000E+00 -0.00000000000E+00 -0.34922825623E+02  0.34922825623E+02  0.00000000000E+00 0.  1.
         23    2    1    2    0    0 -0.59052726806E+02 -0.69961209107E+01  0.10286266358E+03  0.14975891376E+03  0.91163778116E+02 0.  0.
          5    1    1    2  502    0 -0.26466927665E+02  0.14760241542E+02  0.24042739224E+03  0.24237529562E+03  0.47000000000E+01 0. -1.
         -5    1    1    2    0  502  0.85519654471E+02 -0.77641206314E+01  0.16558152354E+03  0.18658302122E+03  0.47000000000E+01 0. -1.
        -11    1    3    3    0    0 -0.41253361097E+02  0.22639197137E+02  0.66506611643E+01  0.47524776093E+02  0.00000000000E+00 0.  1.
         11    1    3    3    0    0 -0.17799365709E+02 -0.29635318048E+02  0.96212002413E+02  0.10223413766E+03  0.00000000000E+00 0. -1.
<mgrwt>
<rscale>  0 0.13035160E+03</rscale>
<asrwt>0</asrwt>
<pdfrwt beam="1">  1        2 0.83660671E-01 0.13842687E+03</pdfrwt>
<pdfrwt beam="2">  1       -2 0.53727428E-02 0.13842687E+03</pdfrwt>
<totfact> 0.94810558E+03</totfact>
</mgrwt>
</event>
<event>
 7    1  0.1020736E-005  0.1448346E+03  0.7546771E-02  0.1224910E+00
          1   -1    0    0  501    0  0.00000000000E+00  0.00000000000E+00  0.11380693277E+04  0.11380693277E+04  0.00000000000E+00 0. -1.
         -1   -1    0    0    0  501 -0.00000000000E+00 -0.00000000000E+00 -0.13764215672E+02  0.13764215672E+02  0.00000000000E+00 0.  1.
         23    2    1    2    0    0 -0.53486566463E+02 -0.49900398836E+02  0.33515862914E+03  0.34950615103E+03  0.66875857589E+02 0.  0.
          5    1    1    2  502    0  0.58108583035E+02  0.64555244974E+02  0.28624651296E+03  0.29917075936E+03  0.47000000000E+01 0.  1.
         -5    1    1    2    0  502 -0.46220165723E+01 -0.14654846138E+02  0.50289996992E+03  0.50315663296E+03  0.47000000000E+01 0.  1.
        -11    1    3    3    0    0  0.33720066550E+01 -0.41233756053E+02  0.15197171619E+03  0.15750236693E+03  0.00000000000E+00 0.  1.
         11    1    3    3    0    0 -0.56858573118E+02 -0.86666427836E+01  0.18318691295E+03  0.19200378410E+03  0.00000000000E+00 0. -1.
<mgrwt>
<rscale>  0 0.13173046E+03</rscale>
<asrwt>0</asrwt>
<pdfrwt beam="1">  1        1 0.17508752E+00 0.14483464E+03</pdfrwt>
<pdfrwt beam="2">  1       -1 0.21175725E-02 0.14483464E+03</pdfrwt>
<totfact> 0.77808086E+03</totfact>
</mgrwt>
</event>
<event>
 7    1  0.1020736E-005  0.1322607E+03  0.7546771E-02  0.1236323E+00
          2   -1    0    0  501    0  0.00000000000E+00  0.00000000000E+00  0.59043946649E+03  0.59043946649E+03  0.00000000000E+00 0.  1.
         -2   -1    0    0    0  501 -0.00000000000E+00 -0.00000000000E+00 -0.30832978821E+02  0.30832978821E+02  0.00000000000E+00 0. -1.
         23    2    1    2    0    0  0.37597277688E+02  0.21327913951E+02  0.10167761021E+03  0.14462608567E+03  0.93327021996E+02 0.  0.
          5    1    1    2  502    0 -0.69623681190E+02  0.22325275543E+02  0.19857939249E+03  0.21166421528E+03  0.47000000000E+01 0.  1.
         -5    1    1    2    0  502  0.32026403503E+02 -0.43653189494E+02  0.25934948497E+03  0.26498214436E+03  0.47000000000E+01 0.  1.
        -11    1    3    3    0    0  0.29806750898E+01 -0.31393213470E+02  0.94956963264E+01  0.32933061271E+02  0.00000000000E+00 0. -1.
         11    1    3    3    0    0  0.34616602598E+02  0.52721127421E+02  0.92181913880E+02  0.11169302440E+03  0.00000000000E+00 0.  1.
<mgrwt>
<rscale>  0 0.12420111E+03</rscale>
<asrwt>0</asrwt>
<pdfrwt beam="1">  1        2 0.90836832E-01 0.13226071E+03</pdfrwt>
<pdfrwt beam="2">  1       -2 0.47435357E-02 0.13226071E+03</pdfrwt>
<totfact> 0.10391207E+04</totfact>
</mgrwt>
</event>
<event>
 7    1  0.1020736E-005  0.1871885E+03  0.7546771E-02  0.1166006E+00
         -4   -1    0    0    0  501 -0.00000000000E+00  0.00000000000E+00  0.20479609403E+03  0.20479609403E+03  0.00000000000E+00 0.  1.
          4   -1    0    0  501    0  0.00000000000E+00 -0.00000000000E+00 -0.15300764845E+03  0.15300764845E+03  0.00000000000E+00 0. -1.
         23    2    1    2    0    0  0.93743970393E+02 -0.10308013001E+03  0.21534417463E+02  0.16818611933E+03  0.91702750293E+02 0.  0.
          5    1    1    2  502    0 -0.68391606925E+02  0.98662803756E+02 -0.30086080378E+02  0.12385080934E+03  0.47000000000E+01 0.  1.
         -5    1    1    2    0  502 -0.25352363468E+02  0.44173262589E+01  0.60340108501E+02  0.65766813809E+02  0.47000000000E+01 0.  1.
        -11    1    3    3    0    0 -0.10356059925E+02 -0.45503018580E+02  0.15106018864E+02  0.49050631830E+02  0.00000000000E+00 0. -1.
         11    1    3    3    0    0  0.10410003032E+03 -0.57577111435E+02  0.64283985983E+01  0.11913548750E+03  0.00000000000E+00 0.  1.
<mgrwt>
<rscale>  0 0.18186937E+03</rscale>
<asrwt>0</asrwt>
<pdfrwt beam="2">  1        4 0.23539638E-01 0.18718851E+03</pdfrwt>
<pdfrwt beam="1">  1       -4 0.31507091E-01 0.18718851E+03</pdfrwt>
<totfact> 0.28539597E+02</totfact>
</mgrwt>
</event>
<event>
 7    1  0.1020736E-005  0.1436279E+03  0.7546771E-02  0.1218910E+00
          2   -1    0    0  501    0  0.00000000000E+00  0.00000000000E+00  0.78692784818E+03  0.78692784818E+03  0.00000000000E+00 0. -1.
         -2   -1    0    0    0  501 -0.00000000000E+00 -0.00000000000E+00 -0.21464766533E+02  0.21464766533E+02  0.00000000000E+00 0.  1.
         23    2    1    2    0    0 -0.39902658914E+02 -0.58393903609E+02  0.37754818678E+03  0.39474186893E+03  0.90974939284E+02 0.  0.
          5    1    1    2  502    0 -0.43957102636E+02  0.60783461580E+01  0.12579398158E+03  0.13347430077E+03  0.47000000000E+01 0.  1.
         -5    1    1    2    0  502  0.83859761550E+02  0.52315557451E+02  0.26212091329E+03  0.28017644501E+03  0.47000000000E+01 0.  1.
        -11    1    3    3    0    0 -0.52573642469E+02  0.13721296454E+01  0.20717008870E+03  0.21374123672E+03  0.00000000000E+00 0. -1.
         11    1    3    3    0    0  0.12670983554E+02 -0.59766033254E+02  0.17037809808E+03  0.18100063221E+03  0.00000000000E+00 0.  1.
<mgrwt>
<rscale>  0 0.13593233E+03</rscale>
<asrwt>0</asrwt>
<pdfrwt beam="1">  1        2 0.12106580E+00 0.14362790E+03</pdfrwt>
<pdfrwt beam="2">  1       -2 0.33022724E-02 0.14362790E+03</pdfrwt>
<totfact> 0.12749542E+04</totfact>
</mgrwt>
</event>
<event>
 7    1  0.1020736E-005  0.1714583E+03  0.7546771E-02  0.1182781E+00
         -1   -1    0    0    0  501 -0.00000000000E+00  0.00000000000E+00  0.12808370807E+03  0.12808370807E+03  0.00000000000E+00 0.  1.
          1   -1    0    0  501    0  0.00000000000E+00 -0.00000000000E+00 -0.22426057664E+03  0.22426057664E+03  0.00000000000E+00 0. -1.
         23    2    1    2    0    0 -0.11587315976E+03 -0.18545342798E+02  0.13309963187E+02  0.14891047545E+03  0.90700913374E+02 0.  0.
          5    1    1    2  502    0  0.95294824179E+02  0.65618736002E+02 -0.54325022754E+02  0.12790707614E+03  0.47000000000E+01 0.  1.
         -5    1    1    2    0  502  0.20578335583E+02 -0.47073393204E+02 -0.55161808998E+02  0.75526733115E+02  0.47000000000E+01 0.  1.
        -11    1    3    3    0    0 -0.62915164772E+00 -0.29711020053E+02 -0.88875848694E+01  0.31018215764E+02  0.00000000000E+00 0.  1.
         11    1    3    3    0    0 -0.11524400811E+03  0.11165677255E+02  0.22197548056E+02  0.11789225969E+03  0.00000000000E+00 0. -1.
<mgrwt>
<rscale>  0 0.16535402E+03</rscale>
<asrwt>0</asrwt>
<pdfrwt beam="2">  1        1 0.34501627E-01 0.17145830E+03</pdfrwt>
<pdfrwt beam="1">  1       -1 0.19705186E-01 0.17145830E+03</pdfrwt>
<totfact> 0.25681850E+03</totfact>
</mgrwt>
</event>
<event>
 7    1  0.1020736E-005  0.1466669E+03  0.7546771E-02  0.1214601E+00
          1   -1    0    0  501    0  0.00000000000E+00  0.00000000000E+00  0.75527734617E+03  0.75527734617E+03  0.00000000000E+00 0. -1.
         -1   -1    0    0    0  501 -0.00000000000E+00 -0.00000000000E+00 -0.29009118453E+02  0.29009118453E+02  0.00000000000E+00 0.  1.
         23    2    1    2    0    0  0.76614338032E+02 -0.41082854364E+01  0.15870011025E+03  0.19807425698E+03  0.90338538187E+02 0.  0.
          5    1    1    2  502    0 -0.89453960634E+02  0.43407836542E+01  0.20956871575E+03  0.22795172756E+03  0.47000000000E+01 0. -1.
         -5    1    1    2    0  502  0.12839622603E+02 -0.23249821785E+00  0.35799940171E+03  0.35826048009E+03  0.47000000000E+01 0. -1.
        -11    1    3    3    0    0 -0.16941831660E+02  0.15451322135E+02  0.31934871937E+02  0.39314183972E+02  0.00000000000E+00 0. -1.
         11    1    3    3    0    0  0.93556169691E+02 -0.19559607572E+02  0.12676523831E+03  0.15876007300E+03  0.00000000000E+00 0.  1.
<mgrwt>
<rscale>  0 0.13905920E+03</rscale>
<asrwt>0</asrwt>
<pdfrwt beam="1">  1        1 0.11619650E+00 0.14666692E+03</pdfrwt>
<pdfrwt beam="2">  1       -1 0.44629419E-02 0.14666692E+03</pdfrwt>
<totfact> 0.51161441E+03</totfact>
</mgrwt>
</event>
<event>
 7    1  0.1020736E-005  0.1632347E+03  0.7546771E-02  0.1208119E+00
          1   -1    0    0  501    0  0.00000000000E+00  0.00000000000E+00  0.42782505784E+03  0.42782505784E+03  0.00000000000E+00 0. -1.
         -1   -1    0    0    0  501 -0.00000000000E+00 -0.00000000000E+00 -0.40107839998E+02  0.40107839998E+02  0.00000000000E+00 0.  1.
         23    2    1    2    0    0 -0.27294725669E+02  0.15806568903E+02  0.14177119824E+03  0.17274648625E+03  0.93527676077E+02 0.  0.
          5    1    1    2  502    0  0.67673612847E+02 -0.16838830355E+01  0.24272426669E+03  0.25203117462E+03  0.47000000000E+01 0. -1.
         -5    1    1    2    0  502 -0.40378887178E+02 -0.14122685867E+02  0.32217529075E+01  0.43155236966E+02  0.47000000000E+01 0.  1.
        -11    1    3    3    0    0 -0.21211912186E+02  0.50119821041E+02  0.47487802468E+02  0.72229031996E+02  0.00000000000E+00 0.  1.
         11    1    3    3    0    0 -0.60828134827E+01 -0.34313252138E+02  0.94283395770E+02  0.10051745426E+03  0.00000000000E+00 0. -1.
<mgrwt>
<rscale>  0 0.14394346E+03</rscale>
<asrwt>0</asrwt>
<pdfrwt beam="1">  1        1 0.65819236E-01 0.16323472E+03</pdfrwt>
<pdfrwt beam="2">  1       -1 0.61704372E-02 0.16323472E+03</pdfrwt>
<totfact> 0.68758562E+03</totfact>
</mgrwt>
</event>
<event>
 7    1  0.1020736E-005  0.2410952E+03  0.7546771E-02  0.1121707E+00
         -2   -1    0    0    0  501 -0.00000000000E+00  0.00000000000E+00  0.21212417491E+03  0.21212417491E+03  0.00000000000E+00 0.  1.
          2   -1    0    0  501    0  0.00000000000E+00 -0.00000000000E+00 -0.28031675940E+03  0.28031675940E+03  0.00000000000E+00 0. -1.
         23    2    1    2    0    0 -0.28546802291E+02  0.20416986770E+03 -0.10435647357E+03  0.24864851100E+03  0.91845270174E+02 0.  0.
          5    1    1    2  502    0 -0.63297108777E+01 -0.12750199793E+02  0.46533612348E+02  0.48888648096E+02  0.47000000000E+01 0.  1.
         -5    1    1    2    0  502  0.34876513169E+02 -0.19141966790E+03 -0.10369723281E+02  0.19490377521E+03  0.47000000000E+01 0.  1.
        -11    1    3    3    0    0 -0.30160160304E+01  0.19937697306E+03 -0.88027876101E+02  0.21796600815E+03  0.00000000000E+00 0.  1.
         11    1    3    3    0    0 -0.25530786260E+02  0.47928946367E+01 -0.16328597464E+02  0.30682502851E+02  0.00000000000E+00 0. -1.
<mgrwt>
<rscale>  0 0.23714796E+03</rscale>
<asrwt>0</asrwt>
<pdfrwt beam="2">  1        2 0.43125655E-01 0.24109525E+03</pdfrwt>
<pdfrwt beam="1">  1       -2 0.32634489E-01 0.24109525E+03</pdfrwt>
<totfact> 0.10300372E+03</totfact>
</mgrwt>
</event>
<event>
 7    1  0.1020736E-005  0.1366248E+03  0.7546771E-02  0.1229789E+00
         -2   -1    0    0    0  501 -0.00000000000E+00  0.00000000000E+00  0.17570408910E+03  0.17570408910E+03  0.00000000000E+00 0.  1.
          2   -1    0    0  501    0  0.00000000000E+00 -0.00000000000E+00 -0.12064121258E+03  0.12064121258E+03  0.00000000000E+00 0. -1.
         23    2    1    2    0    0 -0.12754295909E+02 -0.53667696548E+02  0.10611660531E+03  0.15049325283E+03  0.91348735661E+02 0.  0.
          5    1    1    2  502    0 -0.19618174225E+02  0.30918934431E+02  0.35093827744E+02  0.50936431088E+02  0.47000000000E+01 0.  1.
         -5    1    1    2    0  502  0.32372470134E+02  0.22748762117E+02 -0.86147556535E+02  0.94915617773E+02  0.47000000000E+01 0.  1.
        -11    1    3    3    0    0  0.38278340077E+02 -0.36269687373E+02  0.55051208890E+02  0.76232257880E+02  0.00000000000E+00 0.  1.
         11    1    3    3    0    0 -0.51032635986E+02 -0.17398009175E+02  0.51065396419E+02  0.74260994946E+02  0.00000000000E+00 0. -1.
<mgrwt>
<rscale>  0 0.12844010E+03</rscale>
<asrwt>0</asrwt>
<pdfrwt beam="2">  1        2 0.18560187E-01 0.13662480E+03</pdfrwt>
<pdfrwt beam="1">  1       -2 0.27031398E-01 0.13662480E+03</pdfrwt>
<totfact> 0.35943947E+03</totfact>
</mgrwt>
</event>
<event>
 7    1  0.1020736E-005  0.1296759E+03  0.7546771E-02  0.1245301E+00
         -4   -1    0    0    0  501 -0.00000000000E+00  0.00000000000E+00  0.21069635054E+02  0.21069635054E+02  0.00000000000E+00 0.  1.
          4   -1    0    0  501    0  0.00000000000E+00 -0.00000000000E+00 -0.82888870273E+03  0.82888870273E+03  0.00000000000E+00 0. -1.
         23    2    1    2    0    0  0.31058038169E+02 -0.15151669256E+02 -0.12304760013E+03  0.15301659485E+03  0.84137931913E+02 0.  0.
          5    1    1    2  502    0 -0.38588090418E+02  0.12177380069E+02 -0.68625536807E+03  0.68746334413E+03  0.47000000000E+01 0.  1.
         -5    1    1    2    0  502  0.75300522491E+01  0.29742891868E+01  0.14839005308E+01  0.94783988007E+01  0.47000000000E+01 0.  1.
        -11    1    3    3    0    0  0.89635785121E+01  0.32091608753E+02 -0.75148294902E+02  0.82203913038E+02  0.00000000000E+00 0. -1.
         11    1    3    3    0    0  0.22094459657E+02 -0.47243278008E+02 -0.47899305228E+02  0.70812681815E+02  0.00000000000E+00 0.  1.
<mgrwt>
<rscale>  0 0.11867375E+03</rscale>
<asrwt>0</asrwt>
<pdfrwt beam="2">  1        4 0.12752132E+00 0.12967587E+03</pdfrwt>
<pdfrwt beam="1">  1       -4 0.32414829E-02 0.12967587E+03</pdfrwt>
<totfact> 0.37747568E+02</totfact>
</mgrwt>
</event>
<event>
 7    1  0.1020736E-005  0.2360386E+03  0.7546771E-02  0.1158940E+00
          1   -1    0    0  501    0  0.00000000000E+00  0.00000000000E+00  0.77499646540E+02  0.77499646540E+02  0.00000000000E+00 0. -1.
         -1   -1    0    0    0  501 -0.00000000000E+00 -0.00000000000E+00 -0.37540523923E+03  0.37540523923E+03  0.00000000000E+00 0.  1.
         23    2    1    2    0    0  0.10506633708E+01 -0.36185624803E+02 -0.13196896068E+03  0.16437550810E+03  0.91065897808E+02 0.  0.
          5    1    1    2  502    0 -0.56084034172E+01 -0.50207606772E+02  0.40324189597E+02  0.64810402200E+02  0.47000000000E+01 0. -1.
         -5    1    1    2    0  502  0.45577400464E+01  0.86393231575E+02 -0.20626082160E+03  0.22371897547E+03  0.47000000000E+01 0.  1.
        -11    1    3    3    0    0  0.36567081488E+02 -0.10350791759E+01 -0.96206981875E+02  0.10292718882E+03  0.00000000000E+00 0. -1.
         11    1    3    3    0    0 -0.35516418117E+02 -0.35150545627E+02 -0.35761978807E+02  0.61448319276E+02  0.00000000000E+00 0.  1.
<mgrwt>
<rscale>  0 0.18947024E+03</rscale>
<asrwt>0</asrwt>
<pdfrwt beam="1">  1        1 0.11923023E-01 0.23603863E+03</pdfrwt>
<pdfrwt beam="2">  1       -1 0.57754651E-01 0.23603863E+03</pdfrwt>
<totfact> 0.15745494E+03</totfact>
</mgrwt>
</event>
<event>
 7    1  0.1020736E-005  0.1736102E+03  0.7546771E-02  0.1179783E+00
         -2   -1    0    0    0  501 -0.00000000000E+00  0.00000000000E+00  0.18607503504E+02  0.18607503504E+02  0.00000000000E+00 0.  1.
          2   -1    0    0  501    0  0.00000000000E+00 -0.00000000000E+00 -0.17869159338E+04  0.17869159338E+04  0.00000000000E+00 0. -1.
         23    2    1    2    0    0 -0.11440093207E+03  0.37778022223E+02 -0.43705442014E+03  0.46299681355E+03  0.93993249620E+02 0.  0.
          5    1    1    2  502    0  0.97040998895E+02  0.42003434757E+01 -0.11923229513E+04  0.11962820356E+04  0.47000000000E+01 0. -1.
         -5    1    1    2    0  502  0.17359933172E+02 -0.41978365699E+02 -0.13893105877E+03  0.14624458813E+03  0.47000000000E+01 0. -1.
        -11    1    3    3    0    0 -0.86405451845E+02  0.67411937673E+02 -0.35222102164E+03  0.36887656409E+03  0.00000000000E+00 0. -1.
         11    1    3    3    0    0 -0.27995480222E+02 -0.29633915450E+02 -0.84833398506E+02  0.94120249468E+02  0.00000000000E+00 0.  1.
<mgrwt>
<rscale>  0 0.16815743E+03</rscale>
<asrwt>0</asrwt>
<pdfrwt beam="2">  1        2 0.27491012E+00 0.17361018E+03</pdfrwt>
<pdfrwt beam="1">  1       -2 0.28626931E-02 0.17361018E+03</pdfrwt>
<totfact> 0.43496011E+03</totfact>
</mgrwt>
</event>
<event>
 7    1  0.1020736E-005  0.1854475E+03  0.7546771E-02  0.1167773E+00
         -2   -1    0    0    0  501 -0.00000000000E+00  0.00000000000E+00  0.20636717649E+03  0.20636717649E+03  0.00000000000E+00 0.  1.
          2   -1    0    0  501    0  0.00000000000E+00 -0.00000000000E+00 -0.15189562713E+03  0.15189562713E+03  0.00000000000E+00 0. -1.
         23    2    1    2    0    0 -0.10650629320E+03 -0.86153845551E+02  0.52253769400E+02  0.17280202533E+03  0.91454950363E+02 0.  0.
          5    1    1    2  502    0  0.13166327827E+03  0.67949948630E+02  0.19660265553E+02  0.14953605052E+03  0.47000000000E+01 0.  1.
         -5    1    1    2    0  502 -0.25156985072E+02  0.18203896922E+02 -0.17442485594E+02  0.35924727762E+02  0.47000000000E+01 0.  1.
        -11    1    3    3    0    0 -0.32549519861E+00 -0.46074965588E+02  0.35312398440E+02  0.58051476163E+02  0.00000000000E+00 0.  1.
         11    1    3    3    0    0 -0.10618079800E+03 -0.40078879963E+02  0.16941370960E+02  0.11475054916E+03  0.00000000000E+00 0. -1.
<mgrwt>
<rscale>  0 0.18003094E+03</rscale>
<asrwt>0</asrwt>
<pdfrwt beam="2">  1        2 0.23368558E-01 0.18544752E+03</pdfrwt>
<pdfrwt beam="1">  1       -2 0.31748796E-01 0.18544752E+03</pdfrwt>
<totfact> 0.21049673E+03</totfact>
</mgrwt>
</event>
<event>
 7    1  0.1020736E-005  0.1517584E+03  0.7546771E-02  0.1204377E+00
          1   -1    0    0  501    0  0.00000000000E+00  0.00000000000E+00  0.13491487650E+03  0.13491487650E+03  0.00000000000E+00 0. -1.
         -1   -1    0    0    0  501 -0.00000000000E+00 -0.00000000000E+00 -0.28718967734E+03  0.28718967734E+03  0.00000000000E+00 0.  1.
         23    2    1    2    0    0 -0.79327069844E+02  0.62889500572E+02 -0.21903273446E+03  0.25631180644E+03  0.86443797142E+02 0.  0.
          5    1    1    2  502    0  0.14956781842E+02 -0.82487874420E+02  0.42533870087E+02  0.94123189778E+02  0.47000000000E+01 0. -1.
         -5    1    1    2    0  502  0.64370288002E+02  0.19598373848E+02  0.24224063533E+02  0.71669557617E+02  0.47000000000E+01 0.  1.
        -11    1    3    3    0    0 -0.23425676082E+02  0.14331132197E+02 -0.26252123112E+01  0.27586869878E+02  0.00000000000E+00 0. -1.
         11    1    3    3    0    0 -0.55901393762E+02  0.48558368374E+02 -0.21640752215E+03  0.22872493657E+03  0.00000000000E+00 0.  1.
<mgrwt>
<rscale>  0 0.14686684E+03</rscale>
<asrwt>0</asrwt>
<pdfrwt beam="1">  1        1 0.20756135E-01 0.15175840E+03</pdfrwt>
<pdfrwt beam="2">  1       -1 0.44183027E-01 0.15175840E+03</pdfrwt>
<totfact> 0.12395579E+03</totfact>
</mgrwt>
</event>
<event>
 7    1  0.1020736E-005  0.1373630E+03  0.7546771E-02  0.1228753E+00
         -2   -1    0    0    0  501 -0.00000000000E+00  0.00000000000E+00  0.42838028430E+02  0.42838028430E+02  0.00000000000E+00 0.  1.
          2   -1    0    0  501    0  0.00000000000E+00 -0.00000000000E+00 -0.35440445069E+03  0.35440445069E+03  0.00000000000E+00 0. -1.
         23    2    1    2    0    0  0.52367600621E+02 -0.22353105358E+02 -0.11316429512E+03  0.15592938155E+03  0.90916376004E+02 0.  0.
          5    1    1    2  502    0 -0.58612075019E+02 -0.42028385250E+02 -0.97542250971E+02  0.12140157013E+03  0.47000000000E+01 0. -1.
         -5    1    1    2    0  502  0.62444743974E+01  0.64381490609E+02 -0.10085987617E+03  0.11991152744E+03  0.47000000000E+01 0. -1.
        -11    1    3    3    0    0  0.72319007750E+02  0.54119278759E+01 -0.69241609669E+02  0.10026828190E+03  0.00000000000E+00 0.  1.
         11    1    3    3    0    0 -0.19951407129E+02 -0.27765033234E+02 -0.43922685448E+02  0.55661099647E+02  0.00000000000E+00 0. -1.
<mgrwt>
<rscale>  0 0.12912982E+03</rscale>
<asrwt>0</asrwt>
<pdfrwt beam="2">  1        2 0.54523759E-01 0.13736305E+03</pdfrwt>
<pdfrwt beam="1">  1       -2 0.65904662E-02 0.13736305E+03</pdfrwt>
<totfact> 0.11050305E+04</totfact>
</mgrwt>
</event>
<event>
 7    1  0.1020736E-005  0.1383228E+03  0.7546771E-02  0.1222840E+00
         -1   -1    0    0    0  501 -0.00000000000E+00  0.00000000000E+00  0.20861930007E+02  0.20861930007E+02  0.00000000000E+00 0.  1.
          1   -1    0    0  501    0  0.00000000000E+00 -0.00000000000E+00 -0.84427293693E+03  0.84427293693E+03  0.00000000000E+00 0. -1.
         23    2    1    2    0    0 -0.73472810694E+02  0.23604027411E+02 -0.27531026909E+03  0.29984942665E+03  0.90324583453E+02 0.  0.
          5    1    1    2  502    0 -0.12927124946E+01  0.95840780947E+01 -0.35943636589E+03  0.35959715903E+03  0.47000000000E+01 0. -1.
         -5    1    1    2    0  502  0.74765523188E+02 -0.33188105506E+02 -0.18866437193E+03  0.20568828125E+03  0.47000000000E+01 0.  1.
        -11    1    3    3    0    0 -0.59982849315E+02  0.48755817433E+02 -0.12588687005E+03  0.14772466279E+03  0.00000000000E+00 0.  1.
         11    1    3    3    0    0 -0.13489961378E+02 -0.25151790022E+02 -0.14942339904E+03  0.15212476386E+03  0.00000000000E+00 0. -1.
<mgrwt>
<rscale>  0 0.13316082E+03</rscale>
<asrwt>0</asrwt>
<pdfrwt beam="2">  1        1 0.12988814E+00 0.13832285E+03</pdfrwt>
<pdfrwt beam="1">  1       -1 0.32095278E-02 0.13832285E+03</pdfrwt>
<totfact> 0.69964362E+03</totfact>
</mgrwt>
</event>
<event>
 6    1  0.1020736E-005  0.2352481E+03  0.7546771E-02  0.1221905E+00
          1   -1    0    0  501    0  0.00000000000E+00  0.00000000000E+00  0.81537117390E+02  0.81537117390E+02  0.00000000000E+00 0. -1.
         -1   -1    0    0    0  501 -0.00000000000E+00 -0.00000000000E+00 -0.21105675862E+03  0.21105675862E+03  0.00000000000E+00 0.  1.
          5    1    1    2  502    0 -0.26021438400E+01  0.36864873032E+02 -0.17727676217E+03  0.18114891781E+03  0.47000000000E+01 0.  1.
         -5    1    1    2    0  502 -0.55192613274E+01 -0.20447432458E+02  0.73013947855E+02  0.76168801495E+02  0.47000000000E+01 0. -1.
        -11    1    1    2    0    0  0.90406502792E+01 -0.48489090238E+01 -0.39099968509E+01  0.10978768217E+02  0.00000000000E+00 0. -1.
         11    1    1    2    0    0 -0.91924511172E+00 -0.11568531551E+02 -0.21346830058E+02  0.24297388488E+02  0.00000000000E+00 0.  1.
<mgrwt>
<rscale>  0 0.13381305E+03</rscale>
<asrwt>0</asrwt>
<pdfrwt beam="1">  1        1 0.12544172E-01 0.23524811E+03</pdfrwt>
<pdfrwt beam="2">  1       -1 0.32470270E-01 0.23524811E+03</pdfrwt>
<totfact> 0.41602409E+03</totfact>
</mgrwt>
</event>
<event>
 7    1  0.1020736E-005  0.1865591E+03  0.7546771E-02  0.1166180E+00
         -2   -1    0    0    0  501 -0.00000000000E+00  0.00000000000E+00  0.21474824457E+02  0.21474824457E+02  0.00000000000E+00 0.  1.
          2   -1    0    0  501    0  0.00000000000E+00 -0.00000000000E+00 -0.17447502445E+04  0.17447502445E+04  0.00000000000E+00 0. -1.
         23    2    1    2    0    0 -0.13490329411E+03 -0.31292262330E+02 -0.46837649627E+03  0.49753456459E+03  0.94794494881E+02 0.  0.
          5    1    1    2  502    0  0.31654734254E+02  0.63846726200E+02 -0.67381770641E+03  0.67759192596E+03  0.47000000000E+01 0.  1.
         -5    1    1    2    0  502  0.10324855985E+03 -0.32554463870E+02 -0.58108121741E+03  0.59109857846E+03  0.47000000000E+01 0.  1.
        -11    1    3    3    0    0 -0.62374029266E+02 -0.62753957938E+02 -0.23288497404E+03  0.24912645363E+03  0.00000000000E+00 0. -1.
         11    1    3    3    0    0 -0.72529264842E+02  0.31461695608E+02 -0.23549152222E+03  0.24840811095E+03  0.00000000000E+00 0.  1.
<mgrwt>
<rscale>  0 0.18168717E+03</rscale>
<asrwt>0</asrwt>
<pdfrwt beam="2">  1        2 0.26842311E+00 0.18655907E+03</pdfrwt>
<pdfrwt beam="1">  1       -2 0.33038192E-02 0.18655907E+03</pdfrwt>
<totfact> 0.37011022E+03</totfact>
</mgrwt>
</event>
<event>
 7    1  0.1020736E-005  0.4297973E+03  0.7546771E-02  0.1033924E+00
         -2   -1    0    0    0  501 -0.00000000000E+00  0.00000000000E+00  0.92398564653E+02  0.92398564653E+02  0.00000000000E+00 0.  1.
          2   -1    0    0  501    0  0.00000000000E+00 -0.00000000000E+00 -0.49980674202E+03  0.49980674202E+03  0.00000000000E+00 0. -1.
         23    2    1    2    0    0 -0.53643543058E+02  0.99776618099E+02 -0.71436039821E+02  0.16198192906E+03  0.91115499923E+02 0.  0.
          5    1    1    2  502    0  0.98654186889E+02 -0.75209430049E+02 -0.35441402530E+03  0.37552696080E+03  0.47000000000E+01 0. -1.
         -5    1    1    2    0  502 -0.45010643831E+02 -0.24567188051E+02  0.18441887762E+02  0.54696416803E+02  0.47000000000E+01 0.  1.
        -11    1    3    3    0    0 -0.55648154308E+02  0.11130523618E+03 -0.43721333136E+02  0.13189817152E+03  0.00000000000E+00 0.  1.
         11    1    3    3    0    0  0.20046112494E+01 -0.11528618083E+02 -0.27714706685E+02  0.30083757541E+02  0.00000000000E+00 0. -1.
<mgrwt>
<rscale>  0 0.42979728E+03</rscale>
<asrwt>0</asrwt>
<pdfrwt beam="2">  1        2 0.76893346E-01 0.42979728E+03</pdfrwt>
<pdfrwt beam="1">  1       -2 0.14215164E-01 0.42979728E+03</pdfrwt>
<totfact> 0.23455929E+03</totfact>
</mgrwt>
</event>
<event>
 7    1  0.1020736E-005  0.1886074E+03  0.7546771E-02  0.1164793E+00
         -2   -1    0    0    0  501 -0.00000000000E+00  0.00000000000E+00  0.20171127872E+03  0.20171127872E+03  0.00000000000E+00 0.  1.
          2   -1    0    0  501    0  0.00000000000E+00 -0.00000000000E+00 -0.18642931073E+03  0.18642931073E+03  0.00000000000E+00 0. -1.
         23    2    1    2    0    0 -0.47453128414E+02  0.13302372567E+03  0.83809728828E+02  0.18746967220E+03  0.90408497171E+02 0.  0.
          5    1    1    2  502    0 -0.39980215781E+02 -0.29735705918E+02 -0.27242458918E+01  0.50121266704E+02  0.47000000000E+01 0. -1.
         -5    1    1    2    0  502  0.87433344195E+02 -0.10328801975E+03 -0.65803514943E+02  0.15054965055E+03  0.47000000000E+01 0. -1.
        -11    1    3    3    0    0  0.11548901365E+02 -0.23920326637E+01  0.26543768481E+02  0.29046008128E+02  0.00000000000E+00 0.  1.
         11    1    3    3    0    0 -0.59002029779E+02  0.13541575833E+03  0.57265960347E+02  0.15842366407E+03  0.00000000000E+00 0. -1.
<mgrwt>
<rscale>  0 0.18314606E+03</rscale>
<asrwt>0</asrwt>
<pdfrwt beam="2">  1        2 0.28681433E-01 0.18860743E+03</pdfrwt>
<pdfrwt beam="1">  1       -2 0.31032504E-01 0.18860743E+03</pdfrwt>
<totfact> 0.17493910E+03</totfact>
</mgrwt>
</event>
<event>
 6    1  0.1020736E-005  0.3830880E+03  0.7546771E-02  0.1049798E+00
          1   -1    0    0  501    0  0.00000000000E+00  0.00000000000E+00  0.77092372544E+03  0.77092372544E+03  0.00000000000E+00 0. -1.
         -1   -1    0    0    0  501 -0.00000000000E+00 -0.00000000000E+00 -0.47591086010E+02  0.47591086010E+02  0.00000000000E+00 0.  1.
          5    1    1    2  502    0 -0.34279810429E+02 -0.76409201610E+02  0.20461313207E+03  0.22113818148E+03  0.47000000000E+01 0. -1.
         -5    1    1    2    0  502  0.60944214864E+02  0.46632070448E+01  0.20128297248E+03  0.21041118752E+03  0.47000000000E+01 0. -1.
        -11    1    1    2    0    0  0.27918415803E+02 -0.43791754235E+02  0.84737331647E+01  0.52620906811E+02  0.00000000000E+00 0. -1.
         11    1    1    2    0    0 -0.54582820237E+02  0.11553774880E+03  0.30896280172E+03  0.33434453564E+03  0.00000000000E+00 0.  1.
<mgrwt>
<rscale>  0 0.38308797E+03</rscale>
<asrwt>0</asrwt>
<pdfrwt beam="1">  1        1 0.11860364E+00 0.38308797E+03</pdfrwt>
<pdfrwt beam="2">  1       -1 0.73217061E-02 0.38308797E+03</pdfrwt>
<totfact> 0.24134935E+03</totfact>
</mgrwt>
</event>
<event>
 7    1  0.1020736E-005  0.3107450E+03  0.7546771E-02  0.1079989E+00
          2   -1    0    0  501    0  0.00000000000E+00  0.00000000000E+00  0.17988723037E+03  0.17988723037E+03  0.00000000000E+00 0. -1.
         -2   -1    0    0    0  501 -0.00000000000E+00 -0.00000000000E+00 -0.13419858713E+03  0.13419858713E+03  0.00000000000E+00 0.  1.
         23    2    1    2    0    0 -0.53169868405E+01  0.25391263948E+02 -0.87393236104E+01  0.95040414544E+02  0.91012735293E+02 0.  0.
          5    1    1    2  502    0  0.91043229654E+01 -0.79836619147E+02  0.11307289548E+03  0.13879605235E+03  0.47000000000E+01 0. -1.
         -5    1    1    2    0  502 -0.37873361249E+01  0.54445355199E+02 -0.58644928640E+02  0.80249350607E+02  0.47000000000E+01 0.  1.
        -11    1    3    3    0    0 -0.35102097497E+02 -0.70051096839E+01 -0.29497675559E+02  0.46382557862E+02  0.00000000000E+00 0.  1.
         11    1    3    3    0    0  0.29785110657E+02  0.32396373632E+02  0.20758351949E+02  0.48657856683E+02  0.00000000000E+00 0. -1.
<mgrwt>
<rscale>  0 0.31074499E+03</rscale>
<asrwt>0</asrwt>
<pdfrwt beam="1">  1        2 0.27674959E-01 0.31074499E+03</pdfrwt>
<pdfrwt beam="2">  1       -2 0.20645936E-01 0.31074499E+03</pdfrwt>
<totfact> 0.38151974E+03</totfact>
</mgrwt>
</event>
<event>
 7    1  0.1020736E-005  0.1950088E+03  0.7546771E-02  0.1158609E+00
          3   -1    0    0  501    0  0.00000000000E+00  0.00000000000E+00  0.39163388046E+03  0.39163388046E+03  0.00000000000E+00 0. -1.
         -3   -1    0    0    0  501 -0.00000000000E+00 -0.00000000000E+00 -0.61052163135E+03  0.61052163135E+03  0.00000000000E+00 0.  1.
         23    2    1    2    0    0  0.14934029626E+03  0.10143764415E+02 -0.57230825815E+03  0.59850407122E+03  0.90911830235E+02 0.  0.
          5    1    1    2  502    0 -0.14383750949E+03 -0.51230860036E+02  0.28926336395E+03  0.32712262820E+03  0.47000000000E+01 0.  1.
         -5    1    1    2    0  502 -0.55027867681E+01  0.41087095620E+02  0.64157143307E+02  0.76528812391E+02  0.47000000000E+01 0.  1.
        -11    1    3    3    0    0  0.60747753722E+02  0.22906214078E+02 -0.39046710309E+03  0.39582766809E+03  0.00000000000E+00 0.  1.
         11    1    3    3    0    0  0.88592542534E+02 -0.12762449662E+02 -0.18184115506E+03  0.20267640313E+03  0.00000000000E+00 0. -1.
<mgrwt>
<rscale>  0 0.18983686E+03</rscale>
<asrwt>0</asrwt>
<pdfrwt beam="1">  1        3 0.60251366E-01 0.19500880E+03</pdfrwt>
<pdfrwt beam="2">  1       -3 0.93926405E-01 0.19500880E+03</pdfrwt>
<totfact> 0.69569156E+00</totfact>
</mgrwt>
</event>
<event>
 7    1  0.1020736E-005  0.1875089E+03  0.7546771E-02  0.1165791E+00
          1   -1    0    0  501    0  0.00000000000E+00  0.00000000000E+00  0.27978166457E+03  0.27978166457E+03  0.00000000000E+00 0. -1.
         -1   -1    0    0    0  501 -0.00000000000E+00 -0.00000000000E+00 -0.13410271035E+03  0.13410271035E+03  0.00000000000E+00 0.  1.
         23    2    1    2    0    0  0.13226213538E+03  0.45207583385E+02 -0.14326803280E+02  0.16738603635E+03  0.90971587994E+02 0.  0.
          5    1    1    2  502    0 -0.13477962359E+03 -0.60629442482E+02  0.17157288116E+03  0.22649684276E+03  0.47000000000E+01 0. -1.
         -5    1    1    2    0  502  0.25174882032E+01  0.15421859097E+02 -0.11567123659E+02  0.20001495809E+02  0.47000000000E+01 0. -1.
        -11    1    3    3    0    0  0.77774206154E+02  0.91274297621E+01 -0.50023071028E+02  0.92921713028E+02  0.00000000000E+00 0.  1.
         11    1    3    3    0    0  0.54487929231E+02  0.36080153623E+02  0.35696267748E+02  0.74464323326E+02  0.00000000000E+00 0. -1.
<mgrwt>
<rscale>  0 0.18209460E+03</rscale>
<asrwt>0</asrwt>
<pdfrwt beam="1">  1        1 0.43043333E-01 0.18750890E+03</pdfrwt>
<pdfrwt beam="2">  1       -1 0.20631186E-01 0.18750890E+03</pdfrwt>
<totfact> 0.18147325E+03</totfact>
</mgrwt>
</event>
<event>
 7    1  0.1020736E-005  0.1275573E+03  0.7546771E-02  0.1244817E+00
          1   -1    0    0  501    0  0.00000000000E+00  0.00000000000E+00  0.17488102651E+03  0.17488102651E+03  0.00000000000E+00 0. -1.
         -1   -1    0    0    0  501 -0.00000000000E+00 -0.00000000000E+00 -0.72714786652E+02  0.72714786652E+02  0.00000000000E+00 0.  1.
         23    2    1    2    0    0 -0.13355446110E+02 -0.21614817120E+02  0.30099371149E+02  0.10108816505E+03  0.93098210030E+02 0.  0.
          5    1    1    2  502    0  0.11233317272E+02  0.95832970627E+01  0.10756369415E+03  0.10867412433E+03  0.47000000000E+01 0. -1.
         -5    1    1    2    0  502  0.21221288378E+01  0.12031520057E+02 -0.35496825436E+02  0.37833523782E+02  0.47000000000E+01 0. -1.
        -11    1    3    3    0    0  0.37046509324E+02  0.81884194472E+01  0.11189462151E+02  0.39556265362E+02  0.00000000000E+00 0. -1.
         11    1    3    3    0    0 -0.50401955435E+02 -0.29803236567E+02  0.18909908998E+02  0.61531899693E+02  0.00000000000E+00 0.  1.
<mgrwt>
<rscale>  0 0.11896363E+03</rscale>
<asrwt>0</asrwt>
<pdfrwt beam="1">  1        1 0.26904773E-01 0.12755727E+03</pdfrwt>
<pdfrwt beam="2">  1       -1 0.11186890E-01 0.12755727E+03</pdfrwt>
<totfact> 0.83781333E+03</totfact>
</mgrwt>
</event>
<event>
 7    1  0.1020736E-005  0.1510734E+03  0.7546771E-02  0.1208632E+00
         -2   -1    0    0    0  501 -0.00000000000E+00  0.00000000000E+00  0.19251206650E+02  0.19251206650E+02  0.00000000000E+00 0.  1.
          2   -1    0    0  501    0  0.00000000000E+00 -0.00000000000E+00 -0.11969445764E+04  0.11969445764E+04  0.00000000000E+00 0. -1.
         23    2    1    2    0    0 -0.64816432635E+02 -0.54891260481E+02 -0.28009748424E+03  0.30597517450E+03  0.89173910507E+02 0.  0.
          5    1    1    2  502    0  0.33934307031E+02  0.73438455755E+02 -0.82570435376E+03  0.82967132878E+03  0.47000000000E+01 0.  1.
         -5    1    1    2    0  502  0.30882125604E+02 -0.18547195274E+02 -0.71891531720E+02  0.80549279745E+02  0.47000000000E+01 0.  1.
        -11    1    3    3    0    0 -0.32481964646E+02 -0.18191960934E+02 -0.21915319388E+02  0.43200771911E+02  0.00000000000E+00 0.  1.
         11    1    3    3    0    0 -0.32334467990E+02 -0.36699299548E+02 -0.25818216485E+03  0.26277440259E+03  0.00000000000E+00 0. -1.
<mgrwt>
<rscale>  0 0.14354917E+03</rscale>
<asrwt>0</asrwt>
<pdfrwt beam="2">  1        2 0.18414538E+00 0.15107343E+03</pdfrwt>
<pdfrwt beam="1">  1       -2 0.29617231E-02 0.15107343E+03</pdfrwt>
<totfact> 0.84564512E+03</totfact>
</mgrwt>
</event>
<event>
 7    1  0.1020736E-005  0.1306581E+03  0.7546771E-02  0.1240177E+00
         -1   -1    0    0    0  501 -0.00000000000E+00  0.00000000000E+00  0.15753075697E+02  0.15753075697E+02  0.00000000000E+00 0.  1.
          1   -1    0    0  501    0  0.00000000000E+00 -0.00000000000E+00 -0.98225043521E+03  0.98225043521E+03  0.00000000000E+00 0. -1.
         23    2    1    2    0    0  0.24094614323E+02  0.29422889941E+02 -0.23387367579E+03  0.25382007252E+03  0.91002615871E+02 0.  0.
          5    1    1    2  502    0 -0.42948937635E+02  0.87907119132E+01 -0.64628541846E+03  0.64778763494E+03  0.47000000000E+01 0. -1.
         -5    1    1    2    0  502  0.18854323312E+02 -0.38213601854E+02 -0.86338265265E+02  0.96395803453E+02  0.47000000000E+01 0. -1.
        -11    1    3    3    0    0 -0.29004835924E+02  0.45163249816E+01 -0.14065590319E+03  0.14368632782E+03  0.00000000000E+00 0. -1.
         11    1    3    3    0    0  0.53099450247E+02  0.24906564959E+02 -0.93217772590E+02  0.11013374470E+03  0.00000000000E+00 0.  1.
<mgrwt>
<rscale>  0 0.12178775E+03</rscale>
<asrwt>0</asrwt>
<pdfrwt beam="2">  1        1 0.15111553E+00 0.13065806E+03</pdfrwt>
<pdfrwt beam="1">  1       -1 0.24235489E-02 0.13065806E+03</pdfrwt>
<totfact> 0.82316134E+03</totfact>
</mgrwt>
</event>
<event>
 7    1  0.1020736E-005  0.1575616E+03  0.7546771E-02  0.1199054E+00
         -2   -1    0    0    0  501 -0.00000000000E+00  0.00000000000E+00  0.43331600062E+02  0.43331600062E+02  0.00000000000E+00 0.  1.
          2   -1    0    0  501    0  0.00000000000E+00 -0.00000000000E+00 -0.49801495122E+03  0.49801495122E+03  0.00000000000E+00 0. -1.
         23    2    1    2    0    0 -0.95296291127E+02  0.10892486058E+02 -0.17197071973E+03  0.21769225338E+03  0.92822192297E+02 0.  0.
          5    1    1    2  502    0  0.68774519738E+02 -0.40947163658E+02 -0.26952190471E+03  0.28119522025E+03  0.47000000000E+01 0. -1.
         -5    1    1    2    0  502  0.26521771389E+02  0.30054677600E+02 -0.13190726725E+02  0.42459077649E+02  0.47000000000E+01 0. -1.
        -11    1    3    3    0    0 -0.90004583255E+01  0.37586012963E+02 -0.27981504967E+02  0.47714581008E+02  0.00000000000E+00 0.  1.
         11    1    3    3    0    0 -0.86295832802E+02 -0.26693526906E+02 -0.14398921476E+03  0.16997767237E+03  0.00000000000E+00 0. -1.
<mgrwt>
<rscale>  0 0.15116078E+03</rscale>
<asrwt>0</asrwt>
<pdfrwt beam="2">  1        2 0.76617681E-01 0.15756165E+03</pdfrwt>
<pdfrwt beam="1">  1       -2 0.66664003E-02 0.15756165E+03</pdfrwt>
<totfact> 0.75922124E+03</totfact>
</mgrwt>
</event>
<event>
 7    1  0.1020736E-005  0.1647336E+03  0.7546771E-02  0.1191285E+00
         -2   -1    0    0    0  501 -0.00000000000E+00  0.00000000000E+00  0.46902710758E+02  0.46902710758E+02  0.00000000000E+00 0.  1.
          2   -1    0    0  501    0  0.00000000000E+00 -0.00000000000E+00 -0.50311752565E+03  0.50311752565E+03  0.00000000000E+00 0. -1.
         23    2    1    2    0    0 -0.27957661117E+02  0.10359047842E+03 -0.16453065299E+03  0.21503245068E+03  0.87498577333E+02 0.  0.
          5    1    1    2  502    0 -0.12068897815E+02  0.25615426237E+02 -0.63448595734E+02  0.69639232164E+02  0.47000000000E+01 0. -1.
         -5    1    1    2    0  502  0.40026558933E+02 -0.12920590466E+03 -0.22823556617E+03  0.26534855357E+03  0.47000000000E+01 0. -1.
        -11    1    3    3    0    0 -0.31965590120E+01  0.10015028344E+03 -0.84134400781E+02  0.13083919389E+03  0.00000000000E+00 0.  1.
         11    1    3    3    0    0 -0.24761102106E+02  0.34401949803E+01 -0.80396252212E+02  0.84193256789E+02  0.00000000000E+00 0. -1.
<mgrwt>
<rscale>  0 0.15772863E+03</rscale>
<asrwt>0</asrwt>
<pdfrwt beam="2">  1        2 0.77402695E-01 0.16473362E+03</pdfrwt>
<pdfrwt beam="1">  1       -2 0.72158017E-02 0.16473362E+03</pdfrwt>
<totfact> 0.66638356E+03</totfact>
</mgrwt>
</event>
<event>
 7    1  0.1020736E-005  0.3471070E+03  0.7546771E-02  0.1104296E+00
          2   -1    0    0  501    0  0.00000000000E+00  0.00000000000E+00  0.16438097533E+04  0.16438097533E+04  0.00000000000E+00 0. -1.
         -2   -1    0    0    0  501 -0.00000000000E+00 -0.00000000000E+00 -0.82076712086E+02  0.82076712086E+02  0.00000000000E+00 0.  1.
         23    2    1    2    0    0  0.59243376804E+02  0.29007755332E+02 -0.83872894558E+01  0.11785626863E+03  0.97306350598E+02 0.  0.
          5    1    1    2  502    0  0.10942876850E+02  0.34246792316E+02  0.14694079404E+04  0.14698552223E+04  0.47000000000E+01 0. -1.
         -5    1    1    2    0  502 -0.70186253654E+02 -0.63254547648E+02  0.10071239027E+03  0.13817497442E+03  0.47000000000E+01 0.  1.
        -11    1    3    3    0    0  0.15654456359E+02 -0.30104275572E+02  0.19686034626E+02  0.39228425547E+02  0.00000000000E+00 0. -1.
         11    1    3    3    0    0  0.43588920445E+02  0.59112030903E+02 -0.28073324082E+02  0.78627843084E+02  0.00000000000E+00 0.  1.
<mgrwt>
<rscale>  0 0.26479517E+03</rscale>
<asrwt>0</asrwt>
<pdfrwt beam="1">  1        2 0.25289378E+00 0.34710699E+03</pdfrwt>
<pdfrwt beam="2">  1       -2 0.12627188E-01 0.34710699E+03</pdfrwt>
<totfact> 0.51702458E+02</totfact>
</mgrwt>
</event>
<event>
 7    1  0.1020736E-005  0.1324458E+03  0.7546771E-02  0.1234489E+00
         -1   -1    0    0    0  501 -0.00000000000E+00  0.00000000000E+00  0.48319036810E+02  0.48319036810E+02  0.00000000000E+00 0.  1.
          1   -1    0    0  501    0  0.00000000000E+00 -0.00000000000E+00 -0.55884170332E+03  0.55884170332E+03  0.00000000000E+00 0. -1.
         23    2    1    2    0    0  0.38999596903E+02  0.19898432014E+02 -0.32595774416E+02  0.11122123401E+03  0.96905945270E+02 0.  0.
          5    1    1    2  502    0 -0.30398233777E+02 -0.72475340940E+02 -0.27008779414E+03  0.28132940515E+03  0.47000000000E+01 0.  1.
         -5    1    1    2    0  502 -0.86013631256E+01  0.52576908927E+02 -0.20783909796E+03  0.21461010097E+03  0.47000000000E+01 0.  1.
        -11    1    3    3    0    0  0.20907114402E+02  0.40155518750E+02 -0.58308402316E+02  0.73820342043E+02  0.00000000000E+00 0. -1.
         11    1    3    3    0    0  0.18092482500E+02 -0.20257086737E+02  0.25712627899E+02  0.37400891962E+02  0.00000000000E+00 0.  1.
<mgrwt>
<rscale>  0 0.12537191E+03</rscale>
<asrwt>0</asrwt>
<pdfrwt beam="2">  1        1 0.85975648E-01 0.13244576E+03</pdfrwt>
<pdfrwt beam="1">  1       -1 0.74336979E-02 0.13244576E+03</pdfrwt>
<totfact> 0.36317877E+03</totfact>
</mgrwt>
</event>
<event>
 7    1  0.1020736E-005  0.2233278E+03  0.7546771E-02  0.1131426E+00
         -2   -1    0    0    0  501 -0.00000000000E+00  0.00000000000E+00  0.19256003271E+03  0.19256003271E+03  0.00000000000E+00 0.  1.
          2   -1    0    0  501    0  0.00000000000E+00 -0.00000000000E+00 -0.64752938712E+02  0.64752938712E+02  0.00000000000E+00 0. -1.
         23    2    1    2    0    0  0.14177920601E+02  0.10631997680E+02  0.62496019135E+02  0.11517148253E+03  0.95103444596E+02 0.  0.
          5    1    1    2  502    0 -0.61310924946E+02  0.75870391479E+01  0.33472920386E+01  0.62047458004E+02  0.47000000000E+01 0. -1.
         -5    1    1    2    0  502  0.47133004345E+02 -0.18219036827E+02  0.61963782824E+02  0.80094030884E+02  0.47000000000E+01 0. -1.
        -11    1    3    3    0    0 -0.31567293515E+02  0.20377990915E+02  0.56731486295E+02  0.68045705749E+02  0.00000000000E+00 0.  1.
         11    1    3    3    0    0  0.45745214116E+02 -0.97459932352E+01  0.57645328392E+01  0.47125776784E+02  0.00000000000E+00 0. -1.
<mgrwt>
<rscale>  0 0.22332781E+03</rscale>
<asrwt>0</asrwt>
<pdfrwt beam="2">  1        2 0.99619907E-02 0.22332781E+03</pdfrwt>
<pdfrwt beam="1">  1       -2 0.29624620E-01 0.22332781E+03</pdfrwt>
<totfact> 0.66024461E+03</totfact>
</mgrwt>
</event>
<event>
 7    1  0.1020736E-005  0.1419594E+03  0.7546771E-02  0.1219106E+00
          1   -1    0    0  501    0  0.00000000000E+00  0.00000000000E+00  0.10167140059E+03  0.10167140059E+03  0.00000000000E+00 0. -1.
         -1   -1    0    0    0  501 -0.00000000000E+00 -0.00000000000E+00 -0.21218973146E+03  0.21218973146E+03  0.00000000000E+00 0.  1.
         23    2    1    2    0    0 -0.61393684835E+02 -0.27529800148E+02 -0.12338934499E+03  0.17131943573E+03  0.97971139464E+02 0.  0.
          5    1    1    2  502    0  0.27199953197E+02  0.75079246101E+02 -0.75265643646E+01  0.80345938417E+02  0.47000000000E+01 0. -1.
         -5    1    1    2    0  502  0.34193731639E+02 -0.47549445953E+02  0.20397578483E+02  0.62195757909E+02  0.47000000000E+01 0. -1.
        -11    1    3    3    0    0 -0.73577583324E+02  0.88645441083E+00 -0.11925065149E+03  0.14012553104E+03  0.00000000000E+00 0.  1.
         11    1    3    3    0    0  0.12183898489E+02 -0.28416254559E+02 -0.41386934950E+01  0.31193904683E+02  0.00000000000E+00 0. -1.
<mgrwt>
<rscale>  0 0.13579172E+03</rscale>
<asrwt>0</asrwt>
<pdfrwt beam="1">  1        1 0.15641754E-01 0.14195940E+03</pdfrwt>
<pdfrwt beam="2">  1       -1 0.32644574E-01 0.14195940E+03</pdfrwt>
<totfact> 0.30113762E+03</totfact>
</mgrwt>
</event>
<event>
 7    1  0.1020736E-005  0.1810757E+03  0.7546771E-02  0.1172769E+00
         -2   -1    0    0    0  501 -0.00000000000E+00  0.00000000000E+00  0.35225728567E+03  0.35225728567E+03  0.00000000000E+00 0.  1.
          2   -1    0    0  501    0  0.00000000000E+00 -0.00000000000E+00 -0.99674119168E+02  0.99674119168E+02  0.00000000000E+00 0. -1.
         23    2    1    2    0    0 -0.38440886968E+02  0.12524949761E+03  0.21546731437E+03  0.26709090461E+03  0.88012779301E+02 0.  0.
          5    1    1    2  502    0 -0.17562288394E+02 -0.12135602178E+03  0.12442550430E+02  0.12333947079E+03  0.47000000000E+01 0.  1.
         -5    1    1    2    0  502  0.56003175363E+02 -0.38934758371E+01  0.24673301706E+02  0.61501029437E+02  0.47000000000E+01 0.  1.
        -11    1    3    3    0    0 -0.10008004299E+01  0.11983838968E+03  0.15849243288E+03  0.19870101289E+03  0.00000000000E+00 0.  1.
         11    1    3    3    0    0 -0.37440086538E+02  0.54111079350E+01  0.56974881491E+02  0.68389891724E+02  0.00000000000E+00 0. -1.
<mgrwt>
<rscale>  0 0.17496249E+03</rscale>
<asrwt>0</asrwt>
<pdfrwt beam="2">  1        2 0.15334480E-01 0.18107574E+03</pdfrwt>
<pdfrwt beam="1">  1       -2 0.54193428E-01 0.18107574E+03</pdfrwt>
<totfact> 0.12226174E+03</totfact>
</mgrwt>
</event>
<event>
 7    1  0.1020736E-005  0.2253415E+03  0.7546771E-02  0.1129962E+00
          1   -1    0    0  501    0  0.00000000000E+00  0.00000000000E+00  0.30217377311E+03  0.30217377311E+03  0.00000000000E+00 0. -1.
         -1   -1    0    0    0  501 -0.00000000000E+00 -0.00000000000E+00 -0.42011238846E+02  0.42011238846E+02  0.00000000000E+00 0.  1.
         23    2    1    2    0    0 -0.10275963702E+02 -0.13395391232E+01  0.10087780206E+03  0.14144333860E+03  0.98602724571E+02 0.  0.
          5    1    1    2  502    0 -0.56777725185E+02 -0.26478119790E+01  0.60050804085E+02  0.82818536915E+02  0.47000000000E+01 0.  1.
         -5    1    1    2    0  502  0.67053688888E+02  0.39873511022E+01  0.99233928124E+02  0.11992313644E+03  0.47000000000E+01 0.  1.
        -11    1    3    3    0    0  0.27332203379E+02 -0.79709371224E+01 -0.49843726730E+01  0.28903791293E+02  0.00000000000E+00 0.  1.
         11    1    3    3    0    0 -0.37608167081E+02  0.66313979992E+01  0.10586217473E+03  0.11253954731E+03  0.00000000000E+00 0. -1.
<mgrwt>
<rscale>  0 0.22534147E+03</rscale>
<asrwt>0</asrwt>
<pdfrwt beam="1">  1        1 0.46488271E-01 0.22534147E+03</pdfrwt>
<pdfrwt beam="2">  1       -1 0.64632677E-02 0.22534147E+03</pdfrwt>
<totfact> 0.10151542E+04</totfact>
</mgrwt>
</event>
<event>
 6    1  0.1020736E-005  0.2702756E+03  0.7546771E-02  0.1173655E+00
          2   -1    0    0  501    0  0.00000000000E+00  0.00000000000E+00  0.18722022036E+04  0.18722022036E+04  0.00000000000E+00 0. -1.
         -2   -1    0    0    0  501 -0.00000000000E+00 -0.00000000000E+00 -0.13730864634E+02  0.13730864634E+02  0.00000000000E+00 0.  1.
          5    1    1    2  502    0  0.14172057017E+03  0.34240256154E+02  0.10927830048E+04  0.11024762586E+04  0.47000000000E+01 0. -1.
         -5    1    1    2    0  502 -0.11856394817E+03 -0.63455641793E+00  0.58172219132E+03  0.59370077509E+03  0.47000000000E+01 0.  1.
        -11    1    1    2    0    0 -0.10884661028E+02 -0.29912078604E+01  0.25391308180E+02  0.27787437832E+02  0.00000000000E+00 0. -1.
         11    1    1    2    0    0 -0.12271960973E+02 -0.30614491875E+02  0.15857483469E+03  0.16196859675E+03  0.00000000000E+00 0.  1.
<mgrwt>
<rscale>  0 0.17408345E+03</rscale>
<asrwt>0</asrwt>
<pdfrwt beam="1">  1        2 0.28803091E+00 0.27027556E+03</pdfrwt>
<pdfrwt beam="2">  1       -2 0.21124422E-02 0.27027556E+03</pdfrwt>
<totfact> 0.61802893E+03</totfact>
</mgrwt>
</event>
<event>
 7    1  0.1047829E-005  0.1267461E+03  0.7546771E-02  0.1250174E+00
         -2   -1    0    0    0  501 -0.00000000000E+00  0.00000000000E+00  0.17384635525E+02  0.17384635525E+02  0.00000000000E+00 0.  1.
          2   -1    0    0  501    0  0.00000000000E+00 -0.00000000000E+00 -0.72735878709E+03  0.72735878709E+03  0.00000000000E+00 0. -1.
         23    2    1    2    0    0 -0.10635423853E+02  0.18078588947E+02 -0.18984887047E+03  0.20939785608E+03  0.85819117277E+02 0.  0.
          5    1    1    2  502    0  0.37960623490E+02 -0.54363165305E+02 -0.17476484197E+03  0.18697915035E+03  0.47000000000E+01 0.  1.
         -5    1    1    2    0  502 -0.27325199636E+02  0.36284576358E+02 -0.34536043912E+03  0.34836641619E+03  0.47000000000E+01 0.  1.
        -11    1    3    3    0    0  0.88322149964E+01  0.48671858661E+02 -0.83684833520E+02  0.97211672183E+02  0.00000000000E+00 0. -1.
         11    1    3    3    0    0 -0.19467638850E+02 -0.30593269715E+02 -0.10616403695E+03  0.11218618389E+03  0.00000000000E+00 0.  1.
<mgrwt>
<rscale>  0 0.11581014E+03</rscale>
<asrwt>0</asrwt>
<pdfrwt beam="2">  1        2 0.11190137E+00 0.12674608E+03</pdfrwt>
<pdfrwt beam="1">  1       -2 0.26745588E-02 0.12674608E+03</pdfrwt>
<totfact> 0.18953156E+04</totfact>
</mgrwt>
</event>
<event>
 7    1  0.1020736E-005  0.1446836E+03  0.7546771E-02  0.1218714E+00
         -4   -1    0    0    0  501 -0.00000000000E+00  0.00000000000E+00  0.21913974659E+02  0.21913974659E+02  0.00000000000E+00 0.  1.
          4   -1    0    0  501    0  0.00000000000E+00 -0.00000000000E+00 -0.81005617552E+03  0.81005617552E+03  0.00000000000E+00 0. -1.
         23    2    1    2    0    0 -0.71826212920E+02  0.12341226364E+02 -0.24493916883E+03  0.26982881801E+03  0.86608797874E+02 0.  0.
          5    1    1    2  502    0  0.86917089682E+02  0.33187731690E+02 -0.29704933762E+03  0.31131399743E+03  0.47000000000E+01 0.  1.
         -5    1    1    2    0  502 -0.15090876762E+02 -0.45528958055E+02 -0.24615369441E+03  0.25082733474E+03  0.47000000000E+01 0.  1.
        -11    1    3    3    0    0 -0.21513589600E+02 -0.24985340070E+02 -0.25669808825E+02  0.41785653531E+02  0.00000000000E+00 0.  1.
         11    1    3    3    0    0 -0.50312623320E+02  0.37326566435E+02 -0.21926936001E+03  0.22804316448E+03  0.00000000000E+00 0. -1.
<mgrwt>
<rscale>  0 0.13607184E+03</rscale>
<asrwt>0</asrwt>
<pdfrwt beam="2">  1        4 0.12462405E+00 0.14468360E+03</pdfrwt>
<pdfrwt beam="1">  1       -4 0.33713802E-02 0.14468360E+03</pdfrwt>
<totfact> 0.38283264E+02</totfact>
</mgrwt>
</event>
<event>
 7    1  0.1020736E-005  0.1256771E+03  0.7546771E-02  0.1250328E+00
          1   -1    0    0  501    0  0.00000000000E+00  0.00000000000E+00  0.46555973861E+02  0.46555973861E+02  0.00000000000E+00 0. -1.
         -1   -1    0    0    0  501 -0.00000000000E+00 -0.00000000000E+00 -0.27378643116E+03  0.27378643116E+03  0.00000000000E+00 0.  1.
         23    2    1    2    0    0  0.12155842963E+02 -0.43328458990E+01 -0.14266708687E+03  0.16886406697E+03  0.89412736035E+02 0.  0.
          5    1    1    2  502    0  0.43234480783E+01 -0.51166124501E+02 -0.34039971491E+01  0.51675349020E+02  0.47000000000E+01 0. -1.
         -5    1    1    2    0  502 -0.16479291042E+02  0.55498970400E+02 -0.81159373280E+02  0.99802989033E+02  0.47000000000E+01 0. -1.
        -11    1    3    3    0    0 -0.67660879923E+01  0.40180801029E+02 -0.79200593093E+02  0.89067450083E+02  0.00000000000E+00 0.  1.
         11    1    3    3    0    0  0.18921930956E+02 -0.44513646928E+02 -0.63466493777E+02  0.79796616884E+02  0.00000000000E+00 0. -1.
<mgrwt>
<rscale>  0 0.11572071E+03</rscale>
<asrwt>0</asrwt>
<pdfrwt beam="1">  1        1 0.71624576E-02 0.12567706E+03</pdfrwt>
<pdfrwt beam="2">  1       -1 0.42120989E-01 0.12567706E+03</pdfrwt>
<totfact> 0.53925458E+03</totfact>
</mgrwt>
</event>
<event>
 7    1  0.1516116E-005  0.3210700E+03  0.7546771E-02  0.1076437E+00
         -2   -1    0    0    0  501 -0.00000000000E+00  0.00000000000E+00  0.29925200120E+02  0.29925200120E+02  0.00000000000E+00 0.  1.
          2   -1    0    0  501    0  0.00000000000E+00 -0.00000000000E+00 -0.38952198851E+04  0.38952198851E+04  0.00000000000E+00 0. -1.
         23    2    1    2    0    0 -0.26695334378E+03  0.12726632685E+03 -0.11552670921E+04  0.11961644092E+04  0.93308273710E+02 0.  0.
          5    1    1    2  502    0  0.17907533564E+03 -0.10718991249E+03 -0.13589144546E+04  0.13748557154E+04  0.47000000000E+01 0.  1.
         -5    1    1    2    0  502  0.87878008138E+02 -0.20076414356E+02 -0.13511131383E+04  0.13541249607E+04  0.47000000000E+01 0.  1.
        -11    1    3    3    0    0 -0.22212915043E+03  0.12816474572E+03 -0.10641414312E+04  0.10946070287E+04  0.00000000000E+00 0. -1.
         11    1    3    3    0    0 -0.44824193350E+02 -0.89841887037E+00 -0.91125660861E+02  0.10155738050E+03  0.00000000000E+00 0.  1.
<mgrwt>
<rscale>  0 0.31829384E+03</rscale>
<asrwt>0</asrwt>
<pdfrwt beam="2">  1        2 0.59926474E+00 0.32107005E+03</pdfrwt>
<pdfrwt beam="1">  1       -2 0.46038758E-02 0.32107005E+03</pdfrwt>
<totfact> 0.11700879E+02</totfact>
</mgrwt>
</event>
<event>
 7    1  0.1020736E-005  0.1365911E+03  0.7546771E-02  0.1234085E+00
          1   -1    0    0  501    0  0.00000000000E+00  0.00000000000E+00  0.51847248942E+03  0.51847248942E+03  0.00000000000E+00 0. -1.
         -1   -1    0    0    0  501 -0.00000000000E+00 -0.00000000000E+00 -0.26481077374E+02  0.26481077374E+02  0.00000000000E+00 0.  1.
         23    2    1    2    0    0 -0.66290016896E+01 -0.36401303891E+02  0.20372949636E+03  0.22596756180E+03  0.90480012754E+02 0.  0.
          5    1    1    2  502    0  0.30414257948E+02 -0.15316622596E+02  0.24482631774E+03  0.24722791483E+03  0.47000000000E+01 0. -1.
         -5    1    1    2    0  502 -0.23785256258E+02  0.51717926487E+02  0.43435597944E+02  0.71758090165E+02  0.47000000000E+01 0.  1.
        -11    1    3    3    0    0 -0.47642482404E+02 -0.29381229586E+02  0.11023421470E+03  0.12363108376E+03  0.00000000000E+00 0.  1.
         11    1    3    3    0    0  0.41013480714E+02 -0.70200743046E+01  0.93495281662E+02  0.10233647804E+03  0.00000000000E+00 0. -1.
<mgrwt>
<rscale>  0 0.12563172E+03</rscale>
<asrwt>0</asrwt>
<pdfrwt beam="1">  1        1 0.79764991E-01 0.13659114E+03</pdfrwt>
<pdfrwt beam="2">  1       -1 0.40740123E-02 0.13659114E+03</pdfrwt>
<totfact> 0.98123074E+03</totfact>
</mgrwt>
</event>
<event>
 7    1  0.1020736E-005  0.1546845E+03  0.7546771E-02  0.1203190E+00
          2   -1    0    0  501    0  0.00000000000E+00  0.00000000000E+00  0.13145934810E+03  0.13145934810E+03  0.00000000000E+00 0. -1.
         -2   -1    0    0    0  501 -0.00000000000E+00 -0.00000000000E+00 -0.15740487834E+03  0.15740487834E+03  0.00000000000E+00 0.  1.
         23    2    1    2    0    0  0.17278415314E+02  0.89450546984E+02 -0.35871831827E+02  0.13386159045E+03  0.91280847324E+02 0.  0.
          5    1    1    2  502    0  0.10951701427E+02 -0.32388275812E+02 -0.54370066314E+02  0.64398247532E+02  0.47000000000E+01 0.  1.
         -5    1    1    2    0  502 -0.28230116741E+02 -0.57062271172E+02  0.64296367898E+02  0.90604388456E+02  0.47000000000E+01 0.  1.
        -11    1    3    3    0    0  0.13148352774E+02 -0.30200047593E+00  0.22964401909E+02  0.26463827010E+02  0.00000000000E+00 0. -1.
         11    1    3    3    0    0  0.41300625394E+01  0.89752547460E+02 -0.58836233736E+02  0.10739776344E+03  0.00000000000E+00 0.  1.
<mgrwt>
<rscale>  0 0.14780991E+03</rscale>
<asrwt>0</asrwt>
<pdfrwt beam="1">  1        2 0.20224515E-01 0.15468447E+03</pdfrwt>
<pdfrwt beam="2">  1       -2 0.24216135E-01 0.15468447E+03</pdfrwt>
<totfact> 0.39819914E+03</totfact>
</mgrwt>
</event>
<event>
 7    1  0.1020736E-005  0.1325818E+03  0.7546771E-02  0.1236790E+00
         -2   -1    0    0    0  501 -0.00000000000E+00  0.00000000000E+00  0.60638255883E+02  0.60638255883E+02  0.00000000000E+00 0.  1.
          2   -1    0    0  501    0  0.00000000000E+00 -0.00000000000E+00 -0.69289476838E+03  0.69289476838E+03  0.00000000000E+00 0. -1.
         23    2    1    2    0    0 -0.41547745694E+02  0.15100090742E+02  0.63234780583E+01  0.10133495166E+03  0.90964598286E+02 0.  0.
          5    1    1    2  502    0  0.10508030812E+02  0.54712642546E+02 -0.28361003968E+03  0.28906856725E+03  0.47000000000E+01 0. -1.
         -5    1    1    2    0  502  0.31039714882E+02 -0.69812733288E+02 -0.35496995088E+03  0.36312950535E+03  0.47000000000E+01 0. -1.
        -11    1    3    3    0    0  0.20796805543E+02  0.33306429502E+01  0.27328194456E+02  0.34502616067E+02  0.00000000000E+00 0.  1.
         11    1    3    3    0    0 -0.62344551237E+02  0.11769447791E+02 -0.21004716398E+02  0.66832335596E+02  0.00000000000E+00 0. -1.
<mgrwt>
<rscale>  0 0.12390557E+03</rscale>
<asrwt>0</asrwt>
<pdfrwt beam="2">  1        2 0.10659920E+00 0.13258175E+03</pdfrwt>
<pdfrwt beam="1">  1       -2 0.93289624E-02 0.13258175E+03</pdfrwt>
<totfact> 0.30770225E+03</totfact>
</mgrwt>
</event>
<event>
 7    1  0.1020736E-005  0.1464056E+03  0.7546771E-02  0.1214448E+00
         -2   -1    0    0    0  501 -0.00000000000E+00  0.00000000000E+00  0.13024303896E+03  0.13024303896E+03  0.00000000000E+00 0. -1.
          2   -1    0    0  501    0  0.00000000000E+00 -0.00000000000E+00 -0.13668613200E+03  0.13668613200E+03  0.00000000000E+00 0.  1.
         23    2    1    2    0    0  0.72487221369E+02 -0.23551581016E+02  0.80033115226E+01  0.11981259786E+03  0.92097401592E+02 0.  0.
          5    1    1    2  502    0  0.12179241485E+02  0.22008327059E+02 -0.49203719564E+02  0.55459862982E+02  0.47000000000E+01 0. -1.
         -5    1    1    2    0  502 -0.84666462854E+02  0.15432539576E+01  0.34757315002E+02  0.91656710126E+02  0.47000000000E+01 0. -1.
        -11    1    3    3    0    0 -0.21123089014E+01 -0.41589619883E+02 -0.50944071710E+01  0.41953680593E+02  0.00000000000E+00 0.  1.
         11    1    3    3    0    0  0.74599530271E+02  0.18038038866E+02  0.13097718694E+02  0.77858917265E+02  0.00000000000E+00 0. -1.
<mgrwt>
<rscale>  0 0.13917173E+03</rscale>
<asrwt>0</asrwt>
<pdfrwt beam="2">  1        2 0.21028636E-01 0.14640556E+03</pdfrwt>
<pdfrwt beam="1">  1       -2 0.20037391E-01 0.14640556E+03</pdfrwt>
<totfact> 0.52592084E+03</totfact>
</mgrwt>
</event>
<event>
 7    1  0.1020736E-005  0.1996453E+03  0.7546771E-02  0.1154025E+00
          2   -1    0    0  501    0  0.00000000000E+00  0.00000000000E+00  0.65189738645E+03  0.65189738645E+03  0.00000000000E+00 0. -1.
         -2   -1    0    0    0  501 -0.00000000000E+00 -0.00000000000E+00 -0.65762166984E+02  0.65762166984E+02  0.00000000000E+00 0.  1.
         23    2    1    2    0    0 -0.15737795888E+03 -0.36018399223E+00  0.14166542719E+03  0.23041048780E+03  0.90840233122E+02 0.  0.
          5    1    1    2  502    0  0.17770022240E+03  0.64460782075E+01  0.39897266544E+03  0.43682971365E+03  0.47000000000E+01 0. -1.
         -5    1    1    2    0  502 -0.20322263523E+02 -0.60858942153E+01  0.45497126842E+02  0.50419351979E+02  0.47000000000E+01 0.  1.
        -11    1    3    3    0    0 -0.12546560772E+03 -0.20570006058E+02  0.60322900099E+02  0.14072525057E+03  0.00000000000E+00 0.  1.
         11    1    3    3    0    0 -0.31912351158E+02  0.20209822066E+02  0.81342527088E+02  0.89685237232E+02  0.00000000000E+00 0. -1.
<mgrwt>
<rscale>  0 0.19500302E+03</rscale>
<asrwt>0</asrwt>
<pdfrwt beam="1">  1        2 0.10029190E+00 0.19964532E+03</pdfrwt>
<pdfrwt beam="2">  1       -2 0.10117257E-01 0.19964532E+03</pdfrwt>
<totfact> 0.29471760E+03</totfact>
</mgrwt>
</event>
<event>
 7    1  0.1020736E-005  0.1748584E+03  0.7546771E-02  0.1179341E+00
         -2   -1    0    0    0  501 -0.00000000000E+00  0.00000000000E+00  0.18108251221E+02  0.18108251221E+02  0.00000000000E+00 0.  1.
          2   -1    0    0  501    0  0.00000000000E+00 -0.00000000000E+00 -0.15172508069E+04  0.15172508069E+04  0.00000000000E+00 0. -1.
         23    2    1    2    0    0 -0.11260272180E+03  0.47615966304E+02 -0.83680487130E+03  0.85032864384E+03  0.88711649140E+02 0.  0.
          5    1    1    2  502    0  0.12863684781E+03 -0.58162951367E+02 -0.63911891770E+03  0.65454216708E+03  0.47000000000E+01 0.  1.
         -5    1    1    2    0  502 -0.16034126014E+02  0.10546985063E+02 -0.23218766652E+02  0.30488247175E+02  0.47000000000E+01 0.  1.
        -11    1    3    3    0    0 -0.11943420996E+03  0.20196453512E+02 -0.72244541871E+03  0.73252973337E+03  0.00000000000E+00 0.  1.
         11    1    3    3    0    0  0.68314881628E+01  0.27419512792E+02 -0.11435945259E+03  0.11779891047E+03  0.00000000000E+00 0. -1.
<mgrwt>
<rscale>  0 0.16857602E+03</rscale>
<asrwt>0</asrwt>
<pdfrwt beam="2">  1        2 0.23342327E+00 0.17485840E+03</pdfrwt>
<pdfrwt beam="1">  1       -2 0.27858840E-02 0.17485840E+03</pdfrwt>
<totfact> 0.62534101E+03</totfact>
</mgrwt>
</event>
<event>
 7    1  0.1020736E-005  0.1492159E+03  0.7546771E-02  0.1211243E+00
          2   -1    0    0  501    0  0.00000000000E+00  0.00000000000E+00  0.47360503945E+03  0.47360503945E+03  0.00000000000E+00 0.  1.
         -2   -1    0    0    0  501 -0.00000000000E+00 -0.00000000000E+00 -0.40815821875E+02  0.40815821875E+02  0.00000000000E+00 0. -1.
         23    2    1    2    0    0 -0.59721852800E+02 -0.55446843075E+02  0.13412308205E+03  0.18055437255E+03  0.89273894261E+02 0.  0.
          5    1    1    2  502    0  0.41185538574E+02  0.82861010025E+02  0.11745931216E+03  0.14960272585E+03  0.47000000000E+01 0.  1.
         -5    1    1    2    0  502  0.18536314226E+02 -0.27414166950E+02  0.18120682336E+03  0.18426376293E+03  0.47000000000E+01 0.  1.
        -11    1    3    3    0    0  0.32221911249E+01  0.21009879161E+02  0.17319499947E+02  0.27418289816E+02  0.00000000000E+00 0. -1.
         11    1    3    3    0    0 -0.62944043924E+02 -0.76456722236E+02  0.11680358211E+03  0.15313608273E+03  0.00000000000E+00 0.  1.
<mgrwt>
<rscale>  0 0.14156170E+03</rscale>
<asrwt>0</asrwt>
<pdfrwt beam="1">  1        2 0.72862310E-01 0.14921586E+03</pdfrwt>
<pdfrwt beam="2">  1       -2 0.62793576E-02 0.14921586E+03</pdfrwt>
<totfact> 0.87610402E+03</totfact>
</mgrwt>
</event>
<event>
 7    1  0.1020736E-005  0.1302281E+03  0.7546771E-02  0.1240750E+00
         -1   -1    0    0    0  501 -0.00000000000E+00  0.00000000000E+00  0.17345029297E+02  0.17345029297E+02  0.00000000000E+00 0.  1.
          1   -1    0    0  501    0  0.00000000000E+00 -0.00000000000E+00 -0.75478519289E+03  0.75478519289E+03  0.00000000000E+00 0. -1.
         23    2    1    2    0    0  0.14123927866E+02 -0.33690730674E+02 -0.33154628545E+03  0.34585658806E+03  0.91429149817E+02 0.  0.
          5    1    1    2  502    0 -0.52385620007E+02  0.54796562770E+02 -0.32949230710E+03  0.33813338627E+03  0.47000000000E+01 0. -1.
         -5    1    1    2    0  502  0.38261692141E+02 -0.21105832096E+02 -0.76401571046E+02  0.88140247857E+02  0.47000000000E+01 0. -1.
        -11    1    3    3    0    0 -0.46697284239E+01 -0.63233289713E+02 -0.20895529166E+03  0.21836338797E+03  0.00000000000E+00 0.  1.
         11    1    3    3    0    0  0.18793656290E+02  0.29542559039E+02 -0.12259099379E+03  0.12749320009E+03  0.00000000000E+00 0. -1.
<mgrwt>
<rscale>  0 0.12143409E+03</rscale>
<asrwt>0</asrwt>
<pdfrwt beam="2">  1        1 0.11612082E+00 0.13022815E+03</pdfrwt>
<pdfrwt beam="1">  1       -1 0.26684657E-02 0.13022815E+03</pdfrwt>
<totfact> 0.10795123E+04</totfact>
</mgrwt>
</event>
<event>
 7    1  0.1020736E-005  0.1443155E+03  0.7546771E-02  0.1217838E+00
          2   -1    0    0  501    0  0.00000000000E+00  0.00000000000E+00  0.12159686291E+03  0.12159686291E+03  0.00000000000E+00 0. -1.
         -2   -1    0    0    0  501 -0.00000000000E+00 -0.00000000000E+00 -0.15354042562E+03  0.15354042562E+03  0.00000000000E+00 0.  1.
         23    2    1    2    0    0 -0.57174006290E+02 -0.43962548238E+02 -0.55754471702E+02  0.12887071654E+03  0.91090766949E+02 0.  0.
          5    1    1    2  502    0  0.12548526245E+02  0.72329793628E+02  0.48096136177E+02  0.87888525260E+02  0.47000000000E+01 0.  1.
         -5    1    1    2    0  502  0.44625480045E+02 -0.28367245390E+02 -0.24285227189E+02  0.58378046729E+02  0.47000000000E+01 0.  1.
        -11    1    3    3    0    0 -0.73653262452E+02 -0.15546310555E+02 -0.15397306882E+02  0.76834679025E+02  0.00000000000E+00 0. -1.
         11    1    3    3    0    0  0.16479256162E+02 -0.28416237683E+02 -0.40357164820E+02  0.52036037513E+02  0.00000000000E+00 0.  1.
<mgrwt>
<rscale>  0 0.13670133E+03</rscale>
<asrwt>0</asrwt>
<pdfrwt beam="1">  1        2 0.18707210E-01 0.14431546E+03</pdfrwt>
<pdfrwt beam="2">  1       -2 0.23621604E-01 0.14431546E+03</pdfrwt>
<totfact> 0.45249060E+03</totfact>
</mgrwt>
</event>
<event>
 7    1  0.1020736E-005  0.1393893E+03  0.7546771E-02  0.1226537E+00
          2   -1    0    0  501    0  0.00000000000E+00  0.00000000000E+00  0.34309015980E+02  0.34309015980E+02  0.00000000000E+00 0. -1.
         -2   -1    0    0    0  501 -0.00000000000E+00 -0.00000000000E+00 -0.51941295775E+03  0.51941295775E+03  0.00000000000E+00 0.  1.
         23    2    1    2    0    0  0.14363449579E+02 -0.59982859018E+02 -0.32041060867E+03  0.33795989053E+03  0.88032252047E+02 0.  0.
          5    1    1    2  502    0 -0.69495324028E+02  0.33102056270E+02 -0.80380285596E+02  0.11139311695E+03  0.47000000000E+01 0.  1.
         -5    1    1    2    0  502  0.55131874449E+02  0.26880802748E+02 -0.84313047510E+02  0.10436896625E+03  0.47000000000E+01 0.  1.
        -11    1    3    3    0    0  0.56705101694E+01 -0.80441673654E+02 -0.20238809302E+03  0.21786224488E+03  0.00000000000E+00 0. -1.
         11    1    3    3    0    0  0.86929394095E+01  0.20458814637E+02 -0.11802251565E+03  0.12009764565E+03  0.00000000000E+00 0.  1.
<mgrwt>
<rscale>  0 0.13062110E+03</rscale>
<asrwt>0</asrwt>
<pdfrwt beam="1">  1        2 0.52783105E-02 0.13938932E+03</pdfrwt>
<pdfrwt beam="2">  1       -2 0.79909681E-01 0.13938932E+03</pdfrwt>
<totfact> 0.20118895E+03</totfact>
</mgrwt>
</event>
<event>
 7    1  0.1020736E-005  0.2407787E+03  0.7546771E-02  0.1121889E+00
         -2   -1    0    0    0  501 -0.00000000000E+00  0.00000000000E+00  0.38964251429E+02  0.38964251429E+02  0.00000000000E+00 0.  1.
          2   -1    0    0  501    0  0.00000000000E+00 -0.00000000000E+00 -0.14793041057E+04  0.14793041057E+04  0.00000000000E+00 0. -1.
         23    2    1    2    0    0 -0.14771118716E+03  0.14328717066E+03 -0.51721372193E+03  0.56425774586E+03  0.92341548212E+02 0.  0.
          5    1    1    2  502    0  0.54716134451E+02 -0.21109243850E+02 -0.50760587646E+03  0.51100417939E+03  0.47000000000E+01 0.  1.
         -5    1    1    2    0  502  0.92995052710E+02 -0.12217792681E+03 -0.41552025586E+03  0.44300643185E+03  0.47000000000E+01 0.  1.
        -11    1    3    3    0    0 -0.69341736325E+02  0.11983048237E+03 -0.38091103449E+03  0.40529105233E+03  0.00000000000E+00 0. -1.
         11    1    3    3    0    0 -0.78369450836E+02  0.23456688288E+02 -0.13630268744E+03  0.15896669353E+03  0.00000000000E+00 0.  1.
<mgrwt>
<rscale>  0 0.23688006E+03</rscale>
<asrwt>0</asrwt>
<pdfrwt beam="2">  1        2 0.22758528E+00 0.24077872E+03</pdfrwt>
<pdfrwt beam="1">  1       -2 0.59944993E-02 0.24077872E+03</pdfrwt>
<totfact> 0.20762526E+03</totfact>
</mgrwt>
</event>
<event>
 7    1  0.1020736E-005  0.1587329E+03  0.7546771E-02  0.1197636E+00
          1   -1    0    0  501    0  0.00000000000E+00  0.00000000000E+00  0.84498715860E+02  0.84498715860E+02  0.00000000000E+00 0. -1.
         -1   -1    0    0    0  501 -0.00000000000E+00 -0.00000000000E+00 -0.35406932426E+03  0.35406932426E+03  0.00000000000E+00 0.  1.
         23    2    1    2    0    0 -0.47525570141E+02 -0.85496989618E+02 -0.24274598518E+03  0.27758447223E+03  0.92515462758E+02 0.  0.
          5    1    1    2  502    0  0.39779726925E+02  0.82969873487E+02  0.34918366987E+02  0.98528213897E+02  0.47000000000E+01 0.  1.
         -5    1    1    2    0  502  0.77458432161E+01  0.25271161307E+01 -0.61742990204E+02  0.62455353993E+02  0.47000000000E+01 0.  1.
        -11    1    3    3    0    0 -0.12596846758E+02 -0.35302799937E+02 -0.19874361845E+03  0.20224735871E+03  0.00000000000E+00 0.  1.
         11    1    3    3    0    0 -0.34928723383E+02 -0.50194189681E+02 -0.44002366733E+02  0.75337113516E+02  0.00000000000E+00 0. -1.
<mgrwt>
<rscale>  0 0.15233252E+03</rscale>
<asrwt>0</asrwt>
<pdfrwt beam="1">  1        1 0.12999803E-01 0.15873295E+03</pdfrwt>
<pdfrwt beam="2">  1       -1 0.54472203E-01 0.15873295E+03</pdfrwt>
<totfact> 0.15503483E+03</totfact>
</mgrwt>
</event>
<event>
 7    1  0.1020736E-005  0.1533262E+03  0.7546771E-02  0.1204772E+00
          2   -1    0    0  501    0  0.00000000000E+00  0.00000000000E+00  0.21596551474E+03  0.21596551474E+03  0.00000000000E+00 0. -1.
         -2   -1    0    0    0  501 -0.00000000000E+00 -0.00000000000E+00 -0.92660746270E+02  0.92660746270E+02  0.00000000000E+00 0.  1.
         23    2    1    2    0    0  0.31541555725E+02  0.83001660785E+02  0.72568447763E+02  0.14712360785E+03  0.92168492143E+02 0.  0.
          5    1    1    2  502    0  0.14770555901E+02 -0.76422127618E+02 -0.16261600866E+02  0.79655762968E+02  0.47000000000E+01 0.  1.
         -5    1    1    2    0  502 -0.46312111626E+02 -0.65795331668E+01  0.66997921577E+02  0.81846890201E+02  0.47000000000E+01 0.  1.
        -11    1    3    3    0    0  0.14983869312E+02  0.22617221055E+02  0.79619048931E+02  0.84114493284E+02  0.00000000000E+00 0. -1.
         11    1    3    3    0    0  0.16557686412E+02  0.60384439730E+02 -0.70506011681E+01  0.63009114561E+02  0.00000000000E+00 0.  1.
<mgrwt>
<rscale>  0 0.14655440E+03</rscale>
<asrwt>0</asrwt>
<pdfrwt beam="1">  1        2 0.33225464E-01 0.15332623E+03</pdfrwt>
<pdfrwt beam="2">  1       -2 0.14255499E-01 0.15332623E+03</pdfrwt>
<totfact> 0.56116944E+03</totfact>
</mgrwt>
</event>
<event>
 7    1  0.1020736E-005  0.1398376E+03  0.7546771E-02  0.1224752E+00
          3   -1    0    0  501    0  0.00000000000E+00  0.00000000000E+00  0.28381296214E+03  0.28381296214E+03  0.00000000000E+00 0. -1.
         -3   -1    0    0    0  501 -0.00000000000E+00 -0.00000000000E+00 -0.55384936067E+02  0.55384936067E+02  0.00000000000E+00 0.  1.
         23    2    1    2    0    0 -0.46550915654E+02 -0.41949083500E+02  0.91026069921E+02  0.14315236721E+03  0.90995282719E+02 0.  0.
          5    1    1    2  502    0  0.39593102840E+02  0.77231609193E+02  0.13386367910E+03  0.15960548184E+03  0.47000000000E+01 0. -1.
         -5    1    1    2    0  502  0.69578128147E+01 -0.35282525692E+02  0.35382770527E+01  0.36440049162E+02  0.47000000000E+01 0. -1.
        -11    1    3    3    0    0 -0.38563938970E+02 -0.49193639277E+01 -0.56822603067E+01  0.39289510210E+02  0.00000000000E+00 0.  1.
         11    1    3    3    0    0 -0.79869766840E+01 -0.37029719573E+02  0.96708330228E+02  0.10386285700E+03  0.00000000000E+00 0. -1.
<mgrwt>
<rscale>  0 0.13183886E+03</rscale>
<asrwt>0</asrwt>
<pdfrwt beam="1">  1        3 0.43663532E-01 0.13983759E+03</pdfrwt>
<pdfrwt beam="2">  1       -3 0.85207596E-02 0.13983759E+03</pdfrwt>
<totfact> 0.11650737E+03</totfact>
</mgrwt>
</event>
<event>
 7    1  0.1020736E-005  0.1365360E+03  0.7546771E-02  0.1229731E+00
         -1   -1    0    0    0  501 -0.00000000000E+00  0.00000000000E+00  0.30607352886E+03  0.30607352886E+03  0.00000000000E+00 0.  1.
          1   -1    0    0  501    0  0.00000000000E+00 -0.00000000000E+00 -0.51831677857E+02  0.51831677857E+02  0.00000000000E+00 0. -1.
         23    2    1    2    0    0 -0.46957604728E+02  0.28509991320E+02  0.15803689386E+03  0.19087980668E+03  0.91878204879E+02 0.  0.
          5    1    1    2  502    0  0.56254457243E+02 -0.27261996660E+01  0.11856252466E+03  0.13134366516E+03  0.47000000000E+01 0.  1.
         -5    1    1    2    0  502 -0.92968525156E+01 -0.25783791654E+02 -0.22357567512E+02  0.35681734877E+02  0.47000000000E+01 0.  1.
        -11    1    3    3    0    0 -0.39163260265E+02 -0.13090171846E+02  0.13801303439E+03  0.14405801337E+03  0.00000000000E+00 0.  1.
         11    1    3    3    0    0 -0.77943444622E+01  0.41600163167E+02  0.20023859465E+02  0.46821793312E+02  0.00000000000E+00 0. -1.
<mgrwt>
<rscale>  0 0.12847863E+03</rscale>
<asrwt>0</asrwt>
<pdfrwt beam="2">  1        1 0.79741045E-02 0.13653604E+03</pdfrwt>
<pdfrwt beam="1">  1       -1 0.47088234E-01 0.13653604E+03</pdfrwt>
<totfact> 0.38472811E+03</totfact>
</mgrwt>
</event>
<event>
 7    1  0.1257244E-005  0.2257935E+03  0.7546771E-02  0.1132861E+00
          1   -1    0    0  501    0  0.00000000000E+00  0.00000000000E+00  0.72248277834E+03  0.72248277834E+03  0.00000000000E+00 0. -1.
         -1   -1    0    0    0  501 -0.00000000000E+00 -0.00000000000E+00 -0.67574111623E+02  0.67574111623E+02  0.00000000000E+00 0.  1.
         23    2    1    2    0    0  0.13360267704E+03  0.13231589188E+03  0.24262912433E+03  0.31999614057E+03  0.90396169433E+02 0.  0.
          5    1    1    2  502    0 -0.15538412787E+03 -0.11816095227E+03  0.32778233581E+03  0.38153582729E+03  0.47000000000E+01 0. -1.
         -5    1    1    2    0  502  0.21781450828E+02 -0.14154939604E+02  0.84497206575E+02  0.88524922109E+02  0.47000000000E+01 0. -1.
        -11    1    3    3    0    0  0.13824264363E+03  0.10410586566E+03  0.17287927478E+03  0.24461460184E+03  0.00000000000E+00 0.  1.
         11    1    3    3    0    0 -0.46399665904E+01  0.28210026211E+02  0.69749849546E+02  0.75381538725E+02  0.00000000000E+00 0. -1.
<mgrwt>
<rscale>  0 0.22137593E+03</rscale>
<asrwt>0</asrwt>
<pdfrwt beam="1">  1        1 0.11115119E+00 0.22579346E+03</pdfrwt>
<pdfrwt beam="2">  1       -1 0.10396018E-01 0.22579346E+03</pdfrwt>
<totfact> 0.15409176E+03</totfact>
</mgrwt>
</event>
<event>
 7    1  0.1020736E-005  0.3294640E+03  0.7546771E-02  0.1072680E+00
          2   -1    0    0  501    0  0.00000000000E+00  0.00000000000E+00  0.24968265493E+04  0.24968265493E+04  0.00000000000E+00 0. -1.
         -2   -1    0    0    0  501 -0.00000000000E+00 -0.00000000000E+00 -0.51813230206E+02  0.51813230206E+02  0.00000000000E+00 0.  1.
         23    2    1    2    0    0  0.29224055614E+03 -0.86695624105E+02  0.64926425635E+03  0.72291766621E+03  0.90250782011E+02 0.  0.
          5    1    1    2  502    0 -0.44788085559E+02  0.42365279219E+02  0.17534783036E+03  0.18592939817E+03  0.47000000000E+01 0. -1.
         -5    1    1    2    0  502 -0.24745247058E+03  0.44330344886E+02  0.16204012324E+04  0.16397927151E+04  0.47000000000E+01 0. -1.
        -11    1    3    3    0    0  0.87420363581E+02 -0.69904640676E+02  0.21047453452E+03  0.23838730763E+03  0.00000000000E+00 0.  1.
         11    1    3    3    0    0  0.20482019256E+03 -0.16790983429E+02  0.43878972183E+03  0.48453035859E+03  0.00000000000E+00 0. -1.
<mgrwt>
<rscale>  0 0.32653637E+03</rscale>
<asrwt>0</asrwt>
<pdfrwt beam="1">  1        2 0.38412707E+00 0.32946402E+03</pdfrwt>
<pdfrwt beam="2">  1       -2 0.79712681E-02 0.32946402E+03</pdfrwt>
<totfact> 0.37863632E+02</totfact>
</mgrwt>
</event>
<event>
 7    1  0.1020736E-005  0.1271714E+03  0.7546771E-02  0.1246253E+00
          2   -1    0    0  501    0  0.00000000000E+00  0.00000000000E+00  0.11662890176E+04  0.11662890176E+04  0.00000000000E+00 0. -1.
         -2   -1    0    0    0  501 -0.00000000000E+00 -0.00000000000E+00 -0.13127525125E+02  0.13127525125E+02  0.00000000000E+00 0.  1.
         23    2    1    2    0    0  0.15393239070E+02  0.17628149193E+02  0.24923226689E+03  0.26658544513E+03  0.91669914603E+02 0.  0.
          5    1    1    2  502    0 -0.15210616641E+02  0.41009479204E+02  0.14256970990E+03  0.14920238746E+03  0.47000000000E+01 0.  1.
         -5    1    1    2    0  502 -0.18262242920E+00 -0.58637628397E+02  0.76135951566E+03  0.76362871011E+03  0.47000000000E+01 0.  1.
        -11    1    3    3    0    0  0.78471935929E+01  0.47976721300E+02  0.73702024820E+02  0.88291181307E+02  0.00000000000E+00 0.  1.
         11    1    3    3    0    0  0.75460454770E+01 -0.30348572108E+02  0.17553024207E+03  0.17829426382E+03  0.00000000000E+00 0. -1.
<mgrwt>
<rscale>  0 0.11810724E+03</rscale>
<asrwt>0</asrwt>
<pdfrwt beam="1">  1        2 0.17942900E+00 0.12717141E+03</pdfrwt>
<pdfrwt beam="2">  1       -2 0.20196202E-02 0.12717141E+03</pdfrwt>
<totfact> 0.15248004E+04</totfact>
</mgrwt>
</event>
<event>
 7    1  0.1020736E-005  0.1374353E+03  0.7546771E-02  0.1233227E+00
          1   -1    0    0  501    0  0.00000000000E+00  0.00000000000E+00  0.46789239237E+03  0.46789239237E+03  0.00000000000E+00 0. -1.
         -1   -1    0    0    0  501 -0.00000000000E+00 -0.00000000000E+00 -0.30352410339E+02  0.30352410339E+02  0.00000000000E+00 0.  1.
         23    2    1    2    0    0  0.20256798249E+02  0.19256813063E-01  0.14241461998E+03  0.17268767240E+03  0.95544596751E+02 0.  0.
          5    1    1    2  502    0 -0.42281576844E+02  0.27843562277E+02  0.32156766917E+02  0.60159316480E+02  0.47000000000E+01 0. -1.
         -5    1    1    2    0  502  0.22024778595E+02 -0.27862819090E+02  0.26296859513E+03  0.26539781383E+03  0.47000000000E+01 0.  1.
        -11    1    3    3    0    0  0.15490406455E+02 -0.44333318713E+02  0.42791629304E+02  0.63533608261E+02  0.00000000000E+00 0.  1.
         11    1    3    3    0    0  0.47663917938E+01  0.44352575526E+02  0.99622990677E+02  0.10915406414E+03  0.00000000000E+00 0. -1.
<mgrwt>
<rscale>  0 0.12618631E+03</rscale>
<asrwt>0</asrwt>
<pdfrwt beam="1">  1        1 0.71983440E-01 0.13743531E+03</pdfrwt>
<pdfrwt beam="2">  1       -1 0.46696019E-02 0.13743531E+03</pdfrwt>
<totfact> 0.91764912E+03</totfact>
</mgrwt>
</event>
<event>
 7    1  0.1020736E-005  0.1761197E+03  0.7546771E-02  0.1177465E+00
         -2   -1    0    0    0  501 -0.00000000000E+00  0.00000000000E+00  0.15281249712E+03  0.15281249712E+03  0.00000000000E+00 0.  1.
          2   -1    0    0  501    0  0.00000000000E+00 -0.00000000000E+00 -0.18015509383E+03  0.18015509383E+03  0.00000000000E+00 0. -1.
         23    2    1    2    0    0  0.12295907675E+03 -0.16561501099E+02  0.30572896921E+01  0.15424348476E+03  0.91588687605E+02 0.  0.
          5    1    1    2  502    0 -0.12029865548E+02 -0.33051731562E+02  0.26668918693E+02  0.44389816947E+02  0.47000000000E+01 0. -1.
         -5    1    1    2    0  502 -0.11092921120E+03  0.49613232661E+02 -0.57068805094E+02  0.13433428925E+03  0.47000000000E+01 0. -1.
        -11    1    3    3    0    0  0.43051212334E+02 -0.26341540537E+02  0.41208422519E+02  0.65156870150E+02  0.00000000000E+00 0.  1.
         11    1    3    3    0    0  0.79907864416E+02  0.97800394373E+01 -0.38151132827E+02  0.89086614611E+02  0.00000000000E+00 0. -1.
<mgrwt>
<rscale>  0 0.17036734E+03</rscale>
<asrwt>0</asrwt>
<pdfrwt beam="2">  1        2 0.27716168E-01 0.17611971E+03</pdfrwt>
<pdfrwt beam="1">  1       -2 0.23509615E-01 0.17611971E+03</pdfrwt>
<totfact> 0.29688036E+03</totfact>
</mgrwt>
</event>
<event>
 7    1  0.1020736E-005  0.1420442E+03  0.7546771E-02  0.1220787E+00
         -2   -1    0    0    0  501 -0.00000000000E+00  0.00000000000E+00  0.80034101880E+02  0.80034101880E+02  0.00000000000E+00 0. -1.
          2   -1    0    0  501    0  0.00000000000E+00 -0.00000000000E+00 -0.29464531587E+03  0.29464531587E+03  0.00000000000E+00 0.  1.
         23    2    1    2    0    0  0.61633893690E+02 -0.27424701057E+02  0.32863970799E+01  0.11457190909E+03  0.92547668081E+02 0.  0.
          5    1    1    2  502    0  0.18269532384E+02  0.29554750722E+02 -0.15321419362E+03  0.15717486514E+03  0.47000000000E+01 0.  1.
         -5    1    1    2    0  502 -0.79903426073E+02 -0.21300496651E+01 -0.64683417450E+02  0.10293264352E+03  0.47000000000E+01 0.  1.
        -11    1    3    3    0    0  0.19809346532E+02 -0.90289921016E+01  0.46712332546E+02  0.51536151586E+02  0.00000000000E+00 0. -1.
         11    1    3    3    0    0  0.41824547158E+02 -0.18395708955E+02 -0.43425935466E+02  0.63035757504E+02  0.00000000000E+00 0.  1.
<mgrwt>
<rscale>  0 0.13459918E+03</rscale>
<asrwt>0</asrwt>
<pdfrwt beam="2">  1        2 0.45330049E-01 0.14204417E+03</pdfrwt>
<pdfrwt beam="1">  1       -2 0.12312939E-01 0.14204417E+03</pdfrwt>
<totfact> 0.50794359E+03</totfact>
</mgrwt>
</event>
<event>
 7    1  0.1020736E-005  0.1364008E+03  0.7546771E-02  0.1229968E+00
          1   -1    0    0  501    0  0.00000000000E+00  0.00000000000E+00  0.24049705977E+03  0.24049705977E+03  0.00000000000E+00 0. -1.
         -1   -1    0    0    0  501 -0.00000000000E+00 -0.00000000000E+00 -0.65659720302E+02  0.65659720302E+02  0.00000000000E+00 0.  1.
         23    2    1    2    0    0 -0.50737981664E+02 -0.20124075462E+02  0.39231980449E+02  0.11381853792E+03  0.91848734824E+02 0.  0.
          5    1    1    2  502    0  0.37342649485E+02  0.16371267138E+02 -0.12966038770E+02  0.43043001982E+02  0.47000000000E+01 0. -1.
         -5    1    1    2    0  502  0.13395332180E+02  0.37528083236E+01  0.14857139779E+03  0.14929524016E+03  0.47000000000E+01 0. -1.
        -11    1    3    3    0    0 -0.72848006398E+02 -0.17024775495E+02  0.77328110000E+01  0.75209516570E+02  0.00000000000E+00 0.  1.
         11    1    3    3    0    0  0.22110024733E+02 -0.30992999673E+01  0.31499169449E+02  0.38609021355E+02  0.00000000000E+00 0. -1.
<mgrwt>
<rscale>  0 0.12832157E+03</rscale>
<asrwt>0</asrwt>
<pdfrwt beam="1">  1        1 0.36999547E-01 0.13640083E+03</pdfrwt>
<pdfrwt beam="2">  1       -1 0.10101496E-01 0.13640083E+03</pdfrwt>
<totfact> 0.66270401E+03</totfact>
</mgrwt>
</event>
<event>
 7    1  0.1020736E-005  0.2187442E+03  0.7546771E-02  0.1138263E+00
          2   -1    0    0  501    0  0.00000000000E+00  0.00000000000E+00  0.49773843851E+03  0.49773843851E+03  0.00000000000E+00 0. -1.
         -2   -1    0    0    0  501 -0.00000000000E+00 -0.00000000000E+00 -0.10039301589E+03  0.10039301589E+03  0.00000000000E+00 0.  1.
         23    2    1    2    0    0  0.17779517954E+03  0.24718317871E+02  0.88872182486E+02  0.21997174278E+03  0.90924043560E+02 0.  0.
          5    1    1    2  502    0 -0.31989388949E+02  0.45786727731E+02  0.66841783756E+02  0.87233362296E+02  0.47000000000E+01 0. -1.
         -5    1    1    2    0  502 -0.14580579059E+03 -0.70505045603E+02  0.24163145638E+03  0.29092634933E+03  0.47000000000E+01 0. -1.
        -11    1    3    3    0    0  0.14618605637E+03  0.12115705118E+02  0.26701762990E+02  0.14909774490E+03  0.00000000000E+00 0.  1.
         11    1    3    3    0    0  0.31609123170E+02  0.12602612753E+02  0.62170419496E+02  0.70873997884E+02  0.00000000000E+00 0. -1.
<mgrwt>
<rscale>  0 0.21422490E+03</rscale>
<asrwt>0</asrwt>
<pdfrwt beam="1">  1        2 0.76575143E-01 0.21874421E+03</pdfrwt>
<pdfrwt beam="2">  1       -2 0.15445080E-01 0.21874421E+03</pdfrwt>
<totfact> 0.20271468E+03</totfact>
</mgrwt>
</event>
<event>
 7    1  0.1020736E-005  0.1606739E+03  0.7546771E-02  0.1195397E+00
          1   -1    0    0  501    0  0.00000000000E+00  0.00000000000E+00  0.85993624475E+03  0.85993624475E+03  0.00000000000E+00 0. -1.
         -1   -1    0    0    0  501 -0.00000000000E+00 -0.00000000000E+00 -0.25688711745E+02  0.25688711745E+02  0.00000000000E+00 0.  1.
         23    2    1    2    0    0  0.14566706941E+02  0.99889328895E+02  0.36455064326E+03  0.38920650007E+03  0.91621292369E+02 0.  0.
          5    1    1    2  502    0  0.23775544344E+02 -0.10998883800E+03  0.40521252143E+03  0.42057353520E+03  0.47000000000E+01 0.  1.
         -5    1    1    2    0  502 -0.38342251286E+02  0.10099509108E+02  0.64484368318E+02  0.75844921223E+02  0.47000000000E+01 0.  1.
        -11    1    3    3    0    0 -0.58428809033E+01  0.10728429333E+03  0.24244218344E+03  0.26518346699E+03  0.00000000000E+00 0.  1.
         11    1    3    3    0    0  0.20409587845E+02 -0.73949644326E+01  0.12210845982E+03  0.12402303308E+03  0.00000000000E+00 0. -1.
<mgrwt>
<rscale>  0 0.15420662E+03</rscale>
<asrwt>0</asrwt>
<pdfrwt beam="1">  1        1 0.13229786E+00 0.16067394E+03</pdfrwt>
<pdfrwt beam="2">  1       -1 0.39521102E-02 0.16067394E+03</pdfrwt>
<totfact> 0.50449828E+03</totfact>
</mgrwt>
</event>
<event>
 7    1  0.1020736E-005  0.1601982E+03  0.7546771E-02  0.1196318E+00
          2   -1    0    0  501    0  0.00000000000E+00  0.00000000000E+00  0.10297739122E+03  0.10297739122E+03  0.00000000000E+00 0. -1.
         -2   -1    0    0    0  501 -0.00000000000E+00 -0.00000000000E+00 -0.21131186838E+03  0.21131186838E+03  0.00000000000E+00 0.  1.
         23    2    1    2    0    0  0.86620835510E+02  0.50372950656E+02 -0.51716626650E+02  0.14438035381E+03  0.90169139902E+02 0.  0.
          5    1    1    2  502    0 -0.11195445797E+03 -0.62184167621E+02 -0.59743054269E+02  0.14139304755E+03  0.47000000000E+01 0. -1.
         -5    1    1    2    0  502  0.25333622461E+02  0.11811216965E+02  0.31252037578E+01  0.28515858250E+02  0.47000000000E+01 0. -1.
        -11    1    3    3    0    0  0.46829178233E+02  0.74516522690E+02 -0.37955832034E+02  0.95845340383E+02  0.00000000000E+00 0. -1.
         11    1    3    3    0    0  0.39791657278E+02 -0.24143572034E+02 -0.13760794616E+02  0.48535013422E+02  0.00000000000E+00 0.  1.
<mgrwt>
<rscale>  0 0.15343193E+03</rscale>
<asrwt>0</asrwt>
<pdfrwt beam="1">  1        2 0.15842676E-01 0.16019818E+03</pdfrwt>
<pdfrwt beam="2">  1       -2 0.32509518E-01 0.16019818E+03</pdfrwt>
<totfact> 0.31241523E+03</totfact>
</mgrwt>
</event>
<event>
 7    1  0.1020736E-005  0.1526859E+03  0.7546771E-02  0.1205699E+00
          2   -1    0    0  501    0  0.00000000000E+00  0.00000000000E+00  0.74949154319E+03  0.74949154319E+03  0.00000000000E+00 0.  1.
         -2   -1    0    0    0  501 -0.00000000000E+00 -0.00000000000E+00 -0.33141940677E+02  0.33141940677E+02  0.00000000000E+00 0. -1.
         23    2    1    2    0    0  0.72498760237E+02 -0.49349926335E+02  0.15252693347E+03  0.19850252886E+03  0.91909210993E+02 0.  0.
          5    1    1    2  502    0  0.32810121488E+02  0.15825517604E+02  0.21726836234E+03  0.22035104346E+03  0.47000000000E+01 0.  1.
         -5    1    1    2    0  502 -0.10530888173E+03  0.33524408731E+02  0.34655430670E+03  0.36377991154E+03  0.47000000000E+01 0.  1.
        -11    1    3    3    0    0  0.19626797001E+02 -0.31793135320E+02  0.13503730222E+03  0.14011098317E+03  0.00000000000E+00 0.  1.
         11    1    3    3    0    0  0.52871963236E+02 -0.17556791015E+02  0.17489631254E+02  0.58391545694E+02  0.00000000000E+00 0. -1.
<mgrwt>
<rscale>  0 0.14582533E+03</rscale>
<asrwt>0</asrwt>
<pdfrwt beam="1">  1        2 0.11530638E+00 0.15268586E+03</pdfrwt>
<pdfrwt beam="2">  1       -2 0.50987607E-02 0.15268586E+03</pdfrwt>
<totfact> 0.71075635E+03</totfact>
</mgrwt>
</event>
<event>
 7    1  0.1020736E-005  0.1574181E+03  0.7546771E-02  0.1201635E+00
          1   -1    0    0  501    0  0.00000000000E+00  0.00000000000E+00  0.74390832731E+03  0.74390832731E+03  0.00000000000E+00 0. -1.
         -1   -1    0    0    0  501 -0.00000000000E+00 -0.00000000000E+00 -0.30363140047E+02  0.30363140047E+02  0.00000000000E+00 0.  1.
         23    2    1    2    0    0 -0.36206991174E+02 -0.88568285333E+02  0.19590700891E+03  0.23322641451E+03  0.82823407959E+02 0.  0.
          5    1    1    2  502    0  0.22598919743E+02  0.60610667838E+02  0.83307421948E+02  0.10557736870E+03  0.47000000000E+01 0.  1.
         -5    1    1    2    0  502  0.13608071432E+02  0.27957617496E+02  0.43433075641E+03  0.43546768416E+03  0.47000000000E+01 0.  1.
        -11    1    3    3    0    0 -0.56409589108E+02 -0.89575593518E+02  0.15663495055E+03  0.18905114766E+03  0.00000000000E+00 0.  1.
         11    1    3    3    0    0  0.20202597934E+02  0.10073081848E+01  0.39272058358E+02  0.44175266843E+02  0.00000000000E+00 0. -1.
<mgrwt>
<rscale>  0 0.14905856E+03</rscale>
<asrwt>0</asrwt>
<pdfrwt beam="1">  1        1 0.11444742E+00 0.15741812E+03</pdfrwt>
<pdfrwt beam="2">  1       -1 0.46712529E-02 0.15741812E+03</pdfrwt>
<totfact> 0.49054538E+03</totfact>
</mgrwt>
</event>
<event>
 7    1  0.1020736E-005  0.3376843E+03  0.7546771E-02  0.1090040E+00
         -1   -1    0    0    0  501 -0.00000000000E+00  0.00000000000E+00  0.40412953381E+03  0.40412953381E+03  0.00000000000E+00 0.  1.
          1   -1    0    0  501    0  0.00000000000E+00 -0.00000000000E+00 -0.24441772536E+03  0.24441772536E+03  0.00000000000E+00 0. -1.
         23    2    1    2    0    0  0.15283683282E+03 -0.42798909798E+02  0.23834387392E+03  0.30182881444E+03  0.95404333459E+02 0.  0.
          5    1    1    2  502    0 -0.23266514503E+03  0.40978448919E+02 -0.25213599373E+01  0.23630647525E+03  0.47000000000E+01 0. -1.
         -5    1    1    2    0  502  0.79828312212E+02  0.18204608781E+01 -0.76110705540E+02  0.11041196949E+03  0.47000000000E+01 0.  1.
        -11    1    3    3    0    0  0.12409827056E+03 -0.19102661799E+02  0.10592944447E+03  0.16427519487E+03  0.00000000000E+00 0.  1.
         11    1    3    3    0    0  0.28738562262E+02 -0.23696247999E+02  0.13241442945E+03  0.13755361957E+03  0.00000000000E+00 0. -1.
<mgrwt>
<rscale>  0 0.29059194E+03</rscale>
<asrwt>0</asrwt>
<pdfrwt beam="2">  1        1 0.37602727E-01 0.33768429E+03</pdfrwt>
<pdfrwt beam="1">  1       -1 0.62173774E-01 0.33768429E+03</pdfrwt>
<totfact> 0.30884937E+02</totfact>
</mgrwt>
</event>
<event>
 7    1  0.1020736E-005  0.1317980E+03  0.7546771E-02  0.1237839E+00
          2   -1    0    0  501    0  0.00000000000E+00  0.00000000000E+00  0.43075191643E+03  0.43075191643E+03  0.00000000000E+00 0. -1.
         -2   -1    0    0    0  501 -0.00000000000E+00 -0.00000000000E+00 -0.31515288922E+02  0.31515288922E+02  0.00000000000E+00 0.  1.
         23    2    1    2    0    0 -0.43104752435E+01 -0.41684728710E+02  0.15877711079E+03  0.18805653366E+03  0.91645469812E+02 0.  0.
          5    1    1    2  502    0 -0.28643250516E+02  0.76742815855E+02  0.16995531464E+03  0.18872412289E+03  0.47000000000E+01 0.  1.
         -5    1    1    2    0  502  0.32953725759E+02 -0.35058087145E+02  0.70504202089E+02  0.85486548813E+02  0.47000000000E+01 0.  1.
        -11    1    3    3    0    0  0.19174517121E+02 -0.50528880767E+02  0.41542361131E+02  0.68165956802E+02  0.00000000000E+00 0.  1.
         11    1    3    3    0    0 -0.23484992364E+02  0.88441520570E+01  0.11723474966E+03  0.11989057686E+03  0.00000000000E+00 0. -1.
<mgrwt>
<rscale>  0 0.12324437E+03</rscale>
<asrwt>0</asrwt>
<pdfrwt beam="1">  1        2 0.66269521E-01 0.13179800E+03</pdfrwt>
<pdfrwt beam="2">  1       -2 0.48485063E-02 0.13179800E+03</pdfrwt>
<totfact> 0.14222437E+04</totfact>
</mgrwt>
</event>
<event>
 7    1  0.1020736E-005  0.1539958E+03  0.7546771E-02  0.1204119E+00
          2   -1    0    0  501    0  0.00000000000E+00  0.00000000000E+00  0.12303975145E+03  0.12303975145E+03  0.00000000000E+00 0. -1.
         -2   -1    0    0    0  501 -0.00000000000E+00 -0.00000000000E+00 -0.18415964873E+03  0.18415964873E+03  0.00000000000E+00 0.  1.
         23    2    1    2    0    0  0.78276104314E+02 -0.44315371089E+02 -0.81536688593E+02  0.15185607886E+03  0.91219715402E+02 0.  0.
          5    1    1    2  502    0 -0.39953793520E+02 -0.42757420582E+02  0.94881499301E+01  0.59469467969E+02  0.47000000000E+01 0.  1.
         -5    1    1    2    0  502 -0.38322310794E+02  0.87072791671E+02  0.10928641379E+02  0.95873853351E+02  0.47000000000E+01 0.  1.
        -11    1    3    3    0    0  0.57026070099E+02 -0.17080143312E+01 -0.86887477840E+02  0.10394384921E+03  0.00000000000E+00 0.  1.
         11    1    3    3    0    0  0.21250034215E+02 -0.42607356758E+02  0.53507892462E+01  0.47912229645E+02  0.00000000000E+00 0. -1.
<mgrwt>
<rscale>  0 0.14707096E+03</rscale>
<asrwt>0</asrwt>
<pdfrwt beam="1">  1        2 0.18929193E-01 0.15399579E+03</pdfrwt>
<pdfrwt beam="2">  1       -2 0.28332254E-01 0.15399579E+03</pdfrwt>
<totfact> 0.32541304E+03</totfact>
</mgrwt>
</event>
<event>
 7    1  0.1020736E-005  0.3592459E+03  0.7546771E-02  0.1059948E+00
         -2   -1    0    0    0  501 -0.00000000000E+00  0.00000000000E+00  0.38618918721E+03  0.38618918721E+03  0.00000000000E+00 0.  1.
          2   -1    0    0  501    0  0.00000000000E+00 -0.00000000000E+00 -0.33614348992E+03  0.33614348992E+03  0.00000000000E+00 0. -1.
         23    2    1    2    0    0  0.21472618681E+03 -0.25947320871E+03  0.92071398420E+02  0.36063693411E+03  0.90267239332E+02 0.  0.
          5    1    1    2  502    0  0.12886774498E+02  0.83794341886E+00 -0.68183214592E+01  0.15341141211E+02  0.47000000000E+01 0. -1.
         -5    1    1    2    0  502 -0.22761296131E+03  0.25863526529E+03 -0.35207379669E+02  0.34635460181E+03  0.47000000000E+01 0. -1.
        -11    1    3    3    0    0  0.96250675261E+02 -0.16241161690E+03  0.85740874356E+02  0.20734807288E+03  0.00000000000E+00 0.  1.
         11    1    3    3    0    0  0.11847551155E+03 -0.97061591811E+02  0.63305240634E+01  0.15328886123E+03  0.00000000000E+00 0. -1.
<mgrwt>
<rscale>  0 0.35657632E+03</rscale>
<asrwt>0</asrwt>
<pdfrwt beam="2">  1        2 0.51714383E-01 0.35924595E+03</pdfrwt>
<pdfrwt beam="1">  1       -2 0.59413721E-01 0.35924595E+03</pdfrwt>
<totfact> 0.26141302E+02</totfact>
</mgrwt>
</event>
<event>
 7    1  0.1020736E-005  0.1260064E+03  0.7546771E-02  0.1247550E+00
         -1   -1    0    0    0  501 -0.00000000000E+00  0.00000000000E+00  0.68263469183E+02  0.68263469183E+02  0.00000000000E+00 0.  1.
          1   -1    0    0  501    0  0.00000000000E+00 -0.00000000000E+00 -0.34664671035E+03  0.34664671035E+03  0.00000000000E+00 0. -1.
         23    2    1    2    0    0 -0.15748441793E+02  0.23367958830E+01  0.14696035929E+02  0.95891235669E+02  0.93411356763E+02 0.  0.
          5    1    1    2  502    0  0.62322835438E+02  0.21258272601E+02 -0.21553277129E+03  0.22541631590E+03  0.47000000000E+01 0.  1.
         -5    1    1    2    0  502 -0.46574393645E+02 -0.23595068485E+02 -0.77546505797E+02  0.93602627963E+02  0.47000000000E+01 0.  1.
        -11    1    3    3    0    0 -0.36328787168E+02  0.26628465279E+02  0.35933682832E+02  0.57620183113E+02  0.00000000000E+00 0.  1.
         11    1    3    3    0    0  0.20580345374E+02 -0.24291669396E+02 -0.21237646903E+02  0.38271052556E+02  0.00000000000E+00 0. -1.
<mgrwt>
<rscale>  0 0.11734079E+03</rscale>
<asrwt>0</asrwt>
<pdfrwt beam="2">  1        1 0.53330262E-01 0.12600644E+03</pdfrwt>
<pdfrwt beam="1">  1       -1 0.10502072E-01 0.12600644E+03</pdfrwt>
<totfact> 0.39543629E+03</totfact>
</mgrwt>
</event>
<event>
 7    1  0.1020736E-005  0.1325452E+03  0.7546771E-02  0.1236916E+00
          1   -1    0    0  501    0  0.00000000000E+00  0.00000000000E+00  0.25198644292E+03  0.25198644292E+03  0.00000000000E+00 0. -1.
         -1   -1    0    0    0  501 -0.00000000000E+00 -0.00000000000E+00 -0.59772398701E+02  0.59772398701E+02  0.00000000000E+00 0.  1.
         23    2    1    2    0    0  0.14913849351E+02 -0.41467605675E+02  0.36701871831E+02  0.10742515742E+03  0.90835851005E+02 0.  0.
          5    1    1    2  502    0 -0.17683718903E+02  0.60452783206E+02  0.18373107491E+02  0.65779282380E+02  0.47000000000E+01 0. -1.
         -5    1    1    2    0  502  0.27698695518E+01 -0.18985177531E+02  0.13713906490E+03  0.13855440182E+03  0.47000000000E+01 0. -1.
        -11    1    3    3    0    0  0.27296802761E+01  0.12013202169E+02  0.49575718351E+02  0.51083461421E+02  0.00000000000E+00 0. -1.
         11    1    3    3    0    0  0.12184169075E+02 -0.53480807844E+02 -0.12873846520E+02  0.56341695998E+02  0.00000000000E+00 0.  1.
<mgrwt>
<rscale>  0 0.12382587E+03</rscale>
<asrwt>0</asrwt>
<pdfrwt beam="1">  1        1 0.38767144E-01 0.13254516E+03</pdfrwt>
<pdfrwt beam="2">  1       -1 0.91957538E-02 0.13254516E+03</pdfrwt>
<totfact> 0.72037909E+03</totfact>
</mgrwt>
</event>
<event>
 7    1  0.1020736E-005  0.2185636E+03  0.7546771E-02  0.1134958E+00
         -1   -1    0    0    0  501 -0.00000000000E+00  0.00000000000E+00  0.43427936969E+02  0.43427936969E+02  0.00000000000E+00 0.  1.
          1   -1    0    0  501    0  0.00000000000E+00 -0.00000000000E+00 -0.27499617066E+03  0.27499617066E+03  0.00000000000E+00 0. -1.
         23    2    1    2    0    0  0.16884369286E+02 -0.11080389669E+02 -0.88854637202E+02  0.12763433819E+03  0.89372930872E+02 0.  0.
          5    1    1    2  502    0  0.35895764733E+02 -0.39299851400E+02 -0.57039625320E+02  0.78157489100E+02  0.47000000000E+01 0. -1.
         -5    1    1    2    0  502 -0.52780134019E+02  0.50380241069E+02 -0.85673971166E+02  0.11263228033E+03  0.47000000000E+01 0. -1.
        -11    1    3    3    0    0  0.33812111161E+02  0.30779045361E+02 -0.36550643181E+02  0.58536809030E+02  0.00000000000E+00 0.  1.
         11    1    3    3    0    0 -0.16927741875E+02 -0.41859435031E+02 -0.52303994022E+02  0.69097529165E+02  0.00000000000E+00 0. -1.
<mgrwt>
<rscale>  0 0.21856364E+03</rscale>
<asrwt>0</asrwt>
<pdfrwt beam="2">  1        1 0.42307103E-01 0.21856364E+03</pdfrwt>
<pdfrwt beam="1">  1       -1 0.66812211E-02 0.21856364E+03</pdfrwt>
<totfact> 0.10845483E+04</totfact>
</mgrwt>
</event>
<event>
 7    1  0.1020736E-005  0.1770415E+03  0.7546771E-02  0.1176698E+00
         -1   -1    0    0    0  501 -0.00000000000E+00  0.00000000000E+00  0.15429805985E+03  0.15429805985E+03  0.00000000000E+00 0.  1.
          1   -1    0    0  501    0  0.00000000000E+00 -0.00000000000E+00 -0.24268111225E+03  0.24268111225E+03  0.00000000000E+00 0. -1.
         23    2    1    2    0    0 -0.50610500435E+02  0.11472684337E+03  0.60260463232E+02  0.16581132117E+03  0.90213078075E+02 0.  0.
          5    1    1    2  502    0  0.33810835162E+02  0.17438768735E+01  0.80843882397E+01  0.35123510845E+02  0.47000000000E+01 0.  1.
         -5    1    1    2    0  502  0.16799665274E+02 -0.11647072024E+03 -0.15672790388E+03  0.19604434009E+03  0.47000000000E+01 0.  1.
        -11    1    3    3    0    0 -0.64223920629E+02  0.34137989570E+02  0.29306252548E+02  0.78415373181E+02  0.00000000000E+00 0. -1.
         11    1    3    3    0    0  0.13613420193E+02  0.80588853796E+02  0.30954210685E+02  0.87395947988E+02  0.00000000000E+00 0.  1.
<mgrwt>
<rscale>  0 0.17110778E+03</rscale>
<asrwt>0</asrwt>
<pdfrwt beam="2">  1        1 0.37335556E-01 0.17704147E+03</pdfrwt>
<pdfrwt beam="1">  1       -1 0.23738163E-01 0.17704147E+03</pdfrwt>
<totfact> 0.17205301E+03</totfact>
</mgrwt>
</event>
<event>
 7    1  0.1020736E-005  0.1721767E+03  0.7546771E-02  0.1181871E+00
         -2   -1    0    0    0  501 -0.00000000000E+00  0.00000000000E+00  0.36529067325E+02  0.36529067325E+02  0.00000000000E+00 0.  1.
          2   -1    0    0  501    0  0.00000000000E+00 -0.00000000000E+00 -0.75169002972E+03  0.75169002972E+03  0.00000000000E+00 0. -1.
         23    2    1    2    0    0  0.10243082977E+03 -0.59395537015E+02 -0.23911608877E+03  0.28199431500E+03  0.91238068132E+02 0.  0.
          5    1    1    2  502    0  0.17869813609E+01  0.49970591246E+02 -0.65562253168E+02  0.82587846154E+02  0.47000000000E+01 0.  1.
         -5    1    1    2    0  502 -0.10421781113E+03  0.94249457687E+01 -0.41048262045E+03  0.42363693589E+03  0.47000000000E+01 0.  1.
        -11    1    3    3    0    0  0.33332053655E+01 -0.48853528075E+02 -0.65070900452E+02  0.81437089517E+02  0.00000000000E+00 0.  1.
         11    1    3    3    0    0  0.99097624401E+02 -0.10542008940E+02 -0.17404518832E+03  0.20055722548E+03  0.00000000000E+00 0. -1.
<mgrwt>
<rscale>  0 0.16619829E+03</rscale>
<asrwt>0</asrwt>
<pdfrwt beam="2">  1        2 0.11564462E+00 0.17217668E+03</pdfrwt>
<pdfrwt beam="1">  1       -2 0.56198563E-02 0.17217668E+03</pdfrwt>
<totfact> 0.61472810E+03</totfact>
</mgrwt>
</event>
<event>
 7    1  0.1020736E-005  0.1731906E+03  0.7546771E-02  0.1181735E+00
         -1   -1    0    0    0  501 -0.00000000000E+00  0.00000000000E+00  0.30020203935E+02  0.30020203935E+02  0.00000000000E+00 0.  1.
          1   -1    0    0  501    0  0.00000000000E+00 -0.00000000000E+00 -0.10597126920E+04  0.10597126920E+04  0.00000000000E+00 0. -1.
         23    2    1    2    0    0  0.49351795888E+02  0.10924715656E+03 -0.24273262927E+03  0.28394085301E+03  0.85631406186E+02 0.  0.
          5    1    1    2  502    0 -0.12778378262E+02  0.29724362570E+01 -0.42121610124E+03  0.42144657582E+03  0.47000000000E+01 0.  1.
         -5    1    1    2    0  502 -0.36573417626E+02 -0.11221959281E+03 -0.36574375756E+03  0.38434546711E+03  0.47000000000E+01 0.  1.
        -11    1    3    3    0    0  0.51017070792E+02  0.19077353107E+02 -0.66380394266E+02  0.85866429160E+02  0.00000000000E+00 0. -1.
         11    1    3    3    0    0 -0.16652749036E+01  0.90169803449E+02 -0.17635223500E+03  0.19807442385E+03  0.00000000000E+00 0.  1.
<mgrwt>
<rscale>  0 0.16632555E+03</rscale>
<asrwt>0</asrwt>
<pdfrwt beam="2">  1        1 0.16303275E+00 0.17319064E+03</pdfrwt>
<pdfrwt beam="1">  1       -1 0.46184923E-02 0.17319064E+03</pdfrwt>
<totfact> 0.28399010E+03</totfact>
</mgrwt>
</event>
<event>
 7    1  0.1020736E-005  0.1255271E+03  0.7546771E-02  0.1248966E+00
          3   -1    0    0  501    0  0.00000000000E+00  0.00000000000E+00  0.80004498507E+03  0.80004498507E+03  0.00000000000E+00 0.  1.
         -3   -1    0    0    0  501 -0.00000000000E+00 -0.00000000000E+00 -0.15153420388E+02  0.15153420388E+02  0.00000000000E+00 0. -1.
         23    2    1    2    0    0 -0.34082821347E+01 -0.11102318521E+02  0.28788562222E+03  0.30258553970E+03  0.92439166424E+02 0.  0.
          5    1    1    2  502    0 -0.16769387190E+01 -0.23748236543E+01  0.49742439842E+03  0.49745509753E+03  0.47000000000E+01 0. -1.
         -5    1    1    2    0  502  0.50852208536E+01  0.13477142175E+02 -0.41845596253E+00  0.15157768230E+02  0.47000000000E+01 0. -1.
        -11    1    3    3    0    0 -0.38375052695E+02 -0.27673664842E+02  0.21414319084E+03  0.21930750689E+03  0.00000000000E+00 0.  1.
         11    1    3    3    0    0  0.34966770561E+02  0.16571346321E+02  0.73742431379E+02  0.83278032806E+02  0.00000000000E+00 0. -1.
<mgrwt>
<rscale>  0 0.11651108E+03</rscale>
<asrwt>0</asrwt>
<pdfrwt beam="1">  1        3 0.12308381E+00 0.12552706E+03</pdfrwt>
<pdfrwt beam="2">  1       -3 0.23312961E-02 0.12552706E+03</pdfrwt>
<totfact> 0.95942362E+02</totfact>
</mgrwt>
</event>
<event>
 7    1  0.1020736E-005  0.1729578E+03  0.7546771E-02  0.1178110E+00
         -1   -1    0    0    0  501 -0.00000000000E+00  0.00000000000E+00  0.27431181162E+02  0.27431181162E+02  0.00000000000E+00 0.  1.
          1   -1    0    0  501    0  0.00000000000E+00 -0.00000000000E+00 -0.11625005408E+04  0.11625005408E+04  0.00000000000E+00 0. -1.
         23    2    1    2    0    0  0.13203648141E+03 -0.64138780745E+00 -0.33595507047E+03  0.37231441382E+03  0.91203999706E+02 0.  0.
          5    1    1    2  502    0 -0.39501458101E+02 -0.51257294271E+02 -0.24683800359E+03  0.25522297198E+03  0.47000000000E+01 0. -1.
         -5    1    1    2    0  502 -0.92535023307E+02  0.51898682078E+02 -0.55227628555E+03  0.56239433614E+03  0.47000000000E+01 0.  1.
        -11    1    3    3    0    0  0.57628339083E+02 -0.20463130739E+02 -0.59452931853E+02  0.85290188715E+02  0.00000000000E+00 0.  1.
         11    1    3    3    0    0  0.74408142324E+02  0.19821742932E+02 -0.27650213862E+03  0.28702422510E+03  0.00000000000E+00 0. -1.
<mgrwt>
<rscale>  0 0.16974892E+03</rscale>
<asrwt>0</asrwt>
<pdfrwt beam="2">  1        1 0.17884627E+00 0.17295784E+03</pdfrwt>
<pdfrwt beam="1">  1       -1 0.42201810E-02 0.17295784E+03</pdfrwt>
<totfact> 0.27446958E+03</totfact>
</mgrwt>
</event>
<event>
 7    1  0.1020736E-005  0.1354447E+03  0.7546771E-02  0.1230322E+00
          2   -1    0    0  501    0  0.00000000000E+00  0.00000000000E+00  0.12824360606E+03  0.12824360606E+03  0.00000000000E+00 0. -1.
         -2   -1    0    0    0  501 -0.00000000000E+00 -0.00000000000E+00 -0.12534294857E+03  0.12534294857E+03  0.00000000000E+00 0.  1.
         23    2    1    2    0    0  0.49079296607E+02  0.18757689263E+02 -0.33405124864E+02  0.11336038310E+03  0.94731440541E+02 0.  0.
          5    1    1    2  502    0 -0.15650138370E+01  0.80413034589E+01  0.73455266514E+02  0.74059962249E+02  0.47000000000E+01 0. -1.
         -5    1    1    2    0  502 -0.47514282771E+02 -0.26798992722E+02 -0.37149484163E+02  0.66166209289E+02  0.47000000000E+01 0. -1.
        -11    1    3    3    0    0  0.30348486417E+02  0.15939410007E+02  0.31005963439E+02  0.46221912422E+02  0.00000000000E+00 0. -1.
         11    1    3    3    0    0  0.18730810190E+02  0.28182792560E+01 -0.64411088303E+02  0.67138470676E+02  0.00000000000E+00 0.  1.
<mgrwt>
<rscale>  0 0.12808711E+03</rscale>
<asrwt>0</asrwt>
<pdfrwt beam="1">  1        2 0.19729786E-01 0.13544471E+03</pdfrwt>
<pdfrwt beam="2">  1       -2 0.19283531E-01 0.13544471E+03</pdfrwt>
<totfact> 0.59997212E+03</totfact>
</mgrwt>
</event>
<event>
 7    1  0.1020736E-005  0.2009211E+03  0.7546771E-02  0.1153058E+00
         -2   -1    0    0    0  501 -0.00000000000E+00  0.00000000000E+00  0.10658642909E+03  0.10658642909E+03  0.00000000000E+00 0.  1.
          2   -1    0    0  501    0  0.00000000000E+00 -0.00000000000E+00 -0.46895787978E+03  0.46895787978E+03  0.00000000000E+00 0. -1.
         23    2    1    2    0    0 -0.47184991933E+02  0.15005805025E+03 -0.26680448754E+02  0.18431836009E+03  0.92290679998E+02 0.  0.
          5    1    1    2  502    0 -0.12772129521E+02 -0.13232591036E+03 -0.18366779499E+03  0.22678011986E+03  0.47000000000E+01 0. -1.
         -5    1    1    2    0  502  0.59957121454E+02 -0.17732139883E+02 -0.15202320694E+03  0.16444582891E+03  0.47000000000E+01 0. -1.
        -11    1    3    3    0    0 -0.34326135057E+02  0.15226940974E+03 -0.44428518307E+02  0.16229032605E+03  0.00000000000E+00 0. -1.
         11    1    3    3    0    0 -0.12858856876E+02 -0.22113594934E+01  0.17748069553E+02  0.22028034044E+02  0.00000000000E+00 0.  1.
<mgrwt>
<rscale>  0 0.19611543E+03</rscale>
<asrwt>0</asrwt>
<pdfrwt beam="2">  1        2 0.72147366E-01 0.20092111E+03</pdfrwt>
<pdfrwt beam="1">  1       -2 0.16397912E-01 0.20092111E+03</pdfrwt>
<totfact> 0.19569185E+03</totfact>
</mgrwt>
</event>
<event>
 7    1  0.1020736E-005  0.1471723E+03  0.7546771E-02  0.1213405E+00
          1   -1    0    0  501    0  0.00000000000E+00  0.00000000000E+00  0.58161286914E+03  0.58161286914E+03  0.00000000000E+00 0. -1.
         -1   -1    0    0    0  501 -0.00000000000E+00 -0.00000000000E+00 -0.32190693172E+02  0.32190693172E+02  0.00000000000E+00 0.  1.
         23    2    1    2    0    0 -0.73970280638E+02 -0.30145422829E+02  0.18386720494E+03  0.21973488813E+03  0.89977347566E+02 0.  0.
          5    1    1    2  502    0  0.16505817938E+02  0.64788223071E+02  0.26313204940E+03  0.27153364671E+03  0.47000000000E+01 0. -1.
         -5    1    1    2    0  502  0.57464462700E+02 -0.34642800242E+02  0.10242292163E+03  0.12253502747E+03  0.47000000000E+01 0.  1.
        -11    1    3    3    0    0  0.18818960327E+02 -0.13138192391E+02  0.58490495820E+02  0.62832344126E+02  0.00000000000E+00 0. -1.
         11    1    3    3    0    0 -0.92789240965E+02 -0.17007230438E+02  0.12537670912E+03  0.15690254401E+03  0.00000000000E+00 0.  1.
<mgrwt>
<rscale>  0 0.13994314E+03</rscale>
<asrwt>0</asrwt>
<pdfrwt beam="1">  1        1 0.89478895E-01 0.14717229E+03</pdfrwt>
<pdfrwt beam="2">  1       -1 0.49524148E-02 0.14717229E+03</pdfrwt>
<totfact> 0.63400940E+03</totfact>
</mgrwt>
</event>
<event>
 7    1  0.1020736E-005  0.1668015E+03  0.7546771E-02  0.1187936E+00
         -1   -1    0    0    0  501 -0.00000000000E+00  0.00000000000E+00  0.28440881892E+02  0.28440881892E+02  0.00000000000E+00 0.  1.
          1   -1    0    0  501    0  0.00000000000E+00 -0.00000000000E+00 -0.92579443800E+03  0.92579443800E+03  0.00000000000E+00 0. -1.
         23    2    1    2    0    0  0.41457973032E+02  0.10237783930E+03 -0.27919226075E+03  0.31396495635E+03  0.91791556518E+02 0.  0.
          5    1    1    2  502    0 -0.26926424630E+02  0.37089082395E+01 -0.24134714105E+02  0.36651913573E+02  0.47000000000E+01 0.  1.
         -5    1    1    2    0  502 -0.14531548403E+02 -0.10608674754E+03 -0.59402658126E+03  0.60361844997E+03  0.47000000000E+01 0.  1.
        -11    1    3    3    0    0  0.70550257866E+02  0.65609360176E+02 -0.19836243213E+03  0.22052115887E+03  0.00000000000E+00 0.  1.
         11    1    3    3    0    0 -0.29092284834E+02  0.36768479123E+02 -0.80829828616E+02  0.93443797482E+02  0.00000000000E+00 0. -1.
<mgrwt>
<rscale>  0 0.16067601E+03</rscale>
<asrwt>0</asrwt>
<pdfrwt beam="2">  1        1 0.14242991E+00 0.16680153E+03</pdfrwt>
<pdfrwt beam="1">  1       -1 0.43755203E-02 0.16680153E+03</pdfrwt>
<totfact> 0.38632227E+03</totfact>
</mgrwt>
</event>
<event>
 7    1  0.1020736E-005  0.1308309E+03  0.7546771E-02  0.1240445E+00
          2   -1    0    0  501    0  0.00000000000E+00  0.00000000000E+00  0.21371513137E+04  0.21371513137E+04  0.00000000000E+00 0. -1.
         -2   -1    0    0    0  501 -0.00000000000E+00 -0.00000000000E+00 -0.19023158852E+02  0.19023158852E+02  0.00000000000E+00 0.  1.
         23    2    1    2    0    0 -0.25543335588E+02 -0.28956916097E+02  0.12451611293E+03  0.15827415077E+03  0.89752322744E+02 0.  0.
          5    1    1    2  502    0  0.70482639099E+02  0.22906777009E+02  0.15878213489E+04  0.15895569348E+04  0.47000000000E+01 0. -1.
         -5    1    1    2    0  502 -0.44939303511E+02  0.60501390879E+01  0.40579069294E+03  0.40834338695E+03  0.47000000000E+01 0. -1.
        -11    1    3    3    0    0 -0.43979119810E+02 -0.49638021886E+02  0.10570425962E+03  0.12478576320E+03  0.00000000000E+00 0.  1.
         11    1    3    3    0    0  0.18435784222E+02  0.20681105789E+02  0.18811853310E+02  0.33488387562E+02  0.00000000000E+00 0. -1.
<mgrwt>
<rscale>  0 0.12162222E+03</rscale>
<asrwt>0</asrwt>
<pdfrwt beam="1">  1        2 0.32879232E+00 0.13083089E+03</pdfrwt>
<pdfrwt beam="2">  1       -2 0.29266415E-02 0.13083089E+03</pdfrwt>
<totfact> 0.27783255E+03</totfact>
</mgrwt>
</event>
<event>
 7    1  0.1020736E-005  0.1619747E+03  0.7546771E-02  0.1194083E+00
         -1   -1    0    0    0  501 -0.00000000000E+00  0.00000000000E+00  0.27326863045E+02  0.27326863045E+02  0.00000000000E+00 0. -1.
          1   -1    0    0  501    0  0.00000000000E+00 -0.00000000000E+00 -0.90529378712E+03  0.90529378712E+03  0.00000000000E+00 0.  1.
         23    2    1    2    0    0  0.10224825284E+03 -0.12452958880E+02 -0.26105238178E+03  0.29479673974E+03  0.90260679906E+02 0.  0.
          5    1    1    2  502    0 -0.56040451731E+02  0.56945955346E+02 -0.47910517747E+03  0.48574400165E+03  0.47000000000E+01 0.  1.
         -5    1    1    2    0  502 -0.46207801108E+02 -0.44492996466E+02 -0.13780936482E+03  0.15207990877E+03  0.47000000000E+01 0.  1.
        -11    1    3    3    0    0  0.78455553804E+01  0.29185552738E+02 -0.91041914470E+02  0.95926948342E+02  0.00000000000E+00 0.  1.
         11    1    3    3    0    0  0.94402697459E+02 -0.41638511618E+02 -0.17001046731E+03  0.19886979140E+03  0.00000000000E+00 0. -1.
<mgrwt>
<rscale>  0 0.15532096E+03</rscale>
<asrwt>0</asrwt>
<pdfrwt beam="2">  1        1 0.13927598E+00 0.16197465E+03</pdfrwt>
<pdfrwt beam="1">  1       -1 0.42041324E-02 0.16197465E+03</pdfrwt>
<totfact> 0.42456224E+03</totfact>
</mgrwt>
</event>
<event>
 7    1  0.1020736E-005  0.7781448E+03  0.7546771E-02  0.1010048E+00
         -2   -1    0    0    0  501 -0.00000000000E+00  0.00000000000E+00  0.10068044916E+03  0.10068044916E+03  0.00000000000E+00 0.  1.
          2   -1    0    0  501    0  0.00000000000E+00 -0.00000000000E+00 -0.23005179602E+04  0.23005179602E+04  0.00000000000E+00 0. -1.
         23    2    1    2    0    0  0.69544178492E+02 -0.95580140970E+02 -0.16253649341E+03  0.22034886356E+03  0.90352387194E+02 0.  0.
          5    1    1    2  502    0  0.44491299985E+02  0.40673880752E+03 -0.14483882738E+04  0.15050802686E+04  0.47000000000E+01 0. -1.
         -5    1    1    2    0  502 -0.11403547848E+03 -0.31115866655E+03 -0.58891274383E+03  0.67576927717E+03  0.47000000000E+01 0.  1.
        -11    1    3    3    0    0 -0.96884972072E+00  0.10316970620E+02  0.37101069005E+01  0.11006518331E+02  0.00000000000E+00 0. -1.
         11    1    3    3    0    0  0.70513028213E+02 -0.10589711159E+03 -0.16624660031E+03  0.20934234523E+03  0.00000000000E+00 0.  1.
<mgrwt>
<rscale>  0 0.51455464E+03</rscale>
<asrwt>0</asrwt>
<pdfrwt beam="2">  1        2 0.35392582E+00 0.77814478E+03</pdfrwt>
<pdfrwt beam="1">  1       -2 0.15489301E-01 0.77814478E+03</pdfrwt>
<totfact> 0.15468288E+02</totfact>
</mgrwt>
</event>
<event>
 7    1  0.1020736E-005  0.6894162E+03  0.7546771E-02  0.9735505E-01
         -1   -1    0    0    0  501 -0.00000000000E+00  0.00000000000E+00  0.20721253513E+03  0.20721253513E+03  0.00000000000E+00 0.  1.
          1   -1    0    0  501    0  0.00000000000E+00 -0.00000000000E+00 -0.57343870769E+03  0.57343870769E+03  0.00000000000E+00 0. -1.
         23    2    1    2    0    0  0.93396059784E+02 -0.16016450573E+03 -0.41841272705E+02  0.21120682000E+03  0.92098511580E+02 0.  0.
          5    1    1    2  502    0  0.21534582221E+02 -0.12233473563E+03 -0.20931205950E+03  0.24344024734E+03  0.47000000000E+01 0. -1.
         -5    1    1    2    0  502 -0.11493064200E+03  0.28249924136E+03 -0.11507284035E+03  0.32600417548E+03  0.47000000000E+01 0.  1.
        -11    1    3    3    0    0  0.93399233869E+02 -0.81490975909E+02 -0.42789055253E+01  0.12402622736E+03  0.00000000000E+00 0.  1.
         11    1    3    3    0    0 -0.31740846784E-02 -0.78673529821E+02 -0.37562367180E+02  0.87180592638E+02  0.00000000000E+00 0. -1.
<mgrwt>
<rscale>  0 0.68941624E+03</rscale>
<asrwt>0</asrwt>
<pdfrwt beam="2">  1        1 0.88221340E-01 0.68941624E+03</pdfrwt>
<pdfrwt beam="1">  1       -1 0.31878851E-01 0.68941624E+03</pdfrwt>
<totfact> 0.33898336E+02</totfact>
</mgrwt>
</event>
<event>
 7    1  0.1020736E-005  0.1443967E+03  0.7546771E-02  0.1217843E+00
         -3   -1    0    0    0  501 -0.00000000000E+00  0.00000000000E+00  0.21541877797E+03  0.21541877797E+03  0.00000000000E+00 0.  1.
          3   -1    0    0  501    0  0.00000000000E+00 -0.00000000000E+00 -0.83350198351E+02  0.83350198351E+02  0.00000000000E+00 0. -1.
         23    2    1    2    0    0  0.41679102947E+02 -0.59060291732E+02  0.94399599601E+02  0.14953976431E+03  0.90695044086E+02 0.  0.
          5    1    1    2  502    0  0.27897163837E+02  0.58157684633E+01  0.52812530183E+02  0.60194088225E+02  0.47000000000E+01 0. -1.
         -5    1    1    2    0  502 -0.69576266784E+02  0.53244523269E+02 -0.15143550160E+02  0.89035123795E+02  0.47000000000E+01 0. -1.
        -11    1    3    3    0    0  0.25578837894E+02  0.27758135420E+01  0.80005469275E+02  0.84040806771E+02  0.00000000000E+00 0.  1.
         11    1    3    3    0    0  0.16100265053E+02 -0.61836105274E+02  0.14394130326E+02  0.65498957534E+02  0.00000000000E+00 0. -1.
<mgrwt>
<rscale>  0 0.13669785E+03</rscale>
<asrwt>0</asrwt>
<pdfrwt beam="2">  1        3 0.12823108E-01 0.14439670E+03</pdfrwt>
<pdfrwt beam="1">  1       -3 0.33141350E-01 0.14439670E+03</pdfrwt>
<totfact> 0.10065912E+03</totfact>
</mgrwt>
</event>
<event>
 7    1  0.1020736E-005  0.1483232E+03  0.7546771E-02  0.1211589E+00
          1   -1    0    0  501    0  0.00000000000E+00  0.00000000000E+00  0.44045214239E+03  0.44045214239E+03  0.00000000000E+00 0. -1.
         -1   -1    0    0    0  501 -0.00000000000E+00 -0.00000000000E+00 -0.51797200454E+02  0.51797200454E+02  0.00000000000E+00 0.  1.
         23    2    1    2    0    0 -0.79370807941E+02  0.86232150557E+01  0.70087625972E+02  0.14084515842E+03  0.92471608319E+02 0.  0.
          5    1    1    2  502    0  0.75477894208E+02  0.27524612054E+02  0.29941791659E+03  0.31004466704E+03  0.47000000000E+01 0.  1.
         -5    1    1    2    0  502  0.38929137327E+01 -0.36147827110E+02  0.19149399374E+02  0.41359517387E+02  0.47000000000E+01 0.  1.
        -11    1    3    3    0    0 -0.23206385408E+02 -0.29818742603E+01 -0.22158350744E+02  0.32224531114E+02  0.00000000000E+00 0.  1.
         11    1    3    3    0    0 -0.56164422532E+02  0.11605089316E+02  0.92245976715E+02  0.10862062731E+03  0.00000000000E+00 0. -1.
<mgrwt>
<rscale>  0 0.14130137E+03</rscale>
<asrwt>0</asrwt>
<pdfrwt beam="1">  1        1 0.67761866E-01 0.14832318E+03</pdfrwt>
<pdfrwt beam="2">  1       -1 0.79688004E-02 0.14832318E+03</pdfrwt>
<totfact> 0.44851451E+03</totfact>
</mgrwt>
</event>
<event>
 7    1  0.1020736E-005  0.1337830E+03  0.7546771E-02  0.1228129E+00
          1   -1    0    0  501    0  0.00000000000E+00  0.00000000000E+00  0.95602358076E+02  0.95602358076E+02  0.00000000000E+00 0. -1.
         -1   -1    0    0    0  501 -0.00000000000E+00 -0.00000000000E+00 -0.16547554109E+03  0.16547554109E+03  0.00000000000E+00 0.  1.
         23    2    1    2    0    0 -0.31090503233E+02  0.33642511101E+02 -0.28320483692E+02  0.12099034448E+03  0.10834286186E+03 0.  0.
          5    1    1    2  502    0  0.72311172803E+02 -0.10054393276E+02 -0.53807357931E+02  0.90814747172E+02  0.47000000000E+01 0. -1.
         -5    1    1    2    0  502 -0.41220669570E+02 -0.23588117824E+02  0.12254658613E+02  0.49272807511E+02  0.47000000000E+01 0. -1.
        -11    1    3    3    0    0  0.90463082030E+01 -0.17850455202E+02 -0.48654563036E+02  0.52609323767E+02  0.00000000000E+00 0.  1.
         11    1    3    3    0    0 -0.40136811436E+02  0.51492966302E+02  0.20334079344E+02  0.68381020712E+02  0.00000000000E+00 0. -1.
<mgrwt>
<rscale>  0 0.12954763E+03</rscale>
<asrwt>0</asrwt>
<pdfrwt beam="1">  1        1 0.14708055E-01 0.13378302E+03</pdfrwt>
<pdfrwt beam="2">  1       -1 0.25457775E-01 0.13378302E+03</pdfrwt>
<totfact> 0.49261438E+03</totfact>
</mgrwt>
</event>
<event>
 7    1  0.1020736E-005  0.1797349E+03  0.7546771E-02  0.1172493E+00
         -1   -1    0    0    0  501 -0.00000000000E+00  0.00000000000E+00  0.56628999835E+03  0.56628999835E+03  0.00000000000E+00 0.  1.
          1   -1    0    0  501    0  0.00000000000E+00 -0.00000000000E+00 -0.54674438744E+03  0.54674438744E+03  0.00000000000E+00 0. -1.
         23    2    1    2    0    0  0.72302265470E+02 -0.11786659358E+03  0.53922416207E+03  0.56315220158E+03  0.85191277176E+02 0.  0.
          5    1    1    2  502    0  0.48824883473E+01  0.43934471934E+02 -0.32250556775E+03  0.32555492278E+03  0.47000000000E+01 0. -1.
         -5    1    1    2    0  502 -0.77184753817E+02  0.73932121646E+02 -0.19717298341E+03  0.22432726143E+03  0.47000000000E+01 0.  1.
        -11    1    3    3    0    0  0.54851560306E+02 -0.99340235965E+02  0.51717593494E+03  0.52947910614E+03  0.00000000000E+00 0.  1.
         11    1    3    3    0    0  0.17450705164E+02 -0.18526357615E+02  0.22048227127E+02  0.33673095442E+02  0.00000000000E+00 0. -1.
<mgrwt>
<rscale>  0 0.17523823E+03</rscale>
<asrwt>0</asrwt>
<pdfrwt beam="2">  1        1 0.84114522E-01 0.17973486E+03</pdfrwt>
<pdfrwt beam="1">  1       -1 0.87121538E-01 0.17973486E+03</pdfrwt>
<totfact> 0.56737794E+01</totfact>
</mgrwt>
</event>
<event>
 7    1  0.1020736E-005  0.1278446E+03  0.7546771E-02  0.1246576E+00
          1   -1    0    0  501    0  0.00000000000E+00  0.00000000000E+00  0.73584822725E+02  0.73584822725E+02  0.00000000000E+00 0. -1.
         -1   -1    0    0    0  501 -0.00000000000E+00 -0.00000000000E+00 -0.17271552459E+03  0.17271552459E+03  0.00000000000E+00 0.  1.
         23    2    1    2    0    0  0.26744123902E+02  0.92209195741E+00 -0.67714732158E+02  0.11465234163E+03  0.88565095121E+02 0.  0.
          5    1    1    2  502    0 -0.21812702830E+02 -0.34498567739E+01  0.47397357123E+02  0.52500428367E+02  0.47000000000E+01 0. -1.
         -5    1    1    2    0  502 -0.49314210726E+01  0.25277648164E+01 -0.78813326827E+02  0.79147577311E+02  0.47000000000E+01 0. -1.
        -11    1    3    3    0    0  0.14269619041E+01 -0.29421658101E+02 -0.69092932634E+02  0.75109942922E+02  0.00000000000E+00 0.  1.
         11    1    3    3    0    0  0.25317161998E+02  0.30343750059E+02  0.13782004770E+01  0.39542398711E+02  0.00000000000E+00 0. -1.
<mgrwt>
<rscale>  0 0.11791529E+03</rscale>
<asrwt>0</asrwt>
<pdfrwt beam="1">  1        1 0.11320742E-01 0.12784457E+03</pdfrwt>
<pdfrwt beam="2">  1       -1 0.26571619E-01 0.12784457E+03</pdfrwt>
<totfact> 0.64390827E+03</totfact>
</mgrwt>
</event>
<event>
 7    1  0.1020736E-005  0.1433301E+03  0.7546771E-02  0.1222176E+00
          2   -1    0    0  501    0  0.00000000000E+00  0.00000000000E+00  0.70948174804E+03  0.70948174804E+03  0.00000000000E+00 0. -1.
         -2   -1    0    0    0  501 -0.00000000000E+00 -0.00000000000E+00 -0.23658873741E+02  0.23658873741E+02  0.00000000000E+00 0.  1.
         23    2    1    2    0    0 -0.30053742030E+02 -0.63367545116E+02  0.21102107502E+03  0.23717664171E+03  0.82487526869E+02 0.  0.
          5    1    1    2  502    0  0.18861081971E+02  0.70707306941E+02  0.47610433513E+03  0.48171847753E+03  0.47000000000E+01 0.  1.
         -5    1    1    2    0  502  0.11192660060E+02 -0.73397618243E+01 -0.13025358466E+01  0.14245502535E+02  0.47000000000E+01 0.  1.
        -11    1    3    3    0    0 -0.87233252579E+00 -0.44305437405E+02  0.19283621556E+03  0.19786242387E+03  0.00000000000E+00 0. -1.
         11    1    3    3    0    0 -0.29181409504E+02 -0.19062107711E+02  0.18184859452E+02  0.39314217840E+02  0.00000000000E+00 0.  1.
<mgrwt>
<rscale>  0 0.13362333E+03</rscale>
<asrwt>0</asrwt>
<pdfrwt beam="1">  1        2 0.10915102E+00 0.14333011E+03</pdfrwt>
<pdfrwt beam="2">  1       -2 0.36398273E-02 0.14333011E+03</pdfrwt>
<totfact> 0.12520254E+04</totfact>
</mgrwt>
</event>
<event>
 7    1  0.1020736E-005  0.2199187E+03  0.7546771E-02  0.1137401E+00
          2   -1    0    0  501    0  0.00000000000E+00  0.00000000000E+00  0.16664091968E+04  0.16664091968E+04  0.00000000000E+00 0. -1.
         -2   -1    0    0    0  501 -0.00000000000E+00 -0.00000000000E+00 -0.28334236731E+02  0.28334236731E+02  0.00000000000E+00 0.  1.
         23    2    1    2    0    0 -0.15140837294E+03  0.99074257103E+02  0.58516829009E+03  0.61911492329E+03  0.90228358621E+02 0.  0.
          5    1    1    2  502    0  0.40741327624E+02 -0.90659909502E+02  0.34514604741E+03  0.35920322801E+03  0.47000000000E+01 0. -1.
         -5    1    1    2    0  502  0.11066704531E+03 -0.84143476007E+01  0.70776062252E+03  0.71642528219E+03  0.47000000000E+01 0. -1.
        -11    1    3    3    0    0 -0.47153718714E+02  0.34743487148E+02  0.79066546534E+02  0.98397672069E+02  0.00000000000E+00 0.  1.
         11    1    3    3    0    0 -0.10425465422E+03  0.64330769955E+02  0.50610174356E+03  0.52071725122E+03  0.00000000000E+00 0. -1.
<mgrwt>
<rscale>  0 0.21534624E+03</rscale>
<asrwt>0</asrwt>
<pdfrwt beam="1">  1        2 0.25637057E+00 0.21991870E+03</pdfrwt>
<pdfrwt beam="2">  1       -2 0.43591147E-02 0.21991870E+03</pdfrwt>
<totfact> 0.26857985E+03</totfact>
</mgrwt>
</event>
<event>
 7    1  0.1020736E-005  0.1434695E+03  0.7546771E-02  0.1218820E+00
          1   -1    0    0  501    0  0.00000000000E+00  0.00000000000E+00  0.44298760283E+03  0.44298760283E+03  0.00000000000E+00 0. -1.
         -1   -1    0    0    0  501 -0.00000000000E+00 -0.00000000000E+00 -0.37945166172E+02  0.37945166172E+02  0.00000000000E+00 0.  1.
         23    2    1    2    0    0 -0.37487422630E+02  0.59617831104E+02  0.18069151630E+03  0.21463062018E+03  0.91963505883E+02 0.  0.
          5    1    1    2  502    0  0.46989611982E+02 -0.93331496468E+02  0.19070113516E+03  0.21750357427E+03  0.47000000000E+01 0. -1.
         -5    1    1    2    0  502 -0.95021893521E+01  0.33713665365E+02  0.33649785188E+02  0.48798574549E+02  0.47000000000E+01 0. -1.
        -11    1    3    3    0    0 -0.33822774996E+02 -0.14969336082E+02  0.88978657340E+02  0.96360067420E+02  0.00000000000E+00 0. -1.
         11    1    3    3    0    0 -0.36646476336E+01  0.74587167186E+02  0.91712858963E+02  0.11827055276E+03  0.00000000000E+00 0.  1.
<mgrwt>
<rscale>  0 0.13599600E+03</rscale>
<asrwt>0</asrwt>
<pdfrwt beam="1">  1        1 0.68151935E-01 0.14346951E+03</pdfrwt>
<pdfrwt beam="2">  1       -1 0.58377182E-02 0.14346951E+03</pdfrwt>
<totfact> 0.70890183E+03</totfact>
</mgrwt>
</event>
<event>
 7    1  0.1020736E-005  0.1422765E+03  0.7546771E-02  0.1220936E+00
          1   -1    0    0  501    0  0.00000000000E+00  0.00000000000E+00  0.25596865715E+03  0.25596865715E+03  0.00000000000E+00 0. -1.
         -1   -1    0    0    0  501 -0.00000000000E+00 -0.00000000000E+00 -0.73967939945E+02  0.73967939945E+02  0.00000000000E+00 0.  1.
         23    2    1    2    0    0  0.81189467945E+01 -0.67453726695E+02  0.21806143822E+02  0.11568227868E+03  0.91054704167E+02 0.  0.
          5    1    1    2  502    0  0.29266421531E+02  0.88786958316E+02  0.13462533336E+03  0.16396864877E+03  0.47000000000E+01 0.  1.
         -5    1    1    2    0  502 -0.37385368326E+02 -0.21333231622E+02  0.25569240026E+02  0.50285669647E+02  0.47000000000E+01 0.  1.
        -11    1    3    3    0    0  0.47584108111E+02 -0.50699848425E+02  0.52765020950E+01  0.69732083358E+02  0.00000000000E+00 0.  1.
         11    1    3    3    0    0 -0.39465161317E+02 -0.16753878270E+02  0.16529641727E+02  0.45950195325E+02  0.00000000000E+00 0. -1.
<mgrwt>
<rscale>  0 0.13449391E+03</rscale>
<asrwt>0</asrwt>
<pdfrwt beam="1">  1        1 0.39379793E-01 0.14227653E+03</pdfrwt>
<pdfrwt beam="2">  1       -1 0.11379683E-01 0.14227653E+03</pdfrwt>
<totfact> 0.51236595E+03</totfact>
</mgrwt>
</event>
<event>
 7    1  0.1020736E-005  0.1890664E+03  0.7546771E-02  0.1163908E+00
         -2   -1    0    0    0  501 -0.00000000000E+00  0.00000000000E+00  0.24410521381E+03  0.24410521381E+03  0.00000000000E+00 0.  1.
          2   -1    0    0  501    0  0.00000000000E+00 -0.00000000000E+00 -0.13928658598E+03  0.13928658598E+03  0.00000000000E+00 0. -1.
         23    2    1    2    0    0  0.13132646032E+03 -0.53635206083E+02  0.93616667311E+02  0.19399386652E+03  0.93520935292E+02 0.  0.
          5    1    1    2  502    0 -0.15415617230E+03  0.41610773149E+02 -0.25937818453E+01  0.15976357409E+03  0.47000000000E+01 0. -1.
         -5    1    1    2    0  502  0.22829711981E+02  0.12024432934E+02  0.13795742362E+02  0.29634359177E+02  0.47000000000E+01 0. -1.
        -11    1    3    3    0    0  0.75490462446E+02 -0.28823036741E+02  0.10432754686E+03  0.13196141254E+03  0.00000000000E+00 0.  1.
         11    1    3    3    0    0  0.55835997876E+02 -0.24812169342E+02 -0.10710879545E+02  0.62032453981E+02  0.00000000000E+00 0. -1.
<mgrwt>
<rscale>  0 0.18408386E+03</rscale>
<asrwt>0</asrwt>
<pdfrwt beam="2">  1        2 0.21428705E-01 0.18906637E+03</pdfrwt>
<pdfrwt beam="1">  1       -2 0.37554648E-01 0.18906637E+03</pdfrwt>
<totfact> 0.17010429E+03</totfact>
</mgrwt>
</event>
<event>
 7    1  0.1020736E-005  0.1406185E+03  0.7546771E-02  0.1223790E+00
         -1   -1    0    0    0  501 -0.00000000000E+00  0.00000000000E+00  0.27174540504E+02  0.27174540504E+02  0.00000000000E+00 0.  1.
          1   -1    0    0  501    0  0.00000000000E+00 -0.00000000000E+00 -0.58373751517E+03  0.58373751517E+03  0.00000000000E+00 0. -1.
         23    2    1    2    0    0 -0.56291948200E+02  0.31296401809E+02 -0.22794821540E+03  0.25347501762E+03  0.90227199105E+02 0.  0.
          5    1    1    2  502    0 -0.30294070749E+02  0.18779147940E+02 -0.51677548879E+02  0.62952729711E+02  0.47000000000E+01 0. -1.
         -5    1    1    2    0  502  0.86586018949E+02 -0.50075549749E+02 -0.27693721039E+03  0.29448430834E+03  0.47000000000E+01 0. -1.
        -11    1    3    3    0    0  0.23005655174E+02 -0.49476462277E+01 -0.43451406298E+02  0.49414209317E+02  0.00000000000E+00 0.  1.
         11    1    3    3    0    0 -0.79297603374E+02  0.36244048037E+02 -0.18449680910E+03  0.20406080831E+03  0.00000000000E+00 0. -1.
<mgrwt>
<rscale>  0 0.13250199E+03</rscale>
<asrwt>0</asrwt>
<pdfrwt beam="2">  1        1 0.89805765E-01 0.14061855E+03</pdfrwt>
<pdfrwt beam="1">  1       -1 0.41806988E-02 0.14061855E+03</pdfrwt>
<totfact> 0.80808145E+03</totfact>
</mgrwt>
</event>
<event>
 7    1  0.1020736E-005  0.1409329E+03  0.7546771E-02  0.1221923E+00
          1   -1    0    0  501    0  0.00000000000E+00  0.00000000000E+00  0.41949792805E+03  0.41949792805E+03  0.00000000000E+00 0. -1.
         -1   -1    0    0    0  501 -0.00000000000E+00 -0.00000000000E+00 -0.50902811458E+02  0.50902811458E+02  0.00000000000E+00 0.  1.
         23    2    1    2    0    0 -0.63441109986E+02 -0.14565922279E+02  0.55899161525E+02  0.12741261859E+03  0.94192985878E+02 0.  0.
          5    1    1    2  502    0  0.10069643511E+03  0.20547117687E+02  0.23143010029E+03  0.25326653433E+03  0.47000000000E+01 0. -1.
         -5    1    1    2    0  502 -0.37255325121E+02 -0.59811954083E+01  0.81265854774E+02  0.89721586592E+02  0.47000000000E+01 0. -1.
        -11    1    3    3    0    0 -0.67737945168E+02 -0.26584381748E+02  0.28221422258E+01  0.72822544965E+02  0.00000000000E+00 0.  1.
         11    1    3    3    0    0  0.42968351822E+01  0.12018459470E+02  0.53077019299E+02  0.54590073624E+02  0.00000000000E+00 0. -1.
<mgrwt>
<rscale>  0 0.13380016E+03</rscale>
<asrwt>0</asrwt>
<pdfrwt beam="1">  1        1 0.64538141E-01 0.14093293E+03</pdfrwt>
<pdfrwt beam="2">  1       -1 0.78312020E-02 0.14093293E+03</pdfrwt>
<totfact> 0.48871850E+03</totfact>
</mgrwt>
</event>
<event>
 7    1  0.1020736E-005  0.1591503E+03  0.7546771E-02  0.1197034E+00
          1   -1    0    0  501    0  0.00000000000E+00  0.00000000000E+00  0.30620654518E+03  0.30620654518E+03  0.00000000000E+00 0. -1.
         -1   -1    0    0    0  501 -0.00000000000E+00 -0.00000000000E+00 -0.76833494188E+02  0.76833494188E+02  0.00000000000E+00 0.  1.
         23    2    1    2    0    0 -0.88068957227E+02  0.44128452911E+02  0.52680425238E+02  0.14523946385E+03  0.92821404172E+02 0.  0.
          5    1    1    2  502    0 -0.12074966047E+02  0.11205601144E+00 -0.13238428412E+02  0.18524668645E+02  0.47000000000E+01 0.  1.
         -5    1    1    2    0  502  0.10014392327E+03 -0.44240508922E+02  0.18993105416E+03  0.21927590687E+03  0.47000000000E+01 0.  1.
        -11    1    3    3    0    0 -0.91660459952E+02  0.24973616864E+01  0.47096537902E+02  0.10308230021E+03  0.00000000000E+00 0.  1.
         11    1    3    3    0    0  0.35915027251E+01  0.41631091225E+02  0.55838873360E+01  0.42157163640E+02  0.00000000000E+00 0. -1.
<mgrwt>
<rscale>  0 0.15283373E+03</rscale>
<asrwt>0</asrwt>
<pdfrwt beam="1">  1        1 0.47108698E-01 0.15915034E+03</pdfrwt>
<pdfrwt beam="2">  1       -1 0.11820538E-01 0.15915034E+03</pdfrwt>
<totfact> 0.38919741E+03</totfact>
</mgrwt>
</event>
<event>
 7    1  0.1020736E-005  0.1448563E+03  0.7546771E-02  0.1217125E+00
         -1   -1    0    0    0  501 -0.00000000000E+00  0.00000000000E+00  0.85926658069E+02  0.85926658069E+02  0.00000000000E+00 0.  1.
          1   -1    0    0  501    0  0.00000000000E+00 -0.00000000000E+00 -0.24602421110E+03  0.24602421110E+03  0.00000000000E+00 0. -1.
         23    2    1    2    0    0  0.56046568249E+02  0.35579451627E+02 -0.79028168819E+00  0.11663211748E+03  0.95892184735E+02 0.  0.
          5    1    1    2  502    0  0.40361324273E+02 -0.25099109263E+02 -0.53440405347E+02  0.71672649641E+02  0.47000000000E+01 0. -1.
         -5    1    1    2    0  502 -0.96407892522E+02 -0.10480342364E+02 -0.10586686599E+03  0.14364610204E+03  0.47000000000E+01 0.  1.
        -11    1    3    3    0    0  0.72945043457E+02  0.35465985742E+02  0.25810430868E+02  0.85117529635E+02  0.00000000000E+00 0.  1.
         11    1    3    3    0    0 -0.16898475208E+02  0.11346588511E+00 -0.26600712556E+02  0.31514587850E+02  0.00000000000E+00 0. -1.
<mgrwt>
<rscale>  0 0.13721613E+03</rscale>
<asrwt>0</asrwt>
<pdfrwt beam="2">  1        1 0.37849879E-01 0.14485634E+03</pdfrwt>
<pdfrwt beam="1">  1       -1 0.13219486E-01 0.14485634E+03</pdfrwt>
<totfact> 0.42719909E+03</totfact>
</mgrwt>
</event>
<event>
 7    1  0.1020736E-005  0.2274268E+03  0.7546771E-02  0.1131421E+00
          2   -1    0    0  501    0  0.00000000000E+00  0.00000000000E+00  0.10058675343E+03  0.10058675343E+03  0.00000000000E+00 0. -1.
         -2   -1    0    0    0  501 -0.00000000000E+00 -0.00000000000E+00 -0.48256867139E+03  0.48256867139E+03  0.00000000000E+00 0.  1.
         23    2    1    2    0    0 -0.17074443378E+03  0.83328060238E+02 -0.15845298439E+03  0.26426968992E+03  0.92918746520E+02 0.  0.
          5    1    1    2  502    0  0.60447192678E+02 -0.94403357467E+02 -0.14314845243E+03  0.18187750393E+03  0.47000000000E+01 0. -1.
         -5    1    1    2    0  502  0.11029724110E+03  0.11075297229E+02 -0.80380481144E+02  0.13700823097E+03  0.47000000000E+01 0. -1.
        -11    1    3    3    0    0 -0.51836132377E+02  0.75814949659E+02 -0.59927063004E+02  0.10966377748E+03  0.00000000000E+00 0.  1.
         11    1    3    3    0    0 -0.11890830141E+03  0.75131105785E+01 -0.98525921389E+02  0.15460591243E+03  0.00000000000E+00 0. -1.
<mgrwt>
<rscale>  0 0.22333531E+03</rscale>
<asrwt>0</asrwt>
<pdfrwt beam="1">  1        2 0.15474885E-01 0.22742675E+03</pdfrwt>
<pdfrwt beam="2">  1       -2 0.74241335E-01 0.22742675E+03</pdfrwt>
<totfact> 0.62916400E+02</totfact>
</mgrwt>
</event>
<event>
 7    1  0.1020736E-005  0.1286573E+03  0.7546771E-02  0.1243364E+00
         -1   -1    0    0    0  501 -0.00000000000E+00  0.00000000000E+00  0.20725799053E+03  0.20725799053E+03  0.00000000000E+00 0.  1.
          1   -1    0    0  501    0  0.00000000000E+00 -0.00000000000E+00 -0.17141568446E+03  0.17141568446E+03  0.00000000000E+00 0. -1.
         23    2    1    2    0    0  0.14595976099E+02  0.78115234267E+01  0.16820100895E+03  0.19408892850E+03  0.95419444242E+02 0.  0.
          5    1    1    2  502    0  0.40613454355E+02 -0.15169298539E-01 -0.12068887647E+03  0.12742585219E+03  0.47000000000E+01 0. -1.
         -5    1    1    2    0  502 -0.55209430454E+02 -0.77963541281E+01 -0.11669826403E+02  0.57158894295E+02  0.47000000000E+01 0.  1.
        -11    1    3    3    0    0 -0.54275201786E+01  0.45883667442E+02  0.48927434147E+02  0.67295339552E+02  0.00000000000E+00 0.  1.
         11    1    3    3    0    0  0.20023496277E+02 -0.38072144015E+02  0.11927357480E+03  0.12679358895E+03  0.00000000000E+00 0. -1.
<mgrwt>
<rscale>  0 0.11983813E+03</rscale>
<asrwt>0</asrwt>
<pdfrwt beam="2">  1        1 0.26371644E-01 0.12865731E+03</pdfrwt>
<pdfrwt beam="1">  1       -1 0.31885845E-01 0.12865731E+03</pdfrwt>
<totfact> 0.16075317E+03</totfact>
</mgrwt>
</event>
<event>
 7    1  0.1020736E-005  0.1708499E+03  0.7546771E-02  0.1183655E+00
         -1   -1    0    0    0  501 -0.00000000000E+00  0.00000000000E+00  0.52252838356E+02  0.52252838356E+02  0.00000000000E+00 0.  1.
          1   -1    0    0  501    0  0.00000000000E+00 -0.00000000000E+00 -0.56892417085E+03  0.56892417085E+03  0.00000000000E+00 0. -1.
         23    2    1    2    0    0  0.54417096640E+02  0.10296317429E+03 -0.12172743474E+03  0.19086272340E+03  0.89712736840E+02 0.  0.
          5    1    1    2  502    0  0.16857152343E+02  0.19409722789E+02 -0.95940484744E+02  0.99436248606E+02  0.47000000000E+01 0. -1.
         -5    1    1    2    0  502 -0.71274248983E+02 -0.12237289707E+03 -0.29900341301E+03  0.33087803720E+03  0.47000000000E+01 0. -1.
        -11    1    3    3    0    0  0.61616612269E+02  0.11572290649E+03 -0.11625121673E+03  0.17522198317E+03  0.00000000000E+00 0.  1.
         11    1    3    3    0    0 -0.71995156291E+01 -0.12759732208E+02 -0.54762180045E+01  0.15640740230E+02  0.00000000000E+00 0. -1.
<mgrwt>
<rscale>  0 0.16454910E+03</rscale>
<asrwt>0</asrwt>
<pdfrwt beam="2">  1        1 0.87526793E-01 0.17084994E+03</pdfrwt>
<pdfrwt beam="1">  1       -1 0.80388984E-02 0.17084994E+03</pdfrwt>
<totfact> 0.31810923E+03</totfact>
</mgrwt>
</event>
<event>
 7    1  0.1020736E-005  0.1123781E+03  0.7546771E-02  0.1266378E+00
          2   -1    0    0  501    0  0.00000000000E+00  0.00000000000E+00  0.21183700926E+03  0.21183700926E+03  0.00000000000E+00 0. -1.
         -2   -1    0    0    0  501 -0.00000000000E+00 -0.00000000000E+00 -0.11543226367E+03  0.11543226367E+03  0.00000000000E+00 0.  1.
         23    2    1    2    0    0  0.55582917339E+01  0.73357731646E+01 -0.77399628293E+02  0.12029874356E+03  0.91631747056E+02 0.  0.
          5    1    1    2  502    0 -0.20392022188E+02  0.41530975952E+02  0.13462997882E+03  0.14243587235E+03  0.47000000000E+01 0. -1.
         -5    1    1    2    0  502  0.14833730454E+02 -0.48866749117E+02  0.39174395062E+02  0.64534657022E+02  0.47000000000E+01 0.  1.
        -11    1    3    3    0    0  0.44099002681E+02 -0.13605864509E+02 -0.52346626203E+02  0.69785463108E+02  0.00000000000E+00 0.  1.
         11    1    3    3    0    0 -0.38540710947E+02  0.20941637673E+02 -0.25053002090E+02  0.50513280456E+02  0.00000000000E+00 0. -1.
<mgrwt>
<rscale>  0 0.10692216E+03</rscale>
<asrwt>0</asrwt>
<pdfrwt beam="1">  1        2 0.32590309E-01 0.11237811E+03</pdfrwt>
<pdfrwt beam="2">  1       -2 0.17758810E-01 0.11237811E+03</pdfrwt>
<totfact> 0.39191721E+03</totfact>
</mgrwt>
</event>
<event>
 7    1  0.1020736E-005  0.1846193E+03  0.7546771E-02  0.1168816E+00
          1   -1    0    0  501    0  0.00000000000E+00  0.00000000000E+00  0.61090505394E+03  0.61090505394E+03  0.00000000000E+00 0. -1.
         -1   -1    0    0    0  501 -0.00000000000E+00 -0.00000000000E+00 -0.51863918432E+02  0.51863918432E+02  0.00000000000E+00 0.  1.
         23    2    1    2    0    0  0.66573201379E+02  0.11844292109E+03  0.19155462363E+03  0.25151405276E+03  0.90030151629E+02 0.  0.
          5    1    1    2  502    0 -0.98119962053E+02 -0.67439915030E+02  0.19437876670E+03  0.22799312279E+03  0.47000000000E+01 0. -1.
         -5    1    1    2    0  502  0.31546760673E+02 -0.51003006064E+02  0.17310774518E+03  0.18326179683E+03  0.47000000000E+01 0. -1.
        -11    1    3    3    0    0  0.56039987682E+01  0.98766760421E+02  0.11614610807E+03  0.15256538331E+03  0.00000000000E+00 0. -1.
         11    1    3    3    0    0  0.60969202611E+02  0.19676160673E+02  0.75408515558E+02  0.98948669443E+02  0.00000000000E+00 0.  1.
<mgrwt>
<rscale>  0 0.17895706E+03</rscale>
<asrwt>0</asrwt>
<pdfrwt beam="1">  1        1 0.93985388E-01 0.18461926E+03</pdfrwt>
<pdfrwt beam="2">  1       -1 0.79790648E-02 0.18461926E+03</pdfrwt>
<totfact> 0.29260475E+03</totfact>
</mgrwt>
</event>
<event>
 7    1  0.1020736E-005  0.4324433E+03  0.7546771E-02  0.1033091E+00
         -2   -1    0    0    0  501 -0.00000000000E+00  0.00000000000E+00  0.26803988250E+03  0.26803988250E+03  0.00000000000E+00 0.  1.
          2   -1    0    0  501    0  0.00000000000E+00 -0.00000000000E+00 -0.17442109174E+03  0.17442109174E+03  0.00000000000E+00 0. -1.
         23    2    1    2    0    0 -0.92403847315E+02  0.85753412859E+02  0.73627575385E+02  0.17151928168E+03  0.90031801689E+02 0.  0.
          5    1    1    2  502    0  0.12648823953E+03 -0.65117512783E+02 -0.79941931167E+02  0.16325552845E+03  0.47000000000E+01 0. -1.
         -5    1    1    2    0  502 -0.34084392216E+02 -0.20635900076E+02  0.99933146541E+02  0.10768616412E+03  0.47000000000E+01 0.  1.
        -11    1    3    3    0    0 -0.34636169391E+01  0.58043826830E+02  0.46614123731E+02  0.74524888505E+02  0.00000000000E+00 0.  1.
         11    1    3    3    0    0 -0.88940230376E+02  0.27709586029E+02  0.27013451654E+02  0.96994393176E+02  0.00000000000E+00 0. -1.
<mgrwt>
<rscale>  0 0.43244333E+03</rscale>
<asrwt>0</asrwt>
<pdfrwt beam="2">  1        2 0.26834014E-01 0.43244333E+03</pdfrwt>
<pdfrwt beam="1">  1       -2 0.41236905E-01 0.43244333E+03</pdfrwt>
<totfact> 0.11240607E+03</totfact>
</mgrwt>
</event>
<event>
 7    1  0.1020736E-005  0.1419446E+03  0.7546771E-02  0.1221455E+00
          2   -1    0    0  501    0  0.00000000000E+00  0.00000000000E+00  0.17683320907E+03  0.17683320907E+03  0.00000000000E+00 0.  1.
         -2   -1    0    0    0  501 -0.00000000000E+00 -0.00000000000E+00 -0.12399692445E+03  0.12399692445E+03  0.00000000000E+00 0. -1.
         23    2    1    2    0    0 -0.54451255816E+02  0.39478035615E+02 -0.51825324657E+02  0.12447164675E+03  0.91015778916E+02 0.  0.
          5    1    1    2  502    0 -0.26489101929E+02 -0.23842905427E+02  0.83812572378E+02  0.91196457984E+02  0.47000000000E+01 0. -1.
         -5    1    1    2    0  502  0.80940357745E+02 -0.15635130188E+02  0.20849036903E+02  0.85162028790E+02  0.47000000000E+01 0. -1.
        -11    1    3    3    0    0 -0.39761177630E+02  0.65866697484E+02 -0.54298656197E+02  0.94168557113E+02  0.00000000000E+00 0. -1.
         11    1    3    3    0    0 -0.14690078186E+02 -0.26388661869E+02  0.24733315406E+01  0.30303089632E+02  0.00000000000E+00 0.  1.
<mgrwt>
<rscale>  0 0.13412861E+03</rscale>
<asrwt>0</asrwt>
<pdfrwt beam="1">  1        2 0.27205109E-01 0.14194458E+03</pdfrwt>
<pdfrwt beam="2">  1       -2 0.19076450E-01 0.14194458E+03</pdfrwt>
<totfact> 0.42853119E+03</totfact>
</mgrwt>
</event>
<event>
 7    1  0.1020736E-005  0.1540534E+03  0.7546771E-02  0.1202764E+00
          2   -1    0    0  501    0  0.00000000000E+00  0.00000000000E+00  0.87670380456E+02  0.87670380456E+02  0.00000000000E+00 0.  1.
         -2   -1    0    0    0  501 -0.00000000000E+00 -0.00000000000E+00 -0.27515524787E+03  0.27515524787E+03  0.00000000000E+00 0. -1.
         23    2    1    2    0    0  0.34539043855E+00 -0.90041319147E+02 -0.15841616521E+03  0.20605367540E+03  0.96202272835E+02 0.  0.
          5    1    1    2  502    0  0.33389141263E+02  0.49828879822E+01 -0.52135449462E+02  0.62288514331E+02  0.47000000000E+01 0. -1.
         -5    1    1    2    0  502 -0.33734531702E+02  0.85058431165E+02  0.23066747249E+02  0.94483438602E+02  0.47000000000E+01 0. -1.
        -11    1    3    3    0    0 -0.19999620848E+02 -0.35965494223E+02 -0.13921535090E+03  0.14517029840E+03  0.00000000000E+00 0. -1.
         11    1    3    3    0    0  0.20345011287E+02 -0.54075824924E+02 -0.19200814301E+02  0.60883377003E+02  0.00000000000E+00 0.  1.
<mgrwt>
<rscale>  0 0.14815109E+03</rscale>
<asrwt>0</asrwt>
<pdfrwt beam="1">  1        2 0.13487751E-01 0.15405342E+03</pdfrwt>
<pdfrwt beam="2">  1       -2 0.42331576E-01 0.15405342E+03</pdfrwt>
<totfact> 0.22994411E+03</totfact>
</mgrwt>
</event>
<event>
 7    1  0.1020736E-005  0.1572970E+03  0.7546771E-02  0.1199484E+00
         -1   -1    0    0    0  501 -0.00000000000E+00  0.00000000000E+00  0.36655788285E+03  0.36655788285E+03  0.00000000000E+00 0.  1.
          1   -1    0    0  501    0  0.00000000000E+00 -0.00000000000E+00 -0.58962927694E+02  0.58962927694E+02  0.00000000000E+00 0. -1.
         23    2    1    2    0    0  0.20068434648E+02  0.93374170098E+02  0.17531492224E+03  0.21999622186E+03  0.92420441260E+02 0.  0.
          5    1    1    2  502    0  0.42841915898E+02 -0.76027348541E+02  0.51012031508E+02  0.10119241495E+03  0.47000000000E+01 0.  1.
         -5    1    1    2    0  502 -0.62910350546E+02 -0.17346821557E+02  0.81268001411E+02  0.10433217374E+03  0.47000000000E+01 0.  1.
        -11    1    3    3    0    0  0.41063609678E+02  0.51678137519E+02  0.15615753263E+03  0.16953473076E+03  0.00000000000E+00 0.  1.
         11    1    3    3    0    0 -0.20995175030E+02  0.41696032579E+02  0.19157389609E+02  0.50461491100E+02  0.00000000000E+00 0. -1.
<mgrwt>
<rscale>  0 0.15080768E+03</rscale>
<asrwt>0</asrwt>
<pdfrwt beam="2">  1        1 0.90712199E-02 0.15729701E+03</pdfrwt>
<pdfrwt beam="1">  1       -1 0.56393519E-01 0.15729701E+03</pdfrwt>
<totfact> 0.23399411E+03</totfact>
</mgrwt>
</event>
<event>
 7    1  0.1020736E-005  0.1818849E+03  0.7546771E-02  0.1171617E+00
         -1   -1    0    0    0  501 -0.00000000000E+00  0.00000000000E+00  0.36097193344E+02  0.36097193344E+02  0.00000000000E+00 0. -1.
          1   -1    0    0  501    0  0.00000000000E+00 -0.00000000000E+00 -0.10166147463E+04  0.10166147463E+04  0.00000000000E+00 0.  1.
         23    2    1    2    0    0  0.10165104529E+03  0.84400034027E+02 -0.22764514782E+03  0.27818047891E+03  0.90032020792E+02 0.  0.
          5    1    1    2  502    0  0.15209432461E+02 -0.50438743890E+02 -0.33939514268E+03  0.34349169800E+03  0.47000000000E+01 0. -1.
         -5    1    1    2    0  502 -0.11686047776E+03 -0.33961290137E+02 -0.41347726250E+03  0.43103976277E+03  0.47000000000E+01 0. -1.
        -11    1    3    3    0    0  0.74170225330E+02  0.35055738294E+01 -0.99046265573E+02  0.12378882865E+03  0.00000000000E+00 0. -1.
         11    1    3    3    0    0  0.27480819964E+02  0.80894460198E+02 -0.12859888225E+03  0.15439165027E+03  0.00000000000E+00 0.  1.
<mgrwt>
<rscale>  0 0.17611527E+03</rscale>
<asrwt>0</asrwt>
<pdfrwt beam="2">  1        1 0.15640226E+00 0.18188492E+03</pdfrwt>
<pdfrwt beam="1">  1       -1 0.55534148E-02 0.18188492E+03</pdfrwt>
<totfact> 0.23214071E+03</totfact>
</mgrwt>
</event>
<event>
 6    1  0.1020736E-005  0.3335791E+03  0.7546771E-02  0.1069564E+00
         -1   -1    0    0    0  501 -0.00000000000E+00  0.00000000000E+00  0.31463270929E+02  0.31463270929E+02  0.00000000000E+00 0.  1.
          1   -1    0    0  501    0  0.00000000000E+00 -0.00000000000E+00 -0.88416624494E+03  0.88416624494E+03  0.00000000000E+00 0. -1.
          5    1    1    2  502    0 -0.35409941783E+02 -0.28525884346E+02 -0.27339837018E+03  0.27719370280E+03  0.47000000000E+01 0. -1.
         -5    1    1    2    0  502  0.54761425985E+02  0.53941227051E+02 -0.43229293468E+03  0.43909878288E+03  0.47000000000E+01 0.  1.
        -11    1    1    2    0    0  0.30982088303E+02 -0.59243688623E+02 -0.10866814400E+03  0.12758710734E+03  0.00000000000E+00 0.  1.
         11    1    1    2    0    0 -0.50333572506E+02  0.33828345918E+02 -0.38343525148E+02  0.71749922854E+02  0.00000000000E+00 0. -1.
<mgrwt>
<rscale>  0 0.33357915E+03</rscale>
<asrwt>0</asrwt>
<pdfrwt beam="2">  1        1 0.13602555E+00 0.33357915E+03</pdfrwt>
<pdfrwt beam="1">  1       -1 0.48405040E-02 0.33357915E+03</pdfrwt>
<totfact> 0.36424186E+03</totfact>
</mgrwt>
</event>
<event>
 7    1  0.1020736E-005  0.1441500E+03  0.7546771E-02  0.1217830E+00
         -2   -1    0    0    0  501 -0.00000000000E+00  0.00000000000E+00  0.61165155429E+02  0.61165155429E+02  0.00000000000E+00 0.  1.
          2   -1    0    0  501    0  0.00000000000E+00 -0.00000000000E+00 -0.32319952723E+03  0.32319952723E+03  0.00000000000E+00 0. -1.
         23    2    1    2    0    0 -0.70914908828E+02 -0.11126419257E+02 -0.47520241148E+02  0.12591637071E+03  0.91891444617E+02 0.  0.
          5    1    1    2  502    0 -0.20142186853E+02  0.19835417872E+02 -0.40819039201E+01  0.28946561678E+02  0.47000000000E+01 0.  1.
         -5    1    1    2    0  502  0.91057095681E+02 -0.87089986148E+01 -0.21043222673E+03  0.22950175027E+03  0.47000000000E+01 0.  1.
        -11    1    3    3    0    0 -0.19500161771E+02 -0.23056224021E+02  0.22909840415E+02  0.37903912240E+02  0.00000000000E+00 0.  1.
         11    1    3    3    0    0 -0.51414747057E+02  0.11929804764E+02 -0.70430081563E+02  0.88012458468E+02  0.00000000000E+00 0. -1.
<mgrwt>
<rscale>  0 0.13670688E+03</rscale>
<asrwt>0</asrwt>
<pdfrwt beam="2">  1        2 0.49723003E-01 0.14414998E+03</pdfrwt>
<pdfrwt beam="1">  1       -2 0.94100241E-02 0.14414998E+03</pdfrwt>
<totfact> 0.70543857E+03</totfact>
</mgrwt>
</event>
<event>
 7    1  0.1020736E-005  0.2257331E+03  0.7546771E-02  0.1129680E+00
          1   -1    0    0  501    0  0.00000000000E+00  0.00000000000E+00  0.33700325679E+02  0.33700325679E+02  0.00000000000E+00 0. -1.
         -1   -1    0    0    0  501 -0.00000000000E+00 -0.00000000000E+00 -0.37800407428E+03  0.37800407428E+03  0.00000000000E+00 0.  1.
         23    2    1    2    0    0 -0.21463520765E+02 -0.23623430472E+02 -0.15697216741E+03  0.18423671798E+03  0.91017348457E+02 0.  0.
          5    1    1    2  502    0  0.38469083692E+02  0.67038531331E+02 -0.85398227527E+02  0.11527784847E+03  0.47000000000E+01 0. -1.
         -5    1    1    2    0  502 -0.17005562927E+02 -0.43415100860E+02 -0.10193335366E+03  0.11218983351E+03  0.47000000000E+01 0. -1.
        -11    1    3    3    0    0  0.15188451041E+02 -0.34604401597E+01  0.54581518779E+01  0.16506214377E+02  0.00000000000E+00 0. -1.
         11    1    3    3    0    0 -0.36651971806E+02 -0.20162990312E+02 -0.16243031928E+03  0.16773050360E+03  0.00000000000E+00 0.  1.
<mgrwt>
<rscale>  0 0.22573312E+03</rscale>
<asrwt>0</asrwt>
<pdfrwt beam="1">  1        1 0.51846654E-02 0.22573312E+03</pdfrwt>
<pdfrwt beam="2">  1       -1 0.58154474E-01 0.22573312E+03</pdfrwt>
<totfact> 0.48160867E+03</totfact>
</mgrwt>
</event>
<event>
 7    1  0.1020736E-005  0.1582166E+03  0.7546771E-02  0.1207002E+00
         -2   -1    0    0    0  501 -0.00000000000E+00  0.00000000000E+00  0.68950628637E+02  0.68950628637E+02  0.00000000000E+00 0.  1.
          2   -1    0    0  501    0  0.00000000000E+00 -0.00000000000E+00 -0.11314898666E+04  0.11314898666E+04  0.00000000000E+00 0. -1.
         23    2    1    2    0    0 -0.23786430377E+02  0.80212802605E+02  0.14390173085E+02  0.11195096806E+03  0.72979820467E+02 0.  0.
          5    1    1    2  502    0  0.42419669250E+02 -0.11249446410E+03 -0.84943340319E+03  0.85791236689E+03  0.47000000000E+01 0. -1.
         -5    1    1    2    0  502 -0.18633238873E+02  0.32281661499E+02 -0.22749600784E+03  0.23057716028E+03  0.47000000000E+01 0.  1.
        -11    1    3    3    0    0 -0.95233416954E+01 -0.10480440032E+02 -0.95409992166E+01  0.17075254797E+02  0.00000000000E+00 0. -1.
         11    1    3    3    0    0 -0.14263088682E+02  0.90693242637E+02  0.23931172302E+02  0.94875713259E+02  0.00000000000E+00 0.  1.
<mgrwt>
<rscale>  0 0.14480767E+03</rscale>
<asrwt>0</asrwt>
<pdfrwt beam="2">  1        2 0.17407535E+00 0.15821661E+03</pdfrwt>
<pdfrwt beam="1">  1       -2 0.10607790E-01 0.15821661E+03</pdfrwt>
<totfact> 0.13253717E+03</totfact>
</mgrwt>
</event>
<event>
 7    1  0.1020736E-005  0.1591597E+03  0.7546771E-02  0.1199225E+00
         -1   -1    0    0    0  501 -0.00000000000E+00  0.00000000000E+00  0.40930782669E+02  0.40930782669E+02  0.00000000000E+00 0.  1.
          1   -1    0    0  501    0  0.00000000000E+00 -0.00000000000E+00 -0.52521594213E+03  0.52521594213E+03  0.00000000000E+00 0. -1.
         23    2    1    2    0    0  0.18182032977E+02 -0.96832206048E+02 -0.26979403538E+03  0.29905453086E+03  0.83293027635E+02 0.  0.
          5    1    1    2  502    0  0.14891005709E+02 -0.23049727848E+02 -0.75801808128E+02  0.80752932581E+02  0.47000000000E+01 0. -1.
         -5    1    1    2    0  502 -0.33073038687E+02  0.11988193390E+03 -0.13868931596E+03  0.18633926136E+03  0.47000000000E+01 0. -1.
        -11    1    3    3    0    0 -0.31891637128E+02 -0.55589560446E+02 -0.12971117131E+03  0.14467986629E+03  0.00000000000E+00 0.  1.
         11    1    3    3    0    0  0.50073670105E+02 -0.41242645602E+02 -0.14008286407E+03  0.15437466457E+03  0.00000000000E+00 0. -1.
<mgrwt>
<rscale>  0 0.15102003E+03</rscale>
<asrwt>0</asrwt>
<pdfrwt beam="2">  1        1 0.80802451E-01 0.15915966E+03</pdfrwt>
<pdfrwt beam="1">  1       -1 0.62970436E-02 0.15915966E+03</pdfrwt>
<totfact> 0.51019126E+03</totfact>
</mgrwt>
</event>
<event>
 7    1  0.1020736E-005  0.1680844E+03  0.7546771E-02  0.1186281E+00
         -2   -1    0    0    0  501 -0.00000000000E+00  0.00000000000E+00  0.36930769148E+02  0.36930769148E+02  0.00000000000E+00 0.  1.
          2   -1    0    0  501    0  0.00000000000E+00 -0.00000000000E+00 -0.67650626912E+03  0.67650626912E+03  0.00000000000E+00 0. -1.
         23    2    1    2    0    0 -0.10595512314E+03 -0.37426360940E+02 -0.34130521788E+03  0.37106659060E+03  0.92595584653E+02 0.  0.
          5    1    1    2  502    0  0.89687017545E+02 -0.49901164500E+01 -0.27838799609E+03  0.29255876118E+03  0.47000000000E+01 0. -1.
         -5    1    1    2    0  502  0.16268105594E+02  0.42416477390E+02 -0.19882286009E+02  0.49811686487E+02  0.47000000000E+01 0. -1.
        -11    1    3    3    0    0 -0.85389979459E+02 -0.62738528918E+02 -0.30167268689E+03  0.31974049106E+03  0.00000000000E+00 0. -1.
         11    1    3    3    0    0 -0.20565143680E+02  0.25312167978E+02 -0.39632530983E+02  0.51326099544E+02  0.00000000000E+00 0.  1.
<mgrwt>
<rscale>  0 0.16215879E+03</rscale>
<asrwt>0</asrwt>
<pdfrwt beam="2">  1        2 0.10407788E+00 0.16808439E+03</pdfrwt>
<pdfrwt beam="1">  1       -2 0.56816571E-02 0.16808439E+03</pdfrwt>
<totfact> 0.68573173E+03</totfact>
</mgrwt>
</event>
<event>
 7    1  0.1020736E-005  0.1547196E+03  0.7546771E-02  0.1206616E+00
         -1   -1    0    0    0  501 -0.00000000000E+00  0.00000000000E+00  0.49610959427E+02  0.49610959427E+02  0.00000000000E+00 0.  1.
          1   -1    0    0  501    0  0.00000000000E+00 -0.00000000000E+00 -0.65155754565E+03  0.65155754565E+03  0.00000000000E+00 0. -1.
         23    2    1    2    0    0  0.84155325784E+02 -0.35095548530E+02 -0.53148543640E+02  0.13097779942E+03  0.77566744580E+02 0.  0.
          5    1    1    2  502    0 -0.63661941304E+02  0.69060273744E+02 -0.22393430936E+03  0.24288027727E+03  0.47000000000E+01 0.  1.
         -5    1    1    2    0  502 -0.20493384480E+02 -0.33964725214E+02 -0.32486373322E+03  0.32731042838E+03  0.47000000000E+01 0.  1.
        -11    1    3    3    0    0  0.62792836595E+02 -0.58168173848E+02 -0.26057584647E+02  0.89473317219E+02  0.00000000000E+00 0.  1.
         11    1    3    3    0    0  0.21362489188E+02  0.23072625318E+02 -0.27090958993E+02  0.41504482198E+02  0.00000000000E+00 0. -1.
<mgrwt>
<rscale>  0 0.14510799E+03</rscale>
<asrwt>0</asrwt>
<pdfrwt beam="2">  1        1 0.10023962E+00 0.15471958E+03</pdfrwt>
<pdfrwt beam="1">  1       -1 0.76324557E-02 0.15471958E+03</pdfrwt>
<totfact> 0.28458534E+03</totfact>
</mgrwt>
</event>
<event>
 7    1  0.1020736E-005  0.1255558E+03  0.7546771E-02  0.1249697E+00
          1   -1    0    0  501    0  0.00000000000E+00  0.00000000000E+00  0.17752604464E+03  0.17752604464E+03  0.00000000000E+00 0. -1.
         -1   -1    0    0    0  501 -0.00000000000E+00 -0.00000000000E+00 -0.67122096427E+02  0.67122096427E+02  0.00000000000E+00 0.  1.
         23    2    1    2    0    0 -0.11185276767E+02  0.36114480340E+01  0.58326608849E+02  0.10872058903E+03  0.90994616353E+02 0.  0.
          5    1    1    2  502    0  0.16105851252E+02  0.59011277828E+02  0.16272345777E+02  0.63471321024E+02  0.47000000000E+01 0. -1.
         -5    1    1    2    0  502 -0.49205744844E+01 -0.62622725862E+02  0.35804993590E+02  0.72456231020E+02  0.47000000000E+01 0. -1.
        -11    1    3    3    0    0  0.29013417331E+02 -0.26769047720E+01 -0.86151588354E+01  0.30383633195E+02  0.00000000000E+00 0.  1.
         11    1    3    3    0    0 -0.40198694098E+02  0.62883528061E+01  0.66941767684E+02  0.78336955831E+02  0.00000000000E+00 0. -1.
<mgrwt>
<rscale>  0 0.11608597E+03</rscale>
<asrwt>0</asrwt>
<pdfrwt beam="1">  1        1 0.27311699E-01 0.12555577E+03</pdfrwt>
<pdfrwt beam="2">  1       -1 0.10326476E-01 0.12555577E+03</pdfrwt>
<totfact> 0.92821087E+03</totfact>
</mgrwt>
</event>
<event>
 7    1  0.1020736E-005  0.3513492E+03  0.7546771E-02  0.1063201E+00
         -2   -1    0    0    0  501 -0.00000000000E+00  0.00000000000E+00  0.14392409995E+03  0.14392409995E+03  0.00000000000E+00 0.  1.
          2   -1    0    0  501    0  0.00000000000E+00 -0.00000000000E+00 -0.84346006469E+03  0.84346006469E+03  0.00000000000E+00 0. -1.
         23    2    1    2    0    0  0.29421185822E+03  0.14584712760E+03 -0.40389558681E+03  0.52820064673E+03  0.89622965883E+02 0.  0.
          5    1    1    2  502    0 -0.10857056917E+03 -0.95820038402E+02 -0.19256357396E+03  0.24098105375E+03  0.47000000000E+01 0.  1.
         -5    1    1    2    0  502 -0.18564128904E+03 -0.50027089195E+02 -0.10307680396E+03  0.21820246416E+03  0.47000000000E+01 0.  1.
        -11    1    3    3    0    0  0.80924644481E+02  0.47989570232E+02 -0.18375613648E+03  0.20644155258E+03  0.00000000000E+00 0. -1.
         11    1    3    3    0    0  0.21328721374E+03  0.97857557365E+02 -0.22013945032E+03  0.32175909415E+03  0.00000000000E+00 0.  1.
<mgrwt>
<rscale>  0 0.34857636E+03</rscale>
<asrwt>0</asrwt>
<pdfrwt beam="2">  1        2 0.12976309E+00 0.35134921E+03</pdfrwt>
<pdfrwt beam="1">  1       -2 0.22142168E-01 0.35134921E+03</pdfrwt>
<totfact> 0.58339406E+02</totfact>
</mgrwt>
</event>
<event>
 7    1  0.1020736E-005  0.1319497E+03  0.7546771E-02  0.1241699E+00
         -4   -1    0    0    0  501 -0.00000000000E+00  0.00000000000E+00  0.66859397294E+02  0.66859397294E+02  0.00000000000E+00 0. -1.
          4   -1    0    0  501    0  0.00000000000E+00 -0.00000000000E+00 -0.19202520130E+03  0.19202520130E+03  0.00000000000E+00 0.  1.
         23    2    1    2    0    0 -0.12444624293E+02  0.40379614403E+02 -0.35760839251E+02  0.99498397023E+02  0.82678361456E+02 0.  0.
          5    1    1    2  502    0  0.18124214023E+02 -0.59841899701E+02 -0.11219236861E+03  0.12852531917E+03  0.47000000000E+01 0. -1.
         -5    1    1    2    0  502 -0.56795897306E+01  0.19462285298E+02  0.22787403850E+02  0.30860882404E+02  0.47000000000E+01 0. -1.
        -11    1    3    3    0    0 -0.44244698211E+02  0.19712805517E+02 -0.37914191145E+02  0.61511575425E+02  0.00000000000E+00 0.  1.
         11    1    3    3    0    0  0.31800073918E+02  0.20666808886E+02  0.21533518936E+01  0.37986821598E+02  0.00000000000E+00 0. -1.
<mgrwt>
<rscale>  0 0.12085135E+03</rscale>
<asrwt>0</asrwt>
<pdfrwt beam="2">  1        4 0.29542339E-01 0.13194966E+03</pdfrwt>
<pdfrwt beam="1">  1       -4 0.10286061E-01 0.13194966E+03</pdfrwt>
<totfact> 0.12972871E+03</totfact>
</mgrwt>
</event>
<event>
 7    1  0.1020736E-005  0.1968793E+03  0.7546771E-02  0.1157108E+00
         -2   -1    0    0    0  501 -0.00000000000E+00  0.00000000000E+00  0.37387296575E+02  0.37387296575E+02  0.00000000000E+00 0. -1.
          2   -1    0    0  501    0  0.00000000000E+00 -0.00000000000E+00 -0.99500721554E+03  0.99500721554E+03  0.00000000000E+00 0.  1.
         23    2    1    2    0    0 -0.51533559259E+02 -0.14318721095E+03 -0.32333604019E+03  0.36825786860E+03  0.88934682748E+02 0.  0.
          5    1    1    2  502    0  0.83105199452E+02  0.87856166378E+02 -0.29446278890E+03  0.31836394926E+03  0.47000000000E+01 0. -1.
         -5    1    1    2    0  502 -0.31571640193E+02  0.55331044573E+02 -0.33982108989E+03  0.34577269425E+03  0.47000000000E+01 0. -1.
        -11    1    3    3    0    0 -0.30979810644E+02 -0.23087091186E+02 -0.15930415963E+03  0.16392247473E+03  0.00000000000E+00 0.  1.
         11    1    3    3    0    0 -0.20553748616E+02 -0.12010011976E+03 -0.16403188055E+03  0.20433539387E+03  0.00000000000E+00 0. -1.
<mgrwt>
<rscale>  0 0.19150872E+03</rscale>
<asrwt>0</asrwt>
<pdfrwt beam="2">  1        2 0.15307800E+00 0.19687926E+03</pdfrwt>
<pdfrwt beam="1">  1       -2 0.57518930E-02 0.19687926E+03</pdfrwt>
<totfact> 0.41362081E+03</totfact>
</mgrwt>
</event>
<event>
 7    1  0.1020736E-005  0.1273441E+03  0.7546771E-02  0.1248080E+00
          2   -1    0    0  501    0  0.00000000000E+00  0.00000000000E+00  0.57980386877E+03  0.57980386877E+03  0.00000000000E+00 0. -1.
         -2   -1    0    0    0  501 -0.00000000000E+00 -0.00000000000E+00 -0.20805310537E+02  0.20805310537E+02  0.00000000000E+00 0.  1.
         23    2    1    2    0    0  0.13414238907E+02 -0.20286774161E+02  0.19896727812E+03  0.21872040120E+03  0.87516519160E+02 0.  0.
          5    1    1    2  502    0  0.43877337989E+02  0.91192632499E+01  0.27485810473E+03  0.27852728679E+03  0.47000000000E+01 0.  1.
         -5    1    1    2    0  502 -0.57291576896E+02  0.11167510911E+02  0.85173175393E+02  0.10336149133E+03  0.47000000000E+01 0.  1.
        -11    1    3    3    0    0 -0.17208584434E+02 -0.39608442889E+02  0.15913302561E+03  0.16488870176E+03  0.00000000000E+00 0.  1.
         11    1    3    3    0    0  0.30622823341E+02  0.19321668727E+02  0.39834252505E+02  0.53831699438E+02  0.00000000000E+00 0. -1.
<mgrwt>
<rscale>  0 0.11702941E+03</rscale>
<asrwt>0</asrwt>
<pdfrwt beam="1">  1        2 0.89200583E-01 0.12734409E+03</pdfrwt>
<pdfrwt beam="2">  1       -2 0.32008175E-02 0.12734409E+03</pdfrwt>
<totfact> 0.18952477E+04</totfact>
</mgrwt>
</event>
<event>
 7    1  0.1020736E-005  0.2436955E+03  0.7546771E-02  0.1119873E+00
         -1   -1    0    0    0  501 -0.00000000000E+00  0.00000000000E+00  0.13827387813E+03  0.13827387813E+03  0.00000000000E+00 0.  1.
          1   -1    0    0  501    0  0.00000000000E+00 -0.00000000000E+00 -0.41514026270E+03  0.41514026270E+03  0.00000000000E+00 0. -1.
         23    2    1    2    0    0  0.19598949490E+03  0.73145876910E+02 -0.88120974004E+02  0.24517345530E+03  0.92641868002E+02 0.  0.
          5    1    1    2  502    0 -0.10849431454E+03 -0.89019254677E+02 -0.16383125405E+03  0.21577352431E+03  0.47000000000E+01 0. -1.
         -5    1    1    2    0  502 -0.87495180362E+02  0.15873377768E+02 -0.24914156511E+02  0.92467161214E+02  0.47000000000E+01 0. -1.
        -11    1    3    3    0    0  0.17137582873E+03  0.94046827131E+02 -0.67269994740E+02  0.20673590051E+03  0.00000000000E+00 0.  1.
         11    1    3    3    0    0  0.24613666166E+02 -0.20900950222E+02 -0.20850979264E+02  0.38437554794E+02  0.00000000000E+00 0. -1.
<mgrwt>
<rscale>  0 0.23988038E+03</rscale>
<asrwt>0</asrwt>
<pdfrwt beam="2">  1        1 0.63867732E-01 0.24369549E+03</pdfrwt>
<pdfrwt beam="1">  1       -1 0.21272905E-01 0.24369549E+03</pdfrwt>
<totfact> 0.10524285E+03</totfact>
</mgrwt>
</event>
<event>
 7    1  0.1020736E-005  0.1189296E+03  0.7546771E-02  0.1256207E+00
          2   -1    0    0  501    0  0.00000000000E+00  0.00000000000E+00  0.19284937039E+03  0.19284937039E+03  0.00000000000E+00 0.  1.
         -2   -1    0    0    0  501 -0.00000000000E+00 -0.00000000000E+00 -0.61357833656E+02  0.61357833656E+02  0.00000000000E+00 0. -1.
         23    2    1    2    0    0 -0.23010433561E+02 -0.25066944990E+02  0.35160369907E+02  0.10115836128E+03  0.88537735798E+02 0.  0.
          5    1    1    2  502    0  0.28218434478E+02  0.12030108153E+02 -0.19252728990E+02  0.36520694409E+02  0.47000000000E+01 0. -1.
         -5    1    1    2    0  502 -0.52080009173E+01  0.13036836837E+02  0.11558389582E+03  0.11652814836E+03  0.47000000000E+01 0.  1.
        -11    1    3    3    0    0 -0.42683683787E+02 -0.46408985603E+02  0.35033122472E+02  0.72131896388E+02  0.00000000000E+00 0.  1.
         11    1    3    3    0    0  0.19673250226E+02  0.21342040613E+02  0.12724743492E+00  0.29026464888E+02  0.00000000000E+00 0. -1.
<mgrwt>
<rscale>  0 0.11239016E+03</rscale>
<asrwt>0</asrwt>
<pdfrwt beam="1">  1        2 0.29669133E-01 0.11892962E+03</pdfrwt>
<pdfrwt beam="2">  1       -2 0.94396668E-02 0.11892962E+03</pdfrwt>
<totfact> 0.11999269E+04</totfact>
</mgrwt>
</event>
<event>
 7    1  0.1020736E-005  0.1540160E+03  0.7546771E-02  0.1203608E+00
         -1   -1    0    0    0  501 -0.00000000000E+00  0.00000000000E+00  0.14068747965E+03  0.14068747965E+03  0.00000000000E+00 0.  1.
          1   -1    0    0  501    0  0.00000000000E+00 -0.00000000000E+00 -0.21852739084E+03  0.21852739084E+03  0.00000000000E+00 0. -1.
         23    2    1    2    0    0 -0.86494489266E+02 -0.24742315422E+02  0.68742372292E+02  0.14659477239E+03  0.93118390756E+02 0.  0.
          5    1    1    2  502    0  0.43413683572E+02  0.37572432517E+02 -0.15613732712E+03  0.16642533018E+03  0.47000000000E+01 0. -1.
         -5    1    1    2    0  502  0.43080805695E+02 -0.12830117095E+02  0.95550436413E+01  0.46194767918E+02  0.47000000000E+01 0. -1.
        -11    1    3    3    0    0 -0.99068806331E+01 -0.48046401104E+02  0.31513671056E+02  0.58307069952E+02  0.00000000000E+00 0. -1.
         11    1    3    3    0    0 -0.76587608633E+02  0.23304085682E+02  0.37228701236E+02  0.88287702436E+02  0.00000000000E+00 0.  1.
<mgrwt>
<rscale>  0 0.14747667E+03</rscale>
<asrwt>0</asrwt>
<pdfrwt beam="2">  1        1 0.33619599E-01 0.15401604E+03</pdfrwt>
<pdfrwt beam="1">  1       -1 0.21644228E-01 0.15401604E+03</pdfrwt>
<totfact> 0.22696072E+03</totfact>
</mgrwt>
</event>
<event>
 7    1  0.1020736E-005  0.1808510E+03  0.7546771E-02  0.1169459E+00
          1   -1    0    0  501    0  0.00000000000E+00  0.00000000000E+00  0.13806512791E+04  0.13806512791E+04  0.00000000000E+00 0. -1.
         -1   -1    0    0    0  501 -0.00000000000E+00 -0.00000000000E+00 -0.22399182788E+02  0.22399182788E+02  0.00000000000E+00 0.  1.
         23    2    1    2    0    0 -0.72494427697E+02 -0.11783362438E+03  0.65698892507E+03  0.67884254796E+03  0.10026241655E+03 0.  0.
          5    1    1    2  502    0  0.10163370230E+03  0.10794902556E+03  0.61020071796E+03  0.62797245781E+03  0.47000000000E+01 0. -1.
         -5    1    1    2    0  502 -0.29139274599E+02  0.98845988231E+01  0.91062453316E+02  0.96235456158E+02  0.47000000000E+01 0.  1.
        -11    1    3    3    0    0 -0.42165118373E+02  0.30465852595E+01  0.23746217755E+03  0.24119590514E+03  0.00000000000E+00 0. -1.
         11    1    3    3    0    0 -0.30329309324E+02 -0.12088020964E+03  0.41952674752E+03  0.43764664282E+03  0.00000000000E+00 0.  1.
<mgrwt>
<rscale>  0 0.17829944E+03</rscale>
<asrwt>0</asrwt>
<pdfrwt beam="1">  1        1 0.21240782E+00 0.18085095E+03</pdfrwt>
<pdfrwt beam="2">  1       -1 0.34460292E-02 0.18085095E+03</pdfrwt>
<totfact> 0.26323910E+03</totfact>
</mgrwt>
</event>
<event>
 7    1  0.1020736E-005  0.3120896E+03  0.7546771E-02  0.1080742E+00
         -2   -1    0    0    0  501 -0.00000000000E+00  0.00000000000E+00  0.36513506200E+03  0.36513506200E+03  0.00000000000E+00 0.  1.
          2   -1    0    0  501    0  0.00000000000E+00 -0.00000000000E+00 -0.39859336629E+03  0.39859336629E+03  0.00000000000E+00 0. -1.
         23    2    1    2    0    0 -0.19640320071E+03  0.20785003614E+03  0.21103237686E+03  0.36727463136E+03  0.92629023462E+02 0.  0.
          5    1    1    2  502    0  0.82849949045E+02 -0.17010672351E+03 -0.17623388349E+03  0.25861338544E+03  0.47000000000E+01 0.  1.
         -5    1    1    2    0  502  0.11355325166E+03 -0.37743312637E+02 -0.68256797663E+02  0.13784041149E+03  0.47000000000E+01 0.  1.
        -11    1    3    3    0    0 -0.10208645132E+03  0.96983440524E+02  0.15974464767E+03  0.21294549476E+03  0.00000000000E+00 0.  1.
         11    1    3    3    0    0 -0.94316749386E+02  0.11086659562E+03  0.51287729184E+02  0.15432913660E+03  0.00000000000E+00 0. -1.
<mgrwt>
<rscale>  0 0.30917480E+03</rscale>
<asrwt>0</asrwt>
<pdfrwt beam="2">  1        2 0.61322056E-01 0.31208960E+03</pdfrwt>
<pdfrwt beam="1">  1       -2 0.56174625E-01 0.31208960E+03</pdfrwt>
<totfact> 0.24417987E+02</totfact>
</mgrwt>
</event>
<event>
 7    1  0.1020736E-005  0.1636830E+03  0.7546771E-02  0.1191909E+00
          1   -1    0    0  501    0  0.00000000000E+00  0.00000000000E+00  0.22680731509E+03  0.22680731509E+03  0.00000000000E+00 0. -1.
         -1   -1    0    0    0  501 -0.00000000000E+00 -0.00000000000E+00 -0.10907328883E+03  0.10907328883E+03  0.00000000000E+00 0.  1.
         23    2    1    2    0    0 -0.87621394395E+02 -0.59072885803E+02  0.92552405704E+01  0.13951421027E+03  0.90617000586E+02 0.  0.
          5    1    1    2  502    0  0.97107663419E+02  0.81559975369E+02  0.11435715145E+03  0.17082615715E+03  0.47000000000E+01 0. -1.
         -5    1    1    2    0  502 -0.94862690248E+01 -0.22487089566E+02 -0.58783657624E+01  0.25540236514E+02  0.47000000000E+01 0. -1.
        -11    1    3    3    0    0 -0.90810757615E+02 -0.77785354055E+02  0.32874572762E+01  0.11961589518E+03  0.00000000000E+00 0. -1.
         11    1    3    3    0    0  0.31893632205E+01  0.18712468252E+02  0.59677832942E+01  0.19898315086E+02  0.00000000000E+00 0.  1.
<mgrwt>
<rscale>  0 0.15718742E+03</rscale>
<asrwt>0</asrwt>
<pdfrwt beam="1">  1        1 0.34893433E-01 0.16368297E+03</pdfrwt>
<pdfrwt beam="2">  1       -1 0.16780506E-01 0.16368297E+03</pdfrwt>
<totfact> 0.32685046E+03</totfact>
</mgrwt>
</event>
<event>
 7    1  0.1020736E-005  0.2082368E+03  0.7546771E-02  0.1146624E+00
         -1   -1    0    0    0  501 -0.00000000000E+00  0.00000000000E+00  0.27764975507E+03  0.27764975507E+03  0.00000000000E+00 0.  1.
          1   -1    0    0  501    0  0.00000000000E+00 -0.00000000000E+00 -0.17239654080E+03  0.17239654080E+03  0.00000000000E+00 0. -1.
         23    2    1    2    0    0 -0.16305216461E+03  0.33929271167E+02 -0.41526763299E+02  0.19527795449E+03  0.93122519375E+02 0.  0.
          5    1    1    2  502    0  0.13660039281E+03 -0.76390996316E+02  0.97890692370E+02  0.18466166166E+03  0.47000000000E+01 0.  1.
         -5    1    1    2    0  502  0.26451771797E+02  0.42461725149E+02  0.48889285202E+02  0.70106679721E+02  0.47000000000E+01 0.  1.
        -11    1    3    3    0    0 -0.13618542202E+03 -0.66077823274E+01 -0.87388409185E+01  0.13662539771E+03  0.00000000000E+00 0.  1.
         11    1    3    3    0    0 -0.26866742590E+02  0.40537053494E+02 -0.32787922381E+02  0.58652556785E+02  0.00000000000E+00 0. -1.
<mgrwt>
<rscale>  0 0.20373664E+03</rscale>
<asrwt>0</asrwt>
<pdfrwt beam="2">  1        1 0.26522545E-01 0.20823675E+03</pdfrwt>
<pdfrwt beam="1">  1       -1 0.42715347E-01 0.20823675E+03</pdfrwt>
<totfact> 0.97048723E+02</totfact>
</mgrwt>
</event>
<event>
 7    1  0.1020736E-005  0.1789823E+03  0.7546771E-02  0.1174800E+00
          2   -1    0    0  501    0  0.00000000000E+00  0.00000000000E+00  0.28651103721E+03  0.28651103721E+03  0.00000000000E+00 0. -1.
         -2   -1    0    0    0  501 -0.00000000000E+00 -0.00000000000E+00 -0.12524307684E+03  0.12524307684E+03  0.00000000000E+00 0.  1.
         23    2    1    2    0    0 -0.12423116808E+03 -0.31271455349E+02 -0.19607945708E+02  0.15729240713E+03  0.89135530315E+02 0.  0.
          5    1    1    2  502    0  0.84835895853E+01 -0.29328750244E+02 -0.48101468766E+00  0.30894469703E+02  0.47000000000E+01 0.  1.
         -5    1    1    2    0  502  0.11574757850E+03  0.60600205592E+02  0.18135692076E+03  0.22356723721E+03  0.47000000000E+01 0.  1.
        -11    1    3    3    0    0 -0.75353825869E+02 -0.61774144568E+02 -0.20938416853E+02  0.99662737824E+02  0.00000000000E+00 0.  1.
         11    1    3    3    0    0 -0.48877342211E+02  0.30502689219E+02  0.13304711454E+01  0.57629669309E+02  0.00000000000E+00 0. -1.
<mgrwt>
<rscale>  0 0.17295546E+03</rscale>
<asrwt>0</asrwt>
<pdfrwt beam="1">  1        2 0.44078621E-01 0.17898231E+03</pdfrwt>
<pdfrwt beam="2">  1       -2 0.19268166E-01 0.17898231E+03</pdfrwt>
<totfact> 0.25314085E+03</totfact>
</mgrwt>
</event>
<event>
 7    1  0.1020736E-005  0.1336529E+03  0.7546771E-02  0.1235002E+00
         -1   -1    0    0    0  501 -0.00000000000E+00  0.00000000000E+00  0.87827233641E+02  0.87827233641E+02  0.00000000000E+00 0.  1.
          1   -1    0    0  501    0  0.00000000000E+00 -0.00000000000E+00 -0.19390377089E+03  0.19390377089E+03  0.00000000000E+00 0. -1.
         23    2    1    2    0    0  0.45861358654E+02  0.11522807169E+02  0.12369512840E+02  0.10314611609E+03  0.90829935120E+02 0.  0.
          5    1    1    2  502    0 -0.10086864857E+02 -0.41508846355E+02 -0.12409968885E+03  0.13132993543E+03  0.47000000000E+01 0. -1.
         -5    1    1    2    0  502 -0.35774493797E+02  0.29986039186E+02  0.56536387608E+01  0.47254953007E+02  0.47000000000E+01 0. -1.
        -11    1    3    3    0    0  0.24082983648E+02 -0.15202649965E+02  0.46567663933E+02  0.54586243611E+02  0.00000000000E+00 0.  1.
         11    1    3    3    0    0  0.21778375006E+02  0.26725457135E+02 -0.34198151093E+02  0.48559872479E+02  0.00000000000E+00 0. -1.
<mgrwt>
<rscale>  0 0.12504335E+03</rscale>
<asrwt>0</asrwt>
<pdfrwt beam="2">  1        1 0.29831349E-01 0.13365289E+03</pdfrwt>
<pdfrwt beam="1">  1       -1 0.13511882E-01 0.13365289E+03</pdfrwt>
<totfact> 0.55223907E+03</totfact>
</mgrwt>
</event>
<event>
 7    1  0.1020736E-005  0.1223604E+03  0.7546771E-02  0.1254328E+00
         -2   -1    0    0    0  501 -0.00000000000E+00  0.00000000000E+00  0.23591298760E+02  0.23591298760E+02  0.00000000000E+00 0.  1.
          2   -1    0    0  501    0  0.00000000000E+00 -0.00000000000E+00 -0.50193110495E+03  0.50193110495E+03  0.00000000000E+00 0. -1.
         23    2    1    2    0    0 -0.41397148387E+01  0.58433685973E+01 -0.15011390275E+03  0.17523063484E+03  0.90112759315E+02 0.  0.
          5    1    1    2  502    0  0.46697518039E+01 -0.62834915210E+02 -0.20344313764E+03  0.21302871497E+03  0.47000000000E+01 0. -1.
         -5    1    1    2    0  502 -0.53003696530E+00  0.56991546613E+02 -0.12478276580E+03  0.13726305390E+03  0.47000000000E+01 0.  1.
        -11    1    3    3    0    0 -0.40126359750E+01 -0.25392776278E+02 -0.14008408125E+03  0.14242346771E+03  0.00000000000E+00 0. -1.
         11    1    3    3    0    0 -0.12707886364E+00  0.31236144876E+02 -0.10029821501E+02  0.32807167129E+02  0.00000000000E+00 0.  1.
<mgrwt>
<rscale>  0 0.11344076E+03</rscale>
<asrwt>0</asrwt>
<pdfrwt beam="2">  1        2 0.77220167E-01 0.12236045E+03</pdfrwt>
<pdfrwt beam="1">  1       -2 0.36294307E-02 0.12236045E+03</pdfrwt>
<totfact> 0.18417424E+04</totfact>
</mgrwt>
</event>
<event>
 7    1  0.1020736E-005  0.1480844E+03  0.7546771E-02  0.1212464E+00
         -3   -1    0    0    0  501 -0.00000000000E+00  0.00000000000E+00  0.15112205231E+03  0.15112205231E+03  0.00000000000E+00 0.  1.
          3   -1    0    0  501    0  0.00000000000E+00 -0.00000000000E+00 -0.16685833227E+03  0.16685833227E+03  0.00000000000E+00 0. -1.
         23    2    1    2    0    0 -0.46366055895E+02 -0.64456124816E+02  0.77240941872E+02  0.14312686643E+03  0.90635167721E+02 0.  0.
          5    1    1    2  502    0 -0.20265467437E+02  0.76637908456E+02 -0.41181851663E+02  0.89454419060E+02  0.47000000000E+01 0. -1.
         -5    1    1    2    0  502  0.66631523332E+02 -0.12181783640E+02 -0.51795370163E+02  0.85399099085E+02  0.47000000000E+01 0. -1.
        -11    1    3    3    0    0 -0.34550998748E+02 -0.75385826072E+02  0.22293727792E+02  0.85870859935E+02  0.00000000000E+00 0. -1.
         11    1    3    3    0    0 -0.11815057147E+02  0.10929701255E+02  0.54947214080E+02  0.57256006498E+02  0.00000000000E+00 0.  1.
<mgrwt>
<rscale>  0 0.14064509E+03</rscale>
<asrwt>0</asrwt>
<pdfrwt beam="2">  1        3 0.25670513E-01 0.14808440E+03</pdfrwt>
<pdfrwt beam="1">  1       -3 0.23249546E-01 0.14808440E+03</pdfrwt>
<totfact> 0.57552033E+02</totfact>
</mgrwt>
</event>
<event>
 7    1  0.1020736E-005  0.1388145E+03  0.7546771E-02  0.1226865E+00
          1   -1    0    0  501    0  0.00000000000E+00  0.00000000000E+00  0.35244732429E+03  0.35244732429E+03  0.00000000000E+00 0. -1.
         -1   -1    0    0    0  501 -0.00000000000E+00 -0.00000000000E+00 -0.49619179431E+02  0.49619179431E+02  0.00000000000E+00 0.  1.
         23    2    1    2    0    0 -0.99998762825E+01  0.59526857329E+02  0.63415012143E+02  0.12532095142E+03  0.89668460625E+02 0.  0.
          5    1    1    2  502    0  0.20357058008E+02 -0.85814999345E+02  0.23035136798E+03  0.24670319547E+03  0.47000000000E+01 0. -1.
         -5    1    1    2    0  502 -0.10357181726E+02  0.26288142016E+02  0.90617647361E+01  0.30042356833E+02  0.47000000000E+01 0. -1.
        -11    1    3    3    0    0 -0.25596682352E+02  0.49439801707E+02  0.81955539101E+02  0.99076710329E+02  0.00000000000E+00 0. -1.
         11    1    3    3    0    0  0.15596806069E+02  0.10087055622E+02 -0.18540526957E+02  0.26244241093E+02  0.00000000000E+00 0.  1.
<mgrwt>
<rscale>  0 0.13039904E+03</rscale>
<asrwt>0</asrwt>
<pdfrwt beam="1">  1        1 0.54222664E-01 0.13881445E+03</pdfrwt>
<pdfrwt beam="2">  1       -1 0.76337201E-02 0.13881445E+03</pdfrwt>
<totfact> 0.63174904E+03</totfact>
</mgrwt>
</event>
<event>
 7    1  0.1020736E-005  0.1581413E+03  0.7546771E-02  0.1198833E+00
          2   -1    0    0  501    0  0.00000000000E+00  0.00000000000E+00  0.22829003447E+03  0.22829003447E+03  0.00000000000E+00 0. -1.
         -2   -1    0    0    0  501 -0.00000000000E+00 -0.00000000000E+00 -0.10389237678E+03  0.10389237678E+03  0.00000000000E+00 0.  1.
         23    2    1    2    0    0 -0.89318955242E+02 -0.37465196600E+02  0.27699658432E+01  0.13267809519E+03  0.90632706628E+02 0.  0.
          5    1    1    2  502    0  0.99599854588E+02  0.70678318362E+02  0.10270046885E+03  0.15964032079E+03  0.47000000000E+01 0.  1.
         -5    1    1    2    0  502 -0.10280899347E+02 -0.33213121762E+02  0.18927223004E+02  0.39863995274E+02  0.47000000000E+01 0.  1.
        -11    1    3    3    0    0 -0.54960369056E+02 -0.20027763458E+02  0.46258542728E+02  0.74576177504E+02  0.00000000000E+00 0. -1.
         11    1    3    3    0    0 -0.34358586186E+02 -0.17437433142E+02 -0.43488576884E+02  0.58101917685E+02  0.00000000000E+00 0.  1.
<mgrwt>
<rscale>  0 0.15134224E+03</rscale>
<asrwt>0</asrwt>
<pdfrwt beam="1">  1        2 0.35121544E-01 0.15814132E+03</pdfrwt>
<pdfrwt beam="2">  1       -2 0.15983443E-01 0.15814132E+03</pdfrwt>
<totfact> 0.43893879E+03</totfact>
</mgrwt>
</event>
<event>
 7    1  0.1020736E-005  0.1261190E+03  0.7546771E-02  0.1241741E+00
         -1   -1    0    0    0  501 -0.00000000000E+00  0.00000000000E+00  0.20488983315E+02  0.20488983315E+02  0.00000000000E+00 0.  1.
          1   -1    0    0  501    0  0.00000000000E+00 -0.00000000000E+00 -0.20065574784E+04  0.20065574784E+04  0.00000000000E+00 0. -1.
         23    2    1    2    0    0  0.23003474854E+02 -0.21425113843E+02 -0.13549473350E+03  0.17218009357E+03  0.10148382363E+03 0.  0.
          5    1    1    2  502    0 -0.32405289131E+02  0.60259438286E+02 -0.64784563406E+03  0.65146554647E+03  0.47000000000E+01 0. -1.
         -5    1    1    2    0  502  0.94018142768E+01 -0.38834324443E+02 -0.12027281275E+04  0.12034008217E+04  0.47000000000E+01 0.  1.
        -11    1    3    3    0    0 -0.31043469556E+02  0.14417859602E+02 -0.79287829207E+02  0.86360474396E+02  0.00000000000E+00 0. -1.
         11    1    3    3    0    0  0.54046944410E+02 -0.35842973444E+02 -0.56206904295E+02  0.85819619178E+02  0.00000000000E+00 0.  1.
<mgrwt>
<rscale>  0 0.12082545E+03</rscale>
<asrwt>0</asrwt>
<pdfrwt beam="2">  1        1 0.30870113E+00 0.12611898E+03</pdfrwt>
<pdfrwt beam="1">  1       -1 0.31521515E-02 0.12611898E+03</pdfrwt>
<totfact> 0.11865131E+03</totfact>
</mgrwt>
</event>
<event>
 7    1  0.1020736E-005  0.1976148E+03  0.7546771E-02  0.1156206E+00
          1   -1    0    0  501    0  0.00000000000E+00  0.00000000000E+00  0.68883862741E+03  0.68883862741E+03  0.00000000000E+00 0. -1.
         -1   -1    0    0    0  501 -0.00000000000E+00 -0.00000000000E+00 -0.11309148353E+03  0.11309148353E+03  0.00000000000E+00 0.  1.
         23    2    1    2    0    0 -0.46052742598E+02 -0.14600290408E+03 -0.15345537898E+02  0.17867881769E+03  0.90845645234E+02 0.  0.
          5    1    1    2  502    0  0.72702561970E+02  0.31079967234E+02  0.25549841864E+03  0.26749422201E+03  0.47000000000E+01 0.  1.
         -5    1    1    2    0  502 -0.26649819372E+02  0.11492293685E+03  0.33559426313E+03  0.35575707123E+03  0.47000000000E+01 0.  1.
        -11    1    3    3    0    0 -0.24377628461E+02 -0.89086678922E+02  0.35890356552E+02  0.99089973379E+02  0.00000000000E+00 0. -1.
         11    1    3    3    0    0 -0.21675114137E+02 -0.56916225160E+02 -0.51235894451E+02  0.79588844315E+02  0.00000000000E+00 0.  1.
<mgrwt>
<rscale>  0 0.19252228E+03</rscale>
<asrwt>0</asrwt>
<pdfrwt beam="1">  1        1 0.10597517E+00 0.19761482E+03</pdfrwt>
<pdfrwt beam="2">  1       -1 0.17398690E-01 0.19761482E+03</pdfrwt>
<totfact> 0.73478481E+02</totfact>
</mgrwt>
</event>
<event>
 7    1  0.1020736E-005  0.1518316E+03  0.7546771E-02  0.1206748E+00
         -3   -1    0    0    0  501 -0.00000000000E+00  0.00000000000E+00  0.40155936384E+02  0.40155936384E+02  0.00000000000E+00 0.  1.
          3   -1    0    0  501    0  0.00000000000E+00 -0.00000000000E+00 -0.54424637417E+03  0.54424637417E+03  0.00000000000E+00 0. -1.
         23    2    1    2    0    0 -0.80702843405E+02  0.30148014093E+02 -0.13285690320E+03  0.18331980857E+03  0.92376099714E+02 0.  0.
          5    1    1    2  502    0  0.32029617358E+01 -0.22320876227E+02 -0.28034511266E+03  0.28128980193E+03  0.47000000000E+01 0. -1.
         -5    1    1    2    0  502  0.77499881670E+02 -0.78271378656E+01 -0.90888421928E+02  0.11979270006E+03  0.47000000000E+01 0. -1.
        -11    1    3    3    0    0 -0.66469716816E+02  0.60617328163E+02 -0.11236160238E+03  0.14393683829E+03  0.00000000000E+00 0. -1.
         11    1    3    3    0    0 -0.14233126589E+02 -0.30469314070E+02 -0.20495300821E+02  0.39382970280E+02  0.00000000000E+00 0.  1.
<mgrwt>
<rscale>  0 0.14500548E+03</rscale>
<asrwt>0</asrwt>
<pdfrwt beam="2">  1        3 0.83730209E-01 0.15183160E+03</pdfrwt>
<pdfrwt beam="1">  1       -3 0.61778365E-02 0.15183160E+03</pdfrwt>
<totfact> 0.51691896E+02</totfact>
</mgrwt>
</event>
<event>
 7    1  0.1020736E-005  0.1322101E+03  0.7546771E-02  0.1237296E+00
         -2   -1    0    0    0  501 -0.00000000000E+00  0.00000000000E+00  0.71175592518E+03  0.71175592518E+03  0.00000000000E+00 0.  1.
          2   -1    0    0  501    0  0.00000000000E+00 -0.00000000000E+00 -0.19448801681E+02  0.19448801681E+02  0.00000000000E+00 0. -1.
         23    2    1    2    0    0 -0.40364690099E+02 -0.15050089238E+02  0.34953433803E+03  0.36381843513E+03  0.91289577107E+02 0.  0.
          5    1    1    2  502    0 -0.33167714003E+02 -0.28697094974E+02  0.85331376668E+02  0.96058078037E+02  0.47000000000E+01 0. -1.
         -5    1    1    2    0  502  0.73532404102E+02  0.43747184212E+02  0.25744140881E+03  0.27132821370E+03  0.47000000000E+01 0. -1.
        -11    1    3    3    0    0 -0.68308168716E+02 -0.14982436069E+01  0.20866030865E+03  0.21956177958E+03  0.00000000000E+00 0.  1.
         11    1    3    3    0    0  0.27943478617E+02 -0.13551845631E+02  0.14087402938E+03  0.14425665555E+03  0.00000000000E+00 0. -1.
<mgrwt>
<rscale>  0 0.12358566E+03</rscale>
<asrwt>0</asrwt>
<pdfrwt beam="2">  1        2 0.29921239E-02 0.13221008E+03</pdfrwt>
<pdfrwt beam="1">  1       -2 0.10950089E+00 0.13221008E+03</pdfrwt>
<totfact> 0.20810938E+03</totfact>
</mgrwt>
</event>
<event>
 7    1  0.1020736E-005  0.1636938E+03  0.7546771E-02  0.1192839E+00
          2   -1    0    0  501    0  0.00000000000E+00  0.00000000000E+00  0.86810610364E+03  0.86810610364E+03  0.00000000000E+00 0. -1.
         -2   -1    0    0    0  501 -0.00000000000E+00 -0.00000000000E+00 -0.27977825026E+02  0.27977825026E+02  0.00000000000E+00 0.  1.
         23    2    1    2    0    0 -0.81887335415E+02  0.66831067883E+02  0.26379921827E+03  0.29695885502E+03  0.86154551121E+02 0.  0.
          5    1    1    2  502    0  0.92952533988E+02 -0.64954362429E+02  0.27432902501E+03  0.29688002077E+03  0.47000000000E+01 0.  1.
         -5    1    1    2    0  502 -0.11065198573E+02 -0.18767054543E+01  0.30200003533E+03  0.30224505287E+03  0.47000000000E+01 0.  1.
        -11    1    3    3    0    0 -0.68786635357E+02  0.83664794929E+02  0.17643503980E+03  0.20702831300E+03  0.00000000000E+00 0.  1.
         11    1    3    3    0    0 -0.13100700058E+02 -0.16833727046E+02  0.87364178471E+02  0.89930542021E+02  0.00000000000E+00 0. -1.
<mgrwt>
<rscale>  0 0.15638582E+03</rscale>
<asrwt>0</asrwt>
<pdfrwt beam="1">  1        2 0.13355476E+00 0.16369382E+03</pdfrwt>
<pdfrwt beam="2">  1       -2 0.43042814E-02 0.16369382E+03</pdfrwt>
<totfact> 0.76483790E+03</totfact>
</mgrwt>
</event>
<event>
 7    1  0.1020736E-005  0.2105776E+03  0.7546771E-02  0.1168026E+00
          3   -1    0    0  501    0  0.00000000000E+00  0.00000000000E+00  0.14734935045E+03  0.14734935045E+03  0.00000000000E+00 0. -1.
         -3   -1    0    0    0  501 -0.00000000000E+00 -0.00000000000E+00 -0.20600497032E+03  0.20600497032E+03  0.00000000000E+00 0.  1.
         23    2    1    2    0    0  0.24853350466E+02  0.59328954773E+02 -0.85891342265E+02  0.14102268445E+03  0.91501152725E+02 0.  0.
          5    1    1    2  502    0  0.18965570280E+02 -0.12516727404E+03  0.38276283247E+02  0.13233934867E+03  0.47000000000E+01 0. -1.
         -5    1    1    2    0  502 -0.43818920746E+02  0.65838319267E+02 -0.11040560859E+02  0.79992287649E+02  0.47000000000E+01 0.  1.
        -11    1    3    3    0    0 -0.22799928788E+01  0.74453049467E+02 -0.80175403987E+02  0.10943742663E+03  0.00000000000E+00 0.  1.
         11    1    3    3    0    0  0.27133343345E+02 -0.15124094694E+02 -0.57159382781E+01  0.31585257823E+02  0.00000000000E+00 0. -1.
<mgrwt>
<rscale>  0 0.17976977E+03</rscale>
<asrwt>0</asrwt>
<pdfrwt beam="1">  1        3 0.22669131E-01 0.21057763E+03</pdfrwt>
<pdfrwt beam="2">  1       -3 0.31693072E-01 0.21057763E+03</pdfrwt>
<totfact> 0.42681968E+02</totfact>
</mgrwt>
</event>
<event>
 7    1  0.1020736E-005  0.1212720E+03  0.7546771E-02  0.1251474E+00
         -2   -1    0    0    0  501 -0.00000000000E+00  0.00000000000E+00  0.15032385341E+03  0.15032385341E+03  0.00000000000E+00 0.  1.
          2   -1    0    0  501    0  0.00000000000E+00 -0.00000000000E+00 -0.81206435911E+03  0.81206435911E+03  0.00000000000E+00 0. -1.
         23    2    1    2    0    0 -0.39124527419E+01  0.39411644493E+02  0.12913095459E+03  0.16227287220E+03  0.89939405217E+02 0.  0.
          5    1    1    2  502    0  0.46491543566E+02 -0.57055003289E+02 -0.42939552836E+03  0.43568262164E+03  0.47000000000E+01 0. -1.
         -5    1    1    2    0  502 -0.42579090824E+02  0.17643358796E+02 -0.36147593193E+03  0.36443271868E+03  0.47000000000E+01 0.  1.
        -11    1    3    3    0    0 -0.19626953333E+01  0.67240035508E+02  0.10816344974E+03  0.12737506195E+03  0.00000000000E+00 0.  1.
         11    1    3    3    0    0 -0.19497574086E+01 -0.27828391014E+02  0.20967504850E+02  0.34897810247E+02  0.00000000000E+00 0. -1.
<mgrwt>
<rscale>  0 0.11506134E+03</rscale>
<asrwt>0</asrwt>
<pdfrwt beam="2">  1        2 0.12493298E+00 0.12127197E+03</pdfrwt>
<pdfrwt beam="1">  1       -2 0.23126747E-01 0.12127197E+03</pdfrwt>
<totfact> 0.57614590E+02</totfact>
</mgrwt>
</event>
<event>
 6    1  0.1020736E-005  0.1240332E+03  0.7546771E-02  0.1314304E+00
         -1   -1    0    0    0  501 -0.00000000000E+00  0.00000000000E+00  0.16116754469E+03  0.16116754469E+03  0.00000000000E+00 0.  1.
          1   -1    0    0  501    0  0.00000000000E+00 -0.00000000000E+00 -0.44062434723E+02  0.44062434723E+02  0.00000000000E+00 0. -1.
          5    1    1    2  502    0  0.36526973424E+02  0.40777688765E+02 -0.61963454701E+01  0.55294885710E+02  0.47000000000E+01 0. -1.
         -5    1    1    2    0  502 -0.36629443739E+02 -0.38873459833E+02  0.58386403907E+02  0.79271206558E+02  0.47000000000E+01 0.  1.
        -11    1    1    2    0    0  0.10012918641E+02  0.61663801971E+01  0.48248726554E+02  0.49661075286E+02  0.00000000000E+00 0. -1.
         11    1    1    2    0    0 -0.99104483263E+01 -0.80706091291E+01  0.16666324973E+02  0.21002811855E+02  0.00000000000E+00 0.  1.
<mgrwt>
<rscale>  0 0.85432858E+02</rscale>
<asrwt>0</asrwt>
<pdfrwt beam="2">  1        1 0.67788362E-02 0.12403319E+03</pdfrwt>
<pdfrwt beam="1">  1       -1 0.24795007E-01 0.12403319E+03</pdfrwt>
<totfact> 0.14246574E+04</totfact>
</mgrwt>
</event>
<event>
 7    1  0.1020736E-005  0.1869700E+03  0.7546771E-02  0.1166070E+00
         -1   -1    0    0    0  501 -0.00000000000E+00  0.00000000000E+00  0.19821873158E+02  0.19821873158E+02  0.00000000000E+00 0.  1.
          1   -1    0    0  501    0  0.00000000000E+00 -0.00000000000E+00 -0.16678592718E+04  0.16678592718E+04  0.00000000000E+00 0. -1.
         23    2    1    2    0    0  0.13848452289E+03 -0.12694542900E+02 -0.58855248739E+03  0.61182517914E+03  0.92719495939E+02 0.  0.
          5    1    1    2  502    0 -0.72609252204E+02  0.61365472307E+02 -0.73603282618E+03  0.74216186638E+03  0.47000000000E+01 0. -1.
         -5    1    1    2    0  502 -0.65875270681E+02 -0.48670929407E+02 -0.32345208509E+03  0.33369409945E+03  0.47000000000E+01 0. -1.
        -11    1    3    3    0    0  0.28004824389E+02  0.31895481143E+02 -0.94231405331E+02  0.10334964759E+03  0.00000000000E+00 0.  1.
         11    1    3    3    0    0  0.11047969850E+03 -0.44590024043E+02 -0.49432108206E+03  0.50847553155E+03  0.00000000000E+00 0. -1.
<mgrwt>
<rscale>  0 0.18180236E+03</rscale>
<asrwt>0</asrwt>
<pdfrwt beam="2">  1        1 0.25659384E+00 0.18697000E+03</pdfrwt>
<pdfrwt beam="1">  1       -1 0.30495177E-02 0.18697000E+03</pdfrwt>
<totfact> 0.20442100E+03</totfact>
</mgrwt>
</event>
<event>
 7    1  0.1020736E-005  0.1414169E+03  0.7546771E-02  0.1222449E+00
          1   -1    0    0  501    0  0.00000000000E+00  0.00000000000E+00  0.28086436444E+03  0.28086436444E+03  0.00000000000E+00 0. -1.
         -1   -1    0    0    0  501 -0.00000000000E+00 -0.00000000000E+00 -0.58702541294E+02  0.58702541294E+02  0.00000000000E+00 0.  1.
         23    2    1    2    0    0 -0.54500156543E+02  0.37455635089E+02  0.71588705351E+02  0.13299730388E+03  0.90499438905E+02 0.  0.
          5    1    1    2  502    0  0.28514673999E+02  0.45099844979E+02  0.44881904330E+02  0.69882458361E+02  0.47000000000E+01 0.  1.
         -5    1    1    2    0  502  0.25985482544E+02 -0.82555480068E+02  0.10569121346E+03  0.13668714349E+03  0.47000000000E+01 0.  1.
        -11    1    3    3    0    0 -0.37913088103E+02 -0.21880647903E+02  0.80789132335E+01  0.44513299599E+02  0.00000000000E+00 0.  1.
         11    1    3    3    0    0 -0.16587068441E+02  0.59336282992E+02  0.63509792117E+02  0.88484004281E+02  0.00000000000E+00 0. -1.
<mgrwt>
<rscale>  0 0.13343326E+03</rscale>
<asrwt>0</asrwt>
<pdfrwt beam="1">  1        1 0.43209901E-01 0.14141689E+03</pdfrwt>
<pdfrwt beam="2">  1       -1 0.90311604E-02 0.14141689E+03</pdfrwt>
<totfact> 0.65023425E+03</totfact>
</mgrwt>
</event>
<event>
 7    1  0.1020736E-005  0.1267178E+03  0.7546771E-02  0.1247310E+00
          1   -1    0    0  501    0  0.00000000000E+00  0.00000000000E+00  0.69721134076E+03  0.69721134076E+03  0.00000000000E+00 0. -1.
         -1   -1    0    0    0  501 -0.00000000000E+00 -0.00000000000E+00 -0.21355471329E+02  0.21355471329E+02  0.00000000000E+00 0.  1.
         23    2    1    2    0    0 -0.20670071394E+02 -0.22910763911E+01  0.14351372802E+03  0.17135062009E+03  0.91281673913E+02 0.  0.
          5    1    1    2  502    0  0.22370318480E+02 -0.49997171026E+02  0.12570440124E+03  0.13719998087E+03  0.47000000000E+01 0.  1.
         -5    1    1    2    0  502 -0.17002470862E+01  0.52288247417E+02  0.40663774016E+03  0.41001621112E+03  0.47000000000E+01 0.  1.
        -11    1    3    3    0    0 -0.12836260573E+02 -0.25927035911E+02  0.14356422723E+03  0.14645022402E+03  0.00000000000E+00 0. -1.
         11    1    3    3    0    0 -0.78338108207E+01  0.23635959520E+02 -0.50499201668E-01  0.24900396072E+02  0.00000000000E+00 0.  1.
<mgrwt>
<rscale>  0 0.11748199E+03</rscale>
<asrwt>0</asrwt>
<pdfrwt beam="1">  1        1 0.10726327E+00 0.12671782E+03</pdfrwt>
<pdfrwt beam="2">  1       -1 0.32854577E-02 0.12671782E+03</pdfrwt>
<totfact> 0.89315625E+03</totfact>
</mgrwt>
</event>
<event>
 6    1  0.1020736E-005  0.1385607E+03  0.7546771E-02  0.1283150E+00
         -1   -1    0    0    0  501 -0.00000000000E+00  0.00000000000E+00  0.17700374226E+03  0.17700374226E+03  0.00000000000E+00 0.  1.
          1   -1    0    0  501    0  0.00000000000E+00 -0.00000000000E+00 -0.59164941779E+02  0.59164941779E+02  0.00000000000E+00 0. -1.
          5    1    1    2  502    0  0.66055014852E+02  0.19820558490E+02 -0.30106137412E+01  0.69190124447E+02  0.47000000000E+01 0. -1.
         -5    1    1    2    0  502 -0.64309554162E+02 -0.11482310441E+01  0.33550174276E+02  0.72696226759E+02  0.47000000000E+01 0.  1.
        -11    1    1    2    0    0 -0.15958923982E+02 -0.81212516595E+01  0.43567101318E+02  0.47103442554E+02  0.00000000000E+00 0.  1.
         11    1    1    2    0    0  0.14213463292E+02 -0.10551075786E+02  0.43732138631E+02  0.47178890282E+02  0.00000000000E+00 0. -1.
<mgrwt>
<rscale>  0 0.98655213E+02</rscale>
<asrwt>0</asrwt>
<pdfrwt beam="2">  1        1 0.91022988E-02 0.13856072E+03</pdfrwt>
<pdfrwt beam="1">  1       -1 0.27231345E-01 0.13856072E+03</pdfrwt>
<totfact> 0.83030802E+03</totfact>
</mgrwt>
</event>
<event>
 7    1  0.1020736E-005  0.1358680E+03  0.7546771E-02  0.1230942E+00
         -2   -1    0    0    0  501 -0.00000000000E+00  0.00000000000E+00  0.13214007577E+02  0.13214007577E+02  0.00000000000E+00 0.  1.
          2   -1    0    0  501    0  0.00000000000E+00 -0.00000000000E+00 -0.11440612495E+04  0.11440612495E+04  0.00000000000E+00 0. -1.
         23    2    1    2    0    0  0.27138925601E+01  0.53131508170E+02 -0.39352844916E+03  0.40754255647E+03  0.91629540333E+02 0.  0.
          5    1    1    2  502    0 -0.61095060221E+02 -0.43396204894E+02 -0.35737950915E+03  0.36518220184E+03  0.47000000000E+01 0.  1.
         -5    1    1    2    0  502  0.58381167661E+02 -0.97353032762E+01 -0.37993928360E+03  0.38455049875E+03  0.47000000000E+01 0.  1.
        -11    1    3    3    0    0 -0.16514016249E+02 -0.21559659922E+02 -0.13721098674E+03  0.13987275128E+03  0.00000000000E+00 0. -1.
         11    1    3    3    0    0  0.19227908809E+02  0.74691168092E+02 -0.25631746242E+03  0.26766980518E+03  0.00000000000E+00 0.  1.
<mgrwt>
<rscale>  0 0.12767842E+03</rscale>
<asrwt>0</asrwt>
<pdfrwt beam="2">  1        2 0.17600941E+00 0.13586802E+03</pdfrwt>
<pdfrwt beam="1">  1       -2 0.20329244E-02 0.13586802E+03</pdfrwt>
<totfact> 0.15607895E+04</totfact>
</mgrwt>
</event>
<event>
 6    1  0.1020736E-005  0.1281550E+03  0.7546771E-02  0.1273380E+00
          2   -1    0    0  501    0  0.00000000000E+00  0.00000000000E+00  0.59961986321E+03  0.59961986321E+03  0.00000000000E+00 0. -1.
         -2   -1    0    0    0  501 -0.00000000000E+00 -0.00000000000E+00 -0.66244416203E+02  0.66244416203E+02  0.00000000000E+00 0.  1.
          5    1    1    2  502    0  0.45091128530E+02 -0.30301772843E+02  0.18721904111E+03  0.19499863246E+03  0.47000000000E+01 0.  1.
         -5    1    1    2    0  502 -0.68458191041E+02  0.14385686323E+02  0.39299971732E+03  0.39920463388E+03  0.47000000000E+01 0.  1.
        -11    1    1    2    0    0 -0.11556943550E+02 -0.58785672118E+01 -0.94228362143E+01  0.16028422849E+02  0.00000000000E+00 0.  1.
         11    1    1    2    0    0  0.34924006061E+02  0.21794653732E+02 -0.37420475208E+02  0.55632590227E+02  0.00000000000E+00 0. -1.
<mgrwt>
<rscale>  0 0.10336267E+03</rscale>
<asrwt>0</asrwt>
<pdfrwt beam="1">  1        2 0.92249206E-01 0.12815504E+03</pdfrwt>
<pdfrwt beam="2">  1       -2 0.10191449E-01 0.12815504E+03</pdfrwt>
<totfact> 0.31630790E+03</totfact>
</mgrwt>
</event>
<event>
 7    1  0.1020736E-005  0.1419117E+03  0.7546771E-02  0.1220253E+00
         -2   -1    0    0    0  501 -0.00000000000E+00  0.00000000000E+00  0.97432408092E+02  0.97432408092E+02  0.00000000000E+00 0.  1.
          2   -1    0    0  501    0  0.00000000000E+00 -0.00000000000E+00 -0.19444990781E+03  0.19444990781E+03  0.00000000000E+00 0. -1.
         23    2    1    2    0    0  0.64376768349E+02 -0.19220669782E+02  0.63561398834E+01  0.11631174199E+03  0.94732351185E+02 0.  0.
          5    1    1    2  502    0 -0.73200273497E+02 -0.40044289745E+01 -0.12320028146E+03  0.14343888888E+03  0.47000000000E+01 0.  1.
         -5    1    1    2    0  502  0.88235051483E+01  0.23225098757E+02  0.19826641860E+02  0.32131685029E+02  0.47000000000E+01 0.  1.
        -11    1    3    3    0    0  0.25364011472E+02  0.35895301362E+02  0.18527169958E+02  0.47697607534E+02  0.00000000000E+00 0.  1.
         11    1    3    3    0    0  0.39012756877E+02 -0.55115971144E+02 -0.12171030074E+02  0.68614134458E+02  0.00000000000E+00 0. -1.
<mgrwt>
<rscale>  0 0.13497616E+03</rscale>
<asrwt>0</asrwt>
<pdfrwt beam="2">  1        2 0.29915371E-01 0.14191165E+03</pdfrwt>
<pdfrwt beam="1">  1       -2 0.14989601E-01 0.14191165E+03</pdfrwt>
<totfact> 0.57636671E+03</totfact>
</mgrwt>
</event>
<event>
 7    1  0.1189879E-005  0.1514188E+03  0.7546771E-02  0.1208232E+00
         -2   -1    0    0    0  501 -0.00000000000E+00  0.00000000000E+00  0.16624293620E+03  0.16624293620E+03  0.00000000000E+00 0.  1.
          2   -1    0    0  501    0  0.00000000000E+00 -0.00000000000E+00 -0.12287096621E+03  0.12287096621E+03  0.00000000000E+00 0. -1.
         23    2    1    2    0    0  0.41942630585E+02  0.74457326633E+02  0.59273906546E+02  0.13686237721E+03  0.88965367127E+02 0.  0.
          5    1    1    2  502    0 -0.59973276335E+02  0.13359857216E+02 -0.51473929802E+01  0.61837410309E+02  0.47000000000E+01 0. -1.
         -5    1    1    2    0  502  0.18030645750E+02 -0.87817183849E+02 -0.10754543572E+02  0.90414114898E+02  0.47000000000E+01 0. -1.
        -11    1    3    3    0    0 -0.12678682734E+02  0.99488347941E+01  0.49157678877E+02  0.51732056814E+02  0.00000000000E+00 0. -1.
         11    1    3    3    0    0  0.54621313320E+02  0.64508491839E+02  0.10116227669E+02  0.85130320394E+02  0.00000000000E+00 0.  1.
<mgrwt>
<rscale>  0 0.14385642E+03</rscale>
<asrwt>0</asrwt>
<pdfrwt beam="2">  1        2 0.18903226E-01 0.15141881E+03</pdfrwt>
<pdfrwt beam="1">  1       -2 0.25575836E-01 0.15141881E+03</pdfrwt>
<totfact> 0.39033230E+03</totfact>
</mgrwt>
</event>
<event>
 7    1  0.1020736E-005  0.1412118E+03  0.7546771E-02  0.1222491E+00
         -1   -1    0    0    0  501 -0.00000000000E+00  0.00000000000E+00  0.39252419393E+02  0.39252419393E+02  0.00000000000E+00 0.  1.
          1   -1    0    0  501    0  0.00000000000E+00 -0.00000000000E+00 -0.46693414196E+03  0.46693414196E+03  0.00000000000E+00 0. -1.
         23    2    1    2    0    0 -0.34712602327E+02  0.55771935002E+02 -0.10461620905E+03  0.15360736261E+03  0.91297300935E+02 0.  0.
          5    1    1    2  502    0 -0.36807523357E+02 -0.56317501876E+02 -0.18698344497E+03  0.19877462988E+03  0.47000000000E+01 0. -1.
         -5    1    1    2    0  502  0.71520125684E+02  0.54556687368E+00 -0.13608206855E+03  0.15380456886E+03  0.47000000000E+01 0. -1.
        -11    1    3    3    0    0  0.16941719620E+02 -0.80206084817E+01  0.22243633001E+01  0.18875905705E+02  0.00000000000E+00 0.  1.
         11    1    3    3    0    0 -0.51654321947E+02  0.63792543484E+02 -0.10684057235E+03  0.13473145690E+03  0.00000000000E+00 0. -1.
<mgrwt>
<rscale>  0 0.13340355E+03</rscale>
<asrwt>0</asrwt>
<pdfrwt beam="2">  1        1 0.71836023E-01 0.14121177E+03</pdfrwt>
<pdfrwt beam="1">  1       -1 0.60388337E-02 0.14121177E+03</pdfrwt>
<totfact> 0.62932917E+03</totfact>
</mgrwt>
</event>
<event>
 7    1  0.1020736E-005  0.1437191E+03  0.7546771E-02  0.1219443E+00
         -1   -1    0    0    0  501 -0.00000000000E+00  0.00000000000E+00  0.53827153285E+02  0.53827153285E+02  0.00000000000E+00 0.  1.
          1   -1    0    0  501    0  0.00000000000E+00 -0.00000000000E+00 -0.30807498563E+03  0.30807498563E+03  0.00000000000E+00 0. -1.
         23    2    1    2    0    0  0.57987866426E+02 -0.40851856374E+02 -0.10732968909E+03  0.15637814786E+03  0.88898797222E+02 0.  0.
          5    1    1    2  502    0 -0.77540977459E+02  0.27155272498E+01 -0.14232272631E+03  0.16216604360E+03  0.47000000000E+01 0.  1.
         -5    1    1    2    0  502  0.19553111033E+02  0.38136329125E+02 -0.45954169493E+01  0.43357947451E+02  0.47000000000E+01 0.  1.
        -11    1    3    3    0    0 -0.10234030166E+02 -0.22336717329E+02 -0.74481242196E+02  0.78429074670E+02  0.00000000000E+00 0. -1.
         11    1    3    3    0    0  0.68221896592E+02 -0.18515139045E+02 -0.32848446891E+02  0.77949073193E+02  0.00000000000E+00 0.  1.
<mgrwt>
<rscale>  0 0.13555150E+03</rscale>
<asrwt>0</asrwt>
<pdfrwt beam="2">  1        1 0.47396153E-01 0.14371907E+03</pdfrwt>
<pdfrwt beam="1">  1       -1 0.82811002E-02 0.14371907E+03</pdfrwt>
<totfact> 0.66197415E+03</totfact>
</mgrwt>
</event>
<event>
 7    1  0.1020736E-005  0.1301060E+03  0.7546771E-02  0.1234471E+00
          1   -1    0    0  501    0  0.00000000000E+00  0.00000000000E+00  0.55019833899E+03  0.55019833899E+03  0.00000000000E+00 0. -1.
         -1   -1    0    0    0  501 -0.00000000000E+00 -0.00000000000E+00 -0.31110579038E+02  0.31110579038E+02  0.00000000000E+00 0.  1.
         23    2    1    2    0    0  0.53162444280E+02  0.35301483476E+02  0.13370817674E+03  0.17455960719E+03  0.92307852955E+02 0.  0.
          5    1    1    2  502    0 -0.45948416958E+02 -0.74744061593E+02  0.23002056782E+03  0.24623054925E+03  0.47000000000E+01 0. -1.
         -5    1    1    2    0  502 -0.72140273223E+01  0.39442578117E+02  0.15535901539E+03  0.16051876158E+03  0.47000000000E+01 0.  1.
        -11    1    3    3    0    0  0.65583838359E+02  0.11223143346E+02  0.41418801723E+02  0.78375480455E+02  0.00000000000E+00 0.  1.
         11    1    3    3    0    0 -0.12421394078E+02  0.24078340130E+02  0.92289375020E+02  0.96184126735E+02  0.00000000000E+00 0. -1.
<mgrwt>
<rscale>  0 0.12538339E+03</rscale>
<asrwt>0</asrwt>
<pdfrwt beam="1">  1        1 0.84645891E-01 0.13010603E+03</pdfrwt>
<pdfrwt beam="2">  1       -1 0.47862433E-02 0.13010603E+03</pdfrwt>
<totfact> 0.71334067E+03</totfact>
</mgrwt>
</event>
<event>
 7    1  0.1020736E-005  0.1318829E+03  0.7546771E-02  0.1225525E+00
          1   -1    0    0  501    0  0.00000000000E+00  0.00000000000E+00  0.29737507238E+02  0.29737507238E+02  0.00000000000E+00 0. -1.
         -1   -1    0    0    0  501 -0.00000000000E+00 -0.00000000000E+00 -0.59757551869E+03  0.59757551869E+03  0.00000000000E+00 0.  1.
         23    2    1    2    0    0 -0.41880543778E+02  0.37204300957E+01 -0.34273244322E+03  0.36641912715E+03  0.12259538148E+03 0.  0.
          5    1    1    2  502    0  0.49200151077E+02  0.95313411728E+01 -0.18416900179E+02  0.53598260632E+02  0.47000000000E+01 0. -1.
         -5    1    1    2    0  502 -0.73196072990E+01 -0.13251771268E+02 -0.20668866805E+03  0.20729563815E+03  0.47000000000E+01 0. -1.
        -11    1    3    3    0    0 -0.81916171997E+02 -0.93739418142E+01 -0.27066234479E+03  0.28294210522E+03  0.00000000000E+00 0.  1.
         11    1    3    3    0    0  0.40035628219E+02  0.13094371910E+02 -0.72070098435E+02  0.83477021935E+02  0.00000000000E+00 0. -1.
<mgrwt>
<rscale>  0 0.13130972E+03</rscale>
<asrwt>0</asrwt>
<pdfrwt beam="1">  1        1 0.45750013E-02 0.13188294E+03</pdfrwt>
<pdfrwt beam="2">  1       -1 0.91934692E-01 0.13188294E+03</pdfrwt>
<totfact> 0.22125063E+03</totfact>
</mgrwt>
</event>
<event>
 7    1  0.1020736E-005  0.1498981E+03  0.7546771E-02  0.1209392E+00
          2   -1    0    0  501    0  0.00000000000E+00  0.00000000000E+00  0.84139530907E+03  0.84139530907E+03  0.00000000000E+00 0. -1.
         -2   -1    0    0    0  501 -0.00000000000E+00 -0.00000000000E+00 -0.36593210571E+02  0.36593210571E+02  0.00000000000E+00 0.  1.
         23    2    1    2    0    0  0.82679154237E+02 -0.29212396274E+01  0.10560220327E+03  0.16290115058E+03  0.92415276540E+02 0.  0.
          5    1    1    2  502    0 -0.40086843957E+02 -0.48836762120E+02  0.16616422239E+03  0.17783313300E+03  0.47000000000E+01 0.  1.
         -5    1    1    2    0  502 -0.42592310280E+02  0.51758001747E+02  0.53303567284E+03  0.53725423605E+03  0.47000000000E+01 0.  1.
        -11    1    3    3    0    0  0.21655145518E+01 -0.11363564262E+02 -0.14197204850E+02  0.18313401420E+02  0.00000000000E+00 0.  1.
         11    1    3    3    0    0  0.80513639685E+02  0.84423246350E+01  0.11979940812E+03  0.14458774916E+03  0.00000000000E+00 0. -1.
<mgrwt>
<rscale>  0 0.14296648E+03</rscale>
<asrwt>0</asrwt>
<pdfrwt beam="1">  1        2 0.12944542E+00 0.14989814E+03</pdfrwt>
<pdfrwt beam="2">  1       -2 0.56297254E-02 0.14989814E+03</pdfrwt>
<totfact> 0.52934520E+03</totfact>
</mgrwt>
</event>
<event>
 7    1  0.1020736E-005  0.1791729E+03  0.7546771E-02  0.1174546E+00
         -2   -1    0    0    0  501 -0.00000000000E+00  0.00000000000E+00  0.96812955709E+02  0.96812955709E+02  0.00000000000E+00 0.  1.
          2   -1    0    0  501    0  0.00000000000E+00 -0.00000000000E+00 -0.31894070654E+03  0.31894070654E+03  0.00000000000E+00 0. -1.
         23    2    1    2    0    0  0.83243961586E+02  0.97710912101E+02 -0.42711350751E+02  0.16219270688E+03  0.89471979954E+02 0.  0.
          5    1    1    2  502    0 -0.12701171283E+02  0.10725140293E+02  0.13023545991E+02  0.21634489512E+02  0.47000000000E+01 0.  1.
         -5    1    1    2    0  502 -0.70542790303E+02 -0.10843605239E+03 -0.19243994607E+03  0.23192646586E+03  0.47000000000E+01 0.  1.
        -11    1    3    3    0    0  0.55898048442E+02  0.63761213221E+02  0.18748403069E+02  0.86842309669E+02  0.00000000000E+00 0.  1.
         11    1    3    3    0    0  0.27345913144E+02  0.33949698880E+02 -0.61459753820E+02  0.75350397207E+02  0.00000000000E+00 0. -1.
<mgrwt>
<rscale>  0 0.17320503E+03</rscale>
<asrwt>0</asrwt>
<pdfrwt beam="2">  1        2 0.49067801E-01 0.17917286E+03</pdfrwt>
<pdfrwt beam="1">  1       -2 0.14894301E-01 0.17917286E+03</pdfrwt>
<totfact> 0.34679414E+03</totfact>
</mgrwt>
</event>
<event>
 7    1  0.1020736E-005  0.1629591E+03  0.7546771E-02  0.1192584E+00
         -1   -1    0    0    0  501 -0.00000000000E+00  0.00000000000E+00  0.32738429234E+02  0.32738429234E+02  0.00000000000E+00 0.  1.
          1   -1    0    0  501    0  0.00000000000E+00 -0.00000000000E+00 -0.76840738183E+03  0.76840738183E+03  0.00000000000E+00 0. -1.
         23    2    1    2    0    0  0.74656550542E+02  0.73187988920E+02 -0.21895198834E+03  0.25934132796E+03  0.91585309563E+02 0.  0.
          5    1    1    2  502    0 -0.57576087713E+02 -0.41780174424E+01 -0.40622566665E+03  0.41033382014E+03  0.47000000000E+01 0.  1.
         -5    1    1    2    0  502 -0.17080462829E+02 -0.69009971478E+02 -0.11049129761E+03  0.13147066297E+03  0.47000000000E+01 0.  1.
        -11    1    3    3    0    0  0.63371766529E+02 -0.75989361057E+00 -0.11444800525E+03  0.13082394329E+03  0.00000000000E+00 0. -1.
         11    1    3    3    0    0  0.11284784013E+02  0.73947882530E+02 -0.10450398309E+03  0.12851738467E+03  0.00000000000E+00 0.  1.
<mgrwt>
<rscale>  0 0.15660447E+03</rscale>
<asrwt>0</asrwt>
<pdfrwt beam="2">  1        1 0.11821653E+00 0.16295913E+03</pdfrwt>
<pdfrwt beam="1">  1       -1 0.50366810E-02 0.16295913E+03</pdfrwt>
<totfact> 0.41869698E+03</totfact>
</mgrwt>
</event>
<event>
 7    1  0.1020736E-005  0.1340810E+03  0.7546771E-02  0.1233686E+00
         -2   -1    0    0    0  501 -0.00000000000E+00  0.00000000000E+00  0.12764600129E+02  0.12764600129E+02  0.00000000000E+00 0.  1.
          2   -1    0    0  501    0  0.00000000000E+00 -0.00000000000E+00 -0.15938190744E+04  0.15938190744E+04  0.00000000000E+00 0. -1.
         23    2    1    2    0    0  0.17490343268E+02  0.45226236079E+02 -0.28210275177E+03  0.30073019792E+03  0.92224534966E+02 0.  0.
          5    1    1    2  502    0  0.10659874198E+02 -0.77665577501E+02 -0.54091708528E+03  0.54658847225E+03  0.47000000000E+01 0.  1.
         -5    1    1    2    0  502 -0.28150217466E+02  0.32439341421E+02 -0.75803463721E+03  0.75926500435E+03  0.47000000000E+01 0.  1.
        -11    1    3    3    0    0  0.50109536421E+02  0.35897955822E+02 -0.11771049661E+03  0.13287358611E+03  0.00000000000E+00 0.  1.
         11    1    3    3    0    0 -0.32619193153E+02  0.93282802577E+01 -0.16439225515E+03  0.16785661181E+03  0.00000000000E+00 0. -1.
<mgrwt>
<rscale>  0 0.12588898E+03</rscale>
<asrwt>0</asrwt>
<pdfrwt beam="2">  1        2 0.24520278E+00 0.13408104E+03</pdfrwt>
<pdfrwt beam="1">  1       -2 0.19637859E-02 0.13408104E+03</pdfrwt>
<totfact> 0.94339834E+03</totfact>
</mgrwt>
</event>
<event>
 7    1  0.1020736E-005  0.1396992E+03  0.7546771E-02  0.1225133E+00
         -2   -1    0    0    0  501 -0.00000000000E+00  0.00000000000E+00  0.63396218745E+02  0.63396218745E+02  0.00000000000E+00 0.  1.
          2   -1    0    0  501    0  0.00000000000E+00 -0.00000000000E+00 -0.42515704983E+03  0.42515704983E+03  0.00000000000E+00 0. -1.
         23    2    1    2    0    0 -0.20544227286E+02  0.58917284891E+02 -0.10387547960E+02  0.11042754349E+03  0.90515354916E+02 0.  0.
          5    1    1    2  502    0  0.18466050590E+02  0.36834074577E+02 -0.76663865523E+02  0.87161817049E+02  0.47000000000E+01 0. -1.
         -5    1    1    2    0  502  0.20781766957E+01 -0.95751359468E+02 -0.27470941760E+03  0.29096390803E+03  0.47000000000E+01 0. -1.
        -11    1    3    3    0    0 -0.66076868083E+01 -0.99260353883E+01 -0.34233129913E+02  0.36250446716E+02  0.00000000000E+00 0. -1.
         11    1    3    3    0    0 -0.13936540478E+02  0.68843320279E+02  0.23845581953E+02  0.74177096776E+02  0.00000000000E+00 0.  1.
<mgrwt>
<rscale>  0 0.13157774E+03</rscale>
<asrwt>0</asrwt>
<pdfrwt beam="2">  1        2 0.65408776E-01 0.13969925E+03</pdfrwt>
<pdfrwt beam="1">  1       -2 0.97532646E-02 0.13969925E+03</pdfrwt>
<totfact> 0.49684905E+03</totfact>
</mgrwt>
</event>
<event>
 7    1  0.1020736E-005  0.1623983E+03  0.7546771E-02  0.1193022E+00
          1   -1    0    0  501    0  0.00000000000E+00  0.00000000000E+00  0.11581186799E+03  0.11581186799E+03  0.00000000000E+00 0. -1.
         -1   -1    0    0    0  501 -0.00000000000E+00 -0.00000000000E+00 -0.29656261220E+03  0.29656261220E+03  0.00000000000E+00 0.  1.
         23    2    1    2    0    0 -0.86953634864E+02 -0.56431353167E+02 -0.20545563956E+03  0.24810780179E+03  0.92736342649E+02 0.  0.
          5    1    1    2  502    0  0.82492714088E+02 -0.20175270612E+02  0.19169686114E+02  0.87187477814E+02  0.47000000000E+01 0. -1.
         -5    1    1    2    0  502  0.44609207754E+01  0.76606623780E+02  0.55352092291E+01  0.77079200582E+02  0.47000000000E+01 0. -1.
        -11    1    3    3    0    0 -0.12902028003E+02 -0.35523979744E+02 -0.11592233300E+02  0.39532206317E+02  0.00000000000E+00 0. -1.
         11    1    3    3    0    0 -0.74051606860E+02 -0.20907373424E+02 -0.19386340626E+03  0.20857559548E+03  0.00000000000E+00 0.  1.
<mgrwt>
<rscale>  0 0.15622787E+03</rscale>
<asrwt>0</asrwt>
<pdfrwt beam="1">  1        1 0.17817211E-01 0.16239831E+03</pdfrwt>
<pdfrwt beam="2">  1       -1 0.45625017E-01 0.16239831E+03</pdfrwt>
<totfact> 0.14251871E+03</totfact>
</mgrwt>
</event>
<event>
 7    1  0.1020736E-005  0.2124421E+03  0.7546771E-02  0.1143138E+00
          2   -1    0    0  501    0  0.00000000000E+00  0.00000000000E+00  0.61698394481E+02  0.61698394481E+02  0.00000000000E+00 0.  1.
         -2   -1    0    0    0  501 -0.00000000000E+00 -0.00000000000E+00 -0.70103001812E+03  0.70103001812E+03  0.00000000000E+00 0. -1.
         23    2    1    2    0    0 -0.52762836692E+02  0.16346646502E+03 -0.38195030117E+03  0.42899679124E+03  0.92989312369E+02 0.  0.
          5    1    1    2  502    0  0.25312869559E+01 -0.14108083459E+02  0.13546964941E+02  0.20274508420E+02  0.47000000000E+01 0.  1.
         -5    1    1    2    0  502  0.50231549736E+02 -0.14935838156E+03 -0.27092828741E+03  0.31345711294E+03  0.47000000000E+01 0.  1.
        -11    1    3    3    0    0  0.30698935667E+01  0.10580976588E+03 -0.15028448908E+03  0.18382208372E+03  0.00000000000E+00 0.  1.
         11    1    3    3    0    0 -0.55832730259E+02  0.57656699135E+02 -0.23166581208E+03  0.24517470753E+03  0.00000000000E+00 0. -1.
<mgrwt>
<rscale>  0 0.20802734E+03</rscale>
<asrwt>0</asrwt>
<pdfrwt beam="1">  1        2 0.94920609E-02 0.21244211E+03</pdfrwt>
<pdfrwt beam="2">  1       -2 0.10785077E+00 0.21244211E+03</pdfrwt>
<totfact> 0.48897374E+02</totfact>
</mgrwt>
</event>
<event>
 7    1  0.1020736E-005  0.1417308E+03  0.7546771E-02  0.1222436E+00
         -1   -1    0    0    0  501 -0.00000000000E+00  0.00000000000E+00  0.14344333717E+02  0.14344333717E+02  0.00000000000E+00 0.  1.
          1   -1    0    0  501    0  0.00000000000E+00 -0.00000000000E+00 -0.11222246808E+04  0.11222246808E+04  0.00000000000E+00 0. -1.
         23    2    1    2    0    0  0.14028883920E+02 -0.65316513986E+02 -0.44752290586E+03  0.46117314686E+03  0.89111523023E+02 0.  0.
          5    1    1    2  502    0 -0.48218562755E+02 -0.16370317319E+02 -0.29725430666E+03  0.30162100377E+03  0.47000000000E+01 0.  1.
         -5    1    1    2    0  502  0.34189678834E+02  0.81686831305E+02 -0.36310313459E+03  0.37377486392E+03  0.47000000000E+01 0.  1.
        -11    1    3    3    0    0 -0.17849287667E+02 -0.63257882358E+02 -0.38886665409E+03  0.39438234166E+03  0.00000000000E+00 0.  1.
         11    1    3    3    0    0  0.31878171587E+02 -0.20586316285E+01 -0.58656251765E+02  0.66790805198E+02  0.00000000000E+00 0. -1.
<mgrwt>
<rscale>  0 0.13344218E+03</rscale>
<asrwt>0</asrwt>
<pdfrwt beam="2">  1        1 0.17264996E+00 0.14173083E+03</pdfrwt>
<pdfrwt beam="1">  1       -1 0.22068204E-02 0.14173083E+03</pdfrwt>
<totfact> 0.75114169E+03</totfact>
</mgrwt>
</event>
<event>
 7    1  0.1020736E-005  0.1647056E+03  0.7546771E-02  0.1190574E+00
         -1   -1    0    0    0  501 -0.00000000000E+00  0.00000000000E+00  0.55745689630E+02  0.55745689630E+02  0.00000000000E+00 0.  1.
          1   -1    0    0  501    0  0.00000000000E+00 -0.00000000000E+00 -0.41839873603E+03  0.41839873603E+03  0.00000000000E+00 0. -1.
         23    2    1    2    0    0 -0.10626905684E+03  0.14538306729E+02 -0.16400047809E+03  0.21609253124E+03  0.91078814450E+02 0.  0.
          5    1    1    2  502    0  0.12973172458E+02 -0.56539357539E+02 -0.10082673968E+03  0.11641788346E+03  0.47000000000E+01 0.  1.
         -5    1    1    2    0  502  0.93295884385E+02  0.42001050810E+02 -0.97825828634E+02  0.14163401096E+03  0.47000000000E+01 0.  1.
        -11    1    3    3    0    0  0.10678786307E+01 -0.25626374366E+02 -0.37076034527E+02  0.45083076250E+02  0.00000000000E+00 0.  1.
         11    1    3    3    0    0 -0.10733693547E+03  0.40164681094E+02 -0.12692444356E+03  0.17100945499E+03  0.00000000000E+00 0. -1.
<mgrwt>
<rscale>  0 0.15834850E+03</rscale>
<asrwt>0</asrwt>
<pdfrwt beam="2">  1        1 0.64369035E-01 0.16470561E+03</pdfrwt>
<pdfrwt beam="1">  1       -1 0.85762602E-02 0.16470561E+03</pdfrwt>
<totfact> 0.43061079E+03</totfact>
</mgrwt>
</event>
<event>
 7    1  0.1020736E-005  0.1520070E+03  0.7546771E-02  0.1204761E+00
         -1   -1    0    0    0  501 -0.00000000000E+00  0.00000000000E+00  0.51643175810E+02  0.51643175810E+02  0.00000000000E+00 0.  1.
          1   -1    0    0  501    0  0.00000000000E+00 -0.00000000000E+00 -0.39054086045E+03  0.39054086045E+03  0.00000000000E+00 0. -1.
         23    2    1    2    0    0  0.76210776178E+02 -0.52846565150E+02 -0.14222263666E+03  0.19361374170E+03  0.93049238259E+02 0.  0.
          5    1    1    2  502    0 -0.10832576911E+03  0.49851524831E+02 -0.15125977781E+03  0.19266877579E+03  0.47000000000E+01 0. -1.
         -5    1    1    2    0  502  0.32114992927E+02  0.29950403191E+01 -0.45415270170E+02  0.55901518779E+02  0.47000000000E+01 0.  1.
        -11    1    3    3    0    0  0.60071470288E+02 -0.78583257368E+02 -0.92977913472E+02  0.13575272474E+03  0.00000000000E+00 0.  1.
         11    1    3    3    0    0  0.16139305890E+02  0.25736692218E+02 -0.49244723191E+02  0.57861016955E+02  0.00000000000E+00 0. -1.
<mgrwt>
<rscale>  0 0.14656308E+03</rscale>
<asrwt>0</asrwt>
<pdfrwt beam="2">  1        1 0.60083208E-01 0.15200696E+03</pdfrwt>
<pdfrwt beam="1">  1       -1 0.79451042E-02 0.15200696E+03</pdfrwt>
<totfact> 0.52560022E+03</totfact>
</mgrwt>
</event>
<event>
 7    1  0.1020736E-005  0.1533751E+03  0.7546771E-02  0.1204500E+00
          1   -1    0    0  501    0  0.00000000000E+00  0.00000000000E+00  0.48758560484E+03  0.48758560484E+03  0.00000000000E+00 0. -1.
         -1   -1    0    0    0  501 -0.00000000000E+00 -0.00000000000E+00 -0.55570902909E+02  0.55570902909E+02  0.00000000000E+00 0.  1.
         23    2    1    2    0    0  0.68380798287E+02 -0.56770809850E+02  0.62328045880E+02  0.14291640871E+03  0.92959432811E+02 0.  0.
          5    1    1    2  502    0  0.12513885747E+02 -0.24527271691E+02  0.27034512349E+02  0.38873374578E+02  0.47000000000E+01 0.  1.
         -5    1    1    2    0  502 -0.80894684034E+02  0.81298081542E+02  0.34265214370E+03  0.36136672446E+03  0.47000000000E+01 0.  1.
        -11    1    3    3    0    0  0.20611395304E+02 -0.25768773993E+02  0.77287193834E+02  0.84036716144E+02  0.00000000000E+00 0. -1.
         11    1    3    3    0    0  0.47769402983E+02 -0.31002035857E+02 -0.14959147954E+02  0.58879692562E+02  0.00000000000E+00 0.  1.
<mgrwt>
<rscale>  0 0.14676891E+03</rscale>
<asrwt>0</asrwt>
<pdfrwt beam="1">  1        1 0.75013167E-01 0.15337507E+03</pdfrwt>
<pdfrwt beam="2">  1       -1 0.85493700E-02 0.15337507E+03</pdfrwt>
<totfact> 0.35412511E+03</totfact>
</mgrwt>
</event>
<event>
 7    1  0.1020736E-005  0.2035160E+03  0.7546771E-02  0.1146806E+00
          2   -1    0    0  501    0  0.00000000000E+00  0.00000000000E+00  0.21385540258E+03  0.21385540258E+03  0.00000000000E+00 0. -1.
         -2   -1    0    0    0  501 -0.00000000000E+00 -0.00000000000E+00 -0.48419137882E+02  0.48419137882E+02  0.00000000000E+00 0.  1.
         23    2    1    2    0    0  0.18890180177E+02  0.20233834678E+01  0.74346582258E+02  0.11796050723E+03  0.89589809602E+02 0.  0.
          5    1    1    2  502    0 -0.43859415558E+02 -0.44357650844E+02  0.51495998232E+02  0.81025782041E+02  0.47000000000E+01 0. -1.
         -5    1    1    2    0  502  0.24969235381E+02  0.42334267376E+02  0.39593684212E+02  0.63288251195E+02  0.47000000000E+01 0.  1.
        -11    1    3    3    0    0  0.48907294074E+02 -0.51342500381E+01  0.15580936405E+02  0.51585361454E+02  0.00000000000E+00 0.  1.
         11    1    3    3    0    0 -0.30017113897E+02  0.71576335058E+01  0.58765645852E+02  0.66375145774E+02  0.00000000000E+00 0. -1.
<mgrwt>
<rscale>  0 0.20351604E+03</rscale>
<asrwt>0</asrwt>
<pdfrwt beam="1">  1        2 0.32900831E-01 0.20351604E+03</pdfrwt>
<pdfrwt beam="2">  1       -2 0.74490982E-02 0.20351604E+03</pdfrwt>
<totfact> 0.16201617E+04</totfact>
</mgrwt>
</event>
<event>
 7    1  0.1020736E-005  0.1328584E+03  0.7546771E-02  0.1235967E+00
         -1   -1    0    0    0  501 -0.00000000000E+00  0.00000000000E+00  0.16071027524E+02  0.16071027524E+02  0.00000000000E+00 0.  1.
          1   -1    0    0  501    0  0.00000000000E+00 -0.00000000000E+00 -0.87497254904E+03  0.87497254904E+03  0.00000000000E+00 0. -1.
         23    2    1    2    0    0 -0.32771580303E+02  0.30857254566E+02 -0.31585987821E+03  0.33198581929E+03  0.91765870100E+02 0.  0.
          5    1    1    2  502    0 -0.89406259683E+01 -0.42580235234E+01 -0.47327563326E+03  0.47340255660E+03  0.47000000000E+01 0. -1.
         -5    1    1    2    0  502  0.41712206272E+02 -0.26599231043E+02 -0.69766010048E+02  0.85655200672E+02  0.47000000000E+01 0. -1.
        -11    1    3    3    0    0  0.21716378551E+02  0.40422223404E+02 -0.16660130059E+03  0.17280494959E+03  0.00000000000E+00 0.  1.
         11    1    3    3    0    0 -0.54487958854E+02 -0.95649688374E+01 -0.14925857762E+03  0.15918086971E+03  0.00000000000E+00 0. -1.
<mgrwt>
<rscale>  0 0.12442748E+03</rscale>
<asrwt>0</asrwt>
<pdfrwt beam="2">  1        1 0.13461119E+00 0.13285838E+03</pdfrwt>
<pdfrwt beam="1">  1       -1 0.24724653E-02 0.13285838E+03</pdfrwt>
<totfact> 0.96492674E+03</totfact>
</mgrwt>
</event>
<event>
 7    1  0.1020736E-005  0.1390722E+03  0.7546771E-02  0.1226282E+00
         -2   -1    0    0    0  501 -0.00000000000E+00  0.00000000000E+00  0.32922016867E+02  0.32922016867E+02  0.00000000000E+00 0.  1.
          2   -1    0    0  501    0  0.00000000000E+00 -0.00000000000E+00 -0.46669083851E+03  0.46669083851E+03  0.00000000000E+00 0. -1.
         23    2    1    2    0    0 -0.37610773199E+02  0.48018400098E+02 -0.18640801613E+03  0.21583750927E+03  0.90097419061E+02 0.  0.
          5    1    1    2  502    0 -0.38457794233E+02  0.80730855025E+01 -0.11059978590E+03  0.11746735413E+03  0.47000000000E+01 0. -1.
         -5    1    1    2    0  502  0.76068567432E+02 -0.56091485600E+02 -0.13676101962E+03  0.16630799198E+03  0.47000000000E+01 0. -1.
        -11    1    3    3    0    0  0.16254228168E+02  0.50739674451E+02 -0.74277101218E+02  0.91410077465E+02  0.00000000000E+00 0. -1.
         11    1    3    3    0    0 -0.53865001367E+02 -0.27212743538E+01 -0.11213091491E+03  0.12442743180E+03  0.00000000000E+00 0.  1.
<mgrwt>
<rscale>  0 0.13079451E+03</rscale>
<asrwt>0</asrwt>
<pdfrwt beam="2">  1        2 0.71798579E-01 0.13907221E+03</pdfrwt>
<pdfrwt beam="1">  1       -2 0.50649265E-02 0.13907221E+03</pdfrwt>
<totfact> 0.12264976E+04</totfact>
</mgrwt>
</event>
<event>
 7    1  0.1020736E-005  0.1825098E+03  0.7546771E-02  0.1170687E+00
         -1   -1    0    0    0  501 -0.00000000000E+00  0.00000000000E+00  0.16553686259E+02  0.16553686259E+02  0.00000000000E+00 0.  1.
          1   -1    0    0  501    0  0.00000000000E+00 -0.00000000000E+00 -0.26673347254E+04  0.26673347254E+04  0.00000000000E+00 0. -1.
         23    2    1    2    0    0  0.11426535642E+03 -0.68011840407E+02 -0.50225378190E+03  0.52762330725E+03  0.91898372167E+02 0.  0.
          5    1    1    2  502    0 -0.55895970303E+01  0.71479409289E+02 -0.10077264179E+04  0.10102846989E+04  0.47000000000E+01 0.  1.
         -5    1    1    2    0  502 -0.10867575939E+03 -0.34675688822E+01 -0.11408008394E+04  0.11459804055E+04  0.47000000000E+01 0.  1.
        -11    1    3    3    0    0  0.10932361426E+03 -0.86542388895E+02 -0.46842602174E+03  0.48873732776E+03  0.00000000000E+00 0. -1.
         11    1    3    3    0    0  0.49417421639E+01  0.18530548489E+02 -0.33827760162E+02  0.38885979485E+02  0.00000000000E+00 0.  1.
<mgrwt>
<rscale>  0 0.17705241E+03</rscale>
<asrwt>0</asrwt>
<pdfrwt beam="2">  1        1 0.41035917E+00 0.18250980E+03</pdfrwt>
<pdfrwt beam="1">  1       -1 0.25467211E-02 0.18250980E+03</pdfrwt>
<totfact> 0.59795874E+02</totfact>
</mgrwt>
</event>
<event>
 7    1  0.1020736E-005  0.1424158E+03  0.7546771E-02  0.1219968E+00
          2   -1    0    0  501    0  0.00000000000E+00  0.00000000000E+00  0.47613022521E+02  0.47613022521E+02  0.00000000000E+00 0. -1.
         -2   -1    0    0    0  501 -0.00000000000E+00 -0.00000000000E+00 -0.47221571662E+03  0.47221571662E+03  0.00000000000E+00 0.  1.
         23    2    1    2    0    0 -0.54519351882E+02 -0.41025505071E+02 -0.32790967951E+03  0.34768983300E+03  0.93316720147E+02 0.  0.
          5    1    1    2  502    0 -0.12392656593E+02 -0.18034267020E+02  0.16580587529E+02  0.27853520553E+02  0.47000000000E+01 0.  1.
         -5    1    1    2    0  502  0.66912008475E+02  0.59059772090E+02 -0.11327360212E+03  0.14428538559E+03  0.47000000000E+01 0.  1.
        -11    1    3    3    0    0 -0.19109462371E+01  0.11931016797E+02 -0.73240528248E+00  0.12105258974E+02  0.00000000000E+00 0. -1.
         11    1    3    3    0    0 -0.52608405645E+02 -0.52956521868E+02 -0.32717727423E+03  0.33558457403E+03  0.00000000000E+00 0.  1.
<mgrwt>
<rscale>  0 0.13517878E+03</rscale>
<asrwt>0</asrwt>
<pdfrwt beam="1">  1        2 0.73250804E-02 0.14241581E+03</pdfrwt>
<pdfrwt beam="2">  1       -2 0.72648572E-01 0.14241581E+03</pdfrwt>
<totfact> 0.16250000E+03</totfact>
</mgrwt>
</event>
<event>
 7    1  0.1020736E-005  0.1469979E+03  0.7546771E-02  0.1213795E+00
         -2   -1    0    0    0  501 -0.00000000000E+00  0.00000000000E+00  0.85457978079E+02  0.85457978079E+02  0.00000000000E+00 0.  1.
          2   -1    0    0  501    0  0.00000000000E+00 -0.00000000000E+00 -0.20830208525E+03  0.20830208525E+03  0.00000000000E+00 0. -1.
         23    2    1    2    0    0  0.76045963392E+02 -0.14128101544E+02 -0.51342317011E+02  0.13029481873E+03  0.91422724035E+02 0.  0.
          5    1    1    2  502    0 -0.37000193592E+02 -0.44787665779E+02  0.58529612699E+01  0.58577269375E+02  0.47000000000E+01 0. -1.
         -5    1    1    2    0  502 -0.39045769800E+02  0.58915767323E+02 -0.77354751433E+02  0.10488797523E+03  0.47000000000E+01 0. -1.
        -11    1    3    3    0    0  0.58304023093E+02  0.10126205080E+02 -0.72468910004E+02  0.93560900249E+02  0.00000000000E+00 0. -1.
         11    1    3    3    0    0  0.17741940298E+02 -0.24254306624E+02  0.21126592993E+02  0.36733918479E+02  0.00000000000E+00 0.  1.
<mgrwt>
<rscale>  0 0.13965441E+03</rscale>
<asrwt>0</asrwt>
<pdfrwt beam="2">  1        2 0.32046475E-01 0.14699789E+03</pdfrwt>
<pdfrwt beam="1">  1       -2 0.13147381E-01 0.14699789E+03</pdfrwt>
<totfact> 0.66354708E+03</totfact>
</mgrwt>
</event>
<event>
 7    1  0.1020736E-005  0.1193828E+03  0.7546771E-02  0.1255510E+00
         -1   -1    0    0    0  501 -0.00000000000E+00  0.00000000000E+00  0.13363507045E+02  0.13363507045E+02  0.00000000000E+00 0.  1.
          1   -1    0    0  501    0  0.00000000000E+00 -0.00000000000E+00 -0.89267826769E+03  0.89267826769E+03  0.00000000000E+00 0. -1.
         23    2    1    2    0    0  0.63869021757E+01  0.24268907183E+02 -0.30603927685E+03  0.32046767677E+03  0.91704528254E+02 0.  0.
          5    1    1    2  502    0  0.35193263164E+02 -0.56263655236E+02 -0.33570983256E+03  0.34223872713E+03  0.47000000000E+01 0. -1.
         -5    1    1    2    0  502 -0.41580165340E+02  0.31994748053E+02 -0.23756565123E+03  0.24333537083E+03  0.47000000000E+01 0.  1.
        -11    1    3    3    0    0 -0.40966927138E+02 -0.38993396617E+00 -0.11369459650E+03  0.12085074448E+03  0.00000000000E+00 0. -1.
         11    1    3    3    0    0  0.47353829313E+02  0.24658841149E+02 -0.19234468035E+03  0.19961693229E+03  0.00000000000E+00 0.  1.
<mgrwt>
<rscale>  0 0.11277796E+03</rscale>
<asrwt>0</asrwt>
<pdfrwt beam="2">  1        1 0.13733508E+00 0.11938276E+03</pdfrwt>
<pdfrwt beam="1">  1       -1 0.20559248E-02 0.11938276E+03</pdfrwt>
<totfact> 0.12118667E+04</totfact>
</mgrwt>
</event>
<event>
 7    1  0.1020736E-005  0.1441023E+03  0.7546771E-02  0.1219455E+00
          2   -1    0    0  501    0  0.00000000000E+00  0.00000000000E+00  0.12886294272E+04  0.12886294272E+04  0.00000000000E+00 0. -1.
         -2   -1    0    0    0  501 -0.00000000000E+00 -0.00000000000E+00 -0.14664900202E+02  0.14664900202E+02  0.00000000000E+00 0.  1.
         23    2    1    2    0    0  0.56760708320E+02  0.43805341623E+02  0.33857421771E+03  0.35686920646E+03  0.87077228136E+02 0.  0.
          5    1    1    2  502    0 -0.58319414602E+01  0.19696141685E+02  0.26369705422E+02  0.33755012998E+02  0.47000000000E+01 0.  1.
         -5    1    1    2    0  502 -0.50928766860E+02 -0.63501483308E+02  0.90902060390E+03  0.91267010797E+03  0.47000000000E+01 0.  1.
        -11    1    3    3    0    0  0.43617400536E+02  0.58183401927E+02  0.32522192681E+03  0.33325228817E+03  0.00000000000E+00 0. -1.
         11    1    3    3    0    0  0.13143307784E+02 -0.14378060303E+02  0.13352290900E+02  0.23616918298E+02  0.00000000000E+00 0.  1.
<mgrwt>
<rscale>  0 0.13554312E+03</rscale>
<asrwt>0</asrwt>
<pdfrwt beam="1">  1        2 0.19825059E+00 0.14410232E+03</pdfrwt>
<pdfrwt beam="2">  1       -2 0.22561395E-02 0.14410232E+03</pdfrwt>
<totfact> 0.11197348E+04</totfact>
</mgrwt>
</event>
<event>
 7    1  0.1020736E-005  0.2871060E+03  0.7546771E-02  0.1093742E+00
          1   -1    0    0  501    0  0.00000000000E+00  0.00000000000E+00  0.10853334496E+04  0.10853334496E+04  0.00000000000E+00 0. -1.
         -1   -1    0    0    0  501 -0.00000000000E+00 -0.00000000000E+00 -0.84755090273E+02  0.84755090273E+02  0.00000000000E+00 0.  1.
         23    2    1    2    0    0  0.22012896860E+03 -0.13543999530E+03  0.26595535435E+03  0.38135486181E+03  0.88873646112E+02 0.  0.
          5    1    1    2  502    0 -0.46371373456E+02  0.92945079991E+02  0.20801342979E+03  0.23255272337E+03  0.47000000000E+01 0.  1.
         -5    1    1    2    0  502 -0.17375759515E+03  0.42494915305E+02  0.52660957523E+03  0.55618095474E+03  0.47000000000E+01 0.  1.
        -11    1    3    3    0    0  0.71286043874E+02 -0.83630900087E+02  0.14879588488E+03  0.18497578992E+03  0.00000000000E+00 0. -1.
         11    1    3    3    0    0  0.14884292473E+03 -0.51809095210E+02  0.11715946947E+03  0.19637907189E+03  0.00000000000E+00 0.  1.
<mgrwt>
<rscale>  0 0.28359349E+03</rscale>
<asrwt>0</asrwt>
<pdfrwt beam="1">  1        1 0.16697437E+00 0.28710600E+03</pdfrwt>
<pdfrwt beam="2">  1       -1 0.13039245E-01 0.28710600E+03</pdfrwt>
<totfact> 0.55683836E+02</totfact>
</mgrwt>
</event>
<event>
 7    1  0.1020736E-005  0.1460317E+03  0.7546771E-02  0.1215372E+00
          2   -1    0    0  501    0  0.00000000000E+00  0.00000000000E+00  0.11947601405E+04  0.11947601405E+04  0.00000000000E+00 0. -1.
         -2   -1    0    0    0  501 -0.00000000000E+00 -0.00000000000E+00 -0.17257225270E+02  0.17257225270E+02  0.00000000000E+00 0.  1.
         23    2    1    2    0    0 -0.53484867017E+02 -0.53279015006E+02  0.29954137422E+03  0.32199392259E+03  0.90861250686E+02 0.  0.
          5    1    1    2  502    0 -0.38284036163E+02  0.12175809477E+02  0.36842576905E+03  0.37063938682E+03  0.47000000000E+01 0. -1.
         -5    1    1    2    0  502  0.91768903179E+02  0.41103205529E+02  0.50953577199E+03  0.51938405639E+03  0.47000000000E+01 0. -1.
        -11    1    3    3    0    0 -0.73868443971E+01 -0.68579099525E+02  0.15975141044E+03  0.17400623982E+03  0.00000000000E+00 0.  1.
         11    1    3    3    0    0 -0.46098022619E+02  0.15300084519E+02  0.13978996379E+03  0.14798768277E+03  0.00000000000E+00 0. -1.
<mgrwt>
<rscale>  0 0.13849268E+03</rscale>
<asrwt>0</asrwt>
<pdfrwt beam="1">  1        2 0.18380919E+00 0.14603172E+03</pdfrwt>
<pdfrwt beam="2">  1       -2 0.26549587E-02 0.14603172E+03</pdfrwt>
<totfact> 0.99429506E+03</totfact>
</mgrwt>
</event>
<event>
 7    1  0.1020736E-005  0.1412925E+03  0.7546771E-02  0.1217672E+00
          1   -1    0    0  501    0  0.00000000000E+00  0.00000000000E+00  0.34981969625E+03  0.34981969625E+03  0.00000000000E+00 0. -1.
         -1   -1    0    0    0  501 -0.00000000000E+00 -0.00000000000E+00 -0.54215660949E+02  0.54215660949E+02  0.00000000000E+00 0.  1.
         23    2    1    2    0    0  0.68821584849E+02 -0.40010635012E+02  0.85397514123E+02  0.15075613163E+03  0.95380366700E+02 0.  0.
          5    1    1    2  502    0 -0.95537105032E+02  0.38097375584E+02  0.19862057860E+03  0.22372074716E+03  0.47000000000E+01 0. -1.
         -5    1    1    2    0  502  0.26715520184E+02  0.19132594282E+01  0.11585942574E+02  0.29558478406E+02  0.47000000000E+01 0.  1.
        -11    1    3    3    0    0  0.74819678544E+02 -0.57211509413E+02  0.91725835564E+02  0.13147155592E+03  0.00000000000E+00 0.  1.
         11    1    3    3    0    0 -0.59980936959E+01  0.17200874401E+02 -0.63283214411E+01  0.19284575712E+02  0.00000000000E+00 0. -1.
<mgrwt>
<rscale>  0 0.13682065E+03</rscale>
<asrwt>0</asrwt>
<pdfrwt beam="1">  1        1 0.53818413E-01 0.14129255E+03</pdfrwt>
<pdfrwt beam="2">  1       -1 0.83408711E-02 0.14129255E+03</pdfrwt>
<totfact> 0.55844174E+03</totfact>
</mgrwt>
</event>
<event>
 7    1  0.1020736E-005  0.1667202E+03  0.7546771E-02  0.1188200E+00
         -1   -1    0    0    0  501 -0.00000000000E+00  0.00000000000E+00  0.36957052263E+02  0.36957052263E+02  0.00000000000E+00 0.  1.
          1   -1    0    0  501    0  0.00000000000E+00 -0.00000000000E+00 -0.74043788175E+03  0.74043788175E+03  0.00000000000E+00 0. -1.
         23    2    1    2    0    0  0.10001316155E+03 -0.46557394686E+02 -0.19177156387E+03  0.23921095828E+03  0.90968820858E+02 0.  0.
          5    1    1    2  502    0 -0.72806049871E+02  0.65336384898E+02 -0.18103761594E+03  0.20583068885E+03  0.47000000000E+01 0. -1.
         -5    1    1    2    0  502 -0.27207111679E+02 -0.18778990212E+02 -0.33067164968E+03  0.33235328688E+03  0.47000000000E+01 0. -1.
        -11    1    3    3    0    0  0.33388065939E+01 -0.35295987515E+02 -0.17348080028E+02  0.39470371734E+02  0.00000000000E+00 0.  1.
         11    1    3    3    0    0  0.96674354956E+02 -0.11261407171E+02 -0.17442348384E+03  0.19974058654E+03  0.00000000000E+00 0. -1.
<mgrwt>
<rscale>  0 0.16044123E+03</rscale>
<asrwt>0</asrwt>
<pdfrwt beam="2">  1        1 0.11391352E+00 0.16672018E+03</pdfrwt>
<pdfrwt beam="1">  1       -1 0.56857005E-02 0.16672018E+03</pdfrwt>
<totfact> 0.36951715E+03</totfact>
</mgrwt>
</event>
<event>
 7    1  0.1020736E-005  0.2254748E+03  0.7546771E-02  0.1132849E+00
          3   -1    0    0  501    0  0.00000000000E+00  0.00000000000E+00  0.57186408331E+02  0.57186408331E+02  0.00000000000E+00 0. -1.
         -3   -1    0    0    0  501 -0.00000000000E+00 -0.00000000000E+00 -0.10814580896E+04  0.10814580896E+04  0.00000000000E+00 0.  1.
         23    2    1    2    0    0 -0.13367389466E+03 -0.13169355047E+03 -0.77359718759E+03  0.80148492633E+03  0.93346543303E+02 0.  0.
          5    1    1    2  502    0 -0.76579265000E+01  0.68531442358E+02 -0.95825967389E+02  0.11815205650E+03  0.47000000000E+01 0.  1.
         -5    1    1    2    0  502  0.14133182116E+03  0.63162108112E+02 -0.15484852629E+03  0.21900751509E+03  0.47000000000E+01 0.  1.
        -11    1    3    3    0    0 -0.12622663111E+03 -0.75792673997E+02 -0.63516549452E+03  0.65200682302E+03  0.00000000000E+00 0.  1.
         11    1    3    3    0    0 -0.74472635448E+01 -0.55900876474E+02 -0.13843169306E+03  0.14947810331E+03  0.00000000000E+00 0. -1.
<mgrwt>
<rscale>  0 0.22139257E+03</rscale>
<asrwt>0</asrwt>
<pdfrwt beam="1">  1        3 0.87979083E-02 0.22547478E+03</pdfrwt>
<pdfrwt beam="2">  1       -3 0.16637818E+00 0.22547478E+03</pdfrwt>
<totfact> 0.59047567E+01</totfact>
</mgrwt>
</event>
<event>
 7    1  0.1020736E-005  0.1333654E+03  0.7546771E-02  0.1234850E+00
         -3   -1    0    0    0  501 -0.00000000000E+00  0.00000000000E+00  0.66963724010E+02  0.66963724010E+02  0.00000000000E+00 0.  1.
          3   -1    0    0  501    0  0.00000000000E+00 -0.00000000000E+00 -0.22745174739E+03  0.22745174739E+03  0.00000000000E+00 0. -1.
         23    2    1    2    0    0 -0.26065180384E+02 -0.38518391369E+02 -0.29570927020E+02  0.10753148990E+03  0.92333750565E+02 0.  0.
          5    1    1    2  502    0  0.34353174073E+02 -0.29432037524E+02 -0.80949993523E+01  0.46195285650E+02  0.47000000000E+01 0. -1.
         -5    1    1    2    0  502 -0.82879936885E+01  0.67950428894E+02 -0.12282209700E+03  0.14068869585E+03  0.47000000000E+01 0. -1.
        -11    1    3    3    0    0 -0.32942412709E+02  0.10644610180E+02  0.17788603942E+02  0.38922290673E+02  0.00000000000E+00 0.  1.
         11    1    3    3    0    0  0.68772323246E+01 -0.49163001550E+02 -0.47359530962E+02  0.68609199229E+02  0.00000000000E+00 0. -1.
<mgrwt>
<rscale>  0 0.12514037E+03</rscale>
<asrwt>0</asrwt>
<pdfrwt beam="2">  1        3 0.34992577E-01 0.13336542E+03</pdfrwt>
<pdfrwt beam="1">  1       -3 0.10302111E-01 0.13336542E+03</pdfrwt>
<totfact> 0.12941855E+03</totfact>
</mgrwt>
</event>
<event>
 7    1  0.1020736E-005  0.2081853E+03  0.7546771E-02  0.1146893E+00
          1   -1    0    0  501    0  0.00000000000E+00  0.00000000000E+00  0.22980644703E+03  0.22980644703E+03  0.00000000000E+00 0. -1.
         -1   -1    0    0    0  501 -0.00000000000E+00 -0.00000000000E+00 -0.20650544118E+03  0.20650544118E+03  0.00000000000E+00 0.  1.
         23    2    1    2    0    0 -0.12730182655E+03 -0.10731170585E+03 -0.77565838509E+02  0.20497830842E+03  0.90984011585E+02 0.  0.
          5    1    1    2  502    0  0.13181549371E+03  0.42929393086E+02  0.90946742369E+02  0.16586638333E+03  0.47000000000E+01 0. -1.
         -5    1    1    2    0  502 -0.45136671561E+01  0.64382312765E+02  0.99201019935E+01  0.65467196455E+02  0.47000000000E+01 0. -1.
        -11    1    3    3    0    0 -0.30261498822E+02 -0.13612001777E+02  0.19777307244E+02  0.38628833598E+02  0.00000000000E+00 0. -1.
         11    1    3    3    0    0 -0.97040327730E+02 -0.93699704074E+02 -0.97343145753E+02  0.16634947482E+03  0.00000000000E+00 0.  1.
<mgrwt>
<rscale>  0 0.20341116E+03</rscale>
<asrwt>0</asrwt>
<pdfrwt beam="1">  1        1 0.35354838E-01 0.20818527E+03</pdfrwt>
<pdfrwt beam="2">  1       -1 0.31770068E-01 0.20818527E+03</pdfrwt>
<totfact> 0.11340509E+03</totfact>
</mgrwt>
</event>
<event>
 7    1  0.1020736E-005  0.1318976E+03  0.7546771E-02  0.1237758E+00
          1   -1    0    0  501    0  0.00000000000E+00  0.00000000000E+00  0.11324298913E+03  0.11324298913E+03  0.00000000000E+00 0. -1.
         -1   -1    0    0    0  501 -0.00000000000E+00 -0.00000000000E+00 -0.13291316134E+03  0.13291316134E+03  0.00000000000E+00 0.  1.
         23    2    1    2    0    0  0.61293957243E+01 -0.41605247592E+02 -0.47507605770E+02  0.11135299974E+03  0.91509299123E+02 0.  0.
          5    1    1    2  502    0 -0.42614390609E+02  0.31299547585E+02  0.63345996604E+02  0.82646556201E+02  0.47000000000E+01 0.  1.
         -5    1    1    2    0  502  0.36484994885E+02  0.10305700007E+02 -0.35508563044E+02  0.52156594538E+02  0.47000000000E+01 0.  1.
        -11    1    3    3    0    0 -0.30255024379E+02 -0.94564618665E+01 -0.53749842626E+02  0.62400615009E+02  0.00000000000E+00 0.  1.
         11    1    3    3    0    0  0.36384420104E+02 -0.32148785725E+02  0.62422368557E+01  0.48952384731E+02  0.00000000000E+00 0. -1.
<mgrwt>
<rscale>  0 0.12329509E+03</rscale>
<asrwt>0</asrwt>
<pdfrwt beam="1">  1        1 0.17421998E-01 0.13189756E+03</pdfrwt>
<pdfrwt beam="2">  1       -1 0.20448179E-01 0.13189756E+03</pdfrwt>
<totfact> 0.56506533E+03</totfact>
</mgrwt>
</event>
<event>
 7    1  0.1020736E-005  0.1281929E+03  0.7546771E-02  0.1244269E+00
         -1   -1    0    0    0  501 -0.00000000000E+00  0.00000000000E+00  0.12547401518E+03  0.12547401518E+03  0.00000000000E+00 0.  1.
          1   -1    0    0  501    0  0.00000000000E+00 -0.00000000000E+00 -0.15728805434E+03  0.15728805434E+03  0.00000000000E+00 0. -1.
         23    2    1    2    0    0  0.45901423257E+01  0.28115773285E+02  0.70116582165E+02  0.11898397241E+03  0.91811134841E+02 0.  0.
          5    1    1    2  502    0 -0.51944146153E+02  0.47433943376E+01 -0.73020243159E+01  0.52878196532E+02  0.47000000000E+01 0.  1.
         -5    1    1    2    0  502  0.47354003827E+02 -0.32859167623E+02 -0.94628597018E+02  0.11089990058E+03  0.47000000000E+01 0.  1.
        -11    1    3    3    0    0 -0.38802440989E+02 -0.52175950031E+01  0.16859951018E+02  0.42627581126E+02  0.00000000000E+00 0.  1.
         11    1    3    3    0    0  0.43392583314E+02  0.33333368288E+02  0.53256631147E+02  0.76356391280E+02  0.00000000000E+00 0. -1.
<mgrwt>
<rscale>  0 0.11929216E+03</rscale>
<asrwt>0</asrwt>
<pdfrwt beam="2">  1        1 0.24198162E-01 0.12819288E+03</pdfrwt>
<pdfrwt beam="1">  1       -1 0.19303695E-01 0.12819288E+03</pdfrwt>
<totfact> 0.40786933E+03</totfact>
</mgrwt>
</event>
<event>
 7    1  0.1020736E-005  0.1160122E+03  0.7546771E-02  0.1258611E+00
         -2   -1    0    0    0  501 -0.00000000000E+00  0.00000000000E+00  0.55793522222E+03  0.55793522222E+03  0.00000000000E+00 0.  1.
          2   -1    0    0  501    0  0.00000000000E+00 -0.00000000000E+00 -0.20419876471E+02  0.20419876471E+02  0.00000000000E+00 0. -1.
         23    2    1    2    0    0  0.33332779611E+02 -0.10046505525E+02  0.24230775299E+03  0.26117003457E+03  0.91020510483E+02 0.  0.
          5    1    1    2  502    0  0.19343301594E+02  0.36423471635E+02  0.50137191711E+02  0.65089635083E+02  0.47000000000E+01 0. -1.
         -5    1    1    2    0  502 -0.52676081205E+02 -0.26376966110E+02  0.24507040105E+03  0.25209542904E+03  0.47000000000E+01 0.  1.
        -11    1    3    3    0    0  0.47671056880E+02 -0.23190630840E+02  0.23415196655E+03  0.24007806743E+03  0.00000000000E+00 0. -1.
         11    1    3    3    0    0 -0.14338277269E+02  0.13144125314E+02  0.81557864404E+01  0.21091967139E+02  0.00000000000E+00 0.  1.
<mgrwt>
<rscale>  0 0.11106436E+03</rscale>
<asrwt>0</asrwt>
<pdfrwt beam="2">  1        2 0.31415199E-02 0.11601225E+03</pdfrwt>
<pdfrwt beam="1">  1       -2 0.85836176E-01 0.11601225E+03</pdfrwt>
<totfact> 0.33644376E+03</totfact>
</mgrwt>
</event>
<event>
 7    1  0.1020736E-005  0.1834584E+03  0.7546771E-02  0.1169862E+00
         -2   -1    0    0    0  501 -0.00000000000E+00  0.00000000000E+00  0.12045749036E+03  0.12045749036E+03  0.00000000000E+00 0.  1.
          2   -1    0    0  501    0  0.00000000000E+00 -0.00000000000E+00 -0.25750295006E+03  0.25750295006E+03  0.00000000000E+00 0. -1.
         23    2    1    2    0    0 -0.10165457802E+03 -0.87735058406E+02 -0.28095184840E+02  0.16458954876E+03  0.90935617025E+02 0.  0.
          5    1    1    2  502    0  0.31406614566E+02  0.76438255022E+01  0.25733606144E+02  0.41582592415E+02  0.47000000000E+01 0. -1.
         -5    1    1    2    0  502  0.70247963450E+02  0.80091232903E+02 -0.13468388100E+03  0.17178829925E+03  0.47000000000E+01 0. -1.
        -11    1    3    3    0    0 -0.24133897189E+01 -0.58623322232E+02 -0.12626032474E+02  0.60016123297E+02  0.00000000000E+00 0.  1.
         11    1    3    3    0    0 -0.99241188297E+02 -0.29111736173E+02 -0.15469152365E+02  0.10457342546E+03  0.00000000000E+00 0. -1.
<mgrwt>
<rscale>  0 0.17788872E+03</rscale>
<asrwt>0</asrwt>
<pdfrwt beam="2">  1        2 0.39615838E-01 0.18345837E+03</pdfrwt>
<pdfrwt beam="1">  1       -2 0.18531922E-01 0.18345837E+03</pdfrwt>
<totfact> 0.30340666E+03</totfact>
</mgrwt>
</event>
<event>
 7    1  0.1020736E-005  0.1461477E+03  0.7546771E-02  0.1215062E+00
          4   -1    0    0  501    0  0.00000000000E+00  0.00000000000E+00  0.11648216427E+03  0.11648216427E+03  0.00000000000E+00 0. -1.
         -4   -1    0    0    0  501 -0.00000000000E+00 -0.00000000000E+00 -0.15522800360E+03  0.15522800360E+03  0.00000000000E+00 0.  1.
         23    2    1    2    0    0 -0.68168350383E+02 -0.32997382940E+02 -0.41096150381E+02  0.12554361775E+03  0.91304737591E+02 0.  0.
          5    1    1    2  502    0  0.28732728766E+02 -0.28121970763E+02  0.45946967001E+02  0.61234211994E+02  0.47000000000E+01 0.  1.
         -5    1    1    2    0  502  0.39435621617E+02  0.61119353703E+02 -0.43596655954E+02  0.84932338127E+02  0.47000000000E+01 0.  1.
        -11    1    3    3    0    0 -0.39204033549E+02 -0.51532418403E+00 -0.64986112559E+02  0.75897408593E+02  0.00000000000E+00 0.  1.
         11    1    3    3    0    0 -0.28964316834E+02 -0.32482058756E+02  0.23889962179E+02  0.49646209156E+02  0.00000000000E+00 0. -1.
<mgrwt>
<rscale>  0 0.13872015E+03</rscale>
<asrwt>0</asrwt>
<pdfrwt beam="1">  1        4 0.17920333E-01 0.14614765E+03</pdfrwt>
<pdfrwt beam="2">  1       -4 0.23881231E-01 0.14614765E+03</pdfrwt>
<totfact> 0.75270798E+02</totfact>
</mgrwt>
</event>
<event>
 7    1  0.1020736E-005  0.1452876E+03  0.7546771E-02  0.1216228E+00
          4   -1    0    0  501    0  0.00000000000E+00  0.00000000000E+00  0.34812229122E+03  0.34812229122E+03  0.00000000000E+00 0. -1.
         -4   -1    0    0    0  501 -0.00000000000E+00 -0.00000000000E+00 -0.57360868266E+02  0.57360868266E+02  0.00000000000E+00 0.  1.
         23    2    1    2    0    0  0.71568669562E+02 -0.19000900298E+02  0.58511492724E+02  0.13153329553E+03  0.91620436457E+02 0.  0.
          5    1    1    2  502    0 -0.80557422367E+01  0.65295508649E+02  0.11828624800E+03  0.13543310119E+03  0.47000000000E+01 0.  1.
         -5    1    1    2    0  502 -0.63512927325E+02 -0.46294608351E+02  0.11396368223E+03  0.13851676277E+03  0.47000000000E+01 0.  1.
        -11    1    3    3    0    0  0.38162830079E+02 -0.18011896009E+02  0.80942825615E+02  0.91282917438E+02  0.00000000000E+00 0. -1.
         11    1    3    3    0    0  0.33405839483E+02 -0.98900428948E+00 -0.22431332891E+02  0.40250378089E+02  0.00000000000E+00 0.  1.
<mgrwt>
<rscale>  0 0.13786692E+03</rscale>
<asrwt>0</asrwt>
<pdfrwt beam="1">  1        4 0.53557274E-01 0.14528764E+03</pdfrwt>
<pdfrwt beam="2">  1       -4 0.88247492E-02 0.14528764E+03</pdfrwt>
<totfact> 0.53018285E+02</totfact>
</mgrwt>
</event>
<event>
 7    1  0.1020736E-005  0.1194148E+03  0.7546771E-02  0.1254852E+00
          2   -1    0    0  501    0  0.00000000000E+00  0.00000000000E+00  0.41729587949E+03  0.41729587949E+03  0.00000000000E+00 0. -1.
         -2   -1    0    0    0  501 -0.00000000000E+00 -0.00000000000E+00 -0.39268193646E+02  0.39268193646E+02  0.00000000000E+00 0.  1.
         23    2    1    2    0    0 -0.24791709657E+02 -0.27859682783E+02  0.52086831728E+02  0.10943681613E+03  0.88727605017E+02 0.  0.
          5    1    1    2  502    0 -0.33958818166E+02 -0.36828531033E+01  0.21388805302E+03  0.21664938025E+03  0.47000000000E+01 0. -1.
         -5    1    1    2    0  502  0.58750527823E+02  0.31542535886E+02  0.11205280109E+03  0.13047787676E+03  0.47000000000E+01 0.  1.
        -11    1    3    3    0    0  0.33266656520E+02 -0.63523199442E+01  0.13353254324E+02  0.36405106863E+02  0.00000000000E+00 0.  1.
         11    1    3    3    0    0 -0.58058366177E+02 -0.21507362839E+02  0.38733577404E+02  0.73031709264E+02  0.00000000000E+00 0. -1.
<mgrwt>
<rscale>  0 0.11314615E+03</rscale>
<asrwt>0</asrwt>
<pdfrwt beam="1">  1        2 0.64199363E-01 0.11941479E+03</pdfrwt>
<pdfrwt beam="2">  1       -2 0.60412609E-02 0.11941479E+03</pdfrwt>
<totfact> 0.10486677E+04</totfact>
</mgrwt>
</event>
<event>
 7    1  0.1020736E-005  0.1334536E+03  0.7546771E-02  0.1235449E+00
          2   -1    0    0  501    0  0.00000000000E+00  0.00000000000E+00  0.97293377641E+03  0.97293377641E+03  0.00000000000E+00 0.  1.
         -2   -1    0    0    0  501 -0.00000000000E+00 -0.00000000000E+00 -0.20151164305E+02  0.20151164305E+02  0.00000000000E+00 0. -1.
         23    2    1    2    0    0  0.51861403790E+01  0.46458131153E+02  0.16399219915E+03  0.19308483237E+03  0.90570729845E+02 0.  0.
          5    1    1    2  502    0 -0.85761615935E+01 -0.32140063889E+02  0.45548032442E+02  0.56597239454E+02  0.47000000000E+01 0.  1.
         -5    1    1    2    0  502  0.33900212145E+01 -0.14318067265E+02  0.74324238051E+03  0.74340286890E+03  0.47000000000E+01 0.  1.
        -11    1    3    3    0    0 -0.29877994278E+02 -0.83229943402E+01  0.86623706623E+02  0.92008876344E+02  0.00000000000E+00 0.  1.
         11    1    3    3    0    0  0.35064134657E+02  0.54781125493E+02  0.77368492529E+02  0.10107595602E+03  0.00000000000E+00 0. -1.
<mgrwt>
<rscale>  0 0.12475725E+03</rscale>
<asrwt>0</asrwt>
<pdfrwt beam="1">  1        2 0.14968208E+00 0.13345358E+03</pdfrwt>
<pdfrwt beam="2">  1       -2 0.31001799E-02 0.13345358E+03</pdfrwt>
<totfact> 0.10587305E+04</totfact>
</mgrwt>
</event>
<event>
 7    1  0.1020736E-005  0.1313136E+03  0.7546771E-02  0.1240303E+00
          3   -1    0    0  501    0  0.00000000000E+00  0.00000000000E+00  0.75655841147E+02  0.75655841147E+02  0.00000000000E+00 0. -1.
         -3   -1    0    0    0  501 -0.00000000000E+00 -0.00000000000E+00 -0.17675182544E+03  0.17675182544E+03  0.00000000000E+00 0.  1.
         23    2    1    2    0    0 -0.35933128439E+02 -0.18100899846E+02 -0.63337419656E+02  0.11577318083E+03  0.88164439411E+02 0.  0.
          5    1    1    2  502    0  0.56335243341E+02 -0.22568029351E+02  0.18974670119E+02  0.63758165729E+02  0.47000000000E+01 0. -1.
         -5    1    1    2    0  502 -0.20402114902E+02  0.40668929197E+02 -0.56733234751E+02  0.72876320021E+02  0.47000000000E+01 0. -1.
        -11    1    3    3    0    0 -0.18058407018E+02 -0.12457547535E+02 -0.84617294266E+02  0.87415004682E+02  0.00000000000E+00 0.  1.
         11    1    3    3    0    0 -0.17874721421E+02 -0.56433523106E+01  0.21279874610E+02  0.28358176150E+02  0.00000000000E+00 0. -1.
<mgrwt>
<rscale>  0 0.12170993E+03</rscale>
<asrwt>0</asrwt>
<pdfrwt beam="1">  1        3 0.11639360E-01 0.13131365E+03</pdfrwt>
<pdfrwt beam="2">  1       -3 0.27192588E-01 0.13131365E+03</pdfrwt>
<totfact> 0.16820303E+03</totfact>
</mgrwt>
</event>
<event>
 7    1  0.1020736E-005  0.1481896E+03  0.7546771E-02  0.1212248E+00
          3   -1    0    0  501    0  0.00000000000E+00  0.00000000000E+00  0.35388652308E+03  0.35388652308E+03  0.00000000000E+00 0. -1.
         -3   -1    0    0    0  501 -0.00000000000E+00 -0.00000000000E+00 -0.51897530386E+02  0.51897530386E+02  0.00000000000E+00 0.  1.
         23    2    1    2    0    0  0.36074043758E+02 -0.70943262308E+02  0.11100846761E+03  0.16405336485E+03  0.90864423936E+02 0.  0.
          5    1    1    2  502    0 -0.27304199712E+02 -0.17128612773E+01 -0.86349891235E+01  0.29070711255E+02  0.47000000000E+01 0.  1.
         -5    1    1    2    0  502 -0.87698440459E+01  0.72656123585E+02  0.19961551420E+03  0.21265997736E+03  0.47000000000E+01 0.  1.
        -11    1    3    3    0    0  0.54971745580E+02 -0.39018223383E+02  0.27743066972E+02  0.72897135287E+02  0.00000000000E+00 0.  1.
         11    1    3    3    0    0 -0.18897701822E+02 -0.31925038925E+02  0.83265400638E+02  0.91156229562E+02  0.00000000000E+00 0. -1.
<mgrwt>
<rscale>  0 0.14080646E+03</rscale>
<asrwt>0</asrwt>
<pdfrwt beam="1">  1        3 0.54444079E-01 0.14818962E+03</pdfrwt>
<pdfrwt beam="2">  1       -3 0.79842357E-02 0.14818962E+03</pdfrwt>
<totfact> 0.84273865E+02</totfact>
</mgrwt>
</event>
<event>
 7    1  0.1020736E-005  0.1736189E+03  0.7546771E-02  0.1180421E+00
         -2   -1    0    0    0  501 -0.00000000000E+00  0.00000000000E+00  0.10619130528E+03  0.10619130528E+03  0.00000000000E+00 0.  1.
          2   -1    0    0  501    0  0.00000000000E+00 -0.00000000000E+00 -0.37807539747E+03  0.37807539747E+03  0.00000000000E+00 0. -1.
         23    2    1    2    0    0  0.12037035224E+03  0.36387969125E+01  0.12444316982E+02  0.15112085245E+03  0.90445500043E+02 0.  0.
          5    1    1    2  502    0 -0.74860150307E+02  0.28664558807E+01 -0.41122940738E+02  0.85588813102E+02  0.47000000000E+01 0.  1.
         -5    1    1    2    0  502 -0.45510201934E+02 -0.65052527932E+01 -0.24320546843E+03  0.24755703720E+03  0.47000000000E+01 0.  1.
        -11    1    3    3    0    0  0.10684387291E+03 -0.18854851007E+02  0.37540816482E+02  0.11480606033E+03  0.00000000000E+00 0.  1.
         11    1    3    3    0    0  0.13526479328E+02  0.22493647920E+02 -0.25096499500E+02  0.36314792123E+02  0.00000000000E+00 0. -1.
<mgrwt>
<rscale>  0 0.16755579E+03</rscale>
<asrwt>0</asrwt>
<pdfrwt beam="2">  1        2 0.58165446E-01 0.17361887E+03</pdfrwt>
<pdfrwt beam="1">  1       -2 0.16337124E-01 0.17361887E+03</pdfrwt>
<totfact> 0.24779509E+03</totfact>
</mgrwt>
</event>
<event>
 7    1  0.1020736E-005  0.2463578E+03  0.7546771E-02  0.1140904E+00
          1   -1    0    0  501    0  0.00000000000E+00  0.00000000000E+00  0.11327966358E+04  0.11327966358E+04  0.00000000000E+00 0. -1.
         -1   -1    0    0    0  501 -0.00000000000E+00 -0.00000000000E+00 -0.54928657454E+02  0.54928657454E+02  0.00000000000E+00 0.  1.
         23    2    1    2    0    0  0.23000253209E+02  0.90999362946E+02  0.68752595560E+02  0.14897314928E+03  0.93038616216E+02 0.  0.
          5    1    1    2  502    0 -0.87223260498E+02 -0.15128750697E+02  0.82248003141E+03  0.82724377806E+03  0.47000000000E+01 0. -1.
         -5    1    1    2    0  502  0.64223007289E+02 -0.75870612249E+02  0.18663535140E+03  0.21150836594E+03  0.47000000000E+01 0.  1.
        -11    1    3    3    0    0  0.38637974100E+02  0.26246019181E+02 -0.79508769805E+01  0.47381040619E+02  0.00000000000E+00 0.  1.
         11    1    3    3    0    0 -0.15637720891E+02  0.64753343764E+02  0.76703472541E+02  0.10159210867E+03  0.00000000000E+00 0. -1.
<mgrwt>
<rscale>  0 0.21083813E+03</rscale>
<asrwt>0</asrwt>
<pdfrwt beam="1">  1        1 0.17427639E+00 0.24635779E+03</pdfrwt>
<pdfrwt beam="2">  1       -1 0.84505636E-02 0.24635779E+03</pdfrwt>
<totfact> 0.10134830E+03</totfact>
</mgrwt>
</event>
<event>
 7    1  0.1020736E-005  0.1652091E+03  0.7546771E-02  0.1194137E+00
          1   -1    0    0  501    0  0.00000000000E+00  0.00000000000E+00  0.21163077726E+03  0.21163077726E+03  0.00000000000E+00 0. -1.
         -1   -1    0    0    0  501 -0.00000000000E+00 -0.00000000000E+00 -0.32730678247E+03  0.32730678247E+03  0.00000000000E+00 0.  1.
         23    2    1    2    0    0  0.83747371351E+02 -0.43573344497E+02 -0.27855433235E+03  0.30693886312E+03  0.87787761474E+02 0.  0.
          5    1    1    2  502    0 -0.61915392126E+02  0.92497262019E+02  0.11165532820E+03  0.15772844252E+03  0.47000000000E+01 0. -1.
         -5    1    1    2    0  502 -0.21831979226E+02 -0.48923917522E+02  0.51222998944E+02  0.74270254095E+02  0.47000000000E+01 0.  1.
        -11    1    3    3    0    0  0.13993480237E+02 -0.42847783424E+02 -0.47067442019E+02  0.65169733249E+02  0.00000000000E+00 0. -1.
         11    1    3    3    0    0  0.69753891114E+02 -0.72556107273E+00 -0.23148689033E+03  0.24176912987E+03  0.00000000000E+00 0.  1.
<mgrwt>
<rscale>  0 0.15527478E+03</rscale>
<asrwt>0</asrwt>
<pdfrwt beam="1">  1        1 0.32558581E-01 0.16520910E+03</pdfrwt>
<pdfrwt beam="2">  1       -1 0.50354889E-01 0.16520910E+03</pdfrwt>
<totfact> 0.55560771E+02</totfact>
</mgrwt>
</event>
<event>
 7    1  0.1020736E-005  0.1307278E+03  0.7546771E-02  0.1245921E+00
         -1   -1    0    0    0  501 -0.00000000000E+00  0.00000000000E+00  0.25553519588E+02  0.25553519588E+02  0.00000000000E+00 0.  1.
          1   -1    0    0  501    0  0.00000000000E+00 -0.00000000000E+00 -0.47015447517E+03  0.47015447517E+03  0.00000000000E+00 0. -1.
         23    2    1    2    0    0 -0.98817282188E+01 -0.36963656018E+02 -0.15792879993E+03  0.18063548313E+03  0.78890503228E+02 0.  0.
          5    1    1    2  502    0  0.42440614300E+02 -0.12966931930E+02 -0.22419606850E+03  0.22859421296E+03  0.47000000000E+01 0. -1.
         -5    1    1    2    0  502 -0.32558886081E+02  0.49930587948E+02 -0.62476087153E+02  0.86478298674E+02  0.47000000000E+01 0. -1.
        -11    1    3    3    0    0  0.11684709176E+02  0.54197811308E+01  0.26610257776E+01  0.13152471791E+02  0.00000000000E+00 0.  1.
         11    1    3    3    0    0 -0.21566437395E+02 -0.42383437148E+02 -0.16058982570E+03  0.16748301134E+03  0.00000000000E+00 0. -1.
<mgrwt>
<rscale>  0 0.11830426E+03</rscale>
<asrwt>0</asrwt>
<pdfrwt beam="2">  1        1 0.72331450E-01 0.13072782E+03</pdfrwt>
<pdfrwt beam="1">  1       -1 0.39313111E-02 0.13072782E+03</pdfrwt>
<totfact> 0.11705009E+04</totfact>
</mgrwt>
</event>
<event>
 7    1  0.1020736E-005  0.1163045E+03  0.7546771E-02  0.1258614E+00
         -1   -1    0    0    0  501 -0.00000000000E+00  0.00000000000E+00  0.19364656746E+03  0.19364656746E+03  0.00000000000E+00 0.  1.
          1   -1    0    0  501    0  0.00000000000E+00 -0.00000000000E+00 -0.62263662850E+02  0.62263662850E+02  0.00000000000E+00 0. -1.
         23    2    1    2    0    0  0.30095594499E+02 -0.17516849025E+02  0.90999532266E+02  0.13279420001E+03  0.90226381258E+02 0.  0.
          5    1    1    2  502    0 -0.67187467953E+02  0.33503881082E+02  0.31141970830E+02  0.81416080995E+02  0.47000000000E+01 0. -1.
         -5    1    1    2    0  502  0.37091873454E+02 -0.15987032057E+02  0.92414015133E+01  0.41699949307E+02  0.47000000000E+01 0.  1.
        -11    1    3    3    0    0  0.50644166777E+02 -0.40977464883E+02  0.55909123364E+02  0.85847622751E+02  0.00000000000E+00 0.  1.
         11    1    3    3    0    0 -0.20548572278E+02  0.23460615858E+02  0.35090408902E+02  0.46946577256E+02  0.00000000000E+00 0. -1.
<mgrwt>
<rscale>  0 0.11106278E+03</rscale>
<asrwt>0</asrwt>
<pdfrwt beam="2">  1        1 0.95790252E-02 0.11630451E+03</pdfrwt>
<pdfrwt beam="1">  1       -1 0.29791779E-01 0.11630451E+03</pdfrwt>
<totfact> 0.65894374E+03</totfact>
</mgrwt>
</event>
<event>
 7    1  0.1020736E-005  0.2861909E+03  0.7546771E-02  0.1094000E+00
          1   -1    0    0  501    0  0.00000000000E+00  0.00000000000E+00  0.16955716451E+04  0.16955716451E+04  0.00000000000E+00 0. -1.
         -1   -1    0    0    0  501 -0.00000000000E+00 -0.00000000000E+00 -0.63332569290E+02  0.63332569290E+02  0.00000000000E+00 0.  1.
         23    2    1    2    0    0 -0.25506580589E+03  0.34961902413E+02  0.34701140566E+03  0.44219794851E+03  0.94027708956E+02 0.  0.
          5    1    1    2  502    0  0.19035957813E+03  0.12433469982E+02  0.68347892034E+03  0.70961742137E+03  0.47000000000E+01 0.  1.
         -5    1    1    2    0  502  0.64706227762E+02 -0.47395372395E+02  0.60174874977E+03  0.60708884447E+03  0.47000000000E+01 0.  1.
        -11    1    3    3    0    0 -0.24080596486E+03  0.12640237313E+02  0.33585639618E+03  0.41345714066E+03  0.00000000000E+00 0. -1.
         11    1    3    3    0    0 -0.14259841034E+02  0.22321665100E+02  0.11155009481E+02  0.28740807846E+02  0.00000000000E+00 0.  1.
<mgrwt>
<rscale>  0 0.28311497E+03</rscale>
<asrwt>0</asrwt>
<pdfrwt beam="1">  1        1 0.26085714E+00 0.28619089E+03</pdfrwt>
<pdfrwt beam="2">  1       -1 0.97434735E-02 0.28619089E+03</pdfrwt>
<totfact> 0.33771908E+02</totfact>
</mgrwt>
</event>
<event>
 7    1  0.1020736E-005  0.1557641E+03  0.7546771E-02  0.1204227E+00
          1   -1    0    0  501    0  0.00000000000E+00  0.00000000000E+00  0.12164277331E+04  0.12164277331E+04  0.00000000000E+00 0. -1.
         -1   -1    0    0    0  501 -0.00000000000E+00 -0.00000000000E+00 -0.18230864226E+02  0.18230864226E+02  0.00000000000E+00 0.  1.
         23    2    1    2    0    0 -0.87303255045E+02 -0.31878507890E+02  0.32497718840E+03  0.34765517881E+03  0.81337892568E+02 0.  0.
          5    1    1    2  502    0 -0.12923256170E+02  0.48628029187E+02  0.38469670241E+03  0.38800172502E+03  0.47000000000E+01 0. -1.
         -5    1    1    2    0  502  0.10022651122E+03 -0.16749521296E+02  0.48852297804E+03  0.49900169347E+03  0.47000000000E+01 0. -1.
        -11    1    3    3    0    0 -0.66282730062E+02  0.10715642152E+02  0.25032309452E+03  0.25917152031E+03  0.00000000000E+00 0. -1.
         11    1    3    3    0    0 -0.21020524982E+02 -0.42594150042E+02  0.74654093885E+02  0.88483658503E+02  0.00000000000E+00 0.  1.
<mgrwt>
<rscale>  0 0.14698510E+03</rscale>
<asrwt>0</asrwt>
<pdfrwt beam="1">  1        1 0.18714266E+00 0.15576410E+03</pdfrwt>
<pdfrwt beam="2">  1       -1 0.28047493E-02 0.15576410E+03</pdfrwt>
<totfact> 0.45794145E+03</totfact>
</mgrwt>
</event>
<event>
 7    1  0.1020736E-005  0.1352517E+03  0.7546771E-02  0.1230787E+00
          1   -1    0    0  501    0  0.00000000000E+00  0.00000000000E+00  0.30927332070E+03  0.30927332070E+03  0.00000000000E+00 0. -1.
         -1   -1    0    0    0  501 -0.00000000000E+00 -0.00000000000E+00 -0.56314056224E+02  0.56314056224E+02  0.00000000000E+00 0.  1.
         23    2    1    2    0    0 -0.78528320377E+01 -0.50820040333E+02  0.43384897746E+02  0.11615916966E+03  0.94690864783E+02 0.  0.
          5    1    1    2  502    0  0.65611426234E+02  0.28641881905E+02  0.93999953163E+02  0.11825099512E+03  0.47000000000E+01 0.  1.
         -5    1    1    2    0  502 -0.57758594196E+02  0.22178158428E+02  0.11557441357E+03  0.13117721214E+03  0.47000000000E+01 0.  1.
        -11    1    3    3    0    0  0.65627500464E+01 -0.10779034116E+02  0.66529463156E+02  0.67715779051E+02  0.00000000000E+00 0. -1.
         11    1    3    3    0    0 -0.14415582084E+02 -0.40041006218E+02 -0.23144565410E+02  0.48443390610E+02  0.00000000000E+00 0.  1.
<mgrwt>
<rscale>  0 0.12778042E+03</rscale>
<asrwt>0</asrwt>
<pdfrwt beam="1">  1        1 0.47580510E-01 0.13525167E+03</pdfrwt>
<pdfrwt beam="2">  1       -1 0.86637011E-02 0.13525167E+03</pdfrwt>
<totfact> 0.61294791E+03</totfact>
</mgrwt>
</event>
<event>
 7    1  0.1020736E-005  0.2483950E+03  0.7546771E-02  0.1142760E+00
         -1   -1    0    0    0  501 -0.00000000000E+00  0.00000000000E+00  0.31436112784E+02  0.31436112784E+02  0.00000000000E+00 0.  1.
          1   -1    0    0  501    0  0.00000000000E+00 -0.00000000000E+00 -0.13558497802E+04  0.13558497802E+04  0.00000000000E+00 0. -1.
         23    2    1    2    0    0  0.80290294748E+02  0.22200184995E+02 -0.19375422230E+03  0.22966295840E+03  0.90912024284E+02 0.  0.
          5    1    1    2  502    0 -0.73363812630E+02 -0.87978784922E+02 -0.10344043304E+04  0.10407386436E+04  0.47000000000E+01 0. -1.
         -5    1    1    2    0  502 -0.69264821175E+01  0.65778599927E+02 -0.96255114755E+02  0.11688429099E+03  0.47000000000E+01 0.  1.
        -11    1    3    3    0    0  0.29447923114E+02 -0.18233985896E+02 -0.14325507373E+03  0.14738274854E+03  0.00000000000E+00 0. -1.
         11    1    3    3    0    0  0.50842371634E+02  0.40434170891E+02 -0.50499148565E+02  0.82280209861E+02  0.00000000000E+00 0.  1.
<mgrwt>
<rscale>  0 0.20849864E+03</rscale>
<asrwt>0</asrwt>
<pdfrwt beam="2">  1        1 0.20859222E+00 0.24839500E+03</pdfrwt>
<pdfrwt beam="1">  1       -1 0.48363264E-02 0.24839500E+03</pdfrwt>
<totfact> 0.16549432E+03</totfact>
</mgrwt>
</event>
<event>
 7    1  0.1020736E-005  0.1278715E+03  0.7546771E-02  0.1247689E+00
          3   -1    0    0  501    0  0.00000000000E+00  0.00000000000E+00  0.10822862341E+03  0.10822862341E+03  0.00000000000E+00 0. -1.
         -3   -1    0    0    0  501 -0.00000000000E+00 -0.00000000000E+00 -0.15024277341E+03  0.15024277341E+03  0.00000000000E+00 0.  1.
         23    2    1    2    0    0  0.26624251345E+02  0.41812087104E+01 -0.84468934550E+02  0.12373638331E+03  0.86309665647E+02 0.  0.
          5    1    1    2  502    0  0.49503951971E+02  0.75450323767E+01  0.22027827178E+02  0.54907958845E+02  0.47000000000E+01 0. -1.
         -5    1    1    2    0  502 -0.76128203316E+02 -0.11726241087E+02  0.20426957368E+02  0.79827054671E+02  0.47000000000E+01 0. -1.
        -11    1    3    3    0    0  0.81305446801E+01  0.42753320463E+02 -0.61035521277E+02  0.74961903824E+02  0.00000000000E+00 0.  1.
         11    1    3    3    0    0  0.18493706664E+02 -0.38572111753E+02 -0.23433413273E+02  0.48774479484E+02  0.00000000000E+00 0. -1.
<mgrwt>
<rscale>  0 0.11725890E+03</rscale>
<asrwt>0</asrwt>
<pdfrwt beam="1">  1        3 0.16650557E-01 0.12787148E+03</pdfrwt>
<pdfrwt beam="2">  1       -3 0.23114273E-01 0.12787148E+03</pdfrwt>
<totfact> 0.12227945E+03</totfact>
</mgrwt>
</event>
<event>
 7    1  0.1020736E-005  0.1583536E+03  0.7546771E-02  0.1198934E+00
         -1   -1    0    0    0  501 -0.00000000000E+00  0.00000000000E+00  0.36716186105E+03  0.36716186105E+03  0.00000000000E+00 0.  1.
          1   -1    0    0  501    0  0.00000000000E+00 -0.00000000000E+00 -0.59885590979E+02  0.59885590979E+02  0.00000000000E+00 0. -1.
         23    2    1    2    0    0 -0.40505535229E+02 -0.88377668322E+02  0.18408264380E+03  0.22641712606E+03  0.89033614904E+02 0.  0.
          5    1    1    2  502    0 -0.33858525736E+01  0.10925957869E+03  0.81719622007E+02  0.13656246247E+03  0.47000000000E+01 0.  1.
         -5    1    1    2    0  502  0.43891387802E+02 -0.20881910371E+02  0.41474004266E+02  0.64067863503E+02  0.47000000000E+01 0.  1.
        -11    1    3    3    0    0  0.22210293671E+02 -0.34908604299E+02  0.10212322917E+03  0.11018648617E+03  0.00000000000E+00 0.  1.
         11    1    3    3    0    0 -0.62715828900E+02 -0.53469064023E+02  0.81959414631E+02  0.11623063989E+03  0.00000000000E+00 0. -1.
<mgrwt>
<rscale>  0 0.15125921E+03</rscale>
<asrwt>0</asrwt>
<pdfrwt beam="2">  1        1 0.92131681E-02 0.15835359E+03</pdfrwt>
<pdfrwt beam="1">  1       -1 0.56486439E-01 0.15835359E+03</pdfrwt>
<totfact> 0.22854445E+03</totfact>
</mgrwt>
</event>
<event>
 7    1  0.1020736E-005  0.1276010E+03  0.7546771E-02  0.1245912E+00
         -2   -1    0    0    0  501 -0.00000000000E+00  0.00000000000E+00  0.12919893901E+02  0.12919893901E+02  0.00000000000E+00 0.  1.
          2   -1    0    0  501    0  0.00000000000E+00 -0.00000000000E+00 -0.95570203929E+03  0.95570203929E+03  0.00000000000E+00 0. -1.
         23    2    1    2    0    0 -0.25554249649E+02 -0.22667111315E+01 -0.37452365518E+03  0.38621337769E+03  0.90744956667E+02 0.  0.
          5    1    1    2  502    0 -0.22785506373E+02 -0.44982973034E+02 -0.35634184273E+03  0.35992255562E+03  0.47000000000E+01 0. -1.
         -5    1    1    2    0  502  0.48339756022E+02  0.47249684165E+02 -0.21191664747E+03  0.22248599988E+03  0.47000000000E+01 0. -1.
        -11    1    3    3    0    0 -0.75621224361E+01 -0.46205154208E+02 -0.18729341005E+03  0.19305678807E+03  0.00000000000E+00 0.  1.
         11    1    3    3    0    0 -0.17992127213E+02  0.43938443076E+02 -0.18723024513E+03  0.19315658962E+03  0.00000000000E+00 0. -1.
<mgrwt>
<rscale>  0 0.11830971E+03</rscale>
<asrwt>0</asrwt>
<pdfrwt beam="2">  1        2 0.14703105E+00 0.12760099E+03</pdfrwt>
<pdfrwt beam="1">  1       -2 0.19876764E-02 0.12760099E+03</pdfrwt>
<totfact> 0.20685729E+04</totfact>
</mgrwt>
</event>
<event>
 7    1  0.1020736E-005  0.2736875E+03  0.7546771E-02  0.1127032E+00
          1   -1    0    0  501    0  0.00000000000E+00  0.00000000000E+00  0.12327630455E+04  0.12327630455E+04  0.00000000000E+00 0. -1.
         -1   -1    0    0    0  501 -0.00000000000E+00 -0.00000000000E+00 -0.33903309424E+02  0.33903309424E+02  0.00000000000E+00 0.  1.
         23    2    1    2    0    0 -0.25904295657E+02 -0.97129991522E+02  0.39519203755E+03  0.41767483883E+03  0.90389472093E+02 0.  0.
          5    1    1    2  502    0 -0.10686176641E+03  0.84102364073E+02  0.47905051904E+03  0.49800013509E+03  0.47000000000E+01 0. -1.
         -5    1    1    2    0  502  0.13276606207E+03  0.13027627448E+02  0.32461717948E+03  0.35099138099E+03  0.47000000000E+01 0.  1.
        -11    1    3    3    0    0  0.74063055017E+01  0.14860417045E+02  0.75411295089E+02  0.77217541938E+02  0.00000000000E+00 0.  1.
         11    1    3    3    0    0 -0.33310601159E+02 -0.11199040857E+03  0.31978074246E+03  0.34045729689E+03  0.00000000000E+00 0. -1.
<mgrwt>
<rscale>  0 0.22944305E+03</rscale>
<asrwt>0</asrwt>
<pdfrwt beam="1">  1        1 0.18965582E+00 0.27368746E+03</pdfrwt>
<pdfrwt beam="2">  1       -1 0.52158947E-02 0.27368746E+03</pdfrwt>
<totfact> 0.17935374E+03</totfact>
</mgrwt>
</event>
<event>
 7    1  0.1020736E-005  0.1591235E+03  0.7546771E-02  0.1196631E+00
         -1   -1    0    0    0  501 -0.00000000000E+00  0.00000000000E+00  0.15996451580E+03  0.15996451580E+03  0.00000000000E+00 0.  1.
          1   -1    0    0  501    0  0.00000000000E+00 -0.00000000000E+00 -0.14803875146E+03  0.14803875146E+03  0.00000000000E+00 0. -1.
         23    2    1    2    0    0  0.11282562273E+02 -0.97817656245E+02  0.48075706767E+02  0.14482509205E+03  0.94696587165E+02 0.  0.
          5    1    1    2  502    0  0.36302248625E+02  0.64491754601E+01 -0.46507004926E+02  0.59535171340E+02  0.47000000000E+01 0. -1.
         -5    1    1    2    0  502 -0.47584810898E+02  0.91368480785E+02  0.10357062496E+02  0.10364300388E+03  0.47000000000E+01 0. -1.
        -11    1    3    3    0    0 -0.40850365090E+02 -0.58326795393E+02  0.25429711569E+02  0.75613739620E+02  0.00000000000E+00 0. -1.
         11    1    3    3    0    0  0.52132927363E+02 -0.39490860852E+02  0.22645995199E+02  0.69211352427E+02  0.00000000000E+00 0.  1.
<mgrwt>
<rscale>  0 0.15316996E+03</rscale>
<asrwt>0</asrwt>
<pdfrwt beam="2">  1        1 0.22775193E-01 0.15912353E+03</pdfrwt>
<pdfrwt beam="1">  1       -1 0.24609926E-01 0.15912353E+03</pdfrwt>
<totfact> 0.30029863E+03</totfact>
</mgrwt>
</event>
<event>
 7    1  0.1020736E-005  0.1332854E+03  0.7546771E-02  0.1235806E+00
          2   -1    0    0  501    0  0.00000000000E+00  0.00000000000E+00  0.74156280716E+03  0.74156280716E+03  0.00000000000E+00 0. -1.
         -2   -1    0    0    0  501 -0.00000000000E+00 -0.00000000000E+00 -0.38742688210E+02  0.38742688210E+02  0.00000000000E+00 0.  1.
         23    2    1    2    0    0  0.15980270603E+02  0.43396690920E+02  0.48505929144E+02  0.11255399210E+03  0.90426401809E+02 0.  0.
          5    1    1    2  502    0 -0.63843821665E+02 -0.51270302806E+02  0.47004714335E+03  0.47714891228E+03  0.47000000000E+01 0. -1.
         -5    1    1    2    0  502  0.47863551062E+02  0.78736118857E+01  0.18426704646E+03  0.19060259099E+03  0.47000000000E+01 0. -1.
        -11    1    3    3    0    0  0.51032858290E+02  0.41987852207E+02  0.36372814233E+02  0.75434169800E+02  0.00000000000E+00 0.  1.
         11    1    3    3    0    0 -0.35052587687E+02  0.14088387134E+01  0.12133114911E+02  0.37119822299E+02  0.00000000000E+00 0. -1.
<mgrwt>
<rscale>  0 0.12452993E+03</rscale>
<asrwt>0</asrwt>
<pdfrwt beam="1">  1        2 0.11408657E+00 0.13328545E+03</pdfrwt>
<pdfrwt beam="2">  1       -2 0.59604141E-02 0.13328545E+03</pdfrwt>
<totfact> 0.56490448E+03</totfact>
</mgrwt>
</event>
<event>
 7    1  0.1020736E-005  0.1411478E+03  0.7546771E-02  0.1221970E+00
          2   -1    0    0  501    0  0.00000000000E+00  0.00000000000E+00  0.87587492115E+02  0.87587492115E+02  0.00000000000E+00 0. -1.
         -2   -1    0    0    0  501 -0.00000000000E+00 -0.00000000000E+00 -0.19012950862E+03  0.19012950862E+03  0.00000000000E+00 0.  1.
         23    2    1    2    0    0 -0.64465754111E+02  0.12033335405E+02 -0.67191754466E+02  0.13220980691E+03  0.93080967774E+02 0.  0.
          5    1    1    2  502    0  0.26063169450E+02 -0.17690833838E+02 -0.80029933242E+02  0.86134398578E+02  0.47000000000E+01 0. -1.
         -5    1    1    2    0  502  0.38402584661E+02  0.56574984329E+01  0.44679671199E+02  0.59372795249E+02  0.47000000000E+01 0. -1.
        -11    1    3    3    0    0 -0.35818832757E+02 -0.14580797794E+02  0.14770932486E+02  0.41397691855E+02  0.00000000000E+00 0. -1.
         11    1    3    3    0    0 -0.28646921354E+02  0.26614133198E+02 -0.81962686952E+02  0.90812115058E+02  0.00000000000E+00 0.  1.
<mgrwt>
<rscale>  0 0.13376759E+03</rscale>
<asrwt>0</asrwt>
<pdfrwt beam="1">  1        2 0.13474999E-01 0.14114780E+03</pdfrwt>
<pdfrwt beam="2">  1       -2 0.29250694E-01 0.14114780E+03</pdfrwt>
<totfact> 0.45430117E+03</totfact>
</mgrwt>
</event>
<event>
 7    1  0.1020736E-005  0.1271007E+03  0.7546771E-02  0.1246463E+00
          1   -1    0    0  501    0  0.00000000000E+00  0.00000000000E+00  0.24356258928E+03  0.24356258928E+03  0.00000000000E+00 0. -1.
         -1   -1    0    0    0  501 -0.00000000000E+00 -0.00000000000E+00 -0.69756626272E+02  0.69756626272E+02  0.00000000000E+00 0.  1.
         23    2    1    2    0    0 -0.52089639521E+01  0.22263639898E+02 -0.43549300576E+01  0.94467892336E+02  0.91555525774E+02 0.  0.
          5    1    1    2  502    0  0.53682972364E+02 -0.44482622590E+02  0.12617692126E+03  0.14423338966E+03  0.47000000000E+01 0. -1.
         -5    1    1    2    0  502 -0.48474008412E+02  0.22218982692E+02  0.51983971807E+02  0.74617933557E+02  0.47000000000E+01 0. -1.
        -11    1    3    3    0    0 -0.41072014274E+02 -0.13221198986E+02 -0.80085805411E+01  0.43884482695E+02  0.00000000000E+00 0. -1.
         11    1    3    3    0    0  0.35863050322E+02  0.35484838884E+02  0.36536504835E+01  0.50583409641E+02  0.00000000000E+00 0.  1.
<mgrwt>
<rscale>  0 0.11798224E+03</rscale>
<asrwt>0</asrwt>
<pdfrwt beam="1">  1        1 0.37471167E-01 0.12710074E+03</pdfrwt>
<pdfrwt beam="2">  1       -1 0.10731789E-01 0.12710074E+03</pdfrwt>
<totfact> 0.59200180E+03</totfact>
</mgrwt>
</event>
<event>
 7    1  0.1020736E-005  0.1550683E+03  0.7546771E-02  0.1200902E+00
          2   -1    0    0  501    0  0.00000000000E+00  0.00000000000E+00  0.64879108651E+03  0.64879108651E+03  0.00000000000E+00 0. -1.
         -2   -1    0    0    0  501 -0.00000000000E+00 -0.00000000000E+00 -0.34944849820E+02  0.34944849820E+02  0.00000000000E+00 0.  1.
         23    2    1    2    0    0 -0.35883420623E+02  0.84463192940E+02  0.19315865146E+03  0.23537867470E+03  0.98342285062E+02 0.  0.
          5    1    1    2  502    0  0.51198004721E+02 -0.65874484941E+02  0.11753165288E+03  0.14420978775E+03  0.47000000000E+01 0. -1.
         -5    1    1    2    0  502 -0.15314584098E+02 -0.18588707999E+02  0.30315593235E+03  0.30414747389E+03  0.47000000000E+01 0. -1.
        -11    1    3    3    0    0 -0.48781053111E+02  0.95175563284E+02  0.19040897383E+03  0.21838854435E+03  0.00000000000E+00 0. -1.
         11    1    3    3    0    0  0.12897632487E+02 -0.10712370345E+02  0.27496776334E+01  0.16990130349E+02  0.00000000000E+00 0.  1.
<mgrwt>
<rscale>  0 0.14965139E+03</rscale>
<asrwt>0</asrwt>
<pdfrwt beam="1">  1        2 0.99814005E-01 0.15506834E+03</pdfrwt>
<pdfrwt beam="2">  1       -2 0.53761312E-02 0.15506834E+03</pdfrwt>
<totfact> 0.77996632E+03</totfact>
</mgrwt>
</event>
<event>
 7    1  0.1020736E-005  0.1516115E+03  0.7546771E-02  0.1208137E+00
         -1   -1    0    0    0  501 -0.00000000000E+00  0.00000000000E+00  0.10906113089E+03  0.10906113089E+03  0.00000000000E+00 0.  1.
          1   -1    0    0  501    0  0.00000000000E+00 -0.00000000000E+00 -0.17349737327E+03  0.17349737327E+03  0.00000000000E+00 0. -1.
         23    2    1    2    0    0 -0.84624607270E+02 -0.14166396057E+02 -0.21708315635E+02  0.12504109069E+03  0.88329001245E+02 0.  0.
          5    1    1    2  502    0  0.78149494277E+02  0.35605629329E+02 -0.77578258200E+02  0.11582564673E+03  0.47000000000E+01 0. -1.
         -5    1    1    2    0  502  0.64751129931E+01 -0.21439233272E+02  0.34850331452E+02  0.41691766739E+02  0.47000000000E+01 0. -1.
        -11    1    3    3    0    0 -0.58530292021E+02 -0.44022252297E+02  0.10460796565E+02  0.73980957321E+02  0.00000000000E+00 0.  1.
         11    1    3    3    0    0 -0.26094315249E+02  0.29855856240E+02 -0.32169112200E+02  0.51060133371E+02  0.00000000000E+00 0. -1.
<mgrwt>
<rscale>  0 0.14392989E+03</rscale>
<asrwt>0</asrwt>
<pdfrwt beam="2">  1        1 0.26691903E-01 0.15161154E+03</pdfrwt>
<pdfrwt beam="1">  1       -1 0.16778636E-01 0.15161154E+03</pdfrwt>
<totfact> 0.45507066E+03</totfact>
</mgrwt>
</event>
<event>
 7    1  0.1020736E-005  0.1346129E+03  0.7546771E-02  0.1233217E+00
         -1   -1    0    0    0  501 -0.00000000000E+00  0.00000000000E+00  0.69365573909E+02  0.69365573909E+02  0.00000000000E+00 0.  1.
          1   -1    0    0  501    0  0.00000000000E+00 -0.00000000000E+00 -0.20883378644E+03  0.20883378644E+03  0.00000000000E+00 0. -1.
         23    2    1    2    0    0  0.46110178869E+02 -0.18727192516E+02 -0.42576519574E+02  0.11234207545E+03  0.91274999653E+02 0.  0.
          5    1    1    2  502    0  0.33321803935E+02  0.83954707013E+01  0.61863582002E+01  0.35230492100E+02  0.47000000000E+01 0.  1.
         -5    1    1    2    0  502 -0.79431982804E+02  0.10331721815E+02 -0.10307805116E+03  0.13062679281E+03  0.47000000000E+01 0.  1.
        -11    1    3    3    0    0  0.11971203734E+02 -0.89148221576E+01  0.28899404885E+02  0.32526287455E+02  0.00000000000E+00 0.  1.
         11    1    3    3    0    0  0.34138975135E+02 -0.98123703586E+01 -0.71475924459E+02  0.79815787991E+02  0.00000000000E+00 0. -1.
<mgrwt>
<rscale>  0 0.12619238E+03</rscale>
<asrwt>0</asrwt>
<pdfrwt beam="2">  1        1 0.32128275E-01 0.13461292E+03</pdfrwt>
<pdfrwt beam="1">  1       -1 0.10671627E-01 0.13461292E+03</pdfrwt>
<totfact> 0.72513480E+03</totfact>
</mgrwt>
</event>
<event>
 7    1  0.1020736E-005  0.1347856E+03  0.7546771E-02  0.1232642E+00
         -2   -1    0    0    0  501 -0.00000000000E+00  0.00000000000E+00  0.12167989688E+02  0.12167989688E+02  0.00000000000E+00 0.  1.
          2   -1    0    0  501    0  0.00000000000E+00 -0.00000000000E+00 -0.11793986128E+04  0.11793986128E+04  0.00000000000E+00 0. -1.
         23    2    1    2    0    0  0.20317089518E+02 -0.46145841252E+02 -0.50524173372E+03  0.51599539459E+03  0.91868465538E+02 0.  0.
          5    1    1    2  502    0  0.58738728322E+00 -0.42294277626E+02 -0.25558400447E+03  0.25910311516E+03  0.47000000000E+01 0.  1.
         -5    1    1    2    0  502 -0.20904476802E+02  0.88440118878E+02 -0.40640488493E+03  0.41646809274E+03  0.47000000000E+01 0.  1.
        -11    1    3    3    0    0  0.47618217156E+02 -0.57491515315E+02 -0.33624717580E+03  0.34443422039E+03  0.00000000000E+00 0.  1.
         11    1    3    3    0    0 -0.27301127637E+02  0.11345674063E+02 -0.16899455791E+03  0.17156117421E+03  0.00000000000E+00 0. -1.
<mgrwt>
<rscale>  0 0.12656630E+03</rscale>
<asrwt>0</asrwt>
<pdfrwt beam="2">  1        2 0.18144597E+00 0.13478563E+03</pdfrwt>
<pdfrwt beam="1">  1       -2 0.18719981E-02 0.13478563E+03</pdfrwt>
<totfact> 0.16799468E+04</totfact>
</mgrwt>
</event>
<event>
 7    1  0.1020736E-005  0.1253909E+03  0.7546771E-02  0.1249774E+00
          1   -1    0    0  501    0  0.00000000000E+00  0.00000000000E+00  0.26316066141E+03  0.26316066141E+03  0.00000000000E+00 0. -1.
         -1   -1    0    0    0  501 -0.00000000000E+00 -0.00000000000E+00 -0.45486881406E+02  0.45486881406E+02  0.00000000000E+00 0.  1.
         23    2    1    2    0    0 -0.55672441028E+01 -0.82511267841E+01  0.74766446618E+02  0.11852817170E+03  0.91432109493E+02 0.  0.
          5    1    1    2  502    0  0.19140274476E+02 -0.40957958167E+02  0.12933644842E+03  0.13709088713E+03  0.47000000000E+01 0. -1.
         -5    1    1    2    0  502 -0.13573030373E+02  0.49209084951E+02  0.13570884965E+02  0.53028483987E+02  0.47000000000E+01 0. -1.
        -11    1    3    3    0    0 -0.24450962784E+02 -0.44077633149E+02  0.32408032764E+02  0.59924685337E+02  0.00000000000E+00 0.  1.
         11    1    3    3    0    0  0.18883718681E+02  0.35826506365E+02  0.42358413854E+02  0.58603486362E+02  0.00000000000E+00 0. -1.
<mgrwt>
<rscale>  0 0.11604160E+03</rscale>
<asrwt>0</asrwt>
<pdfrwt beam="1">  1        1 0.40486255E-01 0.12539087E+03</pdfrwt>
<pdfrwt beam="2">  1       -1 0.69979819E-02 0.12539087E+03</pdfrwt>
<totfact> 0.10262041E+04</totfact>
</mgrwt>
</event>
<event>
 7    1  0.1020736E-005  0.1572532E+03  0.7546771E-02  0.1199636E+00
         -2   -1    0    0    0  501 -0.00000000000E+00  0.00000000000E+00  0.41319655941E+02  0.41319655941E+02  0.00000000000E+00 0.  1.
          2   -1    0    0  501    0  0.00000000000E+00 -0.00000000000E+00 -0.61083219247E+03  0.61083219247E+03  0.00000000000E+00 0. -1.
         23    2    1    2    0    0  0.67904142388E+02 -0.67021515832E+02 -0.13134775496E+03  0.18662316951E+03  0.92049543882E+02 0.  0.
          5    1    1    2  502    0 -0.74142545577E+02  0.99189808063E+02 -0.35556498782E+03  0.37654254162E+03  0.47000000000E+01 0.  1.
         -5    1    1    2    0  502  0.62384031886E+01 -0.32168292231E+02 -0.82599793755E+02  0.88986137279E+02  0.47000000000E+01 0.  1.
        -11    1    3    3    0    0  0.52596474343E+02 -0.89659088953E+02 -0.11389259602E+03  0.15419683776E+03  0.00000000000E+00 0.  1.
         11    1    3    3    0    0  0.15307668045E+02  0.22637573121E+02 -0.17455158937E+02  0.32426331759E+02  0.00000000000E+00 0. -1.
<mgrwt>
<rscale>  0 0.15068311E+03</rscale>
<asrwt>0</asrwt>
<pdfrwt beam="2">  1        2 0.93974167E-01 0.15725322E+03</pdfrwt>
<pdfrwt beam="1">  1       -2 0.63568713E-02 0.15725322E+03</pdfrwt>
<totfact> 0.64888812E+03</totfact>
</mgrwt>
</event>
<event>
 7    1  0.1020736E-005  0.1202985E+03  0.7546771E-02  0.1250043E+00
          1   -1    0    0  501    0  0.00000000000E+00  0.00000000000E+00  0.44772503351E+03  0.44772503351E+03  0.00000000000E+00 0. -1.
         -1   -1    0    0    0  501 -0.00000000000E+00 -0.00000000000E+00 -0.27993393456E+02  0.27993393456E+02  0.00000000000E+00 0.  1.
         23    2    1    2    0    0 -0.26491257145E+02  0.37640593774E+02  0.19176754024E+03  0.21796006898E+03  0.92807333623E+02 0.  0.
          5    1    1    2  502    0  0.35886742587E+02 -0.73734036178E+02  0.14435724329E+03  0.16608934365E+03  0.47000000000E+01 0. -1.
         -5    1    1    2    0  502 -0.93954854420E+01  0.36093442405E+02  0.83606856522E+02  0.91669014333E+02  0.47000000000E+01 0.  1.
        -11    1    3    3    0    0 -0.52350024380E+02  0.52134192986E+02  0.14040316529E+03  0.15865543783E+03  0.00000000000E+00 0.  1.
         11    1    3    3    0    0  0.25858767236E+02 -0.14493599212E+02  0.51364374953E+02  0.59304631147E+02  0.00000000000E+00 0. -1.
<mgrwt>
<rscale>  0 0.11588557E+03</rscale>
<asrwt>0</asrwt>
<pdfrwt beam="1">  1        1 0.68880769E-01 0.12029855E+03</pdfrwt>
<pdfrwt beam="2">  1       -1 0.43066762E-02 0.12029855E+03</pdfrwt>
<totfact> 0.10831848E+04</totfact>
</mgrwt>
</event>
<event>
 7    1  0.1020736E-005  0.1311383E+03  0.7546771E-02  0.1239525E+00
          1   -1    0    0  501    0  0.00000000000E+00  0.00000000000E+00  0.61391939437E+03  0.61391939437E+03  0.00000000000E+00 0. -1.
         -1   -1    0    0    0  501 -0.00000000000E+00 -0.00000000000E+00 -0.21552846968E+02  0.21552846968E+02  0.00000000000E+00 0.  1.
         23    2    1    2    0    0 -0.11435243906E+02 -0.37968433282E+02  0.26239032968E+03  0.28039260678E+03  0.90548120349E+02 0.  0.
          5    1    1    2  502    0 -0.59384368959E+01  0.47696544603E+02  0.35609815513E+02  0.60003119591E+02  0.47000000000E+01 0.  1.
         -5    1    1    2    0  502  0.17373680802E+02 -0.97281113207E+01  0.29436640221E+03  0.29507651497E+03  0.47000000000E+01 0.  1.
        -11    1    3    3    0    0 -0.21135651269E+01 -0.63643120442E+02  0.12468593478E+03  0.14000534372E+03  0.00000000000E+00 0.  1.
         11    1    3    3    0    0 -0.93216787795E+01  0.25674687160E+02  0.13770439490E+03  0.14038726306E+03  0.00000000000E+00 0. -1.
<mgrwt>
<rscale>  0 0.12219157E+03</rscale>
<asrwt>0</asrwt>
<pdfrwt beam="1">  1        1 0.94449124E-01 0.13113826E+03</pdfrwt>
<pdfrwt beam="2">  1       -1 0.33158231E-02 0.13113826E+03</pdfrwt>
<totfact> 0.10548096E+04</totfact>
</mgrwt>
</event>
<event>
 7    1  0.1020736E-005  0.2108555E+03  0.7546771E-02  0.1144648E+00
          2   -1    0    0  501    0  0.00000000000E+00  0.00000000000E+00  0.68434607065E+03  0.68434607065E+03  0.00000000000E+00 0. -1.
         -2   -1    0    0    0  501 -0.00000000000E+00 -0.00000000000E+00 -0.77132147560E+02  0.77132147560E+02  0.00000000000E+00 0.  1.
         23    2    1    2    0    0 -0.90082303158E+02  0.14394803282E+03  0.11108035906E+03  0.22239702144E+03  0.91025993439E+02 0.  0.
          5    1    1    2  502    0  0.71142276959E+02 -0.45868908085E+02  0.10287036975E+03  0.13330260040E+03  0.47000000000E+01 0. -1.
         -5    1    1    2    0  502  0.18940026199E+02 -0.98079124735E+02  0.39326319428E+03  0.40577859637E+03  0.47000000000E+01 0. -1.
        -11    1    3    3    0    0 -0.20580583795E+02 -0.33214156457E+01 -0.61599644204E+01  0.21737925220E+02  0.00000000000E+00 0.  1.
         11    1    3    3    0    0 -0.69501719363E+02  0.14726944847E+03  0.11724032348E+03  0.20065909622E+03  0.00000000000E+00 0. -1.
<mgrwt>
<rscale>  0 0.20615409E+03</rscale>
<asrwt>0</asrwt>
<pdfrwt beam="1">  1        2 0.10528401E+00 0.21085546E+03</pdfrwt>
<pdfrwt beam="2">  1       -2 0.11866485E-01 0.21085546E+03</pdfrwt>
<totfact> 0.21581883E+03</totfact>
</mgrwt>
</event>
<event>
 7    1  0.1020736E-005  0.1467281E+03  0.7546771E-02  0.1214406E+00
         -2   -1    0    0    0  501 -0.00000000000E+00  0.00000000000E+00  0.20205469050E+02  0.20205469050E+02  0.00000000000E+00 0.  1.
          2   -1    0    0  501    0  0.00000000000E+00 -0.00000000000E+00 -0.99789428926E+03  0.99789428926E+03  0.00000000000E+00 0. -1.
         23    2    1    2    0    0 -0.20546749144E+02  0.74052389924E+02 -0.26459751769E+03  0.29006931188E+03  0.90677637679E+02 0.  0.
          5    1    1    2  502    0  0.48736905674E+01 -0.58140593628E+02 -0.69848468480E+03  0.70093296854E+03  0.47000000000E+01 0.  1.
         -5    1    1    2    0  502  0.15673058577E+02 -0.15911796296E+02 -0.14606617721E+02  0.27097477886E+02  0.47000000000E+01 0.  1.
        -11    1    3    3    0    0  0.16195007733E+02  0.51786951363E+02 -0.22564725116E+03  0.23207940142E+03  0.00000000000E+00 0. -1.
         11    1    3    3    0    0 -0.36741756878E+02  0.22265438561E+02 -0.38950266525E+02  0.57989910460E+02  0.00000000000E+00 0.  1.
<mgrwt>
<rscale>  0 0.13920228E+03</rscale>
<asrwt>0</asrwt>
<pdfrwt beam="2">  1        2 0.15352218E+00 0.14672807E+03</pdfrwt>
<pdfrwt beam="1">  1       -2 0.31085341E-02 0.14672807E+03</pdfrwt>
<totfact> 0.10240258E+04</totfact>
</mgrwt>
</event>
<event>
 7    1  0.1020736E-005  0.2423449E+03  0.7546771E-02  0.1121211E+00
         -2   -1    0    0    0  501 -0.00000000000E+00  0.00000000000E+00  0.43126419523E+02  0.43126419523E+02  0.00000000000E+00 0.  1.
          2   -1    0    0  501    0  0.00000000000E+00 -0.00000000000E+00 -0.13863511312E+04  0.13863511312E+04  0.00000000000E+00 0. -1.
         23    2    1    2    0    0 -0.64331515041E+02 -0.19741199576E+03 -0.43839681400E+03  0.49275743392E+03  0.86649190782E+02 0.  0.
          5    1    1    2  502    0  0.71752403064E+02  0.13088907559E+03 -0.39134471623E+03  0.41887126230E+03  0.47000000000E+01 0. -1.
         -5    1    1    2    0  502 -0.74208880233E+01  0.66522920168E+02 -0.51348318149E+03  0.51784885455E+03  0.47000000000E+01 0. -1.
        -11    1    3    3    0    0 -0.36564779574E+02 -0.12486170384E+03 -0.17449705905E+03  0.21766178307E+03  0.00000000000E+00 0.  1.
         11    1    3    3    0    0 -0.27766735467E+02 -0.72550291916E+02 -0.26389975495E+03  0.27509565085E+03  0.00000000000E+00 0. -1.
<mgrwt>
<rscale>  0 0.23788315E+03</rscale>
<asrwt>0</asrwt>
<pdfrwt beam="2">  1        2 0.21328475E+00 0.24234490E+03</pdfrwt>
<pdfrwt beam="1">  1       -2 0.66348349E-02 0.24234490E+03</pdfrwt>
<totfact> 0.19925981E+03</totfact>
</mgrwt>
</event>
<event>
 7    1  0.1020736E-005  0.1357803E+03  0.7546771E-02  0.1230733E+00
          3   -1    0    0  501    0  0.00000000000E+00  0.00000000000E+00  0.35256556799E+02  0.35256556799E+02  0.00000000000E+00 0. -1.
         -3   -1    0    0    0  501 -0.00000000000E+00 -0.00000000000E+00 -0.41664029663E+03  0.41664029663E+03  0.00000000000E+00 0.  1.
         23    2    1    2    0    0  0.53164031065E+02  0.20204184193E+00 -0.16719042908E+03  0.19829269077E+03  0.92416971480E+02 0.  0.
          5    1    1    2  502    0 -0.28962974026E+02  0.43119360626E+02 -0.19214979754E+03  0.19910240536E+03  0.47000000000E+01 0.  1.
         -5    1    1    2    0  502 -0.24201057039E+02 -0.43321402467E+02 -0.22043513205E+02  0.54501757293E+02  0.47000000000E+01 0.  1.
        -11    1    3    3    0    0  0.26183281514E+02 -0.36917516525E+02 -0.13460634498E+03  0.14201174377E+03  0.00000000000E+00 0.  1.
         11    1    3    3    0    0  0.26980749551E+02  0.37119558366E+02 -0.32584084098E+02  0.56280947008E+02  0.00000000000E+00 0. -1.
<mgrwt>
<rscale>  0 0.12781595E+03</rscale>
<asrwt>0</asrwt>
<pdfrwt beam="1">  1        3 0.54240859E-02 0.13578033E+03</pdfrwt>
<pdfrwt beam="2">  1       -3 0.64098505E-01 0.13578033E+03</pdfrwt>
<totfact> 0.11063396E+03</totfact>
</mgrwt>
</event>
<event>
 7    1  0.1020736E-005  0.3836337E+03  0.7546771E-02  0.1050495E+00
          1   -1    0    0  501    0  0.00000000000E+00  0.00000000000E+00  0.11039156789E+04  0.11039156789E+04  0.00000000000E+00 0. -1.
         -1   -1    0    0    0  501 -0.00000000000E+00 -0.00000000000E+00 -0.13079882421E+03  0.13079882421E+03  0.00000000000E+00 0.  1.
         23    2    1    2    0    0  0.35237534552E+03 -0.85930608369E+02  0.52932007273E+03  0.64808823695E+03  0.91028401581E+02 0.  0.
          5    1    1    2  502    0 -0.39963989701E+02  0.55081386988E+02  0.99879116400E+02  0.12095043430E+03  0.47000000000E+01 0.  1.
         -5    1    1    2    0  502 -0.31241135581E+03  0.30849221381E+02  0.34391766560E+03  0.46567583190E+03  0.47000000000E+01 0.  1.
        -11    1    3    3    0    0  0.11488664960E+03 -0.10227292484E+01  0.11183508611E+03  0.16033425933E+03  0.00000000000E+00 0.  1.
         11    1    3    3    0    0  0.23748869592E+03 -0.84907879121E+02  0.41748498663E+03  0.48775397762E+03  0.00000000000E+00 0. -1.
<mgrwt>
<rscale>  0 0.38118950E+03</rscale>
<asrwt>0</asrwt>
<pdfrwt beam="1">  1        1 0.16983318E+00 0.38363367E+03</pdfrwt>
<pdfrwt beam="2">  1       -1 0.20122897E-01 0.38363367E+03</pdfrwt>
<totfact> 0.26572311E+02</totfact>
</mgrwt>
</event>
<event>
 7    1  0.1020736E-005  0.1575883E+03  0.7546771E-02  0.1197626E+00
          2   -1    0    0  501    0  0.00000000000E+00  0.00000000000E+00  0.16865179559E+04  0.16865179559E+04  0.00000000000E+00 0. -1.
         -2   -1    0    0    0  501 -0.00000000000E+00 -0.00000000000E+00 -0.17137937846E+02  0.17137937846E+02  0.00000000000E+00 0.  1.
         23    2    1    2    0    0 -0.30919462940E+01 -0.95918920384E+02  0.37020994456E+03  0.39496304867E+03  0.98642827120E+02 0.  0.
          5    1    1    2  502    0  0.62810623736E+02  0.41324433272E+02  0.70697060652E+03  0.71097286286E+03  0.47000000000E+01 0. -1.
         -5    1    1    2    0  502 -0.59718677442E+02  0.54594487113E+02  0.59219946697E+03  0.59771998222E+03  0.47000000000E+01 0. -1.
        -11    1    3    3    0    0  0.44856127084E+02 -0.68045550792E+02  0.23896792973E+03  0.25248354513E+03  0.00000000000E+00 0. -1.
         11    1    3    3    0    0 -0.47948073378E+02 -0.27873369592E+02  0.13124201483E+03  0.14247950354E+03  0.00000000000E+00 0.  1.
<mgrwt>
<rscale>  0 0.15234097E+03</rscale>
<asrwt>0</asrwt>
<pdfrwt beam="1">  1        2 0.25946417E+00 0.15758833E+03</pdfrwt>
<pdfrwt beam="2">  1       -2 0.26366072E-02 0.15758833E+03</pdfrwt>
<totfact> 0.55235155E+03</totfact>
</mgrwt>
</event>
<event>
 7    1  0.1020736E-005  0.1292114E+03  0.7546771E-02  0.1242097E+00
          1   -1    0    0  501    0  0.00000000000E+00  0.00000000000E+00  0.35854617435E+03  0.35854617435E+03  0.00000000000E+00 0. -1.
         -1   -1    0    0    0  501 -0.00000000000E+00 -0.00000000000E+00 -0.36163277168E+02  0.36163277168E+02  0.00000000000E+00 0.  1.
         23    2    1    2    0    0 -0.17953367021E+02  0.27361978387E+02  0.15135934976E+03  0.18036241592E+03  0.92465923817E+02 0.  0.
          5    1    1    2  502    0 -0.38385248714E+02 -0.54200450787E+02  0.91069280929E+02  0.11281320895E+03  0.47000000000E+01 0.  1.
         -5    1    1    2    0  502  0.56338615735E+02  0.26838472401E+02  0.79954266485E+02  0.10153382664E+03  0.47000000000E+01 0.  1.
        -11    1    3    3    0    0 -0.32267143417E+02 -0.26571035630E+02  0.56048137166E+02  0.69918396425E+02  0.00000000000E+00 0.  1.
         11    1    3    3    0    0  0.14313776396E+02  0.53933014017E+02  0.95311212598E+02  0.11044401950E+03  0.00000000000E+00 0. -1.
<mgrwt>
<rscale>  0 0.12060852E+03</rscale>
<asrwt>0</asrwt>
<pdfrwt beam="1">  1        1 0.55160947E-01 0.12921145E+03</pdfrwt>
<pdfrwt beam="2">  1       -1 0.55635814E-02 0.12921145E+03</pdfrwt>
<totfact> 0.98724276E+03</totfact>
</mgrwt>
</event>
<event>
 7    1  0.1020736E-005  0.1441679E+03  0.7546771E-02  0.1217754E+00
          2   -1    0    0  501    0  0.00000000000E+00  0.00000000000E+00  0.57403557421E+03  0.57403557421E+03  0.00000000000E+00 0. -1.
         -2   -1    0    0    0  501 -0.00000000000E+00 -0.00000000000E+00 -0.31726526264E+02  0.31726526264E+02  0.00000000000E+00 0.  1.
         23    2    1    2    0    0 -0.64335508897E+02 -0.31956514372E+02  0.16740859324E+03  0.20409713529E+03  0.92031119896E+02 0.  0.
          5    1    1    2  502    0  0.90621064536E+02  0.52875135620E+02  0.22995001520E+03  0.25279845093E+03  0.47000000000E+01 0.  1.
         -5    1    1    2    0  502 -0.26285555639E+02 -0.20918621248E+02  0.14495043951E+03  0.14886651425E+03  0.47000000000E+01 0.  1.
        -11    1    3    3    0    0 -0.39399998632E+02 -0.62939392447E+02  0.86920101872E+02  0.11431898846E+03  0.00000000000E+00 0.  1.
         11    1    3    3    0    0 -0.24935510265E+02  0.30982878075E+02  0.80488491365E+02  0.89778146830E+02  0.00000000000E+00 0. -1.
<mgrwt>
<rscale>  0 0.13676139E+03</rscale>
<asrwt>0</asrwt>
<pdfrwt beam="1">  1        2 0.88313157E-01 0.14416793E+03</pdfrwt>
<pdfrwt beam="2">  1       -2 0.48810045E-02 0.14416793E+03</pdfrwt>
<totfact> 0.10336649E+04</totfact>
</mgrwt>
</event>
<event>
 7    1  0.1020736E-005  0.2016196E+03  0.7546771E-02  0.1152685E+00
         -3   -1    0    0    0  501 -0.00000000000E+00  0.00000000000E+00  0.17753543056E+03  0.17753543056E+03  0.00000000000E+00 0. -1.
          3   -1    0    0  501    0  0.00000000000E+00 -0.00000000000E+00 -0.33221814884E+03  0.33221814884E+03  0.00000000000E+00 0.  1.
         23    2    1    2    0    0  0.13376529954E+03 -0.84451863055E+02  0.81266760416E+02  0.19939473350E+03  0.90159308252E+02 0.  0.
          5    1    1    2  502    0 -0.48090204038E+02 -0.28929508367E+02 -0.43926740763E+02  0.71422914620E+02  0.47000000000E+01 0.  1.
         -5    1    1    2    0  502 -0.85675095499E+02  0.11338137142E+03 -0.19202273793E+03  0.23893593128E+03  0.47000000000E+01 0.  1.
        -11    1    3    3    0    0  0.19475116018E+01 -0.14009793696E+02 -0.15780738381E+02  0.21191951885E+02  0.00000000000E+00 0.  1.
         11    1    3    3    0    0  0.13181778793E+03 -0.70442069359E+02  0.97047498797E+02  0.17820278161E+03  0.00000000000E+00 0. -1.
<mgrwt>
<rscale>  0 0.19654703E+03</rscale>
<asrwt>0</asrwt>
<pdfrwt beam="2">  1        3 0.51110484E-01 0.20161958E+03</pdfrwt>
<pdfrwt beam="1">  1       -3 0.27313144E-01 0.20161958E+03</pdfrwt>
<totfact> 0.11940489E+02</totfact>
</mgrwt>
</event>
<event>
 7    1  0.1020736E-005  0.1952607E+03  0.7546771E-02  0.1156112E+00
         -1   -1    0    0    0  501 -0.00000000000E+00  0.00000000000E+00  0.11573273986E+03  0.11573273986E+03  0.00000000000E+00 0.  1.
          1   -1    0    0  501    0  0.00000000000E+00 -0.00000000000E+00 -0.31736744750E+03  0.31736744750E+03  0.00000000000E+00 0. -1.
         23    2    1    2    0    0  0.20280445359E+01  0.16071391052E+03 -0.12558551334E+03  0.22355252519E+03  0.91492821349E+02 0.  0.
          5    1    1    2  502    0 -0.28662678604E+02 -0.16284769641E+03 -0.76867572355E+02  0.18240513987E+03  0.47000000000E+01 0. -1.
         -5    1    1    2    0  502  0.26634634068E+02  0.21337858892E+01  0.81837804445E+00  0.27142522300E+02  0.47000000000E+01 0.  1.
        -11    1    3    3    0    0 -0.29183766244E+02  0.11634008157E+03 -0.48701279938E+02  0.12945470814E+03  0.00000000000E+00 0.  1.
         11    1    3    3    0    0  0.31211810780E+02  0.44373828950E+02 -0.76884233398E+02  0.94097817047E+02  0.00000000000E+00 0. -1.
<mgrwt>
<rscale>  0 0.19262860E+03</rscale>
<asrwt>0</asrwt>
<pdfrwt beam="2">  1        1 0.48825760E-01 0.19526070E+03</pdfrwt>
<pdfrwt beam="1">  1       -1 0.17805037E-01 0.19526070E+03</pdfrwt>
<totfact> 0.19678854E+03</totfact>
</mgrwt>
</event>
<event>
 7    1  0.1020736E-005  0.1781175E+03  0.7546771E-02  0.1179045E+00
         -1   -1    0    0    0  501 -0.00000000000E+00  0.00000000000E+00  0.14199855910E+03  0.14199855910E+03  0.00000000000E+00 0.  1.
          1   -1    0    0  501    0  0.00000000000E+00 -0.00000000000E+00 -0.18869776664E+03  0.18869776664E+03  0.00000000000E+00 0. -1.
         23    2    1    2    0    0  0.81714792880E+02 -0.76145361889E+02 -0.50689138058E+02  0.15253412860E+03  0.90674407403E+02 0.  0.
          5    1    1    2  502    0  0.57814004275E+01  0.96359994989E+01 -0.52922855216E+02  0.54306497599E+02  0.47000000000E+01 0. -1.
         -5    1    1    2    0  502 -0.87496193307E+02  0.66509362390E+02  0.56912785729E+02  0.12385569954E+03  0.47000000000E+01 0.  1.
        -11    1    3    3    0    0  0.72132502518E+02 -0.92644073272E+02 -0.24188245810E+02  0.11987949561E+03  0.00000000000E+00 0. -1.
         11    1    3    3    0    0  0.95822903616E+01  0.16498711382E+02 -0.26500892248E+02  0.32654632992E+02  0.00000000000E+00 0.  1.
<mgrwt>
<rscale>  0 0.16885701E+03</rscale>
<asrwt>0</asrwt>
<pdfrwt beam="2">  1        1 0.29030425E-01 0.17811751E+03</pdfrwt>
<pdfrwt beam="1">  1       -1 0.21845932E-01 0.17811751E+03</pdfrwt>
<totfact> 0.27005362E+03</totfact>
</mgrwt>
</event>
<event>
 7    1  0.1020736E-005  0.1479664E+03  0.7546771E-02  0.1212809E+00
          1   -1    0    0  501    0  0.00000000000E+00  0.00000000000E+00  0.16479276139E+04  0.16479276139E+04  0.00000000000E+00 0. -1.
         -1   -1    0    0    0  501 -0.00000000000E+00 -0.00000000000E+00 -0.17362539481E+02  0.17362539481E+02  0.00000000000E+00 0.  1.
         23    2    1    2    0    0 -0.29844998688E+01  0.79123926940E+02  0.25490933355E+03  0.28169961582E+03  0.90035560599E+02 0.  0.
          5    1    1    2  502    0 -0.17455199506E+02  0.30719152294E+02  0.28636350274E+03  0.28857320737E+03  0.47000000000E+01 0. -1.
         -5    1    1    2    0  502  0.20439699375E+02 -0.10984307923E+03  0.10892922381E+04  0.10950173301E+04  0.47000000000E+01 0. -1.
        -11    1    3    3    0    0  0.42386949859E+02  0.48362924361E+02  0.12154598815E+03  0.13751019310E+03  0.00000000000E+00 0. -1.
         11    1    3    3    0    0 -0.45371449728E+02  0.30761002579E+02  0.13336334540E+03  0.14418942272E+03  0.00000000000E+00 0.  1.
<mgrwt>
<rscale>  0 0.14038695E+03</rscale>
<asrwt>0</asrwt>
<pdfrwt beam="1">  1        1 0.25352720E+00 0.14796641E+03</pdfrwt>
<pdfrwt beam="2">  1       -1 0.26711612E-02 0.14796641E+03</pdfrwt>
<totfact> 0.25529096E+03</totfact>
</mgrwt>
</event>
<event>
 7    1  0.1020736E-005  0.1587066E+03  0.7546771E-02  0.1201086E+00
          1   -1    0    0  501    0  0.00000000000E+00  0.00000000000E+00  0.17721126142E+04  0.17721126142E+04  0.00000000000E+00 0. -1.
         -1   -1    0    0    0  501 -0.00000000000E+00 -0.00000000000E+00 -0.32973807943E+02  0.32973807943E+02  0.00000000000E+00 0.  1.
         23    2    1    2    0    0 -0.31517915101E+02  0.78389240309E+02  0.10490278203E+03  0.16316219038E+03  0.92081782800E+02 0.  0.
          5    1    1    2  502    0  0.55941431971E+02 -0.10381511001E+03  0.14046417439E+04  0.14095912669E+04  0.47000000000E+01 0. -1.
         -5    1    1    2    0  502 -0.24423516870E+02  0.25425869699E+02  0.22959428036E+03  0.23233296495E+03  0.47000000000E+01 0.  1.
        -11    1    3    3    0    0 -0.18177310028E+02  0.27541519260E+02  0.10555139644E+03  0.11058954369E+03  0.00000000000E+00 0. -1.
         11    1    3    3    0    0 -0.13340605072E+02  0.50847721048E+02 -0.64861440870E+00  0.52572646691E+02  0.00000000000E+00 0.  1.
<mgrwt>
<rscale>  0 0.14950204E+03</rscale>
<asrwt>0</asrwt>
<pdfrwt beam="1">  1        1 0.27263264E+00 0.15870665E+03</pdfrwt>
<pdfrwt beam="2">  1       -1 0.50728949E-02 0.15870665E+03</pdfrwt>
<totfact> 0.82770565E+02</totfact>
</mgrwt>
</event>
<event>
 7    1  0.1020736E-005  0.1590252E+03  0.7546771E-02  0.1198499E+00
         -2   -1    0    0    0  501 -0.00000000000E+00  0.00000000000E+00  0.19277308719E+02  0.19277308719E+02  0.00000000000E+00 0.  1.
          2   -1    0    0  501    0  0.00000000000E+00 -0.00000000000E+00 -0.12707087536E+04  0.12707087536E+04  0.00000000000E+00 0. -1.
         23    2    1    2    0    0  0.53792648199E-01 -0.98270779754E+02 -0.33481653291E+03  0.35967863442E+03  0.87232220579E+02 0.  0.
          5    1    1    2  502    0 -0.54730490010E+02  0.87109078910E+02 -0.58367635163E+03  0.59269181841E+03  0.47000000000E+01 0. -1.
         -5    1    1    2    0  502  0.54676697362E+02  0.11161700843E+02 -0.33293856039E+03  0.33761560953E+03  0.47000000000E+01 0. -1.
        -11    1    3    3    0    0  0.14702143398E+02  0.19486575755E+00 -0.55891299582E+01  0.15729887694E+02  0.00000000000E+00 0.  1.
         11    1    3    3    0    0 -0.14648350750E+02 -0.98465645511E+02 -0.32922740295E+03  0.34394874673E+03  0.00000000000E+00 0. -1.
<mgrwt>
<rscale>  0 0.15161785E+03</rscale>
<asrwt>0</asrwt>
<pdfrwt beam="2">  1        2 0.19549371E+00 0.15902520E+03</pdfrwt>
<pdfrwt beam="1">  1       -2 0.29657390E-02 0.15902520E+03</pdfrwt>
<totfact> 0.77011466E+03</totfact>
</mgrwt>
</event>
<event>
 7    1  0.1020736E-005  0.2778377E+03  0.7546771E-02  0.1096876E+00
         -2   -1    0    0    0  501 -0.00000000000E+00  0.00000000000E+00  0.26692450091E+02  0.26692450091E+02  0.00000000000E+00 0.  1.
          2   -1    0    0  501    0  0.00000000000E+00 -0.00000000000E+00 -0.72299284995E+03  0.72299284995E+03  0.00000000000E+00 0. -1.
         23    2    1    2    0    0 -0.49262299179E+02 -0.43504586297E+02 -0.12890614599E+03  0.16499945855E+03  0.79300716897E+02 0.  0.
          5    1    1    2  502    0  0.24030000164E+02  0.20116335351E+02 -0.22928983539E+02  0.39114398142E+02  0.47000000000E+01 0. -1.
         -5    1    1    2    0  502  0.25232299015E+02  0.23388250947E+02 -0.54446527033E+03  0.54557144335E+03  0.47000000000E+01 0. -1.
        -11    1    3    3    0    0 -0.26224574741E+02 -0.65737614190E+02 -0.93462913042E+02  0.11723684725E+03  0.00000000000E+00 0. -1.
         11    1    3    3    0    0 -0.23037724439E+02  0.22233027893E+02 -0.35443232945E+02  0.47762611300E+02  0.00000000000E+00 0.  1.
<mgrwt>
<rscale>  0 0.27783773E+03</rscale>
<asrwt>0</asrwt>
<pdfrwt beam="2">  1        2 0.11122966E+00 0.27783773E+03</pdfrwt>
<pdfrwt beam="1">  1       -2 0.41065310E-02 0.27783773E+03</pdfrwt>
<totfact> 0.10609946E+04</totfact>
</mgrwt>
</event>
<event>
 7    1  0.1020736E-005  0.1480083E+03  0.7546771E-02  0.1212487E+00
          2   -1    0    0  501    0  0.00000000000E+00  0.00000000000E+00  0.22220885544E+03  0.22220885544E+03  0.00000000000E+00 0. -1.
         -2   -1    0    0    0  501 -0.00000000000E+00 -0.00000000000E+00 -0.82376638427E+02  0.82376638427E+02  0.00000000000E+00 0.  1.
         23    2    1    2    0    0 -0.69916926875E+02  0.37325039559E+02  0.44685808532E+02  0.12863291734E+03  0.90928932121E+02 0.  0.
          5    1    1    2  502    0 -0.58279226032E+01 -0.20942608493E+02 -0.24648301946E+02  0.33199191574E+02  0.47000000000E+01 0. -1.
         -5    1    1    2    0  502  0.75744849479E+02 -0.16382431065E+02  0.11979471042E+03  0.14275338495E+03  0.47000000000E+01 0. -1.
        -11    1    3    3    0    0 -0.41507391404E+02  0.26730352998E+02  0.72349319143E+02  0.87588808035E+02  0.00000000000E+00 0. -1.
         11    1    3    3    0    0 -0.28409535471E+02  0.10594686561E+02 -0.27663510611E+02  0.41044109302E+02  0.00000000000E+00 0.  1.
<mgrwt>
<rscale>  0 0.14062776E+03</rscale>
<asrwt>0</asrwt>
<pdfrwt beam="1">  1        2 0.34185978E-01 0.14800834E+03</pdfrwt>
<pdfrwt beam="2">  1       -2 0.12673329E-01 0.14800834E+03</pdfrwt>
<totfact> 0.65692437E+03</totfact>
</mgrwt>
</event>
<event>
 7    1  0.1020736E-005  0.1406022E+03  0.7546771E-02  0.1223569E+00
          1   -1    0    0  501    0  0.00000000000E+00  0.00000000000E+00  0.95880466259E+02  0.95880466259E+02  0.00000000000E+00 0. -1.
         -1   -1    0    0    0  501 -0.00000000000E+00 -0.00000000000E+00 -0.17069051286E+03  0.17069051286E+03  0.00000000000E+00 0.  1.
         23    2    1    2    0    0 -0.63087039406E+02  0.12796098747E+02 -0.56082892843E+02  0.12472706757E+03  0.90927640636E+02 0.  0.
          5    1    1    2  502    0  0.16067734834E+01 -0.61075086423E+02 -0.16674716219E+02  0.63504992430E+02  0.47000000000E+01 0. -1.
         -5    1    1    2    0  502  0.61480265922E+02  0.48278987675E+02 -0.20524375427E+01  0.78338919119E+02  0.47000000000E+01 0. -1.
        -11    1    3    3    0    0 -0.23095370195E+02  0.44870743518E+02 -0.24366789669E+01  0.50524421349E+02  0.00000000000E+00 0.  1.
         11    1    3    3    0    0 -0.39991669211E+02 -0.32074644770E+02 -0.53646213877E+02  0.74202646224E+02  0.00000000000E+00 0. -1.
<mgrwt>
<rscale>  0 0.13265463E+03</rscale>
<asrwt>0</asrwt>
<pdfrwt beam="1">  1        1 0.14750841E-01 0.14060224E+03</pdfrwt>
<pdfrwt beam="2">  1       -1 0.26260079E-01 0.14060224E+03</pdfrwt>
<totfact> 0.46770518E+03</totfact>
</mgrwt>
</event>
<event>
 7    1  0.1020736E-005  0.1687648E+03  0.7546771E-02  0.1185799E+00
         -2   -1    0    0    0  501 -0.00000000000E+00  0.00000000000E+00  0.25982114103E+02  0.25982114103E+02  0.00000000000E+00 0. -1.
          2   -1    0    0  501    0  0.00000000000E+00 -0.00000000000E+00 -0.95281733124E+03  0.95281733124E+03  0.00000000000E+00 0.  1.
         23    2    1    2    0    0  0.64482971841E+02 -0.93280507205E+02 -0.40113165015E+03  0.42667101685E+03  0.91006863364E+02 0.  0.
          5    1    1    2  502    0 -0.98138678871E+02  0.45862582326E+02 -0.38040151921E+03  0.39555275573E+03  0.47000000000E+01 0. -1.
         -5    1    1    2    0  502  0.33655707030E+02  0.47417924879E+02 -0.14530204777E+03  0.15657567276E+03  0.47000000000E+01 0. -1.
        -11    1    3    3    0    0  0.81314456868E+02 -0.51587446240E+02 -0.31665723234E+03  0.33097599354E+03  0.00000000000E+00 0.  1.
         11    1    3    3    0    0 -0.16831485027E+02 -0.41693060965E+02 -0.84474417812E+02  0.95695023306E+02  0.00000000000E+00 0. -1.
<mgrwt>
<rscale>  0 0.16259363E+03</rscale>
<asrwt>0</asrwt>
<pdfrwt beam="2">  1        2 0.14658728E+00 0.16876481E+03</pdfrwt>
<pdfrwt beam="1">  1       -2 0.39972484E-02 0.16876481E+03</pdfrwt>
<totfact> 0.75627169E+03</totfact>
</mgrwt>
</event>
<event>
 7    1  0.1020736E-005  0.1443853E+03  0.7546771E-02  0.1221240E+00
         -2   -1    0    0    0  501 -0.00000000000E+00  0.00000000000E+00  0.98569722429E+01  0.98569722429E+01  0.00000000000E+00 0.  1.
          2   -1    0    0  501    0  0.00000000000E+00 -0.00000000000E+00 -0.16634091909E+04  0.16634091909E+04  0.00000000000E+00 0. -1.
         23    2    1    2    0    0 -0.67790097176E+02  0.25053919274E+02 -0.57081595411E+03  0.58094526629E+03  0.80270497779E+02 0.  0.
          5    1    1    2  502    0 -0.96535918195E+01  0.12817618228E+02 -0.69018973182E+03  0.69039223568E+03  0.47000000000E+01 0. -1.
         -5    1    1    2    0  502  0.77443688996E+02 -0.37871537502E+02 -0.39254653272E+03  0.40192866117E+03  0.47000000000E+01 0. -1.
        -11    1    3    3    0    0 -0.79585622173E+02 -0.58566421954E+00 -0.40528815171E+03  0.41302869171E+03  0.00000000000E+00 0. -1.
         11    1    3    3    0    0  0.11795524997E+02  0.25639583494E+02 -0.16552780240E+03  0.16791657458E+03  0.00000000000E+00 0.  1.
<mgrwt>
<rscale>  0 0.13427962E+03</rscale>
<asrwt>0</asrwt>
<pdfrwt beam="2">  1        2 0.25590899E+00 0.14438533E+03</pdfrwt>
<pdfrwt beam="1">  1       -2 0.15164580E-02 0.14438533E+03</pdfrwt>
<totfact> 0.12667129E+04</totfact>
</mgrwt>
</event>
<event>
 7    1  0.1020736E-005  0.1515856E+03  0.7546771E-02  0.1205515E+00
          1   -1    0    0  501    0  0.00000000000E+00  0.00000000000E+00  0.28742276059E+02  0.28742276059E+02  0.00000000000E+00 0. -1.
         -1   -1    0    0    0  501 -0.00000000000E+00 -0.00000000000E+00 -0.75141444455E+03  0.75141444455E+03  0.00000000000E+00 0.  1.
         23    2    1    2    0    0  0.84150897785E+02  0.16423560213E+02 -0.44629738889E+03  0.46494060380E+03  0.98169744871E+02 0.  0.
          5    1    1    2  502    0 -0.83114972253E+02 -0.37324450459E+02 -0.91886346599E+02  0.12948514936E+03  0.47000000000E+01 0. -1.
         -5    1    1    2    0  502 -0.10359255324E+01  0.20900890246E+02 -0.18448843301E+03  0.18573096744E+03  0.47000000000E+01 0. -1.
        -11    1    3    3    0    0  0.17874744077E+02 -0.25535133409E+02 -0.37865224472E+02  0.49044110129E+02  0.00000000000E+00 0. -1.
         11    1    3    3    0    0  0.66276153708E+02  0.41958693622E+02 -0.40843216442E+03  0.41589649367E+03  0.00000000000E+00 0.  1.
<mgrwt>
<rscale>  0 0.14596961E+03</rscale>
<asrwt>0</asrwt>
<pdfrwt beam="1">  1        1 0.44218892E-02 0.15158556E+03</pdfrwt>
<pdfrwt beam="2">  1       -1 0.11560221E+00 0.15158556E+03</pdfrwt>
<totfact> 0.14008079E+03</totfact>
</mgrwt>
</event>
<event>
 7    1  0.1020736E-005  0.3709596E+03  0.7546771E-02  0.1098754E+00
         -2   -1    0    0    0  501 -0.00000000000E+00  0.00000000000E+00  0.12875215859E+03  0.12875215859E+03  0.00000000000E+00 0.  1.
          2   -1    0    0  501    0  0.00000000000E+00 -0.00000000000E+00 -0.45133023798E+03  0.45133023798E+03  0.00000000000E+00 0. -1.
         23    2    1    2    0    0 -0.22838246382E+02  0.60649177951E+02 -0.75070691787E+02  0.13413295464E+03  0.90311308654E+02 0.  0.
          5    1    1    2  502    0  0.73011626007E+02 -0.13119306500E+03 -0.30633340836E+03  0.34118113212E+03  0.47000000000E+01 0. -1.
         -5    1    1    2    0  502 -0.50173379626E+02  0.70543887044E+02  0.58826020753E+02  0.10476830981E+03  0.47000000000E+01 0.  1.
        -11    1    3    3    0    0 -0.50012428813E+02  0.94962304662E+01 -0.21586461933E+02  0.55293731722E+02  0.00000000000E+00 0.  1.
         11    1    3    3    0    0  0.27174182432E+02  0.51152947485E+02 -0.53484229853E+02  0.78839222917E+02  0.00000000000E+00 0. -1.
<mgrwt>
<rscale>  0 0.27446050E+03</rscale>
<asrwt>0</asrwt>
<pdfrwt beam="2">  1        2 0.69435421E-01 0.37095956E+03</pdfrwt>
<pdfrwt beam="1">  1       -2 0.19808025E-01 0.37095956E+03</pdfrwt>
<totfact> 0.14976749E+03</totfact>
</mgrwt>
</event>
<event>
 7    1  0.1020736E-005  0.1532819E+03  0.7546771E-02  0.1205115E+00
          1   -1    0    0  501    0  0.00000000000E+00  0.00000000000E+00  0.57340120876E+03  0.57340120876E+03  0.00000000000E+00 0. -1.
         -1   -1    0    0    0  501 -0.00000000000E+00 -0.00000000000E+00 -0.52562278239E+02  0.52562278239E+02  0.00000000000E+00 0.  1.
         23    2    1    2    0    0 -0.67019304658E+02  0.58856668924E+02  0.60562494263E+02  0.14083489512E+03  0.90614332749E+02 0.  0.
          5    1    1    2  502    0  0.17719638546E+01 -0.79499730765E+02  0.30765554099E+03  0.31780083220E+03  0.47000000000E+01 0. -1.
         -5    1    1    2    0  502  0.65247340803E+02  0.20643061841E+02  0.15262089527E+03  0.16732775967E+03  0.47000000000E+01 0. -1.
        -11    1    3    3    0    0 -0.82500125106E+02  0.31142118505E+02  0.63920749957E+02  0.10891264602E+03  0.00000000000E+00 0.  1.
         11    1    3    3    0    0  0.15480820448E+02  0.27714550419E+02 -0.33582556941E+01  0.31922249106E+02  0.00000000000E+00 0. -1.
<mgrwt>
<rscale>  0 0.14628364E+03</rscale>
<asrwt>0</asrwt>
<pdfrwt beam="1">  1        1 0.88215566E-01 0.15328194E+03</pdfrwt>
<pdfrwt beam="2">  1       -1 0.80865048E-02 0.15328194E+03</pdfrwt>
<totfact> 0.31077641E+03</totfact>
</mgrwt>
</event>
<event>
 7    1  0.1020736E-005  0.1325267E+03  0.7546771E-02  0.1236558E+00
         -1   -1    0    0    0  501 -0.00000000000E+00  0.00000000000E+00  0.31742127724E+02  0.31742127724E+02  0.00000000000E+00 0.  1.
          1   -1    0    0  501    0  0.00000000000E+00 -0.00000000000E+00 -0.62666567215E+03  0.62666567215E+03  0.00000000000E+00 0. -1.
         23    2    1    2    0    0  0.11425831065E+02  0.42518930759E+02 -0.88237526767E+02  0.13467691518E+03  0.91725684862E+02 0.  0.
          5    1    1    2  502    0 -0.33423709256E+02 -0.79936677438E+02 -0.37833403820E+03  0.38815686417E+03  0.47000000000E+01 0.  1.
         -5    1    1    2    0  502  0.21997878191E+02  0.37417746679E+02 -0.12835197946E+03  0.13557402053E+03  0.47000000000E+01 0.  1.
        -11    1    3    3    0    0  0.19465741054E+02  0.61656776238E+02 -0.27090614218E+02  0.70102599877E+02  0.00000000000E+00 0. -1.
         11    1    3    3    0    0 -0.80399099897E+01 -0.19137845479E+02 -0.61146912550E+02  0.64574315301E+02  0.00000000000E+00 0.  1.
<mgrwt>
<rscale>  0 0.12405251E+03</rscale>
<asrwt>0</asrwt>
<pdfrwt beam="2">  1        1 0.96410103E-01 0.13252667E+03</pdfrwt>
<pdfrwt beam="1">  1       -1 0.48834043E-02 0.13252667E+03</pdfrwt>
<totfact> 0.58138058E+03</totfact>
</mgrwt>
</event>
<event>
 7    1  0.1020736E-005  0.1301395E+03  0.7546771E-02  0.1241160E+00
         -2   -1    0    0    0  501 -0.00000000000E+00  0.00000000000E+00  0.46909196445E+03  0.46909196445E+03  0.00000000000E+00 0.  1.
          2   -1    0    0  501    0  0.00000000000E+00 -0.00000000000E+00 -0.29673265255E+02  0.29673265255E+02  0.00000000000E+00 0. -1.
         23    2    1    2    0    0  0.36057487703E+02  0.30743519954E+01  0.25435650856E+03  0.27252576980E+03  0.90903617635E+02 0.  0.
          5    1    1    2  502    0 -0.39189536857E+02 -0.49556915445E+02  0.16219560671E+03  0.17412987252E+03  0.47000000000E+01 0. -1.
         -5    1    1    2    0  502  0.31320491532E+01  0.46482563450E+02  0.22866583922E+02  0.52109587381E+02  0.47000000000E+01 0. -1.
        -11    1    3    3    0    0 -0.25913952969E+02  0.43544832574E+01  0.30560001079E+02  0.40303947064E+02  0.00000000000E+00 0. -1.
         11    1    3    3    0    0  0.61971440673E+02 -0.12801312621E+01  0.22379650748E+03  0.23222182273E+03  0.00000000000E+00 0.  1.
<mgrwt>
<rscale>  0 0.12118200E+03</rscale>
<asrwt>0</asrwt>
<pdfrwt beam="2">  1        2 0.45651181E-02 0.13013946E+03</pdfrwt>
<pdfrwt beam="1">  1       -2 0.72167989E-01 0.13013946E+03</pdfrwt>
<totfact> 0.30181553E+03</totfact>
</mgrwt>
</event>
<event>
 7    1  0.1020736E-005  0.1761790E+03  0.7546771E-02  0.1177904E+00
          1   -1    0    0  501    0  0.00000000000E+00  0.00000000000E+00  0.10291824175E+04  0.10291824175E+04  0.00000000000E+00 0. -1.
         -1   -1    0    0    0  501 -0.00000000000E+00 -0.00000000000E+00 -0.29410226300E+02  0.29410226300E+02  0.00000000000E+00 0.  1.
         23    2    1    2    0    0 -0.10705581288E+03  0.62876591965E+02  0.29464378752E+03  0.33178791375E+03  0.88621923351E+02 0.  0.
          5    1    1    2  502    0  0.88953174447E+02 -0.81941630521E+02  0.67806456340E+03  0.68878207017E+03  0.47000000000E+01 0.  1.
         -5    1    1    2    0  502  0.18102638432E+02  0.19065038556E+02  0.27063840286E+02  0.38022659880E+02  0.47000000000E+01 0.  1.
        -11    1    3    3    0    0 -0.23177145633E+02 -0.29104632509E+01  0.60417375307E+01  0.24127856689E+02  0.00000000000E+00 0.  1.
         11    1    3    3    0    0 -0.83878667245E+02  0.65787055216E+02  0.28860204999E+03  0.30766005706E+03  0.00000000000E+00 0. -1.
<mgrwt>
<rscale>  0 0.16994608E+03</rscale>
<asrwt>0</asrwt>
<pdfrwt beam="1">  1        1 0.15833573E+00 0.17617903E+03</pdfrwt>
<pdfrwt beam="2">  1       -1 0.45246510E-02 0.17617903E+03</pdfrwt>
<totfact> 0.30821099E+03</totfact>
</mgrwt>
</event>
<event>
 7    1  0.1020736E-005  0.1588705E+03  0.7546771E-02  0.1206478E+00
          1   -1    0    0  501    0  0.00000000000E+00  0.00000000000E+00  0.85288787468E+03  0.85288787468E+03  0.00000000000E+00 0. -1.
         -1   -1    0    0    0  501 -0.00000000000E+00 -0.00000000000E+00 -0.21350338330E+02  0.21350338330E+02  0.00000000000E+00 0.  1.
         23    2    1    2    0    0  0.23742617285E+02 -0.61044330933E+02  0.35447370231E+03  0.37141644268E+03  0.89489921517E+02 0.  0.
          5    1    1    2  502    0 -0.44784461216E+02  0.85348399403E+02  0.45089133439E+03  0.46110203066E+03  0.47000000000E+01 0. -1.
         -5    1    1    2    0  502  0.21041843930E+02 -0.24304068470E+02  0.26172499654E+02  0.41719739672E+02  0.47000000000E+01 0.  1.
        -11    1    3    3    0    0  0.14252308775E+01 -0.80912802070E+02  0.26551388399E+03  0.27757257684E+03  0.00000000000E+00 0.  1.
         11    1    3    3    0    0  0.22317386408E+02  0.19868471137E+02  0.88959818318E+02  0.93843865844E+02  0.00000000000E+00 0. -1.
<mgrwt>
<rscale>  0 0.14521592E+03</rscale>
<asrwt>0</asrwt>
<pdfrwt beam="1">  1        1 0.13121349E+00 0.15887048E+03</pdfrwt>
<pdfrwt beam="2">  1       -1 0.32846681E-02 0.15887048E+03</pdfrwt>
<totfact> 0.67036175E+03</totfact>
</mgrwt>
</event>
<event>
 7    1  0.1020736E-005  0.1332758E+03  0.7546771E-02  0.1236348E+00
          2   -1    0    0  501    0  0.00000000000E+00  0.00000000000E+00  0.11355085373E+03  0.11355085373E+03  0.00000000000E+00 0. -1.
         -2   -1    0    0    0  501 -0.00000000000E+00 -0.00000000000E+00 -0.13914488965E+03  0.13914488965E+03  0.00000000000E+00 0.  1.
         23    2    1    2    0    0 -0.44603265561E+02  0.12283907365E+02 -0.57356580490E+02  0.11568731559E+03  0.89182016034E+02 0.  0.
          5    1    1    2  502    0  0.85565736873E+02  0.59729410224E+01  0.86479591778E+01  0.86336831937E+02  0.47000000000E+01 0. -1.
         -5    1    1    2    0  502 -0.40962471312E+02 -0.18256848387E+02  0.23114585390E+02  0.50671595857E+02  0.47000000000E+01 0. -1.
        -11    1    3    3    0    0  0.21178714629E+01 -0.16482225305E+02  0.16674323298E+02  0.23541074487E+02  0.00000000000E+00 0. -1.
         11    1    3    3    0    0 -0.46721137024E+02  0.28766132670E+02 -0.74030903788E+02  0.92146241102E+02  0.00000000000E+00 0.  1.
<mgrwt>
<rscale>  0 0.12418533E+03</rscale>
<asrwt>0</asrwt>
<pdfrwt beam="1">  1        2 0.17469362E-01 0.13327584E+03</pdfrwt>
<pdfrwt beam="2">  1       -2 0.21406906E-01 0.13327584E+03</pdfrwt>
<totfact> 0.57678632E+03</totfact>
</mgrwt>
</event>
<event>
 7    1  0.1020736E-005  0.1589784E+03  0.7546771E-02  0.1198270E+00
         -1   -1    0    0    0  501 -0.00000000000E+00  0.00000000000E+00  0.13517009829E+03  0.13517009829E+03  0.00000000000E+00 0.  1.
          1   -1    0    0  501    0  0.00000000000E+00 -0.00000000000E+00 -0.16115244350E+03  0.16115244350E+03  0.00000000000E+00 0. -1.
         23    2    1    2    0    0  0.92430650953E+02  0.33232800691E+02  0.12459186983E+02  0.13276251395E+03  0.88446647712E+02 0.  0.
          5    1    1    2  502    0 -0.35203676794E+02 -0.44478080858E+02  0.37150216269E+02  0.67969310026E+02  0.47000000000E+01 0.  1.
         -5    1    1    2    0  502 -0.57226974159E+02  0.11245280168E+02 -0.75591748456E+02  0.95590717814E+02  0.47000000000E+01 0.  1.
        -11    1    3    3    0    0  0.62389018824E+02 -0.13828061959E+02  0.34637472959E+02  0.72686721623E+02  0.00000000000E+00 0.  1.
         11    1    3    3    0    0  0.30041632128E+02  0.47060862650E+02 -0.22178285976E+02  0.60075792322E+02  0.00000000000E+00 0. -1.
<mgrwt>
<rscale>  0 0.15180715E+03</rscale>
<asrwt>0</asrwt>
<pdfrwt beam="2">  1        1 0.24792684E-01 0.15897840E+03</pdfrwt>
<pdfrwt beam="1">  1       -1 0.20795400E-01 0.15897840E+03</pdfrwt>
<totfact> 0.35504581E+03</totfact>
</mgrwt>
</event>
<event>
 7    1  0.1020736E-005  0.1281855E+03  0.7546771E-02  0.1243171E+00
         -1   -1    0    0    0  501 -0.00000000000E+00  0.00000000000E+00  0.28475669821E+02  0.28475669821E+02  0.00000000000E+00 0.  1.
          1   -1    0    0  501    0  0.00000000000E+00 -0.00000000000E+00 -0.54680394621E+03  0.54680394621E+03  0.00000000000E+00 0. -1.
         23    2    1    2    0    0  0.28420451948E+02 -0.11621315886E+01 -0.11106242692E+03  0.14831710206E+03  0.94095841844E+02 0.  0.
          5    1    1    2  502    0  0.45192547163E+01  0.48735287854E+02 -0.75119180738E+02  0.89780472599E+02  0.47000000000E+01 0. -1.
         -5    1    1    2    0  502 -0.32939706664E+02 -0.47573156265E+02 -0.33214666874E+03  0.33718204137E+03  0.47000000000E+01 0. -1.
        -11    1    3    3    0    0  0.34341976852E+02 -0.18587072170E+02 -0.12117958367E+03  0.12731591466E+03  0.00000000000E+00 0. -1.
         11    1    3    3    0    0 -0.59215249043E+01  0.17424940581E+02  0.10117156757E+02  0.21001187402E+02  0.00000000000E+00 0.  1.
<mgrwt>
<rscale>  0 0.11995509E+03</rscale>
<asrwt>0</asrwt>
<pdfrwt beam="2">  1        1 0.84123685E-01 0.12818548E+03</pdfrwt>
<pdfrwt beam="1">  1       -1 0.43808722E-02 0.12818548E+03</pdfrwt>
<totfact> 0.81858518E+03</totfact>
</mgrwt>
</event>
<event>
 7    1  0.1020736E-005  0.1749067E+03  0.7546771E-02  0.1178328E+00
         -1   -1    0    0    0  501 -0.00000000000E+00  0.00000000000E+00  0.22870100904E+03  0.22870100904E+03  0.00000000000E+00 0.  1.
          1   -1    0    0  501    0  0.00000000000E+00 -0.00000000000E+00 -0.12085714877E+03  0.12085714877E+03  0.00000000000E+00 0. -1.
         23    2    1    2    0    0 -0.82587552319E+02 -0.90255660653E+02  0.74732271181E+02  0.17154486601E+03  0.94212210578E+02 0.  0.
          5    1    1    2  502    0 -0.50781662905E+01  0.61872548755E+02  0.55127473775E+02  0.83157251199E+02  0.47000000000E+01 0. -1.
         -5    1    1    2    0  502  0.87665718609E+02  0.28383111899E+02 -0.22015884681E+02  0.94856040601E+02  0.47000000000E+01 0. -1.
        -11    1    3    3    0    0 -0.29793233406E+02 -0.41052839993E+02  0.84664776426E+02  0.98696994866E+02  0.00000000000E+00 0.  1.
         11    1    3    3    0    0 -0.52794318913E+02 -0.49202820660E+02 -0.99325052452E+01  0.72847871148E+02  0.00000000000E+00 0. -1.
<mgrwt>
<rscale>  0 0.16954084E+03</rscale>
<asrwt>0</asrwt>
<pdfrwt beam="2">  1        1 0.18593408E-01 0.17490670E+03</pdfrwt>
<pdfrwt beam="1">  1       -1 0.35184771E-01 0.17490670E+03</pdfrwt>
<totfact> 0.21382384E+03</totfact>
</mgrwt>
</event>
<event>
 7    1  0.1020736E-005  0.1529567E+03  0.7546771E-02  0.1200342E+00
         -3   -1    0    0    0  501 -0.00000000000E+00  0.00000000000E+00  0.79786289629E+02  0.79786289629E+02  0.00000000000E+00 0.  1.
          3   -1    0    0  501    0  0.00000000000E+00 -0.00000000000E+00 -0.33082818894E+03  0.33082818894E+03  0.00000000000E+00 0. -1.
         23    2    1    2    0    0 -0.90777058577E+02 -0.55097852988E+02 -0.35379296821E+02  0.14621681558E+03  0.94081957603E+02 0.  0.
          5    1    1    2  502    0  0.10787287679E+03  0.56112190754E+02 -0.21448575707E+03  0.24659960560E+03  0.47000000000E+01 0. -1.
         -5    1    1    2    0  502 -0.17095818216E+02 -0.10143377656E+01 -0.11768454209E+01  0.17798057386E+02  0.47000000000E+01 0.  1.
        -11    1    3    3    0    0 -0.70857610565E+02  0.11512679857E+02 -0.24459309321E+02  0.75839307651E+02  0.00000000000E+00 0. -1.
         11    1    3    3    0    0 -0.19919448012E+02 -0.66610532846E+02 -0.10919987500E+02  0.70377507928E+02  0.00000000000E+00 0.  1.
<mgrwt>
<rscale>  0 0.15010690E+03</rscale>
<asrwt>0</asrwt>
<pdfrwt beam="2">  1        3 0.50896645E-01 0.15295675E+03</pdfrwt>
<pdfrwt beam="1">  1       -3 0.12274814E-01 0.15295675E+03</pdfrwt>
<totfact> 0.47578938E+02</totfact>
</mgrwt>
</event>
<event>
 7    1  0.1020736E-005  0.1394512E+03  0.7546771E-02  0.1225682E+00
         -1   -1    0    0    0  501 -0.00000000000E+00  0.00000000000E+00  0.26008746939E+02  0.26008746939E+02  0.00000000000E+00 0.  1.
          1   -1    0    0  501    0  0.00000000000E+00 -0.00000000000E+00 -0.60609650539E+03  0.60609650539E+03  0.00000000000E+00 0. -1.
         23    2    1    2    0    0  0.61394438530E+02  0.72148482246E+01 -0.21237348815E+03  0.23883635167E+03  0.90105345536E+02 0.  0.
          5    1    1    2  502    0  0.69148180221E+01 -0.48922452236E+02 -0.21649223328E+03  0.22210852778E+03  0.47000000000E+01 0. -1.
         -5    1    1    2    0  502 -0.68309256552E+02  0.41707604012E+02 -0.15122203702E+03  0.17116037288E+03  0.47000000000E+01 0. -1.
        -11    1    3    3    0    0 -0.34822027427E+00  0.30981561022E+02 -0.24026797819E+02  0.39207976154E+02  0.00000000000E+00 0.  1.
         11    1    3    3    0    0  0.61742658804E+02 -0.23766712797E+02 -0.18834669033E+03  0.19962837552E+03  0.00000000000E+00 0. -1.
<mgrwt>
<rscale>  0 0.13120297E+03</rscale>
<asrwt>0</asrwt>
<pdfrwt beam="2">  1        1 0.93245601E-01 0.13945122E+03</pdfrwt>
<pdfrwt beam="1">  1       -1 0.40013463E-02 0.13945122E+03</pdfrwt>
<totfact> 0.81854094E+03</totfact>
</mgrwt>
</event>
<event>
 7    1  0.1020736E-005  0.1360244E+03  0.7546771E-02  0.1230488E+00
         -1   -1    0    0    0  501 -0.00000000000E+00  0.00000000000E+00  0.35329335412E+02  0.35329335412E+02  0.00000000000E+00 0.  1.
          1   -1    0    0  501    0  0.00000000000E+00 -0.00000000000E+00 -0.47018369473E+03  0.47018369473E+03  0.00000000000E+00 0. -1.
         23    2    1    2    0    0  0.48558226097E+01 -0.53409931660E+02 -0.10919967725E+03  0.15259148325E+03  0.92105327944E+02 0.  0.
          5    1    1    2  502    0 -0.17738846518E+02 -0.33470003668E+02 -0.16906625201E+03  0.17332165297E+03  0.47000000000E+01 0.  1.
         -5    1    1    2    0  502  0.12883023908E+02  0.86879935328E+02 -0.15658843007E+03  0.17959989393E+03  0.47000000000E+01 0.  1.
        -11    1    3    3    0    0  0.41404509487E+02 -0.49360022183E+02 -0.44930991623E+02  0.78546414329E+02  0.00000000000E+00 0.  1.
         11    1    3    3    0    0 -0.36548686877E+02 -0.40499094773E+01 -0.64268685624E+02  0.74045068918E+02  0.00000000000E+00 0. -1.
<mgrwt>
<rscale>  0 0.12797733E+03</rscale>
<asrwt>0</asrwt>
<pdfrwt beam="2">  1        1 0.72335945E-01 0.13602443E+03</pdfrwt>
<pdfrwt beam="1">  1       -1 0.54352830E-02 0.13602443E+03</pdfrwt>
<totfact> 0.72787404E+03</totfact>
</mgrwt>
</event>
<event>
 7    1  0.1020736E-005  0.1612735E+03  0.7546771E-02  0.1194652E+00
         -2   -1    0    0    0  501 -0.00000000000E+00  0.00000000000E+00  0.63043700567E+02  0.63043700567E+02  0.00000000000E+00 0.  1.
          2   -1    0    0  501    0  0.00000000000E+00 -0.00000000000E+00 -0.41845651168E+03  0.41845651168E+03  0.00000000000E+00 0. -1.
         23    2    1    2    0    0 -0.10142491140E+03  0.98548403391E+01 -0.70480494677E+02  0.15409287879E+03  0.91613233937E+02 0.  0.
          5    1    1    2  502    0  0.19009959857E+02 -0.56128834566E+02 -0.65589475310E+02  0.88520584697E+02  0.47000000000E+01 0. -1.
         -5    1    1    2    0  502  0.82414951547E+02  0.46273994227E+02 -0.21934284112E+03  0.23888674876E+03  0.47000000000E+01 0. -1.
        -11    1    3    3    0    0 -0.74746923430E+02  0.45495985988E+01  0.38072849301E+01  0.74981976689E+02  0.00000000000E+00 0.  1.
         11    1    3    3    0    0 -0.26677987975E+02  0.53052417403E+01 -0.74287779607E+02  0.79110902101E+02  0.00000000000E+00 0. -1.
<mgrwt>
<rscale>  0 0.15483739E+03</rscale>
<asrwt>0</asrwt>
<pdfrwt beam="2">  1        2 0.64377924E-01 0.16127349E+03</pdfrwt>
<pdfrwt beam="1">  1       -2 0.96990310E-02 0.16127349E+03</pdfrwt>
<totfact> 0.51371182E+03</totfact>
</mgrwt>
</event>
<event>
 7    1  0.1020736E-005  0.1486409E+03  0.7546771E-02  0.1217923E+00
         -2   -1    0    0    0  501 -0.00000000000E+00  0.00000000000E+00  0.10635127643E+03  0.10635127643E+03  0.00000000000E+00 0.  1.
          2   -1    0    0  501    0  0.00000000000E+00 -0.00000000000E+00 -0.20107946328E+03  0.20107946328E+03  0.00000000000E+00 0. -1.
         23    2    1    2    0    0 -0.32762871478E+02  0.40827640743E+02  0.33309443636E+02  0.11124778796E+03  0.92337691630E+02 0.  0.
          5    1    1    2  502    0  0.82100624716E+01 -0.30057541965E+01 -0.14678692021E+03  0.14712215887E+03  0.47000000000E+01 0. -1.
         -5    1    1    2    0  502  0.24552809006E+02 -0.37821886546E+02  0.18749289727E+02  0.49060792873E+02  0.47000000000E+01 0.  1.
        -11    1    3    3    0    0  0.13226686657E+02  0.55912472198E+02  0.22151923496E+02  0.61578060231E+02  0.00000000000E+00 0. -1.
         11    1    3    3    0    0 -0.45989558135E+02 -0.15084831455E+02  0.11157520140E+02  0.49669727734E+02  0.00000000000E+00 0.  1.
<mgrwt>
<rscale>  0 0.13663992E+03</rscale>
<asrwt>0</asrwt>
<pdfrwt beam="2">  1        2 0.30935302E-01 0.14864090E+03</pdfrwt>
<pdfrwt beam="1">  1       -2 0.16361735E-01 0.14864090E+03</pdfrwt>
<totfact> 0.48260026E+03</totfact>
</mgrwt>
</event>
<event>
 7    1  0.1020736E-005  0.1254254E+03  0.7546771E-02  0.1251514E+00
          2   -1    0    0  501    0  0.00000000000E+00  0.00000000000E+00  0.48875676481E+03  0.48875676481E+03  0.00000000000E+00 0. -1.
         -2   -1    0    0    0  501 -0.00000000000E+00 -0.00000000000E+00 -0.25262307030E+02  0.25262307030E+02  0.00000000000E+00 0.  1.
         23    2    1    2    0    0  0.18596552384E+01  0.10174928584E+02  0.12728716632E+03  0.15517806984E+03  0.88154541344E+02 0.  0.
          5    1    1    2  502    0  0.29828471681E+02  0.21740863560E+02  0.26090242522E+02  0.45444401481E+02  0.47000000000E+01 0. -1.
         -5    1    1    2    0  502 -0.31688126919E+02 -0.31915792143E+02  0.31011704893E+03  0.31339660051E+03  0.47000000000E+01 0. -1.
        -11    1    3    3    0    0  0.37016901787E+02  0.14830688228E+02  0.10729760967E+03  0.11446823739E+03  0.00000000000E+00 0. -1.
         11    1    3    3    0    0 -0.35157246549E+02 -0.46557596443E+01  0.19989556658E+02  0.40709832451E+02  0.00000000000E+00 0.  1.
<mgrwt>
<rscale>  0 0.11503831E+03</rscale>
<asrwt>0</asrwt>
<pdfrwt beam="1">  1        2 0.75193341E-01 0.12542536E+03</pdfrwt>
<pdfrwt beam="2">  1       -2 0.38865091E-02 0.12542536E+03</pdfrwt>
<totfact> 0.17172552E+04</totfact>
</mgrwt>
</event>
<event>
 7    1  0.1020736E-005  0.1497611E+03  0.7546771E-02  0.1209281E+00
         -2   -1    0    0    0  501 -0.00000000000E+00  0.00000000000E+00  0.33041644816E+02  0.33041644816E+02  0.00000000000E+00 0. -1.
          2   -1    0    0  501    0  0.00000000000E+00 -0.00000000000E+00 -0.57584498438E+03  0.57584498438E+03  0.00000000000E+00 0.  1.
         23    2    1    2    0    0  0.15101501783E+02 -0.81094140043E+02 -0.21588064484E+03  0.24929403861E+03  0.93481281350E+02 0.  0.
          5    1    1    2  502    0  0.44451853602E+02  0.32735767191E+02 -0.59313944674E+02  0.81165459248E+02  0.47000000000E+01 0.  1.
         -5    1    1    2    0  502 -0.59553355385E+02  0.48358372852E+02 -0.26760875005E+03  0.27842713134E+03  0.47000000000E+01 0.  1.
        -11    1    3    3    0    0 -0.99145846181E+00 -0.33746046961E+02 -0.19001819671E+03  0.19299402519E+03  0.00000000000E+00 0.  1.
         11    1    3    3    0    0  0.16092960245E+02 -0.47348093082E+02 -0.25862448125E+02  0.56300013419E+02  0.00000000000E+00 0. -1.
<mgrwt>
<rscale>  0 0.14305114E+03</rscale>
<asrwt>0</asrwt>
<pdfrwt beam="2">  1        2 0.88591533E-01 0.14976109E+03</pdfrwt>
<pdfrwt beam="1">  1       -2 0.50833301E-02 0.14976109E+03</pdfrwt>
<totfact> 0.97134957E+03</totfact>
</mgrwt>
</event>
<event>
 7    1  0.1020736E-005  0.2160220E+03  0.7546771E-02  0.1139650E+00
          2   -1    0    0  501    0  0.00000000000E+00  0.00000000000E+00  0.29455204594E+03  0.29455204594E+03  0.00000000000E+00 0. -1.
         -2   -1    0    0    0  501 -0.00000000000E+00 -0.00000000000E+00 -0.15936816987E+03  0.15936816987E+03  0.00000000000E+00 0.  1.
         23    2    1    2    0    0  0.61621732620E+02  0.16504746534E+03  0.58068115948E+01  0.20211888436E+03  0.98896009057E+02 0.  0.
          5    1    1    2  502    0 -0.89464218572E+02 -0.11751021159E+03  0.12954405100E+03  0.19651017119E+03  0.47000000000E+01 0.  1.
         -5    1    1    2    0  502  0.27842485952E+02 -0.47537253756E+02 -0.16698652402E+00  0.55291160262E+02  0.47000000000E+01 0.  1.
        -11    1    3    3    0    0  0.45618908661E+02  0.83102812407E+02 -0.44411026510E+02  0.10468763792E+03  0.00000000000E+00 0. -1.
         11    1    3    3    0    0  0.16002823959E+02  0.81944652935E+02  0.50217838105E+02  0.97431246441E+02  0.00000000000E+00 0.  1.
<mgrwt>
<rscale>  0 0.21243708E+03</rscale>
<asrwt>0</asrwt>
<pdfrwt beam="1">  1        2 0.45315699E-01 0.21602196E+03</pdfrwt>
<pdfrwt beam="2">  1       -2 0.24518180E-01 0.21602196E+03</pdfrwt>
<totfact> 0.16306795E+03</totfact>
</mgrwt>
</event>
<event>
 7    1  0.1020736E-005  0.2189094E+03  0.7546771E-02  0.1160277E+00
          1   -1    0    0  501    0  0.00000000000E+00  0.00000000000E+00  0.13743766563E+04  0.13743766563E+04  0.00000000000E+00 0. -1.
         -1   -1    0    0    0  501 -0.00000000000E+00 -0.00000000000E+00 -0.23606727440E+02  0.23606727440E+02  0.00000000000E+00 0.  1.
         23    2    1    2    0    0  0.53679801191E+02  0.57709544562E+02  0.26737680158E+03  0.29269518658E+03  0.89264806242E+02 0.  0.
          5    1    1    2  502    0  0.26365351868E+02 -0.69161190891E+02  0.14006168692E+03  0.15848586135E+03  0.47000000000E+01 0. -1.
         -5    1    1    2    0  502 -0.80045153059E+02  0.11451646328E+02  0.94333144036E+03  0.94680233581E+03  0.47000000000E+01 0.  1.
        -11    1    3    3    0    0  0.29798169413E+02 -0.19057443601E+02  0.52809680047E+02  0.63560831993E+02  0.00000000000E+00 0.  1.
         11    1    3    3    0    0  0.23881631778E+02  0.76766988164E+02  0.21456712153E+03  0.22913435459E+03  0.00000000000E+00 0. -1.
<mgrwt>
<rscale>  0 0.18800020E+03</rscale>
<asrwt>0</asrwt>
<pdfrwt beam="1">  1        1 0.21144250E+00 0.21890941E+03</pdfrwt>
<pdfrwt beam="2">  1       -1 0.36318053E-02 0.21890941E+03</pdfrwt>
<totfact> 0.24637713E+03</totfact>
</mgrwt>
</event>
<event>
 7    1  0.1020736E-005  0.2619397E+03  0.7546771E-02  0.1108098E+00
          1   -1    0    0  501    0  0.00000000000E+00  0.00000000000E+00  0.20571165764E+03  0.20571165764E+03  0.00000000000E+00 0. -1.
         -1   -1    0    0    0  501 -0.00000000000E+00 -0.00000000000E+00 -0.32027559645E+03  0.32027559645E+03  0.00000000000E+00 0.  1.
         23    2    1    2    0    0 -0.13360288475E+03 -0.18745153764E+03 -0.85453829262E+02  0.26243493654E+03  0.92638702537E+02 0.  0.
          5    1    1    2  502    0  0.39732433726E+02  0.15412289888E+03  0.14977965584E+01  0.15923839877E+03  0.47000000000E+01 0. -1.
         -5    1    1    2    0  502  0.93870451021E+02  0.33328638758E+02 -0.30607906104E+02  0.10431391879E+03  0.47000000000E+01 0. -1.
        -11    1    3    3    0    0 -0.90084645335E+02 -0.70628519910E+02 -0.76017693218E+02  0.13741295729E+03  0.00000000000E+00 0.  1.
         11    1    3    3    0    0 -0.43518239412E+02 -0.11682301773E+03 -0.94361360444E+01  0.12502197925E+03  0.00000000000E+00 0. -1.
<mgrwt>
<rscale>  0 0.25841752E+03</rscale>
<asrwt>0</asrwt>
<pdfrwt beam="1">  1        1 0.31647948E-01 0.26193974E+03</pdfrwt>
<pdfrwt beam="2">  1       -1 0.49273168E-01 0.26193974E+03</pdfrwt>
<totfact> 0.59928053E+02</totfact>
</mgrwt>
</event>
<event>
 7    1  0.1020736E-005  0.1926374E+03  0.7546771E-02  0.1160649E+00
         -2   -1    0    0    0  501 -0.00000000000E+00  0.00000000000E+00  0.23215719723E+02  0.23215719723E+02  0.00000000000E+00 0.  1.
          2   -1    0    0  501    0  0.00000000000E+00 -0.00000000000E+00 -0.19738165306E+04  0.19738165306E+04  0.00000000000E+00 0. -1.
         23    2    1    2    0    0  0.14106724722E+03  0.39790020039E+02 -0.41956454907E+03  0.45392460224E+03  0.92357564641E+02 0.  0.
          5    1    1    2  502    0  0.60117795350E+01 -0.39887969695E+02 -0.49648986971E+03  0.49814804260E+03  0.47000000000E+01 0. -1.
         -5    1    1    2    0  502 -0.14707902675E+03  0.97949656575E-01 -0.10345463921E+04  0.10449596055E+04  0.47000000000E+01 0. -1.
        -11    1    3    3    0    0  0.29804451679E+02 -0.23898975280E+02 -0.51154181007E+02  0.63845255061E+02  0.00000000000E+00 0.  1.
         11    1    3    3    0    0  0.11126279554E+03  0.63688995319E+02 -0.36841036807E+03  0.39007934718E+03  0.00000000000E+00 0. -1.
<mgrwt>
<rscale>  0 0.18759421E+03</rscale>
<asrwt>0</asrwt>
<pdfrwt beam="2">  1        2 0.30366417E+00 0.19263743E+03</pdfrwt>
<pdfrwt beam="1">  1       -2 0.35716481E-02 0.19263743E+03</pdfrwt>
<totfact> 0.25073042E+03</totfact>
</mgrwt>
</event>
<event>
 7    1  0.1020736E-005  0.1658538E+03  0.7546771E-02  0.1189189E+00
         -2   -1    0    0    0  501 -0.00000000000E+00  0.00000000000E+00  0.18507466513E+02  0.18507466513E+02  0.00000000000E+00 0. -1.
          2   -1    0    0  501    0  0.00000000000E+00 -0.00000000000E+00 -0.18229659528E+04  0.18229659528E+04  0.00000000000E+00 0.  1.
         23    2    1    2    0    0 -0.92493627040E+02  0.57685942420E+02 -0.35232180163E+03  0.37989603495E+03  0.91146072165E+02 0.  0.
          5    1    1    2  502    0  0.63976941244E+02 -0.91163124400E+02 -0.77225219614E+03  0.78025592513E+03  0.47000000000E+01 0. -1.
         -5    1    1    2    0  502  0.28516685796E+02  0.33477181981E+02 -0.67988448851E+03  0.68132145922E+03  0.47000000000E+01 0. -1.
        -11    1    3    3    0    0 -0.66559675246E+02 -0.53691137856E+01 -0.23394688794E+03  0.24329028778E+03  0.00000000000E+00 0. -1.
         11    1    3    3    0    0 -0.25933951794E+02  0.63055056205E+02 -0.11837491370E+03  0.13660574718E+03  0.00000000000E+00 0.  1.
<mgrwt>
<rscale>  0 0.15956482E+03</rscale>
<asrwt>0</asrwt>
<pdfrwt beam="2">  1        2 0.28045623E+00 0.16585385E+03</pdfrwt>
<pdfrwt beam="1">  1       -2 0.28473033E-02 0.16585385E+03</pdfrwt>
<totfact> 0.41986101E+03</totfact>
</mgrwt>
</event>
<event>
 7    1  0.1020736E-005  0.1819801E+03  0.7546771E-02  0.1170181E+00
         -1   -1    0    0    0  501 -0.00000000000E+00  0.00000000000E+00  0.28530586033E+02  0.28530586033E+02  0.00000000000E+00 0.  1.
          1   -1    0    0  501    0  0.00000000000E+00 -0.00000000000E+00 -0.10853659829E+04  0.10853659829E+04  0.00000000000E+00 0. -1.
         23    2    1    2    0    0  0.10674448501E+03  0.78076065856E+02 -0.40966267006E+03  0.44162482398E+03  0.98583592822E+02 0.  0.
          5    1    1    2  502    0 -0.11851164462E+03 -0.99202650103E+02 -0.51073051965E+03  0.53362339661E+03  0.47000000000E+01 0.  1.
         -5    1    1    2    0  502  0.11767159612E+02  0.21126584247E+02 -0.13644220712E+03  0.13864834831E+03  0.47000000000E+01 0.  1.
        -11    1    3    3    0    0  0.64736684264E+02 -0.99286943603E+01 -0.13240052034E+03  0.14771362513E+03  0.00000000000E+00 0.  1.
         11    1    3    3    0    0  0.42007800746E+02  0.88004760216E+02 -0.27726214972E+03  0.29391119886E+03  0.00000000000E+00 0. -1.
<mgrwt>
<rscale>  0 0.17756484E+03</rscale>
<asrwt>0</asrwt>
<pdfrwt beam="2">  1        1 0.16697937E+00 0.18198011E+03</pdfrwt>
<pdfrwt beam="1">  1       -1 0.43893213E-02 0.18198011E+03</pdfrwt>
<totfact> 0.29382478E+03</totfact>
</mgrwt>
</event>
<event>
 7    1  0.1020736E-005  0.1949032E+03  0.7546771E-02  0.1158917E+00
          2   -1    0    0  501    0  0.00000000000E+00  0.00000000000E+00  0.10274089814E+04  0.10274089814E+04  0.00000000000E+00 0.  1.
         -2   -1    0    0    0  501 -0.00000000000E+00 -0.00000000000E+00 -0.35385901351E+02  0.35385901351E+02  0.00000000000E+00 0. -1.
         23    2    1    2    0    0 -0.14645462820E+03 -0.30247486101E+02  0.33630339234E+03  0.37872210054E+03  0.89255751646E+02 0.  0.
          5    1    1    2  502    0  0.17970530734E+02  0.28589102739E+02  0.35997226345E+03  0.36158318161E+03  0.47000000000E+01 0.  1.
         -5    1    1    2    0  502  0.12848409747E+03  0.16583833621E+01  0.29574742427E+03  0.32248960061E+03  0.47000000000E+01 0.  1.
        -11    1    3    3    0    0 -0.81681397081E+02 -0.28836452566E+02  0.27930762330E+03  0.29243142796E+03  0.00000000000E+00 0.  1.
         11    1    3    3    0    0 -0.64773231123E+02 -0.14110335350E+01  0.56995769032E+02  0.86290672574E+02  0.00000000000E+00 0. -1.
<mgrwt>
<rscale>  0 0.18949560E+03</rscale>
<asrwt>0</asrwt>
<pdfrwt beam="1">  1        2 0.15806290E+00 0.19490321E+03</pdfrwt>
<pdfrwt beam="2">  1       -2 0.54439856E-02 0.19490321E+03</pdfrwt>
<totfact> 0.42986991E+03</totfact>
</mgrwt>
</event>
<event>
 7    1  0.1020736E-005  0.1572191E+03  0.7546771E-02  0.1198961E+00
         -2   -1    0    0    0  501 -0.00000000000E+00  0.00000000000E+00  0.91174733990E+01  0.91174733990E+01  0.00000000000E+00 0. -1.
          2   -1    0    0  501    0  0.00000000000E+00 -0.00000000000E+00 -0.27843019759E+04  0.27843019759E+04  0.00000000000E+00 0.  1.
         23    2    1    2    0    0 -0.71784865214E+02  0.62759106367E+02 -0.73805535973E+03  0.75023248079E+03  0.95033093677E+02 0.  0.
          5    1    1    2  502    0 -0.97934990123E+01 -0.51431298561E+02 -0.13653535450E+04  0.13663650625E+04  0.47000000000E+01 0. -1.
         -5    1    1    2    0  502  0.81578364227E+02 -0.11327807807E+02 -0.67177559778E+03  0.67682190606E+03  0.47000000000E+01 0. -1.
        -11    1    3    3    0    0  0.22812263423E+02  0.16318045273E+02 -0.11814472136E+03  0.12142838692E+03  0.00000000000E+00 0. -1.
         11    1    3    3    0    0 -0.94597128637E+02  0.46441061094E+02 -0.61991063838E+03  0.62880409387E+03  0.00000000000E+00 0.  1.
<mgrwt>
<rscale>  0 0.15123695E+03</rscale>
<asrwt>0</asrwt>
<pdfrwt beam="2">  1        2 0.42835404E+00 0.15721910E+03</pdfrwt>
<pdfrwt beam="1">  1       -2 0.14026886E-02 0.15721910E+03</pdfrwt>
<totfact> 0.36498160E+03</totfact>
</mgrwt>
</event>
<event>
 7    1  0.1020736E-005  0.1687038E+03  0.7546771E-02  0.1184075E+00
          1   -1    0    0  501    0  0.00000000000E+00  0.00000000000E+00  0.12679158945E+04  0.12679158945E+04  0.00000000000E+00 0. -1.
         -1   -1    0    0    0  501 -0.00000000000E+00 -0.00000000000E+00 -0.37178908191E+02  0.37178908191E+02  0.00000000000E+00 0.  1.
         23    2    1    2    0    0  0.30856607069E+02  0.11791214979E+03  0.15635072173E+03  0.21754396080E+03  0.89579135004E+02 0.  0.
          5    1    1    2  502    0 -0.64040847504E+02 -0.11754977328E+03  0.80171679914E+03  0.81282906898E+03  0.47000000000E+01 0. -1.
         -5    1    1    2    0  502  0.33184240436E+02 -0.36237651246E+00  0.27266946545E+03  0.27472177292E+03  0.47000000000E+01 0.  1.
        -11    1    3    3    0    0  0.35750274827E+02  0.75326396337E+01  0.18723184708E+02  0.41053385435E+02  0.00000000000E+00 0. -1.
         11    1    3    3    0    0 -0.48936677585E+01  0.11037951016E+03  0.13762753702E+03  0.17649057537E+03  0.00000000000E+00 0.  1.
<mgrwt>
<rscale>  0 0.16416302E+03</rscale>
<asrwt>0</asrwt>
<pdfrwt beam="1">  1        1 0.19506395E+00 0.16870385E+03</pdfrwt>
<pdfrwt beam="2">  1       -1 0.57198330E-02 0.16870385E+03</pdfrwt>
<totfact> 0.14775975E+03</totfact>
</mgrwt>
</event>
<event>
 7    1  0.1020736E-005  0.1648329E+03  0.7546771E-02  0.1187312E+00
          1   -1    0    0  501    0  0.00000000000E+00  0.00000000000E+00  0.18067633852E+03  0.18067633852E+03  0.00000000000E+00 0. -1.
         -1   -1    0    0    0  501 -0.00000000000E+00 -0.00000000000E+00 -0.13794356018E+03  0.13794356018E+03  0.00000000000E+00 0.  1.
         23    2    1    2    0    0 -0.40478541534E+02 -0.99517838862E+02  0.21690862031E+02  0.15244937682E+03  0.10596228773E+03 0.  0.
          5    1    1    2  502    0 -0.35846874198E+02  0.23309215424E+02 -0.23922545477E+02  0.49220890844E+02  0.47000000000E+01 0. -1.
         -5    1    1    2    0  502  0.76325415732E+02  0.76208623438E+02  0.44964461787E+02  0.11694963102E+03  0.47000000000E+01 0. -1.
        -11    1    3    3    0    0 -0.17480088560E+02 -0.15022465222E+02  0.54312912981E+02  0.59001020956E+02  0.00000000000E+00 0. -1.
         11    1    3    3    0    0 -0.22998452974E+02 -0.84495373641E+02 -0.32622050950E+02  0.93448355866E+02  0.00000000000E+00 0.  1.
<mgrwt>
<rscale>  0 0.16123304E+03</rscale>
<asrwt>0</asrwt>
<pdfrwt beam="1">  1        1 0.27796360E-01 0.16483289E+03</pdfrwt>
<pdfrwt beam="2">  1       -1 0.21222086E-01 0.16483289E+03</pdfrwt>
<totfact> 0.29799473E+03</totfact>
</mgrwt>
</event>
<event>
 7    1  0.1020736E-005  0.1432497E+03  0.7546771E-02  0.1219796E+00
         -1   -1    0    0    0  501 -0.00000000000E+00  0.00000000000E+00  0.13565405328E+03  0.13565405328E+03  0.00000000000E+00 0.  1.
          1   -1    0    0  501    0  0.00000000000E+00 -0.00000000000E+00 -0.18401326588E+03  0.18401326588E+03  0.00000000000E+00 0. -1.
         23    2    1    2    0    0  0.69392626453E+02  0.92914227993E+01  0.70059173131E+02  0.13380878014E+03  0.89971299644E+02 0.  0.
          5    1    1    2  502    0 -0.10086624030E+03 -0.73869673890E+00 -0.56480940497E+02  0.11570104038E+03  0.47000000000E+01 0.  1.
         -5    1    1    2    0  502  0.31473613850E+02 -0.85527260604E+01 -0.61937445242E+02  0.70157498637E+02  0.47000000000E+01 0.  1.
        -11    1    3    3    0    0  0.12958877080E+02 -0.21919336643E+02  0.64186151634E+02  0.69052529828E+02  0.00000000000E+00 0.  1.
         11    1    3    3    0    0  0.56433749373E+02  0.31210759442E+02  0.58730214968E+01  0.64756250314E+02  0.00000000000E+00 0. -1.
<mgrwt>
<rscale>  0 0.13530026E+03</rscale>
<asrwt>0</asrwt>
<pdfrwt beam="2">  1        1 0.28309733E-01 0.14324972E+03</pdfrwt>
<pdfrwt beam="1">  1       -1 0.20869854E-01 0.14324972E+03</pdfrwt>
<totfact> 0.29735120E+03</totfact>
</mgrwt>
</event>
<event>
 7    1  0.1020736E-005  0.1285328E+03  0.7546771E-02  0.1242845E+00
          4   -1    0    0  501    0  0.00000000000E+00  0.00000000000E+00  0.98042665236E+02  0.98042665236E+02  0.00000000000E+00 0. -1.
         -4   -1    0    0    0  501 -0.00000000000E+00 -0.00000000000E+00 -0.15066581353E+03  0.15066581353E+03  0.00000000000E+00 0.  1.
         23    2    1    2    0    0 -0.29840343412E+02 -0.24570897993E+01 -0.67786870726E+02  0.11928432808E+03  0.93473031923E+02 0.  0.
          5    1    1    2  502    0  0.13198245676E+02  0.59658868528E+01  0.70094170945E+02  0.71729131427E+02  0.47000000000E+01 0. -1.
         -5    1    1    2    0  502  0.16642097737E+02 -0.35087970535E+01 -0.54930448508E+02  0.57695019258E+02  0.47000000000E+01 0. -1.
        -11    1    3    3    0    0 -0.48065723642E+02 -0.30595048608E+02 -0.63776059951E+02  0.85520504042E+02  0.00000000000E+00 0.  1.
         11    1    3    3    0    0  0.18225380230E+02  0.28137958809E+02 -0.40108107748E+01  0.33763824036E+02  0.00000000000E+00 0. -1.
<mgrwt>
<rscale>  0 0.12015296E+03</rscale>
<asrwt>0</asrwt>
<pdfrwt beam="1">  1        4 0.15083487E-01 0.12853277E+03</pdfrwt>
<pdfrwt beam="2">  1       -4 0.23179356E-01 0.12853277E+03</pdfrwt>
<totfact> 0.10491083E+03</totfact>
</mgrwt>
</event>
<event>
 7    1  0.1020736E-005  0.3119941E+03  0.7546771E-02  0.1080846E+00
         -2   -1    0    0    0  501 -0.00000000000E+00  0.00000000000E+00  0.32497223194E+02  0.32497223194E+02  0.00000000000E+00 0.  1.
          2   -1    0    0  501    0  0.00000000000E+00 -0.00000000000E+00 -0.29989152891E+04  0.29989152891E+04  0.00000000000E+00 0. -1.
         23    2    1    2    0    0  0.23787420119E+03  0.15858406288E+03 -0.11555364323E+04  0.11938509155E+04  0.91008360587E+02 0.  0.
          5    1    1    2  502    0 -0.15758541246E+03 -0.70829994289E+02 -0.73173531253E+03  0.75187014033E+03  0.47000000000E+01 0. -1.
         -5    1    1    2    0  502 -0.80288788735E+02 -0.87754068592E+02 -0.10791463211E+04  0.10856914564E+04  0.47000000000E+01 0. -1.
        -11    1    3    3    0    0  0.17016687611E+03  0.10546475984E+03 -0.95280375153E+03  0.97360904383E+03  0.00000000000E+00 0.  1.
         11    1    3    3    0    0  0.67707325084E+02  0.53119303043E+02 -0.20273268072E+03  0.22024187172E+03  0.00000000000E+00 0. -1.
<mgrwt>
<rscale>  0 0.30895804E+03</rscale>
<asrwt>0</asrwt>
<pdfrwt beam="2">  1        2 0.46137145E+00 0.31199412E+03</pdfrwt>
<pdfrwt beam="1">  1       -2 0.49995742E-02 0.31199412E+03</pdfrwt>
<totfact> 0.40474790E+02</totfact>
</mgrwt>
</event>
<event>
 6    1  0.1064498E-005  0.3247142E+03  0.7546771E-02  0.1073500E+00
         -2   -1    0    0    0  501 -0.00000000000E+00  0.00000000000E+00  0.86891364503E+02  0.86891364503E+02  0.00000000000E+00 0.  1.
          2   -1    0    0  501    0  0.00000000000E+00 -0.00000000000E+00 -0.30336526023E+03  0.30336526023E+03  0.00000000000E+00 0. -1.
          5    1    1    2  502    0 -0.50883962039E+02  0.47740075552E+02 -0.17957808673E+02  0.72200175199E+02  0.47000000000E+01 0.  1.
         -5    1    1    2    0  502  0.26051644182E+02  0.18639800689E+02 -0.13032177931E+03  0.13428323237E+03  0.47000000000E+01 0.  1.
        -11    1    1    2    0    0  0.90068588012E+02 -0.51319713142E+02 -0.39567476613E+02  0.11095786907E+03  0.00000000000E+00 0. -1.
         11    1    1    2    0    0 -0.65236270155E+02 -0.15060163099E+02 -0.28626831131E+02  0.72815348086E+02  0.00000000000E+00 0.  1.
<mgrwt>
<rscale>  0 0.32471416E+03</rscale>
<asrwt>0</asrwt>
<pdfrwt beam="2">  1        2 0.46671579E-01 0.32471416E+03</pdfrwt>
<pdfrwt beam="1">  1       -2 0.13367902E-01 0.32471416E+03</pdfrwt>
<totfact> 0.44788395E+03</totfact>
</mgrwt>
</event>
<event>
 7    1  0.1020736E-005  0.2522100E+03  0.7546771E-02  0.1126768E+00
          2   -1    0    0  501    0  0.00000000000E+00  0.00000000000E+00  0.68007860719E+03  0.68007860719E+03  0.00000000000E+00 0. -1.
         -2   -1    0    0    0  501 -0.00000000000E+00 -0.00000000000E+00 -0.23799733791E+03  0.23799733791E+03  0.00000000000E+00 0.  1.
         23    2    1    2    0    0  0.33946786596E+02  0.14424849047E+03 -0.17789728298E+03  0.24876042474E+03  0.90963148056E+02 0.  0.
          5    1    1    2  502    0  0.42481417304E+02 -0.13054964282E+03  0.20278635677E+03  0.24493320834E+03  0.47000000000E+01 0. -1.
         -5    1    1    2    0  502 -0.76428203899E+02 -0.13698847645E+02  0.41719219549E+03  0.42438231202E+03  0.47000000000E+01 0.  1.
        -11    1    3    3    0    0  0.64532959610E+02  0.10825144210E+03 -0.11978490447E+03  0.17387150696E+03  0.00000000000E+00 0.  1.
         11    1    3    3    0    0 -0.30586173015E+02  0.35997048362E+02 -0.58112378510E+02  0.74888917782E+02  0.00000000000E+00 0. -1.
<mgrwt>
<rscale>  0 0.22981807E+03</rscale>
<asrwt>0</asrwt>
<pdfrwt beam="1">  1        2 0.10462748E+00 0.25220995E+03</pdfrwt>
<pdfrwt beam="2">  1       -2 0.36614975E-01 0.25220995E+03</pdfrwt>
<totfact> 0.30945726E+02</totfact>
</mgrwt>
</event>
<event>
 7    1  0.1020736E-005  0.2217589E+03  0.7546771E-02  0.1132578E+00
          2   -1    0    0  501    0  0.00000000000E+00  0.00000000000E+00  0.16805363401E+02  0.16805363401E+02  0.00000000000E+00 0. -1.
         -2   -1    0    0    0  501 -0.00000000000E+00 -0.00000000000E+00 -0.73156709240E+03  0.73156709240E+03  0.00000000000E+00 0.  1.
         23    2    1    2    0    0 -0.18877048763E+02 -0.11552701926E+02 -0.34962307147E+03  0.36179439061E+03  0.90382968968E+02 0.  0.
          5    1    1    2  502    0 -0.28525600857E+02 -0.24221809480E+01 -0.31389074289E+03  0.31522859219E+03  0.47000000000E+01 0.  1.
         -5    1    1    2    0  502  0.47402649620E+02  0.13974882874E+02 -0.51247914637E+02  0.71349472997E+02  0.47000000000E+01 0.  1.
        -11    1    3    3    0    0  0.19237508496E+02 -0.38137040228E+02 -0.11647196678E+03  0.12405738437E+03  0.00000000000E+00 0.  1.
         11    1    3    3    0    0 -0.38114557259E+02  0.26584338302E+02 -0.23315110469E+03  0.23773700624E+03  0.00000000000E+00 0. -1.
<mgrwt>
<rscale>  0 0.22175889E+03</rscale>
<asrwt>0</asrwt>
<pdfrwt beam="1">  1        2 0.25854404E-02 0.22175889E+03</pdfrwt>
<pdfrwt beam="2">  1       -2 0.11254879E+00 0.22175889E+03</pdfrwt>
<totfact> 0.24601540E+03</totfact>
</mgrwt>
</event>
<event>
 7    1  0.1020736E-005  0.1519438E+03  0.7546771E-02  0.1206796E+00
         -2   -1    0    0    0  501 -0.00000000000E+00  0.00000000000E+00  0.28257878025E+03  0.28257878025E+03  0.00000000000E+00 0.  1.
          2   -1    0    0  501    0  0.00000000000E+00 -0.00000000000E+00 -0.25135060932E+03  0.25135060932E+03  0.00000000000E+00 0. -1.
         23    2    1    2    0    0 -0.45967146045E+02  0.73132083079E+02  0.24276864975E+03  0.27347538697E+03  0.91601800666E+02 0.  0.
          5    1    1    2  502    0  0.69591437829E+01 -0.10167904054E+03 -0.12642308974E+03  0.16245597739E+03  0.47000000000E+01 0.  1.
         -5    1    1    2    0  502  0.39008002262E+02  0.28546957464E+02 -0.85117389078E+02  0.97998025207E+02  0.47000000000E+01 0.  1.
        -11    1    3    3    0    0 -0.53295497160E+02  0.24444947223E+02  0.19947016405E+03  0.20790938364E+03  0.00000000000E+00 0.  1.
         11    1    3    3    0    0  0.73283511150E+01  0.48687135856E+02  0.43298485707E+02  0.65566003328E+02  0.00000000000E+00 0. -1.
<mgrwt>
<rscale>  0 0.14496838E+03</rscale>
<asrwt>0</asrwt>
<pdfrwt beam="2">  1        2 0.38669324E-01 0.15194378E+03</pdfrwt>
<pdfrwt beam="1">  1       -2 0.43473659E-01 0.15194378E+03</pdfrwt>
<totfact> 0.67021347E+02</totfact>
</mgrwt>
</event>
<event>
 7    1  0.1020736E-005  0.1288307E+03  0.7546771E-02  0.1241695E+00
         -1   -1    0    0    0  501 -0.00000000000E+00  0.00000000000E+00  0.72832473422E+02  0.72832473422E+02  0.00000000000E+00 0.  1.
          1   -1    0    0  501    0  0.00000000000E+00 -0.00000000000E+00 -0.45005061684E+03  0.45005061684E+03  0.00000000000E+00 0. -1.
         23    2    1    2    0    0 -0.32731311849E+01  0.32481921047E+02  0.23048933211E+02  0.10239398464E+03  0.94273464904E+02 0.  0.
          5    1    1    2  502    0 -0.57643232882E+02 -0.31094456997E+02 -0.24445987823E+03  0.25312512640E+03  0.47000000000E+01 0. -1.
         -5    1    1    2    0  502  0.60916364067E+02 -0.13874640499E+01 -0.15580719840E+03  0.16736397922E+03  0.47000000000E+01 0.  1.
        -11    1    3    3    0    0  0.26073080786E+02  0.35916806351E+02  0.46789778841E+02  0.64491130585E+02  0.00000000000E+00 0.  1.
         11    1    3    3    0    0 -0.29346211971E+02 -0.34348853033E+01 -0.23740845630E+02  0.37902854052E+02  0.00000000000E+00 0. -1.
<mgrwt>
<rscale>  0 0.12085381E+03</rscale>
<asrwt>0</asrwt>
<pdfrwt beam="2">  1        1 0.69238555E-01 0.12883072E+03</pdfrwt>
<pdfrwt beam="1">  1       -1 0.11204996E-01 0.12883072E+03</pdfrwt>
<totfact> 0.25812339E+03</totfact>
</mgrwt>
</event>
<event>
 7    1  0.1020736E-005  0.1298974E+03  0.7546771E-02  0.1242077E+00
         -1   -1    0    0    0  501 -0.00000000000E+00  0.00000000000E+00  0.22196683733E+02  0.22196683733E+02  0.00000000000E+00 0.  1.
          1   -1    0    0  501    0  0.00000000000E+00 -0.00000000000E+00 -0.58392162593E+03  0.58392162593E+03  0.00000000000E+00 0. -1.
         23    2    1    2    0    0  0.16620703924E+02 -0.31203966811E+02 -0.27095088312E+03  0.28764872159E+03  0.89874749650E+02 0.  0.
          5    1    1    2  502    0 -0.86841957812E+01  0.57741739840E+02 -0.28344391875E+03  0.28943404923E+03  0.47000000000E+01 0.  1.
         -5    1    1    2    0  502 -0.79365081427E+01 -0.26537773029E+02 -0.73301403260E+01  0.29035538845E+02  0.47000000000E+01 0.  1.
        -11    1    3    3    0    0 -0.78966005168E+01  0.23768125955E+02 -0.28976747786E+02  0.38300548605E+02  0.00000000000E+00 0.  1.
         11    1    3    3    0    0  0.24517304441E+02 -0.54972092766E+02 -0.24197413533E+03  0.24934817298E+03  0.00000000000E+00 0. -1.
<mgrwt>
<rscale>  0 0.12062029E+03</rscale>
<asrwt>0</asrwt>
<pdfrwt beam="2">  1        1 0.89834088E-01 0.12989736E+03</pdfrwt>
<pdfrwt beam="1">  1       -1 0.34148748E-02 0.12989736E+03</pdfrwt>
<totfact> 0.10808920E+04</totfact>
</mgrwt>
</event>
<event>
 7    1  0.1020736E-005  0.1369602E+03  0.7546771E-02  0.1228479E+00
          1   -1    0    0  501    0  0.00000000000E+00  0.00000000000E+00  0.97682277521E+02  0.97682277521E+02  0.00000000000E+00 0. -1.
         -1   -1    0    0    0  501 -0.00000000000E+00 -0.00000000000E+00 -0.22797858029E+03  0.22797858029E+03  0.00000000000E+00 0.  1.
         23    2    1    2    0    0 -0.55502567428E+02  0.72562984266E+01 -0.15204398711E+03  0.18698472071E+03  0.93341967547E+02 0.  0.
          5    1    1    2  502    0 -0.24434336350E+02 -0.42201200766E+02  0.14073516908E+02  0.50971874765E+02  0.47000000000E+01 0.  1.
         -5    1    1    2    0  502  0.79936903778E+02  0.34944902339E+02  0.76741674367E+01  0.87704262330E+02  0.47000000000E+01 0.  1.
        -11    1    3    3    0    0 -0.28685353984E+02  0.32508293609E+02 -0.14247728844E+03  0.14892755423E+03  0.00000000000E+00 0.  1.
         11    1    3    3    0    0 -0.26817213443E+02 -0.25251995182E+02 -0.95666986713E+01  0.38057166487E+02  0.00000000000E+00 0. -1.
<mgrwt>
<rscale>  0 0.12931293E+03</rscale>
<asrwt>0</asrwt>
<pdfrwt beam="1">  1        1 0.15028043E-01 0.13696025E+03</pdfrwt>
<pdfrwt beam="2">  1       -1 0.35073627E-01 0.13696025E+03</pdfrwt>
<totfact> 0.28004903E+03</totfact>
</mgrwt>
</event>
<event>
 7    1  0.1020736E-005  0.1340267E+03  0.7546771E-02  0.1234313E+00
          1   -1    0    0  501    0  0.00000000000E+00  0.00000000000E+00  0.56213416710E+03  0.56213416710E+03  0.00000000000E+00 0. -1.
         -1   -1    0    0    0  501 -0.00000000000E+00 -0.00000000000E+00 -0.24989799354E+02  0.24989799354E+02  0.00000000000E+00 0.  1.
         23    2    1    2    0    0  0.47398278783E+02 -0.92252170027E+01  0.23786629905E+03  0.25920550312E+03  0.90969308918E+02 0.  0.
          5    1    1    2  502    0  0.35826713790E+01  0.50986356521E+02  0.21384519664E+03  0.21991885370E+03  0.47000000000E+01 0. -1.
         -5    1    1    2    0  502 -0.50980950162E+02 -0.41761139519E+02  0.85432872059E+02  0.10799960964E+03  0.47000000000E+01 0. -1.
        -11    1    3    3    0    0 -0.81863249137E+01 -0.35001214363E+02  0.49854075317E+02  0.61461611988E+02  0.00000000000E+00 0.  1.
         11    1    3    3    0    0  0.55584603696E+02  0.25775997360E+02  0.18801222373E+03  0.19774389113E+03  0.00000000000E+00 0. -1.
<mgrwt>
<rscale>  0 0.12548539E+03</rscale>
<asrwt>0</asrwt>
<pdfrwt beam="1">  1        1 0.86482170E-01 0.13402670E+03</pdfrwt>
<pdfrwt beam="2">  1       -1 0.38445850E-02 0.13402670E+03</pdfrwt>
<totfact> 0.95855608E+03</totfact>
</mgrwt>
</event>
<event>
 7    1  0.1020736E-005  0.1615760E+03  0.7546771E-02  0.1194574E+00
         -1   -1    0    0    0  501 -0.00000000000E+00  0.00000000000E+00  0.35738325950E+03  0.35738325950E+03  0.00000000000E+00 0.  1.
          1   -1    0    0  501    0  0.00000000000E+00 -0.00000000000E+00 -0.62178179685E+02  0.62178179685E+02  0.00000000000E+00 0. -1.
         23    2    1    2    0    0 -0.72099226570E+01 -0.10212801665E+03  0.13076140465E+03  0.18902182103E+03  0.90269535898E+02 0.  0.
          5    1    1    2  502    0  0.23768832071E+02  0.72491313008E+02  0.17797420186E+03  0.19369268021E+03  0.47000000000E+01 0.  1.
         -5    1    1    2    0  502 -0.16558909414E+02  0.29636703642E+02 -0.13530526686E+02  0.36846937948E+02  0.47000000000E+01 0.  1.
        -11    1    3    3    0    0  0.28664681504E+02 -0.69250014609E+02  0.11611748464E+03  0.13820455394E+03  0.00000000000E+00 0.  1.
         11    1    3    3    0    0 -0.35874604161E+02 -0.32878002041E+02  0.14643920005E+02  0.50817267095E+02  0.00000000000E+00 0. -1.
<mgrwt>
<rscale>  0 0.15490350E+03</rscale>
<asrwt>0</asrwt>
<pdfrwt beam="2">  1        1 0.95658740E-02 0.16157597E+03</pdfrwt>
<pdfrwt beam="1">  1       -1 0.54982039E-01 0.16157597E+03</pdfrwt>
<totfact> 0.22883099E+03</totfact>
</mgrwt>
</event>
<event>
 7    1  0.1020736E-005  0.1267562E+03  0.7546771E-02  0.1248933E+00
         -2   -1    0    0    0  501 -0.00000000000E+00  0.00000000000E+00  0.77716023586E+02  0.77716023586E+02  0.00000000000E+00 0.  1.
          2   -1    0    0  501    0  0.00000000000E+00 -0.00000000000E+00 -0.25502073178E+03  0.25502073178E+03  0.00000000000E+00 0. -1.
         23    2    1    2    0    0  0.37749663337E+01  0.60372603029E+01  0.25065069716E+02  0.93946739911E+02  0.90260918106E+02 0.  0.
          5    1    1    2  502    0 -0.82807445527E+01 -0.65127985442E+02 -0.12442665254E+03  0.14076330161E+03  0.47000000000E+01 0. -1.
         -5    1    1    2    0  502  0.45057782189E+01  0.59090725139E+02 -0.77943125372E+02  0.98026713846E+02  0.47000000000E+01 0.  1.
        -11    1    3    3    0    0  0.25709951491E+02  0.35341973758E+02  0.35029423963E+02  0.56009974629E+02  0.00000000000E+00 0. -1.
         11    1    3    3    0    0 -0.21934985157E+02 -0.29304713455E+02 -0.99643542474E+01  0.37936765282E+02  0.00000000000E+00 0.  1.
<mgrwt>
<rscale>  0 0.11653026E+03</rscale>
<asrwt>0</asrwt>
<pdfrwt beam="2">  1        2 0.39233958E-01 0.12675624E+03</pdfrwt>
<pdfrwt beam="1">  1       -2 0.11956311E-01 0.12675624E+03</pdfrwt>
<totfact> 0.61616492E+03</totfact>
</mgrwt>
</event>
<event>
 7    1  0.1020736E-005  0.1733559E+03  0.7546771E-02  0.1180516E+00
         -2   -1    0    0    0  501 -0.00000000000E+00  0.00000000000E+00  0.24612578279E+02  0.24612578279E+02  0.00000000000E+00 0.  1.
          2   -1    0    0  501    0  0.00000000000E+00 -0.00000000000E+00 -0.10949024293E+04  0.10949024293E+04  0.00000000000E+00 0. -1.
         23    2    1    2    0    0  0.69951819390E+02  0.97637114722E+02 -0.41227983376E+03  0.43905232924E+03  0.91465967832E+02 0.  0.
          5    1    1    2  502    0 -0.57143598061E+01  0.24356817869E+02 -0.41326813932E+02  0.48537655840E+02  0.47000000000E+01 0. -1.
         -5    1    1    2    0  502 -0.64237459584E+02 -0.12199393259E+03 -0.61668320335E+03  0.63192502253E+03  0.47000000000E+01 0. -1.
        -11    1    3    3    0    0  0.67756138023E+01  0.57438155876E+02 -0.81712050269E+02  0.10010948932E+03  0.00000000000E+00 0.  1.
         11    1    3    3    0    0  0.63176205587E+02  0.40198958846E+02 -0.33056778350E+03  0.33894283992E+03  0.00000000000E+00 0. -1.
<mgrwt>
<rscale>  0 0.16746632E+03</rscale>
<asrwt>0</asrwt>
<pdfrwt beam="2">  1        2 0.16844650E+00 0.17335592E+03</pdfrwt>
<pdfrwt beam="1">  1       -2 0.37865512E-02 0.17335592E+03</pdfrwt>
<totfact> 0.67512363E+03</totfact>
</mgrwt>
</event>
<event>
 7    1  0.1020736E-005  0.1623077E+03  0.7546771E-02  0.1204822E+00
         -1   -1    0    0    0  501 -0.00000000000E+00  0.00000000000E+00  0.14468118395E+02  0.14468118395E+02  0.00000000000E+00 0.  1.
          1   -1    0    0  501    0  0.00000000000E+00 -0.00000000000E+00 -0.16746740617E+04  0.16746740617E+04  0.00000000000E+00 0. -1.
         23    2    1    2    0    0  0.47627629132E+02  0.28733014960E+02 -0.29038777133E+03  0.30974172884E+03  0.92308740850E+02 0.  0.
          5    1    1    2  502    0  0.28165002045E+02  0.44010999021E+02 -0.62459124486E+03  0.62679067361E+03  0.47000000000E+01 0. -1.
         -5    1    1    2    0  502 -0.75792631178E+02 -0.72744013981E+02 -0.74522692710E+03  0.75260977763E+03  0.47000000000E+01 0.  1.
        -11    1    3    3    0    0  0.38847048427E+02 -0.28515239240E+02 -0.10528049174E+03  0.11578511986E+03  0.00000000000E+00 0. -1.
         11    1    3    3    0    0  0.87805807051E+01  0.57248254201E+02 -0.18510727959E+03  0.19395660897E+03  0.00000000000E+00 0.  1.
<mgrwt>
<rscale>  0 0.14651468E+03</rscale>
<asrwt>0</asrwt>
<pdfrwt beam="2">  1        1 0.25764216E+00 0.16230767E+03</pdfrwt>
<pdfrwt beam="1">  1       -1 0.22258644E-02 0.16230767E+03</pdfrwt>
<totfact> 0.32018774E+03</totfact>
</mgrwt>
</event>
<event>
 6    1  0.1020736E-005  0.4686315E+03  0.7546771E-02  0.1022307E+00
         -1   -1    0    0    0  501 -0.00000000000E+00  0.00000000000E+00  0.86028077658E+02  0.86028077658E+02  0.00000000000E+00 0.  1.
          1   -1    0    0  501    0  0.00000000000E+00 -0.00000000000E+00 -0.63820866066E+03  0.63820866066E+03  0.00000000000E+00 0. -1.
          5    1    1    2  502    0 -0.11956852688E+02 -0.29437140393E+02 -0.23851897949E+03  0.24067177886E+03  0.47000000000E+01 0.  1.
         -5    1    1    2    0  502 -0.24517852362E+02  0.10462400675E+03 -0.31242111576E+03  0.33041844901E+03  0.47000000000E+01 0.  1.
        -11    1    1    2    0    0  0.73461752152E+02 -0.54684224092E+02 -0.36002880135E+02  0.98403255901E+02  0.00000000000E+00 0.  1.
         11    1    1    2    0    0 -0.36987047102E+02 -0.20502642269E+02  0.34762392390E+02  0.54743254544E+02  0.00000000000E+00 0. -1.
<mgrwt>
<rscale>  0 0.46863147E+03</rscale>
<asrwt>0</asrwt>
<pdfrwt beam="2">  1        1 0.98185945E-01 0.46863147E+03</pdfrwt>
<pdfrwt beam="1">  1       -1 0.13235089E-01 0.46863147E+03</pdfrwt>
<totfact> 0.12662224E+03</totfact>
</mgrwt>
</event>
<event>
 7    1  0.1020736E-005  0.1997196E+03  0.7546771E-02  0.1153957E+00
          1   -1    0    0  501    0  0.00000000000E+00  0.00000000000E+00  0.23041803386E+03  0.23041803386E+03  0.00000000000E+00 0. -1.
         -1   -1    0    0    0  501 -0.00000000000E+00 -0.00000000000E+00 -0.21171588133E+03  0.21171588133E+03  0.00000000000E+00 0.  1.
         23    2    1    2    0    0  0.11626150962E+03 -0.10366501436E+03 -0.10231226797E+03  0.20861214369E+03  0.93744613162E+02 0.  0.
          5    1    1    2  502    0 -0.57403082351E+02  0.12422809205E+03  0.88606466421E+02  0.16309791111E+03  0.47000000000E+01 0.  1.
         -5    1    1    2    0  502 -0.58858427268E+02 -0.20563077691E+02  0.32407954087E+02  0.70423860393E+02  0.47000000000E+01 0.  1.
        -11    1    3    3    0    0  0.46725476371E+02 -0.79527852824E+02 -0.98444200000E+02  0.13490444778E+03  0.00000000000E+00 0. -1.
         11    1    3    3    0    0  0.69536033249E+02 -0.24137161532E+02 -0.38680679733E+01  0.73707695912E+02  0.00000000000E+00 0.  1.
<mgrwt>
<rscale>  0 0.19508056E+03</rscale>
<asrwt>0</asrwt>
<pdfrwt beam="1">  1        1 0.35448928E-01 0.19971962E+03</pdfrwt>
<pdfrwt beam="2">  1       -1 0.32571674E-01 0.19971962E+03</pdfrwt>
<totfact> 0.10824157E+03</totfact>
</mgrwt>
</event>
<event>
 7    1  0.1020736E-005  0.1429640E+03  0.7546771E-02  0.1219723E+00
          4   -1    0    0  501    0  0.00000000000E+00  0.00000000000E+00  0.78289553896E+02  0.78289553896E+02  0.00000000000E+00 0. -1.
         -4   -1    0    0    0  501 -0.00000000000E+00 -0.00000000000E+00 -0.21415794987E+03  0.21415794987E+03  0.00000000000E+00 0.  1.
         23    2    1    2    0    0 -0.61696832727E+02  0.31784318449E+02 -0.46965816320E+02  0.12409556379E+03  0.91526930359E+02 0.  0.
          5    1    1    2  502    0 -0.32496273671E+02 -0.25699508787E+02 -0.50361277533E+01  0.41999108766E+02  0.47000000000E+01 0.  1.
         -5    1    1    2    0  502  0.94193106398E+02 -0.60848096623E+01 -0.83866451904E+02  0.12635283122E+03  0.47000000000E+01 0.  1.
        -11    1    3    3    0    0 -0.35733512626E+02  0.63082587642E+02 -0.19678852008E+02  0.75123591532E+02  0.00000000000E+00 0.  1.
         11    1    3    3    0    0 -0.25963320100E+02 -0.31298269193E+02 -0.27286964312E+02  0.48971972254E+02  0.00000000000E+00 0. -1.
<mgrwt>
<rscale>  0 0.13535265E+03</rscale>
<asrwt>0</asrwt>
<pdfrwt beam="1">  1        4 0.12044547E-01 0.14296401E+03</pdfrwt>
<pdfrwt beam="2">  1       -4 0.32947377E-01 0.14296401E+03</pdfrwt>
<totfact> 0.81972662E+02</totfact>
</mgrwt>
</event>
<event>
 7    1  0.1020736E-005  0.1255225E+03  0.7546771E-02  0.1249630E+00
          1   -1    0    0  501    0  0.00000000000E+00  0.00000000000E+00  0.10292853432E+03  0.10292853432E+03  0.00000000000E+00 0. -1.
         -1   -1    0    0    0  501 -0.00000000000E+00 -0.00000000000E+00 -0.11785858103E+03  0.11785858103E+03  0.00000000000E+00 0.  1.
         23    2    1    2    0    0 -0.83475327097E+01  0.78458582806E+01 -0.23720169348E+02  0.94957168777E+02  0.91230360483E+02 0.  0.
          5    1    1    2  502    0  0.97847003440E+01  0.26447489001E+02 -0.49997470254E+02  0.57593811013E+02  0.47000000000E+01 0. -1.
         -5    1    1    2    0  502 -0.14371676344E+01 -0.34293347281E+02  0.58787592886E+02  0.68236135558E+02  0.47000000000E+01 0. -1.
        -11    1    3    3    0    0  0.18258370221E+02 -0.33718000122E+02 -0.24675758380E+02  0.45597858141E+02  0.00000000000E+00 0. -1.
         11    1    3    3    0    0 -0.26605902931E+02  0.41563858403E+02  0.95558903184E+00  0.49359310637E+02  0.00000000000E+00 0.  1.
<mgrwt>
<rscale>  0 0.11612493E+03</rscale>
<asrwt>0</asrwt>
<pdfrwt beam="1">  1        1 0.15835159E-01 0.12552254E+03</pdfrwt>
<pdfrwt beam="2">  1       -1 0.18132089E-01 0.12552254E+03</pdfrwt>
<totfact> 0.77125347E+03</totfact>
</mgrwt>
</event>
<event>
 7    1  0.1020736E-005  0.1591037E+03  0.7546771E-02  0.1197463E+00
          1   -1    0    0  501    0  0.00000000000E+00  0.00000000000E+00  0.17156326743E+03  0.17156326743E+03  0.00000000000E+00 0.  1.
         -1   -1    0    0    0  501 -0.00000000000E+00 -0.00000000000E+00 -0.13960051938E+03  0.13960051938E+03  0.00000000000E+00 0. -1.
         23    2    1    2    0    0 -0.93995333287E+02  0.29204679315E+02 -0.34765484895E+02  0.13863368455E+03  0.91228414319E+02 0.  0.
          5    1    1    2  502    0  0.49033255648E+00  0.32611802126E+02  0.48849237033E+02  0.58924596076E+02  0.47000000000E+01 0.  1.
         -5    1    1    2    0  502  0.93505000731E+02 -0.61816481441E+02  0.17878995915E+02  0.11360550618E+03  0.47000000000E+01 0.  1.
        -11    1    3    3    0    0 -0.56674620859E+02  0.63530270342E+01  0.26870235333E+02  0.63042708927E+02  0.00000000000E+00 0.  1.
         11    1    3    3    0    0 -0.37320712429E+02  0.22851652281E+02 -0.61635720228E+02  0.75590975626E+02  0.00000000000E+00 0. -1.
<mgrwt>
<rscale>  0 0.15247595E+03</rscale>
<asrwt>0</asrwt>
<pdfrwt beam="1">  1        1 0.26394349E-01 0.15910367E+03</pdfrwt>
<pdfrwt beam="2">  1       -1 0.21477003E-01 0.15910367E+03</pdfrwt>
<totfact> 0.31142860E+03</totfact>
</mgrwt>
</event>
<event>
 7    1  0.1020736E-005  0.1257013E+03  0.7546771E-02  0.1252808E+00
          3   -1    0    0  501    0  0.00000000000E+00  0.00000000000E+00  0.20814756377E+02  0.20814756377E+02  0.00000000000E+00 0. -1.
         -3   -1    0    0    0  501 -0.00000000000E+00 -0.00000000000E+00 -0.56960767048E+03  0.56960767048E+03  0.00000000000E+00 0.  1.
         23    2    1    2    0    0 -0.10913034475E+02 -0.77403087744E+01 -0.29412216748E+03  0.30641888748E+03  0.84886268021E+02 0.  0.
          5    1    1    2  502    0  0.67164415600E+02  0.14330332156E+02 -0.14276875661E+03  0.15849739747E+03  0.47000000000E+01 0.  1.
         -5    1    1    2    0  502 -0.56251381125E+02 -0.65900233813E+01 -0.11190199001E+03  0.12550614190E+03  0.47000000000E+01 0.  1.
        -11    1    3    3    0    0 -0.46017854404E+02 -0.14790492585E+02 -0.13726464341E+03  0.14552657463E+03  0.00000000000E+00 0.  1.
         11    1    3    3    0    0  0.35104819929E+02  0.70501838109E+01 -0.15685752408E+03  0.16089231285E+03  0.00000000000E+00 0. -1.
<mgrwt>
<rscale>  0 0.11430004E+03</rscale>
<asrwt>0</asrwt>
<pdfrwt beam="1">  1        3 0.32022709E-02 0.12570132E+03</pdfrwt>
<pdfrwt beam="2">  1       -3 0.87631929E-01 0.12570132E+03</pdfrwt>
<totfact> 0.12761314E+03</totfact>
</mgrwt>
</event>
<event>
 7    1  0.1020736E-005  0.3080851E+03  0.7546771E-02  0.1082748E+00
         -3   -1    0    0    0  501 -0.00000000000E+00  0.00000000000E+00  0.30549458968E+03  0.30549458968E+03  0.00000000000E+00 0.  1.
          3   -1    0    0  501    0  0.00000000000E+00 -0.00000000000E+00 -0.30373956465E+03  0.30373956465E+03  0.00000000000E+00 0. -1.
         23    2    1    2    0    0  0.19725391337E+03  0.20095246913E+03  0.40044075421E+02  0.29877887156E+03  0.91511119126E+02 0.  0.
          5    1    1    2  502    0 -0.12002199319E+03 -0.19291127254E+03 -0.93044093601E+01  0.22743944239E+03  0.47000000000E+01 0.  1.
         -5    1    1    2    0  502 -0.77231920186E+02 -0.80411965958E+01 -0.28984641025E+02  0.83015840378E+02  0.47000000000E+01 0.  1.
        -11    1    3    3    0    0  0.74877724637E+02  0.26666367146E+02 -0.97375756858E+01  0.80078643619E+02  0.00000000000E+00 0.  1.
         11    1    3    3    0    0  0.12237618874E+03  0.17428610199E+03  0.49781651107E+02  0.21870022794E+03  0.00000000000E+00 0. -1.
<mgrwt>
<rscale>  0 0.30503978E+03</rscale>
<asrwt>0</asrwt>
<pdfrwt beam="2">  1        3 0.46729164E-01 0.30808510E+03</pdfrwt>
<pdfrwt beam="1">  1       -3 0.46999167E-01 0.30808510E+03</pdfrwt>
<totfact> 0.52044492E+01</totfact>
</mgrwt>
</event>
<event>
 7    1  0.1020736E-005  0.1651763E+03  0.7546771E-02  0.1190389E+00
          2   -1    0    0  501    0  0.00000000000E+00  0.00000000000E+00  0.49621081375E+03  0.49621081375E+03  0.00000000000E+00 0.  1.
         -2   -1    0    0    0  501 -0.00000000000E+00 -0.00000000000E+00 -0.46949045302E+02  0.46949045302E+02  0.00000000000E+00 0. -1.
         23    2    1    2    0    0 -0.16586124127E+02  0.10668764747E+03  0.20482782283E+03  0.24814939865E+03  0.89254318736E+02 0.  0.
          5    1    1    2  502    0  0.30457185904E+01 -0.12742477593E+03  0.14819803773E+03  0.19552774307E+03  0.47000000000E+01 0. -1.
         -5    1    1    2    0  502  0.13540405537E+02  0.20737128468E+02  0.96235907886E+02  0.99482717323E+02  0.47000000000E+01 0. -1.
        -11    1    3    3    0    0  0.34765513335E+02  0.52215010099E+02  0.11691859334E+03  0.13268385608E+03  0.00000000000E+00 0. -1.
         11    1    3    3    0    0 -0.51351637463E+02  0.54472637366E+02  0.87909229489E+02  0.11546554257E+03  0.00000000000E+00 0.  1.
<mgrwt>
<rscale>  0 0.15851064E+03</rscale>
<asrwt>0</asrwt>
<pdfrwt beam="1">  1        2 0.76340122E-01 0.16517632E+03</pdfrwt>
<pdfrwt beam="2">  1       -2 0.72229304E-02 0.16517632E+03</pdfrwt>
<totfact> 0.67571766E+03</totfact>
</mgrwt>
</event>
<event>
 7    1  0.1020736E-005  0.1291528E+03  0.7546771E-02  0.1242731E+00
          2   -1    0    0  501    0  0.00000000000E+00  0.00000000000E+00  0.12949458706E+03  0.12949458706E+03  0.00000000000E+00 0. -1.
         -2   -1    0    0    0  501 -0.00000000000E+00 -0.00000000000E+00 -0.10160192816E+03  0.10160192816E+03  0.00000000000E+00 0.  1.
         23    2    1    2    0    0  0.14360431330E+02 -0.29143156609E+02 -0.72807384161E+01  0.97239860695E+02  0.91362113542E+02 0.  0.
          5    1    1    2  502    0  0.15675400208E+02  0.50355955645E+02  0.66722261609E+02  0.85178580846E+02  0.47000000000E+01 0. -1.
         -5    1    1    2    0  502 -0.30035831539E+02 -0.21212799036E+02 -0.31548864286E+02  0.48678073677E+02  0.47000000000E+01 0. -1.
        -11    1    3    3    0    0  0.34741115194E+02 -0.43808890678E+02 -0.29935255843E+02  0.63421475304E+02  0.00000000000E+00 0.  1.
         11    1    3    3    0    0 -0.20380683864E+02  0.14665734070E+02  0.22654517427E+02  0.33818385390E+02  0.00000000000E+00 0. -1.
<mgrwt>
<rscale>  0 0.12022192E+03</rscale>
<asrwt>0</asrwt>
<pdfrwt beam="1">  1        2 0.19922244E-01 0.12915276E+03</pdfrwt>
<pdfrwt beam="2">  1       -2 0.15631066E-01 0.12915276E+03</pdfrwt>
<totfact> 0.83814402E+03</totfact>
</mgrwt>
</event>
<event>
 7    1  0.1020736E-005  0.1352616E+03  0.7546771E-02  0.1231441E+00
          2   -1    0    0  501    0  0.00000000000E+00  0.00000000000E+00  0.25606072802E+03  0.25606072802E+03  0.00000000000E+00 0. -1.
         -2   -1    0    0    0  501 -0.00000000000E+00 -0.00000000000E+00 -0.62489157295E+02  0.62489157295E+02  0.00000000000E+00 0.  1.
         23    2    1    2    0    0  0.50604171418E+02  0.10984192783E+02  0.39156464177E+02  0.11327027249E+03  0.92819670800E+02 0.  0.
          5    1    1    2  502    0 -0.19116640340E+02  0.25842649274E+02 -0.98548067826E+01  0.33948426710E+02  0.47000000000E+01 0. -1.
         -5    1    1    2    0  502 -0.31487531078E+02 -0.36826842057E+02  0.16426991333E+03  0.17133118611E+03  0.47000000000E+01 0. -1.
        -11    1    3    3    0    0  0.43938401866E+02 -0.60757564409E+01  0.66754280789E+02  0.80147563771E+02  0.00000000000E+00 0. -1.
         11    1    3    3    0    0  0.66657695513E+01  0.17059949224E+02 -0.27597816611E+02  0.33122708720E+02  0.00000000000E+00 0.  1.
<mgrwt>
<rscale>  0 0.12735056E+03</rscale>
<asrwt>0</asrwt>
<pdfrwt beam="1">  1        2 0.39393958E-01 0.13526158E+03</pdfrwt>
<pdfrwt beam="2">  1       -2 0.96137167E-02 0.13526158E+03</pdfrwt>
<totfact> 0.86966735E+03</totfact>
</mgrwt>
</event>
<event>
 7    1  0.1142358E-005  0.1267176E+03  0.7546771E-02  0.1249405E+00
          1   -1    0    0  501    0  0.00000000000E+00  0.00000000000E+00  0.38280272141E+02  0.38280272141E+02  0.00000000000E+00 0. -1.
         -1   -1    0    0    0  501 -0.00000000000E+00 -0.00000000000E+00 -0.33043197193E+03  0.33043197193E+03  0.00000000000E+00 0.  1.
         23    2    1    2    0    0 -0.19058561639E+02 -0.83042133577E+01 -0.17234751427E+03  0.19432647881E+03  0.87332273305E+02 0.  0.
          5    1    1    2  502    0 -0.36003966328E+02  0.32528430419E+02 -0.99364808366E+02  0.11067899312E+03  0.47000000000E+01 0. -1.
         -5    1    1    2    0  502  0.55062527967E+02 -0.24224217062E+02 -0.20439377159E+02  0.63706772144E+02  0.47000000000E+01 0. -1.
        -11    1    3    3    0    0 -0.49847509919E+02  0.12138963394E+02 -0.82192899987E+02  0.96890667692E+02  0.00000000000E+00 0. -1.
         11    1    3    3    0    0  0.30788948280E+02 -0.20443176752E+02 -0.90154614279E+02  0.97435811116E+02  0.00000000000E+00 0.  1.
<mgrwt>
<rscale>  0 0.11625554E+03</rscale>
<asrwt>0</asrwt>
<pdfrwt beam="1">  1        1 0.58892725E-02 0.12671761E+03</pdfrwt>
<pdfrwt beam="2">  1       -1 0.50835689E-01 0.12671761E+03</pdfrwt>
<totfact> 0.50142145E+03</totfact>
</mgrwt>
</event>
<event>
 7    1  0.1020736E-005  0.1335863E+03  0.7546771E-02  0.1233482E+00
         -4   -1    0    0    0  501 -0.00000000000E+00  0.00000000000E+00  0.40419253888E+02  0.40419253888E+02  0.00000000000E+00 0.  1.
          4   -1    0    0  501    0  0.00000000000E+00 -0.00000000000E+00 -0.37266909765E+03  0.37266909765E+03  0.00000000000E+00 0. -1.
         23    2    1    2    0    0 -0.36865696925E+02 -0.29359398736E+02 -0.10240985290E+03  0.14724680774E+03  0.94724814675E+02 0.  0.
          5    1    1    2  502    0 -0.59406565813E+01  0.65534496626E+02 -0.69049227746E+02  0.95498416222E+02  0.47000000000E+01 0.  1.
         -5    1    1    2    0  502  0.42806353507E+02 -0.36175097890E+02 -0.16079076312E+03  0.17034312758E+03  0.47000000000E+01 0.  1.
        -11    1    3    3    0    0  0.29207554342E+02 -0.14893949992E+02 -0.13315796663E+02  0.35386740706E+02  0.00000000000E+00 0. -1.
         11    1    3    3    0    0 -0.66073251268E+02 -0.14465448744E+02 -0.89094056236E+02  0.11186006703E+03  0.00000000000E+00 0.  1.
<mgrwt>
<rscale>  0 0.12602128E+03</rscale>
<asrwt>0</asrwt>
<pdfrwt beam="2">  1        4 0.57333707E-01 0.13358632E+03</pdfrwt>
<pdfrwt beam="1">  1       -4 0.62183468E-02 0.13358632E+03</pdfrwt>
<totfact> 0.80656000E+02</totfact>
</mgrwt>
</event>
<event>
 7    1  0.1020736E-005  0.1477643E+03  0.7546771E-02  0.1212915E+00
          1   -1    0    0  501    0  0.00000000000E+00  0.00000000000E+00  0.17247392644E+03  0.17247392644E+03  0.00000000000E+00 0. -1.
         -1   -1    0    0    0  501 -0.00000000000E+00 -0.00000000000E+00 -0.10726398196E+03  0.10726398196E+03  0.00000000000E+00 0.  1.
         23    2    1    2    0    0  0.35733315307E+02  0.70220590281E+02  0.51426071205E+01  0.12023125510E+03  0.90671424238E+02 0.  0.
          5    1    1    2  502    0  0.30286264234E+02 -0.11493729915E+02 -0.21499860698E+02  0.39162451898E+02  0.47000000000E+01 0.  1.
         -5    1    1    2    0  502 -0.66019579541E+02 -0.58726860366E+02  0.81567198061E+02  0.12034420140E+03  0.47000000000E+01 0.  1.
        -11    1    3    3    0    0  0.60211784678E+01  0.82459121996E+02  0.19638437472E+02  0.84978995151E+02  0.00000000000E+00 0.  1.
         11    1    3    3    0    0  0.29712136839E+02 -0.12238531716E+02 -0.14495830351E+02  0.35252259951E+02  0.00000000000E+00 0. -1.
<mgrwt>
<rscale>  0 0.14030788E+03</rscale>
<asrwt>0</asrwt>
<pdfrwt beam="1">  1        1 0.26534450E-01 0.14776430E+03</pdfrwt>
<pdfrwt beam="2">  1       -1 0.16502151E-01 0.14776430E+03</pdfrwt>
<totfact> 0.46999249E+03</totfact>
</mgrwt>
</event>
<event>
 7    1  0.1020736E-005  0.1333993E+03  0.7546771E-02  0.1233806E+00
          1   -1    0    0  501    0  0.00000000000E+00  0.00000000000E+00  0.55674901435E+03  0.55674901435E+03  0.00000000000E+00 0. -1.
         -1   -1    0    0    0  501 -0.00000000000E+00 -0.00000000000E+00 -0.26393421011E+02  0.26393421011E+02  0.00000000000E+00 0.  1.
         23    2    1    2    0    0  0.44601110546E+02 -0.13431097351E+02  0.18610145875E+03  0.21394564323E+03  0.94706556637E+02 0.  0.
          5    1    1    2  502    0 -0.82025335010E+02 -0.17121927311E+02  0.19643919141E+03  0.21361592145E+03  0.47000000000E+01 0. -1.
         -5    1    1    2    0  502  0.37424224464E+02  0.30553024661E+02  0.14781494318E+03  0.15558087068E+03  0.47000000000E+01 0. -1.
        -11    1    3    3    0    0  0.98293806771E+01 -0.32170687638E+02  0.16647284432E+03  0.16983750399E+03  0.00000000000E+00 0. -1.
         11    1    3    3    0    0  0.34771729869E+02  0.18739590287E+02  0.19628614429E+02  0.44108139233E+02  0.00000000000E+00 0.  1.
<mgrwt>
<rscale>  0 0.12581162E+03</rscale>
<asrwt>0</asrwt>
<pdfrwt beam="1">  1        1 0.85653686E-01 0.13339926E+03</pdfrwt>
<pdfrwt beam="2">  1       -1 0.40605267E-02 0.13339926E+03</pdfrwt>
<totfact> 0.89588453E+03</totfact>
</mgrwt>
</event>
<event>
 7    1  0.1020736E-005  0.1444899E+03  0.7546771E-02  0.1218108E+00
          4   -1    0    0  501    0  0.00000000000E+00  0.00000000000E+00  0.20593836982E+03  0.20593836982E+03  0.00000000000E+00 0. -1.
         -4   -1    0    0    0  501 -0.00000000000E+00 -0.00000000000E+00 -0.10797503371E+03  0.10797503371E+03  0.00000000000E+00 0.  1.
         23    2    1    2    0    0  0.12892268434E+02  0.71314523819E+02 -0.32106259528E+02  0.11950294458E+03  0.89432488337E+02 0.  0.
          5    1    1    2  502    0  0.41582364205E+02 -0.72000935691E+02  0.49004072240E+02  0.96626688081E+02  0.47000000000E+01 0. -1.
         -5    1    1    2    0  502 -0.54474632638E+02  0.68641187282E+00  0.81065523398E+02  0.97783770873E+02  0.47000000000E+01 0. -1.
        -11    1    3    3    0    0 -0.94250030137E+01  0.30936242829E+02  0.28656870324E+02  0.43209929633E+02  0.00000000000E+00 0. -1.
         11    1    3    3    0    0  0.22317271447E+02  0.40378280990E+02 -0.60763129852E+02  0.76293014949E+02  0.00000000000E+00 0.  1.
<mgrwt>
<rscale>  0 0.13650723E+03</rscale>
<asrwt>0</asrwt>
<pdfrwt beam="1">  1        4 0.31682826E-01 0.14448988E+03</pdfrwt>
<pdfrwt beam="2">  1       -4 0.16611544E-01 0.14448988E+03</pdfrwt>
<totfact> 0.50615892E+02</totfact>
</mgrwt>
</event>
<event>
 7    1  0.1020736E-005  0.1341722E+03  0.7546771E-02  0.1233493E+00
          2   -1    0    0  501    0  0.00000000000E+00  0.00000000000E+00  0.12625852584E+03  0.12625852584E+03  0.00000000000E+00 0. -1.
         -2   -1    0    0    0  501 -0.00000000000E+00 -0.00000000000E+00 -0.15392330463E+03  0.15392330463E+03  0.00000000000E+00 0.  1.
         23    2    1    2    0    0 -0.28400902254E+02  0.39634079463E+02 -0.84655194986E+02  0.13440772085E+03  0.92311764597E+02 0.  0.
          5    1    1    2  502    0 -0.25318763993E+02 -0.33292405927E+02 -0.23861289352E+02  0.48382592242E+02  0.47000000000E+01 0.  1.
         -5    1    1    2    0  502  0.53719666247E+02 -0.63416735362E+01  0.80851705554E+02  0.97391517372E+02  0.47000000000E+01 0.  1.
        -11    1    3    3    0    0 -0.38099811295E+02  0.17513622846E+02 -0.98155722970E+02  0.10673738126E+03  0.00000000000E+00 0.  1.
         11    1    3    3    0    0  0.96989090404E+01  0.22120456617E+02  0.13500527984E+02  0.27670339596E+02  0.00000000000E+00 0. -1.
<mgrwt>
<rscale>  0 0.12601433E+03</rscale>
<asrwt>0</asrwt>
<pdfrwt beam="1">  1        2 0.19424389E-01 0.13417222E+03</pdfrwt>
<pdfrwt beam="2">  1       -2 0.23680508E-01 0.13417222E+03</pdfrwt>
<totfact> 0.42977134E+03</totfact>
</mgrwt>
</event>
<event>
 7    1  0.1020736E-005  0.1324711E+03  0.7546771E-02  0.1237124E+00
          1   -1    0    0  501    0  0.00000000000E+00  0.00000000000E+00  0.18954719134E+03  0.18954719134E+03  0.00000000000E+00 0. -1.
         -1   -1    0    0    0  501 -0.00000000000E+00 -0.00000000000E+00 -0.77328825471E+02  0.77328825471E+02  0.00000000000E+00 0.  1.
         23    2    1    2    0    0 -0.27322793666E+02  0.34888416369E+02  0.13358667715E+02  0.10158285562E+03  0.90426135061E+02 0.  0.
          5    1    1    2  502    0 -0.46556280858E+02 -0.34210650566E+02  0.50393773572E+02  0.76808061519E+02  0.47000000000E+01 0.  1.
         -5    1    1    2    0  502  0.73879074523E+02 -0.67776580274E+00  0.48465924588E+02  0.88485099678E+02  0.47000000000E+01 0.  1.
        -11    1    3    3    0    0 -0.10491649893E+02 -0.12653241696E+02 -0.30564691885E+02  0.34704173134E+02  0.00000000000E+00 0.  1.
         11    1    3    3    0    0 -0.16831143773E+02  0.47541658064E+02  0.43923359600E+02  0.66878682484E+02  0.00000000000E+00 0. -1.
<mgrwt>
<rscale>  0 0.12369408E+03</rscale>
<asrwt>0</asrwt>
<pdfrwt beam="1">  1        1 0.29161106E-01 0.13247109E+03</pdfrwt>
<pdfrwt beam="2">  1       -1 0.11896742E-01 0.13247109E+03</pdfrwt>
<totfact> 0.69138592E+03</totfact>
</mgrwt>
</event>
<event>
 7    1  0.1020736E-005  0.1840140E+03  0.7546771E-02  0.1169450E+00
         -1   -1    0    0    0  501 -0.00000000000E+00  0.00000000000E+00  0.65963163738E+03  0.65963163738E+03  0.00000000000E+00 0.  1.
          1   -1    0    0  501    0  0.00000000000E+00 -0.00000000000E+00 -0.46126157613E+02  0.46126157613E+02  0.00000000000E+00 0. -1.
         23    2    1    2    0    0 -0.68181756130E+02 -0.11655946925E+03  0.24469251083E+03  0.29358772025E+03  0.89913641277E+02 0.  0.
          5    1    1    2  502    0 -0.33194807283E+02  0.33890971312E+02  0.14786877344E+03  0.15536330752E+03  0.47000000000E+01 0.  1.
         -5    1    1    2    0  502  0.10137656341E+03  0.82668497941E+02  0.22094419551E+03  0.25680676722E+03  0.47000000000E+01 0.  1.
        -11    1    3    3    0    0 -0.75453090040E+02 -0.89850728839E+02  0.23763383795E+03  0.26502106182E+03  0.00000000000E+00 0.  1.
         11    1    3    3    0    0  0.72713339102E+01 -0.26708740414E+02  0.70586728777E+01  0.28566658434E+02  0.00000000000E+00 0. -1.
<mgrwt>
<rscale>  0 0.17830871E+03</rscale>
<asrwt>0</asrwt>
<pdfrwt beam="2">  1        1 0.70963324E-02 0.18401403E+03</pdfrwt>
<pdfrwt beam="1">  1       -1 0.10148178E+00 0.18401403E+03</pdfrwt>
<totfact> 0.99137090E+02</totfact>
</mgrwt>
</event>
<event>
 7    1  0.1020736E-005  0.1415956E+03  0.7546771E-02  0.1219868E+00
          2   -1    0    0  501    0  0.00000000000E+00  0.00000000000E+00  0.26751145734E+04  0.26751145734E+04  0.00000000000E+00 0. -1.
         -2   -1    0    0    0  501 -0.00000000000E+00 -0.00000000000E+00 -0.11483184323E+02  0.11483184323E+02  0.00000000000E+00 0.  1.
         23    2    1    2    0    0  0.31098793073E+02  0.66509296618E+02  0.36392630921E+03  0.38253769376E+03  0.92206871483E+02 0.  0.
          5    1    1    2  502    0 -0.64487402194E+02 -0.82012274734E+02  0.17231174903E+04  0.17262794135E+04  0.47000000000E+01 0. -1.
         -5    1    1    2    0  502  0.33388609121E+02  0.15502978116E+02  0.57658758956E+03  0.57778065040E+03  0.47000000000E+01 0.  1.
        -11    1    3    3    0    0 -0.16447491365E+02  0.67885055522E+02  0.23266625919E+03  0.24292486266E+03  0.00000000000E+00 0.  1.
         11    1    3    3    0    0  0.47546284439E+02 -0.13757589044E+01  0.13126005002E+03  0.13961283110E+03  0.00000000000E+00 0. -1.
<mgrwt>
<rscale>  0 0.13524955E+03</rscale>
<asrwt>0</asrwt>
<pdfrwt beam="1">  1        2 0.41155559E+00 0.14159564E+03</pdfrwt>
<pdfrwt beam="2">  1       -2 0.17666459E-02 0.14159564E+03</pdfrwt>
<totfact> 0.30084226E+03</totfact>
</mgrwt>
</event>
<event>
 7    1  0.1020736E-005  0.1384188E+03  0.7546771E-02  0.1226698E+00
          1   -1    0    0  501    0  0.00000000000E+00  0.00000000000E+00  0.10907474486E+04  0.10907474486E+04  0.00000000000E+00 0. -1.
         -1   -1    0    0    0  501 -0.00000000000E+00 -0.00000000000E+00 -0.14469055487E+02  0.14469055487E+02  0.00000000000E+00 0.  1.
         23    2    1    2    0    0 -0.56316476923E+02 -0.19071603862E+02  0.38636718991E+03  0.40155661768E+03  0.91830496691E+02 0.  0.
          5    1    1    2  502    0 -0.37194425161E+02 -0.39391930081E+00  0.11813899217E+03  0.12394551991E+03  0.47000000000E+01 0. -1.
         -5    1    1    2    0  502  0.93510902085E+02  0.19465523163E+02  0.57177221100E+03  0.57971436645E+03  0.47000000000E+01 0. -1.
        -11    1    3    3    0    0 -0.36785453119E+02 -0.48239503360E+02  0.32706697984E+03  0.33264549982E+03  0.00000000000E+00 0. -1.
         11    1    3    3    0    0 -0.19531023804E+02  0.29167899498E+02  0.59300210064E+02  0.68911117867E+02  0.00000000000E+00 0.  1.
<mgrwt>
<rscale>  0 0.13051173E+03</rscale>
<asrwt>0</asrwt>
<pdfrwt beam="1">  1        1 0.16780723E+00 0.13841881E+03</pdfrwt>
<pdfrwt beam="2">  1       -1 0.22260094E-02 0.13841881E+03</pdfrwt>
<totfact> 0.77974090E+03</totfact>
</mgrwt>
</event>
<event>
 7    1  0.1020736E-005  0.1513671E+03  0.7546771E-02  0.1209886E+00
         -1   -1    0    0    0  501 -0.00000000000E+00  0.00000000000E+00  0.11435021045E+02  0.11435021045E+02  0.00000000000E+00 0.  1.
          1   -1    0    0  501    0  0.00000000000E+00 -0.00000000000E+00 -0.17300169098E+04  0.17300169098E+04  0.00000000000E+00 0. -1.
         23    2    1    2    0    0  0.71534583463E+02  0.46572547187E+02 -0.52804641618E+03  0.54133247578E+03  0.83196351568E+02 0.  0.
          5    1    1    2  502    0 -0.30617424507E+02 -0.41511102058E+02 -0.14878000054E+03  0.15753785843E+03  0.47000000000E+01 0.  1.
         -5    1    1    2    0  502 -0.40917158956E+02 -0.50614451288E+01 -0.10417554720E+04  0.10425815966E+04  0.47000000000E+01 0.  1.
        -11    1    3    3    0    0  0.56390837418E+02 -0.11126181999E+02 -0.20912593854E+03  0.21688101955E+03  0.00000000000E+00 0. -1.
         11    1    3    3    0    0  0.15143746045E+02  0.57698729186E+02 -0.31892047764E+03  0.32445145624E+03  0.00000000000E+00 0.  1.
<mgrwt>
<rscale>  0 0.14259016E+03</rscale>
<asrwt>0</asrwt>
<pdfrwt beam="2">  1        1 0.26615645E+00 0.15136709E+03</pdfrwt>
<pdfrwt beam="1">  1       -1 0.17592340E-02 0.15136709E+03</pdfrwt>
<totfact> 0.41430590E+03</totfact>
</mgrwt>
</event>
<event>
 7    1  0.1020736E-005  0.1563057E+03  0.7546771E-02  0.1201255E+00
          1   -1    0    0  501    0  0.00000000000E+00  0.00000000000E+00  0.15242949852E+03  0.15242949852E+03  0.00000000000E+00 0. -1.
         -1   -1    0    0    0  501 -0.00000000000E+00 -0.00000000000E+00 -0.19412010917E+03  0.19412010917E+03  0.00000000000E+00 0.  1.
         23    2    1    2    0    0 -0.63862292376E+02 -0.68757407805E+02 -0.11507915656E+03  0.17387260497E+03  0.90457155431E+02 0.  0.
          5    1    1    2  502    0 -0.34955081087E+02  0.45742497427E+01  0.38435473351E+01  0.35772116384E+02  0.47000000000E+01 0.  1.
         -5    1    1    2    0  502  0.98817373463E+02  0.64183158063E+02  0.69544998569E+02  0.13690488634E+03  0.47000000000E+01 0.  1.
        -11    1    3    3    0    0 -0.19867380284E+02  0.20194271439E+02 -0.41872771652E+02  0.50555419137E+02  0.00000000000E+00 0. -1.
         11    1    3    3    0    0 -0.43994912092E+02 -0.88951679244E+02 -0.73206384905E+02  0.12331718583E+03  0.00000000000E+00 0.  1.
<mgrwt>
<rscale>  0 0.14936553E+03</rscale>
<asrwt>0</asrwt>
<pdfrwt beam="1">  1        1 0.23450692E-01 0.15630569E+03</pdfrwt>
<pdfrwt beam="2">  1       -1 0.29864632E-01 0.15630569E+03</pdfrwt>
<totfact> 0.20951607E+03</totfact>
</mgrwt>
</event>
<event>
 7    1  0.1020736E-005  0.2745854E+03  0.7546771E-02  0.1100763E+00
          2   -1    0    0  501    0  0.00000000000E+00  0.00000000000E+00  0.32324687133E+03  0.32324687133E+03  0.00000000000E+00 0. -1.
         -2   -1    0    0    0  501 -0.00000000000E+00 -0.00000000000E+00 -0.22520260062E+03  0.22520260062E+03  0.00000000000E+00 0.  1.
         23    2    1    2    0    0  0.19214152523E+03  0.15117469395E+03  0.10974522717E+02  0.26038991765E+03  0.88939953116E+02 0.  0.
          5    1    1    2  502    0  0.19337062410E+01 -0.37459939893E+02  0.45688861261E+02  0.59300492071E+02  0.47000000000E+01 0. -1.
         -5    1    1    2    0  502 -0.19407523147E+03 -0.11371475405E+03  0.41380886734E+02  0.22875906222E+03  0.47000000000E+01 0. -1.
        -11    1    3    3    0    0  0.16973250797E+03  0.84152840757E+02  0.10046306936E+02  0.18971492601E+03  0.00000000000E+00 0.  1.
         11    1    3    3    0    0  0.22409017265E+02  0.67021853189E+02  0.92821578079E+00  0.70674991646E+02  0.00000000000E+00 0. -1.
<mgrwt>
<rscale>  0 0.27090540E+03</rscale>
<asrwt>0</asrwt>
<pdfrwt beam="1">  1        2 0.49730288E-01 0.27458544E+03</pdfrwt>
<pdfrwt beam="2">  1       -2 0.34646554E-01 0.27458544E+03</pdfrwt>
<totfact> 0.79117883E+02</totfact>
</mgrwt>
</event>
<event>
 7    1  0.1020736E-005  0.1359787E+03  0.7546771E-02  0.1231857E+00
          1   -1    0    0  501    0  0.00000000000E+00  0.00000000000E+00  0.69714088968E+03  0.69714088968E+03  0.00000000000E+00 0. -1.
         -1   -1    0    0    0  501 -0.00000000000E+00 -0.00000000000E+00 -0.21144643350E+02  0.21144643350E+02  0.00000000000E+00 0.  1.
         23    2    1    2    0    0  0.50519687400E+02 -0.17692776023E+02  0.23677298611E+03  0.25849507243E+03  0.88842458211E+02 0.  0.
          5    1    1    2  502    0 -0.75300763965E+02  0.43990647984E+02  0.38270708072E+03  0.39254577032E+03  0.47000000000E+01 0. -1.
         -5    1    1    2    0  502  0.24781076565E+02 -0.26297871961E+02  0.56516179492E+02  0.67244690272E+02  0.47000000000E+01 0. -1.
        -11    1    3    3    0    0  0.42661569349E+02  0.31978400243E+02  0.12796711102E+03  0.13862975541E+03  0.00000000000E+00 0.  1.
         11    1    3    3    0    0  0.78581180505E+01 -0.49671176266E+02  0.10880587509E+03  0.11986531703E+03  0.00000000000E+00 0. -1.
<mgrwt>
<rscale>  0 0.12707812E+03</rscale>
<asrwt>0</asrwt>
<pdfrwt beam="1">  1        1 0.10725243E+00 0.13597866E+03</pdfrwt>
<pdfrwt beam="2">  1       -1 0.32530226E-02 0.13597866E+03</pdfrwt>
<totfact> 0.91035346E+03</totfact>
</mgrwt>
</event>
<event>
 7    1  0.1020736E-005  0.1349394E+03  0.7546771E-02  0.1232773E+00
         -2   -1    0    0    0  501 -0.00000000000E+00  0.00000000000E+00  0.10639428174E+02  0.10639428174E+02  0.00000000000E+00 0.  1.
          2   -1    0    0  501    0  0.00000000000E+00 -0.00000000000E+00 -0.20245801500E+04  0.20245801500E+04  0.00000000000E+00 0. -1.
         23    2    1    2    0    0 -0.32616090575E+02 -0.39035642685E+02 -0.33389325503E+03  0.34976174029E+03  0.90889924924E+02 0.  0.
          5    1    1    2  502    0  0.29347976417E+02 -0.10684210903E+02 -0.10576846558E+03  0.11038348787E+03  0.47000000000E+01 0. -1.
         -5    1    1    2    0  502  0.32681141573E+01  0.49719853588E+02 -0.15742790013E+04  0.15750743501E+04  0.47000000000E+01 0. -1.
        -11    1    3    3    0    0  0.22980704171E+01  0.12600859025E+02 -0.31422652645E+01  0.13188502826E+02  0.00000000000E+00 0.  1.
         11    1    3    3    0    0 -0.34914160992E+02 -0.51636501710E+02 -0.33075098976E+03  0.33657323746E+03  0.00000000000E+00 0. -1.
<mgrwt>
<rscale>  0 0.12648108E+03</rscale>
<asrwt>0</asrwt>
<pdfrwt beam="2">  1        2 0.31147374E+00 0.13493937E+03</pdfrwt>
<pdfrwt beam="1">  1       -2 0.16368358E-02 0.13493937E+03</pdfrwt>
<totfact> 0.73940057E+03</totfact>
</mgrwt>
</event>
<event>
 7    1  0.1020736E-005  0.1908851E+03  0.7546771E-02  0.1162508E+00
         -1   -1    0    0    0  501 -0.00000000000E+00  0.00000000000E+00  0.42211252092E+02  0.42211252092E+02  0.00000000000E+00 0.  1.
          1   -1    0    0  501    0  0.00000000000E+00 -0.00000000000E+00 -0.95278581149E+03  0.95278581149E+03  0.00000000000E+00 0. -1.
         23    2    1    2    0    0 -0.75457224440E+02  0.12295796272E+03 -0.21903306522E+03  0.27759427980E+03  0.90943098704E+02 0.  0.
          5    1    1    2  502    0  0.74545671271E+02 -0.41787684933E+02 -0.52657964056E+03  0.53348990203E+03  0.47000000000E+01 0.  1.
         -5    1    1    2    0  502  0.91155316873E+00 -0.81170277785E+02 -0.16496185362E+03  0.18391288175E+03  0.47000000000E+01 0.  1.
        -11    1    3    3    0    0 -0.20437578876E+01  0.55742281904E+02 -0.13932534574E+03  0.15007641688E+03  0.00000000000E+00 0. -1.
         11    1    3    3    0    0 -0.73413466552E+02  0.67215680814E+02 -0.79707719478E+02  0.12751786292E+03  0.00000000000E+00 0.  1.
<mgrwt>
<rscale>  0 0.18558125E+03</rscale>
<asrwt>0</asrwt>
<pdfrwt beam="2">  1        1 0.14658242E+00 0.19088509E+03</pdfrwt>
<pdfrwt beam="1">  1       -1 0.64940392E-02 0.19088509E+03</pdfrwt>
<totfact> 0.20493529E+03</totfact>
</mgrwt>
</event>
<event>
 7    1  0.1020736E-005  0.2157534E+03  0.7546771E-02  0.1141967E+00
          2   -1    0    0  501    0  0.00000000000E+00  0.00000000000E+00  0.25359432740E+04  0.25359432740E+04  0.00000000000E+00 0. -1.
         -2   -1    0    0    0  501 -0.00000000000E+00 -0.00000000000E+00 -0.16876320415E+02  0.16876320415E+02  0.00000000000E+00 0.  1.
         23    2    1    2    0    0 -0.17357868465E+03 -0.28065027383E+02  0.96771946522E+03  0.98654102504E+03  0.76583452495E+02 0.  0.
          5    1    1    2  502    0  0.90668683971E+02  0.53688922686E+02  0.11883876996E+04  0.11930593972E+04  0.47000000000E+01 0.  1.
         -5    1    1    2    0  502  0.82910000675E+02 -0.25623895302E+02  0.36295978874E+03  0.37321917215E+03  0.47000000000E+01 0.  1.
        -11    1    3    3    0    0 -0.14851562880E+03  0.66860829487E+01  0.72844021885E+03  0.74345594902E+03  0.00000000000E+00 0.  1.
         11    1    3    3    0    0 -0.25063055845E+02 -0.34751110332E+02  0.23927924637E+03  0.24308507602E+03  0.00000000000E+00 0. -1.
<mgrwt>
<rscale>  0 0.20949467E+03</rscale>
<asrwt>0</asrwt>
<pdfrwt beam="1">  1        2 0.39014482E+00 0.21575339E+03</pdfrwt>
<pdfrwt beam="2">  1       -2 0.25963590E-02 0.21575339E+03</pdfrwt>
<totfact> 0.20240346E+03</totfact>
</mgrwt>
</event>
<event>
 7    1  0.1020736E-005  0.1908758E+03  0.7546771E-02  0.1162504E+00
         -1   -1    0    0    0  501 -0.00000000000E+00  0.00000000000E+00  0.70238633384E+03  0.70238633384E+03  0.00000000000E+00 0.  1.
          1   -1    0    0  501    0  0.00000000000E+00 -0.00000000000E+00 -0.58852452166E+02  0.58852452166E+02  0.00000000000E+00 0. -1.
         23    2    1    2    0    0 -0.12843144842E+03 -0.65673779528E+02  0.48163587825E+03  0.51094989478E+03  0.91043909708E+02 0.  0.
          5    1    1    2  502    0  0.11212036107E+03  0.10142750754E+03  0.12639662715E+03  0.19712105927E+03  0.47000000000E+01 0.  1.
         -5    1    1    2    0  502  0.16311087352E+02 -0.35753728015E+02  0.35501376275E+02  0.53167831957E+02  0.47000000000E+01 0.  1.
        -11    1    3    3    0    0 -0.13271576800E+03 -0.78911078008E+02  0.46004163136E+03  0.48526151289E+03  0.00000000000E+00 0.  1.
         11    1    3    3    0    0  0.42843195781E+01  0.13237298480E+02  0.21594246894E+02  0.25688381892E+02  0.00000000000E+00 0. -1.
<mgrwt>
<rscale>  0 0.18558529E+03</rscale>
<asrwt>0</asrwt>
<pdfrwt beam="2">  1        1 0.90542239E-02 0.19087579E+03</pdfrwt>
<pdfrwt beam="1">  1       -1 0.10805943E+00 0.19087579E+03</pdfrwt>
<totfact> 0.61925841E+02</totfact>
</mgrwt>
</event>
<event>
 7    1  0.1020736E-005  0.1329008E+03  0.7546771E-02  0.1235566E+00
          1   -1    0    0  501    0  0.00000000000E+00  0.00000000000E+00  0.42335736935E+03  0.42335736935E+03  0.00000000000E+00 0. -1.
         -1   -1    0    0    0  501 -0.00000000000E+00 -0.00000000000E+00 -0.34472647783E+02  0.34472647783E+02  0.00000000000E+00 0.  1.
         23    2    1    2    0    0 -0.43856070627E+02  0.10648543730E+02  0.12161874059E+03  0.15934428903E+03  0.92535063470E+02 0.  0.
          5    1    1    2  502    0 -0.31632985186E+02  0.18025325311E+02  0.28753926631E+02  0.46630852458E+02  0.47000000000E+01 0.  1.
         -5    1    1    2    0  502  0.75489055813E+02 -0.28673869041E+02  0.23851205435E+03  0.25185487564E+03  0.47000000000E+01 0.  1.
        -11    1    3    3    0    0 -0.66209455568E+02  0.13657728656E+01  0.47837820927E+02  0.81694641520E+02  0.00000000000E+00 0.  1.
         11    1    3    3    0    0  0.22353384940E+02  0.92827708648E+01  0.73780919658E+02  0.77649647513E+02  0.00000000000E+00 0. -1.
<mgrwt>
<rscale>  0 0.12468273E+03</rscale>
<asrwt>0</asrwt>
<pdfrwt beam="1">  1        1 0.65131899E-01 0.13290081E+03</pdfrwt>
<pdfrwt beam="2">  1       -1 0.53034846E-02 0.13290081E+03</pdfrwt>
<totfact> 0.86191600E+03</totfact>
</mgrwt>
</event>
<event>
 7    1  0.1020736E-005  0.1450773E+03  0.7546771E-02  0.1215970E+00
          2   -1    0    0  501    0  0.00000000000E+00  0.00000000000E+00  0.86053474505E+03  0.86053474505E+03  0.00000000000E+00 0. -1.
         -2   -1    0    0    0  501 -0.00000000000E+00 -0.00000000000E+00 -0.20593381279E+02  0.20593381279E+02  0.00000000000E+00 0.  1.
         23    2    1    2    0    0 -0.72792393129E+02  0.11033212576E+02  0.32285361402E+03  0.34407396738E+03  0.93445035556E+02 0.  0.
          5    1    1    2  502    0 -0.33426913854E+00  0.46647459663E+02  0.24452725140E+03  0.24898145294E+03  0.47000000000E+01 0. -1.
         -5    1    1    2    0  502  0.73126662268E+02 -0.57680672239E+02  0.27256049835E+03  0.28807270601E+03  0.47000000000E+01 0. -1.
        -11    1    3    3    0    0 -0.61317536495E+02 -0.26233529431E+02  0.11801129559E+03  0.13555332617E+03  0.00000000000E+00 0.  1.
         11    1    3    3    0    0 -0.11474856634E+02  0.37266742007E+02  0.20484231843E+03  0.20852064122E+03  0.00000000000E+00 0. -1.
<mgrwt>
<rscale>  0 0.13805545E+03</rscale>
<asrwt>0</asrwt>
<pdfrwt beam="1">  1        2 0.13238993E+00 0.14507732E+03</pdfrwt>
<pdfrwt beam="2">  1       -2 0.31682132E-02 0.14507732E+03</pdfrwt>
<totfact> 0.12116069E+04</totfact>
</mgrwt>
</event>
<event>
 7    1  0.1020736E-005  0.1643651E+03  0.7546771E-02  0.1192790E+00
         -2   -1    0    0    0  501 -0.00000000000E+00  0.00000000000E+00  0.23890858642E+02  0.23890858642E+02  0.00000000000E+00 0.  1.
          2   -1    0    0  501    0  0.00000000000E+00 -0.00000000000E+00 -0.10125310995E+04  0.10125310995E+04  0.00000000000E+00 0. -1.
         23    2    1    2    0    0 -0.17607008508E+02  0.10527356520E+03 -0.59025893076E+03  0.60546541097E+03  0.82402841318E+02 0.  0.
          5    1    1    2  502    0 -0.51010271757E+01 -0.12064767213E+03 -0.37691805778E+03  0.39581712134E+03  0.47000000000E+01 0.  1.
         -5    1    1    2    0  502  0.22708035684E+02  0.15374106933E+02 -0.21463252354E+02  0.35139425866E+02  0.47000000000E+01 0.  1.
        -11    1    3    3    0    0 -0.35696538032E+02  0.91481781895E+01 -0.14790792893E+03  0.15242928666E+03  0.00000000000E+00 0. -1.
         11    1    3    3    0    0  0.18089529524E+02  0.96125387008E+02 -0.44235100184E+03  0.45303612431E+03  0.00000000000E+00 0.  1.
<mgrwt>
<rscale>  0 0.15642805E+03</rscale>
<asrwt>0</asrwt>
<pdfrwt beam="2">  1        2 0.15577397E+00 0.16436507E+03</pdfrwt>
<pdfrwt beam="1">  1       -2 0.36755178E-02 0.16436507E+03</pdfrwt>
<totfact> 0.78740999E+03</totfact>
</mgrwt>
</event>
<event>
 7    1  0.1020736E-005  0.1379036E+03  0.7546771E-02  0.1226507E+00
          1   -1    0    0  501    0  0.00000000000E+00  0.00000000000E+00  0.24746922043E+03  0.24746922043E+03  0.00000000000E+00 0. -1.
         -1   -1    0    0    0  501 -0.00000000000E+00 -0.00000000000E+00 -0.66783106189E+02  0.66783106189E+02  0.00000000000E+00 0.  1.
         23    2    1    2    0    0  0.21219325347E+02  0.54253046472E+02  0.42206537753E+02  0.11881947195E+03  0.94567553980E+02 0.  0.
          5    1    1    2  502    0 -0.56266922969E+02  0.10511172594E+02  0.91260970116E+02  0.10782905933E+03  0.47000000000E+01 0. -1.
         -5    1    1    2    0  502  0.35047597621E+02 -0.64764219066E+02  0.47218606375E+02  0.87603795342E+02  0.47000000000E+01 0. -1.
        -11    1    3    3    0    0 -0.12569336784E+02  0.71862610348E+02  0.28648469910E+02  0.78377023555E+02  0.00000000000E+00 0.  1.
         11    1    3    3    0    0  0.33788662131E+02 -0.17609563876E+02  0.13558067843E+02  0.40442448395E+02  0.00000000000E+00 0. -1.
<mgrwt>
<rscale>  0 0.13064161E+03</rscale>
<asrwt>0</asrwt>
<pdfrwt beam="1">  1        1 0.38072187E-01 0.13790362E+03</pdfrwt>
<pdfrwt beam="2">  1       -1 0.10274324E-01 0.13790362E+03</pdfrwt>
<totfact> 0.62374301E+03</totfact>
</mgrwt>
</event>
<event>
 7    1  0.1020736E-005  0.1211411E+03  0.7546771E-02  0.1249540E+00
          1   -1    0    0  501    0  0.00000000000E+00  0.00000000000E+00  0.39854580406E+02  0.39854580406E+02  0.00000000000E+00 0. -1.
         -1   -1    0    0    0  501 -0.00000000000E+00 -0.00000000000E+00 -0.32875472626E+03  0.32875472626E+03  0.00000000000E+00 0.  1.
         23    2    1    2    0    0 -0.35824048420E+02  0.31521383535E+02 -0.17230597196E+03  0.20047435548E+03  0.90684393193E+02 0.  0.
          5    1    1    2  502    0  0.58973719141E+02 -0.13758675588E+02 -0.15327692522E+02  0.62643665772E+02  0.47000000000E+01 0. -1.
         -5    1    1    2    0  502 -0.23149670721E+02 -0.17762707947E+02 -0.10126648138E+03  0.10549128542E+03  0.47000000000E+01 0.  1.
        -11    1    3    3    0    0  0.16963800199E+02  0.44414910275E+02 -0.91177302975E+02  0.10282876713E+03  0.00000000000E+00 0.  1.
         11    1    3    3    0    0 -0.52787848619E+02 -0.12893526740E+02 -0.81128668982E+02  0.97645588351E+02  0.00000000000E+00 0. -1.
<mgrwt>
<rscale>  0 0.11617707E+03</rscale>
<asrwt>0</asrwt>
<pdfrwt beam="1">  1        1 0.61314740E-02 0.12114108E+03</pdfrwt>
<pdfrwt beam="2">  1       -1 0.50577649E-01 0.12114108E+03</pdfrwt>
<totfact> 0.47770279E+03</totfact>
</mgrwt>
</event>
<event>
 7    1  0.1020736E-005  0.1301156E+03  0.7546771E-02  0.1241451E+00
         -2   -1    0    0    0  501 -0.00000000000E+00  0.00000000000E+00  0.56920156906E+02  0.56920156906E+02  0.00000000000E+00 0.  1.
          2   -1    0    0  501    0  0.00000000000E+00 -0.00000000000E+00 -0.23643611776E+03  0.23643611776E+03  0.00000000000E+00 0. -1.
         23    2    1    2    0    0  0.23229971864E+02 -0.27657193899E+02 -0.48603748525E+02  0.10878089047E+03  0.90368168035E+02 0.  0.
          5    1    1    2  502    0  0.38881760149E+02  0.26208516179E+02 -0.94475978210E+01  0.48062716290E+02  0.47000000000E+01 0.  1.
         -5    1    1    2    0  502 -0.62111732013E+02  0.14486777196E+01 -0.12146461451E+03  0.13651266791E+03  0.47000000000E+01 0.  1.
        -11    1    3    3    0    0  0.50342199370E+02  0.45356469188E+01 -0.97041858749E+01  0.51469217537E+02  0.00000000000E+00 0.  1.
         11    1    3    3    0    0 -0.27112227506E+02 -0.32192840818E+02 -0.38899562650E+02  0.57311672935E+02  0.00000000000E+00 0. -1.
<mgrwt>
<rscale>  0 0.12100302E+03</rscale>
<asrwt>0</asrwt>
<pdfrwt beam="2">  1        2 0.36374788E-01 0.13011558E+03</pdfrwt>
<pdfrwt beam="1">  1       -2 0.87569471E-02 0.13011558E+03</pdfrwt>
<totfact> 0.10919501E+04</totfact>
</mgrwt>
</event>
<event>
 7    1  0.1020736E-005  0.1285782E+03  0.7546771E-02  0.1244129E+00
          2   -1    0    0  501    0  0.00000000000E+00  0.00000000000E+00  0.19309279556E+02  0.19309279556E+02  0.00000000000E+00 0. -1.
         -2   -1    0    0    0  501 -0.00000000000E+00 -0.00000000000E+00 -0.65832714140E+03  0.65832714140E+03  0.00000000000E+00 0.  1.
         23    2    1    2    0    0  0.24331750779E+02  0.17786479630E+02 -0.30995825896E+03  0.32434817745E+03  0.90659941329E+02 0.  0.
          5    1    1    2  502    0 -0.94760453832E+01 -0.15925531722E+02  0.42701377162E+01  0.19589335692E+02  0.47000000000E+01 0.  1.
         -5    1    1    2    0  502 -0.14855705396E+02 -0.18609479089E+01 -0.33332974060E+03  0.33369890781E+03  0.47000000000E+01 0.  1.
        -11    1    3    3    0    0 -0.51708104281E+01 -0.25171199209E+02 -0.29645553342E+02  0.39232453187E+02  0.00000000000E+00 0.  1.
         11    1    3    3    0    0  0.29502561207E+02  0.42957678840E+02 -0.28031270562E+03  0.28511572426E+03  0.00000000000E+00 0. -1.
<mgrwt>
<rscale>  0 0.11937689E+03</rscale>
<asrwt>0</asrwt>
<pdfrwt beam="1">  1        2 0.29706585E-02 0.12857823E+03</pdfrwt>
<pdfrwt beam="2">  1       -2 0.10128110E+00 0.12857823E+03</pdfrwt>
<totfact> 0.25153476E+03</totfact>
</mgrwt>
</event>
<event>
 7    1  0.1020736E-005  0.1301387E+03  0.7546771E-02  0.1234864E+00
          2   -1    0    0  501    0  0.00000000000E+00  0.00000000000E+00  0.36058432016E+03  0.36058432016E+03  0.00000000000E+00 0. -1.
         -2   -1    0    0    0  501 -0.00000000000E+00 -0.00000000000E+00 -0.40418849499E+02  0.40418849499E+02  0.00000000000E+00 0.  1.
         23    2    1    2    0    0 -0.53160756876E+00  0.50308067036E+02  0.14260967691E+03  0.18086200724E+03  0.99208676521E+02 0.  0.
          5    1    1    2  502    0  0.17558534025E+01 -0.82532124191E+02  0.16619906664E+03  0.18563096266E+03  0.47000000000E+01 0. -1.
         -5    1    1    2    0  502 -0.12242458337E+01  0.32224057155E+02  0.11356727111E+02  0.34510199768E+02  0.47000000000E+01 0.  1.
        -11    1    3    3    0    0  0.19370439659E+02  0.69388086082E+02  0.59940378760E+02  0.93716430942E+02  0.00000000000E+00 0.  1.
         11    1    3    3    0    0 -0.19902047228E+02 -0.19080019046E+02  0.82669298152E+02  0.87145576294E+02  0.00000000000E+00 0. -1.
<mgrwt>
<rscale>  0 0.12513146E+03</rscale>
<asrwt>0</asrwt>
<pdfrwt beam="1">  1        2 0.55474509E-01 0.13013866E+03</pdfrwt>
<pdfrwt beam="2">  1       -2 0.62182848E-02 0.13013866E+03</pdfrwt>
<totfact> 0.11803723E+04</totfact>
</mgrwt>
</event>
<event>
 7    1  0.1020736E-005  0.1291559E+03  0.7546771E-02  0.1242077E+00
         -1   -1    0    0    0  501 -0.00000000000E+00  0.00000000000E+00  0.78427273688E+02  0.78427273688E+02  0.00000000000E+00 0.  1.
          1   -1    0    0  501    0  0.00000000000E+00 -0.00000000000E+00 -0.18036999238E+03  0.18036999238E+03  0.00000000000E+00 0. -1.
         23    2    1    2    0    0  0.27954597636E+02 -0.17406687815E+02 -0.70010884092E+01  0.98500150069E+02  0.92567877879E+02 0.  0.
          5    1    1    2  502    0 -0.39541819053E+02  0.28099312597E+02 -0.12045392904E+03  0.12993985472E+03  0.47000000000E+01 0.  1.
         -5    1    1    2    0  502  0.11587221418E+02 -0.10692624782E+02  0.25512298755E+02  0.30357261284E+02  0.47000000000E+01 0.  1.
        -11    1    3    3    0    0  0.19727365408E+02  0.34675246730E+02  0.13220703421E+02  0.42027713245E+02  0.00000000000E+00 0. -1.
         11    1    3    3    0    0  0.82272322278E+01 -0.52081934545E+02 -0.20221791830E+02  0.56472436824E+02  0.00000000000E+00 0.  1.
<mgrwt>
<rscale>  0 0.12062019E+03</rscale>
<asrwt>0</asrwt>
<pdfrwt beam="2">  1        1 0.27749229E-01 0.12915592E+03</pdfrwt>
<pdfrwt beam="1">  1       -1 0.12065735E-01 0.12915592E+03</pdfrwt>
<totfact> 0.71832276E+03</totfact>
</mgrwt>
</event>
<event>
 7    1  0.1020736E-005  0.1261340E+03  0.7546771E-02  0.1252547E+00
          3   -1    0    0  501    0  0.00000000000E+00  0.00000000000E+00  0.58699153446E+02  0.58699153446E+02  0.00000000000E+00 0. -1.
         -3   -1    0    0    0  501 -0.00000000000E+00 -0.00000000000E+00 -0.21671162151E+03  0.21671162151E+03  0.00000000000E+00 0.  1.
         23    2    1    2    0    0 -0.10040584474E+02 -0.13584062141E+02 -0.11253585242E+03  0.14132905785E+03  0.83810765605E+02 0.  0.
          5    1    1    2  502    0 -0.36212381813E+02  0.37919243357E+02  0.14289462843E+02  0.54548000529E+02  0.47000000000E+01 0.  1.
         -5    1    1    2    0  502  0.46252966288E+02 -0.24335181216E+02 -0.59766078491E+02  0.79533716582E+02  0.47000000000E+01 0.  1.
        -11    1    3    3    0    0 -0.10635260268E+02  0.21532154791E+02 -0.61108542239E+00  0.24023236175E+02  0.00000000000E+00 0. -1.
         11    1    3    3    0    0  0.59467579383E+00 -0.35116216932E+02 -0.11192476700E+03  0.11730582167E+03  0.00000000000E+00 0.  1.
<mgrwt>
<rscale>  0 0.11444866E+03</rscale>
<asrwt>0</asrwt>
<pdfrwt beam="1">  1        3 0.90306390E-02 0.12613399E+03</pdfrwt>
<pdfrwt beam="2">  1       -3 0.33340249E-01 0.12613399E+03</pdfrwt>
<totfact> 0.17435285E+03</totfact>
</mgrwt>
</event>
<event>
 7    1  0.1020736E-005  0.1283465E+03  0.7546771E-02  0.1245285E+00
         -2   -1    0    0    0  501 -0.00000000000E+00  0.00000000000E+00  0.80843953927E+02  0.80843953927E+02  0.00000000000E+00 0.  1.
          2   -1    0    0  501    0  0.00000000000E+00 -0.00000000000E+00 -0.41540829517E+03  0.41540829517E+03  0.00000000000E+00 0. -1.
         23    2    1    2    0    0 -0.14675820846E+02 -0.25136869789E+02  0.38721110762E+02  0.10151835939E+03  0.89215530789E+02 0.  0.
          5    1    1    2  502    0 -0.52703061373E+02 -0.42957818950E+01 -0.12656427973E+03  0.13724676071E+03  0.47000000000E+01 0. -1.
         -5    1    1    2    0  502  0.67378882219E+02  0.29432651684E+02 -0.24672117227E+03  0.25748712900E+03  0.47000000000E+01 0. -1.
        -11    1    3    3    0    0  0.29077027896E+01 -0.18454055076E+02  0.65882090050E+02  0.68479607721E+02  0.00000000000E+00 0.  1.
         11    1    3    3    0    0 -0.17583523636E+02 -0.66828147138E+01 -0.27160979287E+02  0.33038751668E+02  0.00000000000E+00 0. -1.
<mgrwt>
<rscale>  0 0.11868321E+03</rscale>
<asrwt>0</asrwt>
<pdfrwt beam="2">  1        2 0.63908970E-01 0.12834646E+03</pdfrwt>
<pdfrwt beam="1">  1       -2 0.12437531E-01 0.12834646E+03</pdfrwt>
<totfact> 0.34512442E+03</totfact>
</mgrwt>
</event>
<event>
 7    1  0.1020736E-005  0.1282809E+03  0.7546771E-02  0.1245000E+00
          1   -1    0    0  501    0  0.00000000000E+00  0.00000000000E+00  0.26620577769E+03  0.26620577769E+03  0.00000000000E+00 0. -1.
         -1   -1    0    0    0  501 -0.00000000000E+00 -0.00000000000E+00 -0.53504758276E+02  0.53504758276E+02  0.00000000000E+00 0.  1.
         23    2    1    2    0    0 -0.28386238965E+02  0.49971776320E+01  0.35555332390E+02  0.10099479229E+03  0.90027862696E+02 0.  0.
          5    1    1    2  502    0 -0.16859126148E+02 -0.53509790289E+02  0.11334435966E+03  0.12655655518E+03  0.47000000000E+01 0.  1.
         -5    1    1    2    0  502  0.45245365113E+02  0.48512612657E+02  0.63801327355E+02  0.92159188491E+02  0.47000000000E+01 0.  1.
        -11    1    3    3    0    0 -0.49643125463E+02 -0.13015296517E+02  0.48191817455E+02  0.70400917031E+02  0.00000000000E+00 0. -1.
         11    1    3    3    0    0  0.21256886498E+02  0.18012474149E+02 -0.12636485065E+02  0.30593875259E+02  0.00000000000E+00 0.  1.
<mgrwt>
<rscale>  0 0.11885375E+03</rscale>
<asrwt>0</asrwt>
<pdfrwt beam="1">  1        1 0.40954734E-01 0.12828087E+03</pdfrwt>
<pdfrwt beam="2">  1       -1 0.82315014E-02 0.12828087E+03</pdfrwt>
<totfact> 0.79418225E+03</totfact>
</mgrwt>
</event>
<event>
 7    1  0.1020736E-005  0.1394291E+03  0.7546771E-02  0.1223873E+00
         -2   -1    0    0    0  501 -0.00000000000E+00  0.00000000000E+00  0.26167418161E+02  0.26167418161E+02  0.00000000000E+00 0.  1.
          2   -1    0    0  501    0  0.00000000000E+00 -0.00000000000E+00 -0.90844970344E+03  0.90844970344E+03  0.00000000000E+00 0. -1.
         23    2    1    2    0    0  0.47297963170E+02  0.41381033008E+02 -0.14441459201E+03  0.18369154988E+03  0.94538478412E+02 0.  0.
          5    1    1    2  502    0  0.45729710176E+01  0.41111951947E+02 -0.24130421346E+03  0.24486918567E+03  0.47000000000E+01 0.  1.
         -5    1    1    2    0  502 -0.51870934187E+02 -0.82492984954E+02 -0.49656347981E+03  0.50605638605E+03  0.47000000000E+01 0.  1.
        -11    1    3    3    0    0  0.54045030503E+02 -0.92216006389E+01 -0.41331747241E+02  0.68660152712E+02  0.00000000000E+00 0.  1.
         11    1    3    3    0    0 -0.67470673334E+01  0.50602633647E+02 -0.10308284477E+03  0.11503139717E+03  0.00000000000E+00 0. -1.
<mgrwt>
<rscale>  0 0.13244457E+03</rscale>
<asrwt>0</asrwt>
<pdfrwt beam="2">  1        2 0.13976150E+00 0.13942913E+03</pdfrwt>
<pdfrwt beam="1">  1       -2 0.40257566E-02 0.13942913E+03</pdfrwt>
<totfact> 0.79021739E+03</totfact>
</mgrwt>
</event>
<event>
 7    1  0.1020736E-005  0.1266114E+03  0.7546771E-02  0.1247325E+00
         -2   -1    0    0    0  501 -0.00000000000E+00  0.00000000000E+00  0.13344106098E+02  0.13344106098E+02  0.00000000000E+00 0.  1.
          2   -1    0    0  501    0  0.00000000000E+00 -0.00000000000E+00 -0.91557974487E+03  0.91557974487E+03  0.00000000000E+00 0. -1.
         23    2    1    2    0    0 -0.20134742271E+02 -0.64375850686E+00 -0.34986459022E+03  0.36222797440E+03  0.91640884310E+02 0.  0.
          5    1    1    2  502    0  0.20289058069E+02 -0.11651083765E+02 -0.13020789853E+02  0.27185006872E+02  0.47000000000E+01 0.  1.
         -5    1    1    2    0  502 -0.15431579812E+00  0.12294842272E+02 -0.53935025870E+03  0.53951086970E+03  0.47000000000E+01 0.  1.
        -11    1    3    3    0    0 -0.53453810755E+02 -0.61719393589E+01 -0.27327197492E+03  0.27851925426E+03  0.00000000000E+00 0.  1.
         11    1    3    3    0    0  0.33319068484E+02  0.55281808520E+01 -0.76592615299E+02  0.83708720135E+02  0.00000000000E+00 0. -1.
<mgrwt>
<rscale>  0 0.11747319E+03</rscale>
<asrwt>0</asrwt>
<pdfrwt beam="2">  1        2 0.14085845E+00 0.12661138E+03</pdfrwt>
<pdfrwt beam="1">  1       -2 0.20529390E-02 0.12661138E+03</pdfrwt>
<totfact> 0.20882131E+04</totfact>
</mgrwt>
</event>
<event>
 7    1  0.1020736E-005  0.1403266E+03  0.7546771E-02  0.1223890E+00
         -1   -1    0    0    0  501 -0.00000000000E+00  0.00000000000E+00  0.18703896374E+02  0.18703896374E+02  0.00000000000E+00 0.  1.
          1   -1    0    0  501    0  0.00000000000E+00 -0.00000000000E+00 -0.86571974803E+03  0.86571974803E+03  0.00000000000E+00 0. -1.
         23    2    1    2    0    0  0.53966965803E+02 -0.33976162144E+02 -0.44139330294E+03  0.45521366604E+03  0.91239360368E+02 0.  0.
          5    1    1    2  502    0  0.28844359877E+02  0.42062202409E+02 -0.21759024430E+03  0.22353708950E+03  0.47000000000E+01 0. -1.
         -5    1    1    2    0  502 -0.82811325679E+02 -0.80860402645E+01 -0.18803230442E+03  0.20567288886E+03  0.47000000000E+01 0. -1.
        -11    1    3    3    0    0  0.45825188256E+02  0.19032609357E+02 -0.12831582703E+03  0.13757594108E+03  0.00000000000E+00 0.  1.
         11    1    3    3    0    0  0.81417775465E+01 -0.53008771501E+02 -0.31307747591E+03  0.31763772496E+03  0.00000000000E+00 0. -1.
<mgrwt>
<rscale>  0 0.13243269E+03</rscale>
<asrwt>0</asrwt>
<pdfrwt beam="2">  1        1 0.13318763E+00 0.14032660E+03</pdfrwt>
<pdfrwt beam="1">  1       -1 0.28775230E-02 0.14032660E+03</pdfrwt>
<totfact> 0.78958638E+03</totfact>
</mgrwt>
</event>
<event>
 7    1  0.1020736E-005  0.1262341E+03  0.7546771E-02  0.1248791E+00
         -2   -1    0    0    0  501 -0.00000000000E+00  0.00000000000E+00  0.22984167851E+02  0.22984167851E+02  0.00000000000E+00 0.  1.
          2   -1    0    0  501    0  0.00000000000E+00 -0.00000000000E+00 -0.54854427821E+03  0.54854427821E+03  0.00000000000E+00 0. -1.
         23    2    1    2    0    0 -0.13703592374E+02 -0.11023534182E+02 -0.15682280105E+03  0.18178205989E+03  0.90233140359E+02 0.  0.
          5    1    1    2  502    0  0.26666430160E+02 -0.17933570005E+02 -0.17203833235E+02  0.36752868032E+02  0.47000000000E+01 0.  1.
         -5    1    1    2    0  502 -0.12962837786E+02  0.28957104187E+02 -0.35153347608E+03  0.35299351814E+03  0.47000000000E+01 0.  1.
        -11    1    3    3    0    0  0.34638029439E+02 -0.21840590577E+02 -0.55218418946E+02  0.68745023610E+02  0.00000000000E+00 0.  1.
         11    1    3    3    0    0 -0.48341621813E+02  0.10817056395E+02 -0.10160438210E+03  0.11303703628E+03  0.00000000000E+00 0. -1.
<mgrwt>
<rscale>  0 0.11661329E+03</rscale>
<asrwt>0</asrwt>
<pdfrwt beam="2">  1        2 0.84391422E-01 0.12623408E+03</pdfrwt>
<pdfrwt beam="1">  1       -2 0.35360260E-02 0.12623408E+03</pdfrwt>
<totfact> 0.17400121E+04</totfact>
</mgrwt>
</event>
<event>
 7    1  0.1020736E-005  0.1539127E+03  0.7546771E-02  0.1204330E+00
         -1   -1    0    0    0  501 -0.00000000000E+00  0.00000000000E+00  0.41184121695E+03  0.41184121695E+03  0.00000000000E+00 0.  1.
          1   -1    0    0  501    0  0.00000000000E+00 -0.00000000000E+00 -0.51085837561E+02  0.51085837561E+02  0.00000000000E+00 0. -1.
         23    2    1    2    0    0  0.40683095498E+02 -0.80055514904E+02  0.21980717057E+03  0.25422747010E+03  0.90842801564E+02 0.  0.
          5    1    1    2  502    0 -0.66238608865E+02  0.99940849262E+02  0.12084216710E+03  0.17029576038E+03  0.47000000000E+01 0.  1.
         -5    1    1    2    0  502  0.25555513367E+02 -0.19885334358E+02  0.20106041725E+02  0.38403824026E+02  0.47000000000E+01 0.  1.
        -11    1    3    3    0    0  0.43168862063E+02 -0.10420368321E+02  0.14652220616E+03  0.15310418553E+03  0.00000000000E+00 0.  1.
         11    1    3    3    0    0 -0.24857665650E+01 -0.69635146582E+02  0.73284964402E+02  0.10112328457E+03  0.00000000000E+00 0. -1.
<mgrwt>
<rscale>  0 0.14690410E+03</rscale>
<asrwt>0</asrwt>
<pdfrwt beam="2">  1        1 0.78593599E-02 0.15391270E+03</pdfrwt>
<pdfrwt beam="1">  1       -1 0.63360185E-01 0.15391270E+03</pdfrwt>
<totfact> 0.22701356E+03</totfact>
</mgrwt>
</event>
<event>
 7    1  0.1020736E-005  0.3926969E+03  0.7546771E-02  0.1046338E+00
         -1   -1    0    0    0  501 -0.00000000000E+00  0.00000000000E+00  0.21810306394E+03  0.21810306394E+03  0.00000000000E+00 0.  1.
          1   -1    0    0  501    0  0.00000000000E+00 -0.00000000000E+00 -0.17676371218E+03  0.17676371218E+03  0.00000000000E+00 0. -1.
         23    2    1    2    0    0 -0.55970657181E+02 -0.43130787399E+02  0.40449057424E+02  0.11903708040E+03  0.86837324790E+02 0.  0.
          5    1    1    2  502    0  0.62705679871E+02  0.79999079799E+02 -0.11522638217E+03  0.15372398709E+03  0.47000000000E+01 0. -1.
         -5    1    1    2    0  502 -0.67350226902E+01 -0.36868292401E+02  0.11611667652E+03  0.12210570863E+03  0.47000000000E+01 0.  1.
        -11    1    3    3    0    0 -0.45652679148E+02 -0.68772972878E+02  0.20806316165E+02  0.85128089984E+02  0.00000000000E+00 0.  1.
         11    1    3    3    0    0 -0.10317978033E+02  0.25642185480E+02  0.19642741258E+02  0.33908990416E+02  0.00000000000E+00 0. -1.
<mgrwt>
<rscale>  0 0.39269687E+03</rscale>
<asrwt>0</asrwt>
<pdfrwt beam="2">  1        1 0.27194417E-01 0.39269687E+03</pdfrwt>
<pdfrwt beam="1">  1       -1 0.33554317E-01 0.39269687E+03</pdfrwt>
<totfact> 0.14529078E+03</totfact>
</mgrwt>
</event>
<event>
 7    1  0.1020736E-005  0.1269474E+03  0.7546771E-02  0.1246724E+00
          2   -1    0    0  501    0  0.00000000000E+00  0.00000000000E+00  0.37008094571E+03  0.37008094571E+03  0.00000000000E+00 0. -1.
         -2   -1    0    0    0  501 -0.00000000000E+00 -0.00000000000E+00 -0.38729337650E+02  0.38729337650E+02  0.00000000000E+00 0.  1.
         23    2    1    2    0    0  0.37175319452E+01 -0.21847649268E+02  0.67163107939E+02  0.11570413971E+03  0.91571966543E+02 0.  0.
          5    1    1    2  502    0 -0.42669242864E+02  0.57031243660E+02  0.12046350558E+03  0.14002418797E+03  0.47000000000E+01 0. -1.
         -5    1    1    2    0  502  0.38951710919E+02 -0.35183594392E+02  0.14372499455E+03  0.15308195568E+03  0.47000000000E+01 0. -1.
        -11    1    3    3    0    0 -0.23121282214E+02  0.17119077951E+02 -0.52098650037E+01  0.29236949473E+02  0.00000000000E+00 0.  1.
         11    1    3    3    0    0  0.26838814159E+02 -0.38966727220E+02  0.72372972943E+02  0.86467190241E+02  0.00000000000E+00 0. -1.
<mgrwt>
<rscale>  0 0.11782801E+03</rscale>
<asrwt>0</asrwt>
<pdfrwt beam="1">  1        2 0.56935527E-01 0.12694742E+03</pdfrwt>
<pdfrwt beam="2">  1       -2 0.59583599E-02 0.12694742E+03</pdfrwt>
<totfact> 0.12225353E+04</totfact>
</mgrwt>
</event>
<event>
 7    1  0.1020736E-005  0.1586965E+03  0.7546771E-02  0.1201492E+00
         -2   -1    0    0    0  501 -0.00000000000E+00  0.00000000000E+00  0.38573651665E+02  0.38573651665E+02  0.00000000000E+00 0.  1.
          2   -1    0    0  501    0  0.00000000000E+00 -0.00000000000E+00 -0.52004105426E+03  0.52004105426E+03  0.00000000000E+00 0. -1.
         23    2    1    2    0    0 -0.93499480792E+02 -0.28586291311E+02 -0.19215924670E+03  0.22863929027E+03  0.76101379792E+02 0.  0.
          5    1    1    2  502    0  0.11759103775E+03  0.19117547154E+01 -0.25104944031E+03  0.27727101984E+03  0.47000000000E+01 0. -1.
         -5    1    1    2    0  502 -0.24091556955E+02  0.26674536596E+02 -0.38258715585E+02  0.52704395807E+02  0.47000000000E+01 0. -1.
        -11    1    3    3    0    0 -0.92010884045E+02 -0.16322933674E+02 -0.19475714040E+03  0.21601570471E+03  0.00000000000E+00 0.  1.
         11    1    3    3    0    0 -0.14885967467E+01 -0.12263357637E+02  0.25978936980E+01  0.12623585563E+02  0.00000000000E+00 0. -1.
<mgrwt>
<rscale>  0 0.14917348E+03</rscale>
<asrwt>0</asrwt>
<pdfrwt beam="2">  1        2 0.80006317E-01 0.15869646E+03</pdfrwt>
<pdfrwt beam="1">  1       -2 0.59344079E-02 0.15869646E+03</pdfrwt>
<totfact> 0.86464301E+03</totfact>
</mgrwt>
</event>
<event>
 7    1  0.1020736E-005  0.1380622E+03  0.7546771E-02  0.1229695E+00
          2   -1    0    0  501    0  0.00000000000E+00  0.00000000000E+00  0.13081700568E+03  0.13081700568E+03  0.00000000000E+00 0. -1.
         -2   -1    0    0    0  501 -0.00000000000E+00 -0.00000000000E+00 -0.12731233924E+03  0.12731233924E+03  0.00000000000E+00 0.  1.
         23    2    1    2    0    0  0.56182294987E+02 -0.16864430725E+02 -0.43372012077E+02  0.11232610911E+03  0.85411732584E+02 0.  0.
          5    1    1    2  502    0 -0.53821276583E+02  0.25943470294E+02  0.86265390435E+02  0.10504094940E+03  0.47000000000E+01 0.  1.
         -5    1    1    2    0  502 -0.23610184040E+01 -0.90790395687E+01 -0.39388711910E+02  0.40762286410E+02  0.47000000000E+01 0.  1.
        -11    1    3    3    0    0  0.61351808820E+02 -0.12554119441E+01 -0.62168280435E+02  0.87352822490E+02  0.00000000000E+00 0.  1.
         11    1    3    3    0    0 -0.51695138328E+01 -0.15609018781E+02  0.18796268358E+02  0.24973286623E+02  0.00000000000E+00 0. -1.
<mgrwt>
<rscale>  0 0.12850246E+03</rscale>
<asrwt>0</asrwt>
<pdfrwt beam="1">  1        2 0.20125693E-01 0.13806216E+03</pdfrwt>
<pdfrwt beam="2">  1       -2 0.19586514E-01 0.13806216E+03</pdfrwt>
<totfact> 0.57214434E+03</totfact>
</mgrwt>
</event>
<event>
 7    1  0.1020736E-005  0.1351948E+03  0.7546771E-02  0.1232242E+00
         -1   -1    0    0    0  501 -0.00000000000E+00  0.00000000000E+00  0.46188147639E+02  0.46188147639E+02  0.00000000000E+00 0.  1.
          1   -1    0    0  501    0  0.00000000000E+00 -0.00000000000E+00 -0.45561320115E+03  0.45561320115E+03  0.00000000000E+00 0. -1.
         23    2    1    2    0    0 -0.32112041971E+02  0.40240006920E+02 -0.46596605169E+02  0.11460357784E+03  0.91171788636E+02 0.  0.
          5    1    1    2  502    0  0.29391284126E+02 -0.84776024014E+02 -0.25692499218E+03  0.27218259209E+03  0.47000000000E+01 0. -1.
         -5    1    1    2    0  502  0.27207578454E+01  0.44536017095E+02 -0.10590345616E+03  0.11501517887E+03  0.47000000000E+01 0. -1.
        -11    1    3    3    0    0 -0.52043864518E+02 -0.30585951150E+01 -0.69312711720E+01  0.52592407799E+02  0.00000000000E+00 0.  1.
         11    1    3    3    0    0  0.19931822547E+02  0.43298602035E+02 -0.39665333997E+02  0.62011170037E+02  0.00000000000E+00 0. -1.
<mgrwt>
<rscale>  0 0.12682645E+03</rscale>
<asrwt>0</asrwt>
<pdfrwt beam="2">  1        1 0.70094339E-01 0.13519479E+03</pdfrwt>
<pdfrwt beam="1">  1       -1 0.71058688E-02 0.13519479E+03</pdfrwt>
<totfact> 0.50798512E+03</totfact>
</mgrwt>
</event>
<event>
 7    1  0.1020736E-005  0.1469318E+03  0.7546771E-02  0.1215125E+00
          2   -1    0    0  501    0  0.00000000000E+00  0.00000000000E+00  0.19492236043E+03  0.19492236043E+03  0.00000000000E+00 0. -1.
         -2   -1    0    0    0  501 -0.00000000000E+00 -0.00000000000E+00 -0.97121479554E+02  0.97121479554E+02  0.00000000000E+00 0.  1.
         23    2    1    2    0    0  0.77320885796E+02 -0.12491697759E+01  0.19206719161E+01  0.11659592688E+03  0.87240136288E+02 0.  0.
          5    1    1    2  502    0 -0.37786395230E+02  0.60598649203E+02  0.27903690877E+02  0.76816104524E+02  0.47000000000E+01 0. -1.
         -5    1    1    2    0  502 -0.39534490566E+02 -0.59349479427E+02  0.67976518079E+02  0.98631808575E+02  0.47000000000E+01 0. -1.
        -11    1    3    3    0    0 -0.99781509548E+01  0.55642879191E+01  0.23746878031E+02  0.26352210775E+02  0.00000000000E+00 0.  1.
         11    1    3    3    0    0  0.87299036750E+02 -0.68134576950E+01 -0.21826206115E+02  0.90243716106E+02  0.00000000000E+00 0. -1.
<mgrwt>
<rscale>  0 0.13867334E+03</rscale>
<asrwt>0</asrwt>
<pdfrwt beam="1">  1        2 0.29988055E-01 0.14693181E+03</pdfrwt>
<pdfrwt beam="2">  1       -2 0.14941766E-01 0.14693181E+03</pdfrwt>
<totfact> 0.57913102E+03</totfact>
</mgrwt>
</event>
<event>
 7    1  0.1020736E-005  0.1603382E+03  0.7546771E-02  0.1190733E+00
          3   -1    0    0  501    0  0.00000000000E+00  0.00000000000E+00  0.31914322104E+02  0.31914322104E+02  0.00000000000E+00 0. -1.
         -3   -1    0    0    0  501 -0.00000000000E+00 -0.00000000000E+00 -0.79388336271E+03  0.79388336271E+03  0.00000000000E+00 0.  1.
         23    2    1    2    0    0 -0.65407021641E+02  0.76193178122E+02 -0.45105431027E+03  0.47597441314E+03  0.11409720541E+03 0.  0.
          5    1    1    2  502    0  0.49070372262E+02 -0.10096722160E+03 -0.15735572686E+03  0.19335251756E+03  0.47000000000E+01 0.  1.
         -5    1    1    2    0  502  0.16336649380E+02  0.24774043476E+02 -0.15355900349E+03  0.15647075412E+03  0.47000000000E+01 0.  1.
        -11    1    3    3    0    0 -0.96099589573E+02  0.57820849335E+02 -0.28854792838E+03  0.30957759723E+03  0.00000000000E+00 0. -1.
         11    1    3    3    0    0  0.30692567931E+02  0.18372328787E+02 -0.16250638189E+03  0.16639681591E+03  0.00000000000E+00 0.  1.
<mgrwt>
<rscale>  0 0.15820974E+03</rscale>
<asrwt>0</asrwt>
<pdfrwt beam="1">  1        3 0.49098954E-02 0.16033824E+03</pdfrwt>
<pdfrwt beam="2">  1       -3 0.12213591E+00 0.16033824E+03</pdfrwt>
<totfact> 0.31674332E+02</totfact>
</mgrwt>
</event>
<event>
 7    1  0.1020736E-005  0.3781307E+03  0.7546771E-02  0.1052567E+00
          3   -1    0    0  501    0  0.00000000000E+00  0.00000000000E+00  0.85714443117E+03  0.85714443117E+03  0.00000000000E+00 0. -1.
         -3   -1    0    0    0  501 -0.00000000000E+00 -0.00000000000E+00 -0.18162195055E+03  0.18162195055E+03  0.00000000000E+00 0.  1.
         23    2    1    2    0    0 -0.27603940032E+03  0.22618208137E+03  0.16497892265E+03  0.40344161743E+03  0.90504194890E+02 0.  0.
          5    1    1    2  502    0  0.85349283696E+02 -0.14466078253E+03  0.26629622065E+03  0.31487618100E+03  0.47000000000E+01 0.  1.
         -5    1    1    2    0  502  0.19069011662E+03 -0.81521298836E+02  0.24424733732E+03  0.32044858329E+03  0.47000000000E+01 0.  1.
        -11    1    3    3    0    0 -0.15250654623E+03  0.66929492069E+02  0.78623145280E+02  0.18417220888E+03  0.00000000000E+00 0.  1.
         11    1    3    3    0    0 -0.12353285409E+03  0.15925258930E+03  0.86355777372E+02  0.21926940854E+03  0.00000000000E+00 0. -1.
<mgrwt>
<rscale>  0 0.37561483E+03</rscale>
<asrwt>0</asrwt>
<pdfrwt beam="1">  1        3 0.13186837E+00 0.37813071E+03</pdfrwt>
<pdfrwt beam="2">  1       -3 0.27941839E-01 0.37813071E+03</pdfrwt>
<totfact> 0.14480634E+01</totfact>
</mgrwt>
</event>
<event>
 7    1  0.1020736E-005  0.1905030E+03  0.7546771E-02  0.1162804E+00
         -2   -1    0    0    0  501 -0.00000000000E+00  0.00000000000E+00  0.67583344615E+02  0.67583344615E+02  0.00000000000E+00 0.  1.
          2   -1    0    0  501    0  0.00000000000E+00 -0.00000000000E+00 -0.48774442406E+03  0.48774442406E+03  0.00000000000E+00 0. -1.
         23    2    1    2    0    0  0.84524810173E+02  0.11629017485E+03 -0.22911206663E+03  0.28552948839E+03  0.91470767820E+02 0.  0.
          5    1    1    2  502    0 -0.52813241279E+02  0.56306229231E+01 -0.10314561259E+03  0.11611222918E+03  0.47000000000E+01 0.  1.
         -5    1    1    2    0  502 -0.31711568895E+02 -0.12192079777E+03 -0.87903400225E+02  0.15368605110E+03  0.47000000000E+01 0.  1.
        -11    1    3    3    0    0  0.91463735340E+02  0.61745826328E+02 -0.11802668849E+03  0.16158112869E+03  0.00000000000E+00 0.  1.
         11    1    3    3    0    0 -0.69389251663E+01  0.54544348521E+02 -0.11108537814E+03  0.12394835971E+03  0.00000000000E+00 0. -1.
<mgrwt>
<rscale>  0 0.18526403E+03</rscale>
<asrwt>0</asrwt>
<pdfrwt beam="2">  1        2 0.75037604E-01 0.19050298E+03</pdfrwt>
<pdfrwt beam="1">  1       -2 0.10397438E-01 0.19050298E+03</pdfrwt>
<totfact> 0.39219939E+03</totfact>
</mgrwt>
</event>
<event>
 7    1  0.1020736E-005  0.2006433E+03  0.7546771E-02  0.1168065E+00
         -2   -1    0    0    0  501 -0.00000000000E+00  0.00000000000E+00  0.13944990679E+02  0.13944990679E+02  0.00000000000E+00 0.  1.
          2   -1    0    0  501    0  0.00000000000E+00 -0.00000000000E+00 -0.26717936922E+04  0.26717936922E+04  0.00000000000E+00 0. -1.
         23    2    1    2    0    0  0.26326690974E+02 -0.92317483306E+02 -0.43296889441E+03  0.45183002700E+03  0.86444764969E+02 0.  0.
          5    1    1    2  502    0  0.65580874389E-01  0.10187846444E+03 -0.21671082452E+04  0.21695067325E+04  0.47000000000E+01 0. -1.
         -5    1    1    2    0  502 -0.26392271849E+02 -0.95609811329E+01 -0.57771561943E+02  0.64401923441E+02  0.47000000000E+01 0.  1.
        -11    1    3    3    0    0  0.54696301913E+02 -0.56501947740E+02 -0.32894165333E+03  0.33821112761E+03  0.00000000000E+00 0.  1.
         11    1    3    3    0    0 -0.28369610939E+02 -0.35815535566E+02 -0.10402724108E+03  0.11361889940E+03  0.00000000000E+00 0. -1.
<mgrwt>
<rscale>  0 0.17972977E+03</rscale>
<asrwt>0</asrwt>
<pdfrwt beam="2">  1        2 0.41104513E+00 0.20064328E+03</pdfrwt>
<pdfrwt beam="1">  1       -2 0.21453835E-02 0.20064328E+03</pdfrwt>
<totfact> 0.22611385E+03</totfact>
</mgrwt>
</event>
<event>
 7    1  0.1020736E-005  0.1580916E+03  0.7546771E-02  0.1192791E+00
          1   -1    0    0  501    0  0.00000000000E+00  0.00000000000E+00  0.64403145914E+02  0.64403145914E+02  0.00000000000E+00 0. -1.
         -1   -1    0    0    0  501 -0.00000000000E+00 -0.00000000000E+00 -0.38252997153E+03  0.38252997153E+03  0.00000000000E+00 0.  1.
         23    2    1    2    0    0 -0.35061290567E+02  0.90222668965E+02 -0.19259757572E+03  0.24506543571E+03  0.11659252769E+03 0.  0.
          5    1    1    2  502    0 -0.28080644851E+02 -0.56420126167E+02 -0.11233343429E+03  0.12889004505E+03  0.47000000000E+01 0. -1.
         -5    1    1    2    0  502  0.63141935418E+02 -0.33802542798E+02 -0.13195815607E+02  0.72977636694E+02  0.47000000000E+01 0. -1.
        -11    1    3    3    0    0 -0.59189628863E+02  0.54182564057E+02 -0.18415703184E+03  0.20088049877E+03  0.00000000000E+00 0.  1.
         11    1    3    3    0    0  0.24128338296E+02  0.36040104908E+02 -0.84405438810E+01  0.44184936932E+02  0.00000000000E+00 0. -1.
<mgrwt>
<rscale>  0 0.15642668E+03</rscale>
<asrwt>0</asrwt>
<pdfrwt beam="1">  1        1 0.99081761E-02 0.15809165E+03</pdfrwt>
<pdfrwt beam="2">  1       -1 0.58850766E-01 0.15809165E+03</pdfrwt>
<totfact> 0.19192801E+03</totfact>
</mgrwt>
</event>
<event>
 7    1  0.1020736E-005  0.2606898E+03  0.7546771E-02  0.1109177E+00
          2   -1    0    0  501    0  0.00000000000E+00  0.00000000000E+00  0.20967411310E+04  0.20967411310E+04  0.00000000000E+00 0. -1.
         -2   -1    0    0    0  501 -0.00000000000E+00 -0.00000000000E+00 -0.30897206427E+02  0.30897206427E+02  0.00000000000E+00 0.  1.
         23    2    1    2    0    0 -0.19957082559E+03 -0.11183229442E+03  0.11252403510E+04  0.11515777482E+04  0.87352653048E+02 0.  0.
          5    1    1    2  502    0  0.10976768041E+03  0.12105546615E+03  0.70509790247E+03  0.72380143107E+03  0.47000000000E+01 0. -1.
         -5    1    1    2    0  502  0.89803145182E+02 -0.92231717375E+01  0.23550567105E+03  0.25225915817E+03  0.47000000000E+01 0. -1.
        -11    1    3    3    0    0 -0.61856829637E+02  0.70402798932E+01  0.25051838908E+03  0.25813813392E+03  0.00000000000E+00 0.  1.
         11    1    3    3    0    0 -0.13771399596E+03 -0.11887257431E+03  0.87472196193E+03  0.89343961424E+03  0.00000000000E+00 0. -1.
<mgrwt>
<rscale>  0 0.25664377E+03</rscale>
<asrwt>0</asrwt>
<pdfrwt beam="1">  1        2 0.32257545E+00 0.26068984E+03</pdfrwt>
<pdfrwt beam="2">  1       -2 0.47534180E-02 0.26068984E+03</pdfrwt>
<totfact> 0.13983149E+03</totfact>
</mgrwt>
</event>
<event>
 7    1  0.1020736E-005  0.2177777E+03  0.7546771E-02  0.1139024E+00
          2   -1    0    0  501    0  0.00000000000E+00  0.00000000000E+00  0.10821267321E+04  0.10821267321E+04  0.00000000000E+00 0. -1.
         -2   -1    0    0    0  501 -0.00000000000E+00 -0.00000000000E+00 -0.46512068424E+02  0.46512068424E+02  0.00000000000E+00 0.  1.
         23    2    1    2    0    0  0.80108459112E+02 -0.15931875646E+03  0.29383128512E+03  0.35554779574E+03  0.90981204429E+02 0.  0.
          5    1    1    2  502    0 -0.72332041248E+01 -0.20825243994E+02  0.58375530693E+02  0.62576374240E+02  0.47000000000E+01 0.  1.
         -5    1    1    2    0  502 -0.72875254988E+02  0.18014400046E+03  0.68340784782E+03  0.71051463050E+03  0.47000000000E+01 0.  1.
        -11    1    3    3    0    0  0.41098065669E+02 -0.12203645617E+03  0.12967475576E+03  0.18274980142E+03  0.00000000000E+00 0. -1.
         11    1    3    3    0    0  0.39010393443E+02 -0.37282300293E+02  0.16415652935E+03  0.17279799432E+03  0.00000000000E+00 0.  1.
<mgrwt>
<rscale>  0 0.21324188E+03</rscale>
<asrwt>0</asrwt>
<pdfrwt beam="1">  1        2 0.16648102E+00 0.21777769E+03</pdfrwt>
<pdfrwt beam="2">  1       -2 0.71557037E-02 0.21777769E+03</pdfrwt>
<totfact> 0.26271221E+03</totfact>
</mgrwt>
</event>
<event>
 7    1  0.1020736E-005  0.1585632E+03  0.7546771E-02  0.1198548E+00
          1   -1    0    0  501    0  0.00000000000E+00  0.00000000000E+00  0.25603132920E+03  0.25603132920E+03  0.00000000000E+00 0. -1.
         -1   -1    0    0    0  501 -0.00000000000E+00 -0.00000000000E+00 -0.82672424090E+02  0.82672424090E+02  0.00000000000E+00 0.  1.
         23    2    1    2    0    0  0.58066312085E+02 -0.78393292043E+02  0.79046012544E+02  0.15421195547E+03  0.89531280982E+02 0.  0.
          5    1    1    2  502    0  0.21721715007E+02  0.75065537963E+02  0.52140764286E+02  0.94060710144E+02  0.47000000000E+01 0. -1.
         -5    1    1    2    0  502 -0.79788027092E+02  0.33277540797E+01  0.42172128279E+02  0.90431087675E+02  0.47000000000E+01 0. -1.
        -11    1    3    3    0    0  0.66655628331E+02 -0.93089853237E+02  0.62355780076E+02  0.13037230102E+03  0.00000000000E+00 0.  1.
         11    1    3    3    0    0 -0.85893162460E+01  0.14696561194E+02  0.16690232469E+02  0.23839654452E+02  0.00000000000E+00 0. -1.
<mgrwt>
<rscale>  0 0.15157727E+03</rscale>
<asrwt>0</asrwt>
<pdfrwt beam="1">  1        1 0.39389435E-01 0.15856324E+03</pdfrwt>
<pdfrwt beam="2">  1       -1 0.12718835E-01 0.15856324E+03</pdfrwt>
<totfact> 0.43381620E+03</totfact>
</mgrwt>
</event>
<event>
 7    1  0.1020736E-005  0.1367619E+03  0.7546771E-02  0.1229641E+00
         -1   -1    0    0    0  501 -0.00000000000E+00  0.00000000000E+00  0.39649264322E+03  0.39649264322E+03  0.00000000000E+00 0.  1.
          1   -1    0    0  501    0  0.00000000000E+00 -0.00000000000E+00 -0.44554231038E+02  0.44554231038E+02  0.00000000000E+00 0. -1.
         23    2    1    2    0    0  0.28817042594E+02 -0.47415813682E+02  0.24568272385E+03  0.26785889226E+03  0.91157578031E+02 0.  0.
          5    1    1    2  502    0 -0.58914762012E+02  0.34402121121E+02  0.72273847452E+01  0.68766126914E+02  0.47000000000E+01 0. -1.
         -5    1    1    2    0  502  0.30097719418E+02  0.13013692561E+02  0.99028303580E+02  0.10442185508E+03  0.47000000000E+01 0. -1.
        -11    1    3    3    0    0  0.31912628081E+02 -0.66651506180E+02  0.23341918301E+03  0.24483740340E+03  0.00000000000E+00 0. -1.
         11    1    3    3    0    0 -0.30955854870E+01  0.19235692498E+02  0.12263540846E+02  0.23021488863E+02  0.00000000000E+00 0.  1.
<mgrwt>
<rscale>  0 0.12853799E+03</rscale>
<asrwt>0</asrwt>
<pdfrwt beam="2">  1        1 0.68544973E-02 0.13676186E+03</pdfrwt>
<pdfrwt beam="1">  1       -1 0.60998866E-01 0.13676186E+03</pdfrwt>
<totfact> 0.29196256E+03</totfact>
</mgrwt>
</event>
<event>
 7    1  0.1020736E-005  0.1298721E+03  0.7546771E-02  0.1239902E+00
          2   -1    0    0  501    0  0.00000000000E+00  0.00000000000E+00  0.35255860842E+03  0.35255860842E+03  0.00000000000E+00 0. -1.
         -2   -1    0    0    0  501 -0.00000000000E+00 -0.00000000000E+00 -0.57969781580E+02  0.57969781580E+02  0.00000000000E+00 0.  1.
         23    2    1    2    0    0 -0.35230921849E+02 -0.57606819803E+00  0.14807001396E+02  0.10207315524E+03  0.94647408953E+02 0.  0.
          5    1    1    2  502    0  0.46537131175E+02 -0.40121068614E+02  0.24758052782E+03  0.25513449881E+03  0.47000000000E+01 0.  1.
         -5    1    1    2    0  502 -0.11306209326E+02  0.40697136813E+02  0.32201297624E+02  0.53320735954E+02  0.47000000000E+01 0.  1.
        -11    1    3    3    0    0 -0.51332123834E+02  0.57911997982E+00 -0.26465628213E+02  0.57755967605E+02  0.00000000000E+00 0.  1.
         11    1    3    3    0    0  0.16101201985E+02 -0.11551881778E+01  0.41272629609E+02  0.44317187636E+02  0.00000000000E+00 0. -1.
<mgrwt>
<rscale>  0 0.12195798E+03</rscale>
<asrwt>0</asrwt>
<pdfrwt beam="1">  1        2 0.54239784E-01 0.12987210E+03</pdfrwt>
<pdfrwt beam="2">  1       -2 0.89184282E-02 0.12987210E+03</pdfrwt>
<totfact> 0.69477639E+03</totfact>
</mgrwt>
</event>
<event>
 7    1  0.1020736E-005  0.1740054E+03  0.7546771E-02  0.1179511E+00
          2   -1    0    0  501    0  0.00000000000E+00  0.00000000000E+00  0.10341624590E+04  0.10341624590E+04  0.00000000000E+00 0. -1.
         -2   -1    0    0    0  501 -0.00000000000E+00 -0.00000000000E+00 -0.28441785815E+02  0.28441785815E+02  0.00000000000E+00 0.  1.
         23    2    1    2    0    0  0.12039523016E+03 -0.12531084400E+02  0.31155862303E+03  0.34696547814E+03  0.93081834480E+02 0.  0.
          5    1    1    2  502    0 -0.63952305617E+01 -0.31742135779E+02  0.48661711865E+02  0.58638846845E+02  0.47000000000E+01 0. -1.
         -5    1    1    2    0  502 -0.11399999960E+03  0.44273220179E+02  0.64550033833E+03  0.65699991988E+03  0.47000000000E+01 0. -1.
        -11    1    3    3    0    0  0.53109168188E+01 -0.28344079557E+02  0.11578012351E+03  0.11931734863E+03  0.00000000000E+00 0. -1.
         11    1    3    3    0    0  0.11508431334E+03  0.15812995157E+02  0.19577849952E+03  0.22764812951E+03  0.00000000000E+00 0.  1.
<mgrwt>
<rscale>  0 0.16841451E+03</rscale>
<asrwt>0</asrwt>
<pdfrwt beam="1">  1        2 0.15910189E+00 0.17400544E+03</pdfrwt>
<pdfrwt beam="2">  1       -2 0.43756602E-02 0.17400544E+03</pdfrwt>
<totfact> 0.59036743E+03</totfact>
</mgrwt>
</event>
<event>
 6    1  0.1020736E-005  0.5117005E+03  0.7546771E-02  0.1088325E+00
         -2   -1    0    0    0  501 -0.00000000000E+00  0.00000000000E+00  0.92648461041E+02  0.92648461041E+02  0.00000000000E+00 0.  1.
          2   -1    0    0  501    0  0.00000000000E+00 -0.00000000000E+00 -0.93564246200E+03  0.93564246200E+03  0.00000000000E+00 0. -1.
          5    1    1    2  502    0 -0.16990986864E+02 -0.90161686688E+02 -0.83351380034E+03  0.83856136850E+03  0.47000000000E+01 0. -1.
         -5    1    1    2    0  502  0.66062277234E+02  0.11202789063E+03  0.10492325454E+02  0.13056282643E+03  0.47000000000E+01 0.  1.
        -11    1    1    2    0    0 -0.30291044810E+02 -0.10019398933E+02 -0.18574578776E+02  0.36918162568E+02  0.00000000000E+00 0.  1.
         11    1    1    2    0    0 -0.18780245560E+02 -0.11846805008E+02 -0.13979472971E+01  0.22248565545E+02  0.00000000000E+00 0. -1.
<mgrwt>
<rscale>  0 0.29390947E+03</rscale>
<asrwt>0</asrwt>
<pdfrwt beam="2">  1        2 0.14394500E+00 0.51170046E+03</pdfrwt>
<pdfrwt beam="1">  1       -2 0.14253609E-01 0.51170046E+03</pdfrwt>
<totfact> 0.10690150E+03</totfact>
</mgrwt>
</event>
<event>
 7    1  0.1020736E-005  0.1498782E+03  0.7546771E-02  0.1210335E+00
          1   -1    0    0  501    0  0.00000000000E+00  0.00000000000E+00  0.65181832139E+02  0.65181832139E+02  0.00000000000E+00 0. -1.
         -1   -1    0    0    0  501 -0.00000000000E+00 -0.00000000000E+00 -0.29478327200E+03  0.29478327200E+03  0.00000000000E+00 0.  1.
         23    2    1    2    0    0  0.82355343764E+02  0.74398632439E+01 -0.13959274420E+03  0.18513648476E+03  0.89171910064E+02 0.  0.
          5    1    1    2  502    0 -0.16286620784E+02  0.53155840743E+02 -0.55372515707E+02  0.78606634054E+02  0.47000000000E+01 0.  1.
         -5    1    1    2    0  502 -0.66068722980E+02 -0.60595703987E+02 -0.34636179953E+02  0.96221985324E+02  0.47000000000E+01 0.  1.
        -11    1    3    3    0    0  0.62151986575E+02 -0.37156240890E+02 -0.77516100003E+02  0.10607639432E+03  0.00000000000E+00 0.  1.
         11    1    3    3    0    0  0.20203357188E+02  0.44596104134E+02 -0.62076644198E+02  0.79060090441E+02  0.00000000000E+00 0. -1.
<mgrwt>
<rscale>  0 0.14224849E+03</rscale>
<asrwt>0</asrwt>
<pdfrwt beam="1">  1        1 0.10027974E-01 0.14987822E+03</pdfrwt>
<pdfrwt beam="2">  1       -1 0.45351272E-01 0.14987822E+03</pdfrwt>
<totfact> 0.30468257E+03</totfact>
</mgrwt>
</event>
<event>
 7    1  0.1020736E-005  0.1821921E+03  0.7546771E-02  0.1171150E+00
         -1   -1    0    0    0  501 -0.00000000000E+00  0.00000000000E+00  0.39640430345E+03  0.39640430345E+03  0.00000000000E+00 0.  1.
          1   -1    0    0  501    0  0.00000000000E+00 -0.00000000000E+00 -0.11458096243E+03  0.11458096243E+03  0.00000000000E+00 0. -1.
         23    2    1    2    0    0 -0.22298503365E+02  0.13065584331E+03  0.28672704971E+03  0.32872716726E+03  0.90999872637E+02 0.  0.
          5    1    1    2  502    0 -0.40198561822E+01 -0.10618632494E+03  0.49154706413E+02  0.11717495470E+03  0.47000000000E+01 0.  1.
         -5    1    1    2    0  502  0.26318359547E+02 -0.24469518377E+02 -0.54058415097E+02  0.65083143913E+02  0.47000000000E+01 0.  1.
        -11    1    3    3    0    0 -0.30998007074E+01  0.13910375923E+03  0.25840774046E+03  0.29348598761E+03  0.00000000000E+00 0.  1.
         11    1    3    3    0    0 -0.19198702657E+02 -0.84479159138E+01  0.28319309246E+02  0.35241179650E+02  0.00000000000E+00 0. -1.
<mgrwt>
<rscale>  0 0.17658466E+03</rscale>
<asrwt>0</asrwt>
<pdfrwt beam="2">  1        1 0.17627841E-01 0.18219212E+03</pdfrwt>
<pdfrwt beam="1">  1       -1 0.60985277E-01 0.18219212E+03</pdfrwt>
<totfact> 0.84482982E+02</totfact>
</mgrwt>
</event>
<event>
 7    1  0.1020736E-005  0.1261718E+03  0.7546771E-02  0.1240143E+00
          3   -1    0    0  501    0  0.00000000000E+00  0.00000000000E+00  0.77637221786E+03  0.77637221786E+03  0.00000000000E+00 0. -1.
         -3   -1    0    0    0  501 -0.00000000000E+00 -0.00000000000E+00 -0.17988887540E+02  0.17988887540E+02  0.00000000000E+00 0.  1.
         23    2    1    2    0    0 -0.59613216181E+02  0.15034270757E+02  0.32488863438E+03  0.34287800971E+03  0.90735549566E+02 0.  0.
          5    1    1    2  502    0  0.75079626158E+00  0.36906772486E+02  0.23583767876E+03  0.23875546962E+03  0.47000000000E+01 0. -1.
         -5    1    1    2    0  502  0.58862419919E+02 -0.51941043244E+02  0.19765701718E+03  0.21272762607E+03  0.47000000000E+01 0.  1.
        -11    1    3    3    0    0 -0.63332462692E+02 -0.19566262955E+02  0.26895020247E+03  0.27699828679E+03  0.00000000000E+00 0. -1.
         11    1    3    3    0    0  0.37192465114E+01  0.34600533712E+02  0.55938431913E+02  0.65879722925E+02  0.00000000000E+00 0.  1.
<mgrwt>
<rscale>  0 0.12180832E+03</rscale>
<asrwt>0</asrwt>
<pdfrwt beam="1">  1        3 0.11944185E+00 0.12617184E+03</pdfrwt>
<pdfrwt beam="2">  1       -3 0.27675218E-02 0.12617184E+03</pdfrwt>
<totfact> 0.79240446E+02</totfact>
</mgrwt>
</event>
<event>
 7    1  0.1020736E-005  0.1673798E+03  0.7546771E-02  0.1186980E+00
         -2   -1    0    0    0  501 -0.00000000000E+00  0.00000000000E+00  0.64327864655E+02  0.64327864655E+02  0.00000000000E+00 0.  1.
          2   -1    0    0  501    0  0.00000000000E+00 -0.00000000000E+00 -0.42897221168E+03  0.42897221168E+03  0.00000000000E+00 0. -1.
         23    2    1    2    0    0 -0.15634817409E+02  0.11021391787E+03 -0.87425261821E+02  0.16946921638E+03  0.93193796395E+02 0.  0.
          5    1    1    2  502    0  0.18318264547E+02 -0.64388704656E+01 -0.18134939017E+03  0.18244645566E+03  0.47000000000E+01 0.  1.
         -5    1    1    2    0  502 -0.26834471379E+01 -0.10377504740E+03 -0.95869695029E+02  0.14138440429E+03  0.47000000000E+01 0.  1.
        -11    1    3    3    0    0 -0.45771348680E+02  0.30052640734E+02 -0.13642211301E+02  0.56429491441E+02  0.00000000000E+00 0.  1.
         11    1    3    3    0    0  0.30136531271E+02  0.80161277136E+02 -0.73783050520E+02  0.11303972493E+03  0.00000000000E+00 0. -1.
<mgrwt>
<rscale>  0 0.16152974E+03</rscale>
<asrwt>0</asrwt>
<pdfrwt beam="2">  1        2 0.65995725E-01 0.16737982E+03</pdfrwt>
<pdfrwt beam="1">  1       -2 0.98965945E-02 0.16737982E+03</pdfrwt>
<totfact> 0.48533628E+03</totfact>
</mgrwt>
</event>
<event>
 7    1  0.1020736E-005  0.1302753E+03  0.7546771E-02  0.1240281E+00
          2   -1    0    0  501    0  0.00000000000E+00  0.00000000000E+00  0.36987620312E+03  0.36987620312E+03  0.00000000000E+00 0. -1.
         -2   -1    0    0    0  501 -0.00000000000E+00 -0.00000000000E+00 -0.36162851853E+02  0.36162851853E+02  0.00000000000E+00 0.  1.
         23    2    1    2    0    0  0.25418637540E+02 -0.26327855295E+02  0.12003310259E+03  0.15577737224E+03  0.92300492331E+02 0.  0.
          5    1    1    2  502    0  0.10990558635E+02 -0.22628721227E+02  0.17716278399E+03  0.17900165763E+03  0.47000000000E+01 0.  1.
         -5    1    1    2    0  502 -0.36409196176E+02  0.48956576522E+02  0.36517464687E+02  0.71260025106E+02  0.47000000000E+01 0.  1.
        -11    1    3    3    0    0  0.12389326667E+02 -0.24772656133E+02  0.13387154007E+03  0.13670687308E+03  0.00000000000E+00 0. -1.
         11    1    3    3    0    0  0.13029310873E+02 -0.15551991620E+01 -0.13838437478E+02  0.19070499157E+02  0.00000000000E+00 0.  1.
<mgrwt>
<rscale>  0 0.12172332E+03</rscale>
<asrwt>0</asrwt>
<pdfrwt beam="1">  1        2 0.56904029E-01 0.13027533E+03</pdfrwt>
<pdfrwt beam="2">  1       -2 0.55635159E-02 0.13027533E+03</pdfrwt>
<totfact> 0.13596073E+04</totfact>
</mgrwt>
</event>
<event>
 7    1  0.1020736E-005  0.1259833E+03  0.7546771E-02  0.1249161E+00
          1   -1    0    0  501    0  0.00000000000E+00  0.00000000000E+00  0.37740561740E+03  0.37740561740E+03  0.00000000000E+00 0. -1.
         -1   -1    0    0    0  501 -0.00000000000E+00 -0.00000000000E+00 -0.31720217759E+02  0.31720217759E+02  0.00000000000E+00 0.  1.
         23    2    1    2    0    0  0.14957634310E+02 -0.45802220076E+01  0.12623969034E+03  0.15608789374E+03  0.90455856074E+02 0.  0.
          5    1    1    2  502    0 -0.53956777462E+02 -0.39409230626E+02  0.11928141384E+03  0.13680119510E+03  0.47000000000E+01 0. -1.
         -5    1    1    2    0  502  0.38999143152E+02  0.43989452634E+02  0.10016429547E+03  0.11623674632E+03  0.47000000000E+01 0. -1.
        -11    1    3    3    0    0 -0.31575071863E+02 -0.25671787615E+02  0.54588393454E+02  0.68087579943E+02  0.00000000000E+00 0.  1.
         11    1    3    3    0    0  0.46532706173E+02  0.21091565608E+02  0.71651296881E+02  0.88000313797E+02  0.00000000000E+00 0. -1.
<mgrwt>
<rscale>  0 0.11639747E+03</rscale>
<asrwt>0</asrwt>
<pdfrwt beam="1">  1        1 0.58062399E-01 0.12598325E+03</pdfrwt>
<pdfrwt beam="2">  1       -1 0.48800338E-02 0.12598325E+03</pdfrwt>
<totfact> 0.11219472E+04</totfact>
</mgrwt>
</event>
<event>
 7    1  0.1020736E-005  0.1555380E+03  0.7546771E-02  0.1201751E+00
          1   -1    0    0  501    0  0.00000000000E+00  0.00000000000E+00  0.21225974237E+03  0.21225974237E+03  0.00000000000E+00 0. -1.
         -1   -1    0    0    0  501 -0.00000000000E+00 -0.00000000000E+00 -0.18905786569E+03  0.18905786569E+03  0.00000000000E+00 0.  1.
         23    2    1    2    0    0 -0.42373840049E+02 -0.82286219395E+02 -0.12895985152E+03  0.18372797372E+03  0.92513570907E+02 0.  0.
          5    1    1    2  502    0  0.10269252212E+01  0.90849259128E+02  0.14951967288E+03  0.17502247010E+03  0.47000000000E+01 0.  1.
         -5    1    1    2    0  502  0.41346914828E+02 -0.85630397330E+01  0.26420553188E+01  0.42567164242E+02  0.47000000000E+01 0.  1.
        -11    1    3    3    0    0 -0.27032266870E+02 -0.41987359098E+01 -0.92004911262E+02  0.95985814221E+02  0.00000000000E+00 0.  1.
         11    1    3    3    0    0 -0.15341573179E+02 -0.78087483485E+02 -0.36954940255E+02  0.87742159501E+02  0.00000000000E+00 0. -1.
<mgrwt>
<rscale>  0 0.14896428E+03</rscale>
<asrwt>0</asrwt>
<pdfrwt beam="1">  1        1 0.32655345E-01 0.15553796E+03</pdfrwt>
<pdfrwt beam="2">  1       -1 0.29085826E-01 0.15553796E+03</pdfrwt>
<totfact> 0.14458413E+03</totfact>
</mgrwt>
</event>
<event>
 7    1  0.1020736E-005  0.2872165E+03  0.7546771E-02  0.1093348E+00
          2   -1    0    0  501    0  0.00000000000E+00  0.00000000000E+00  0.41275114143E+03  0.41275114143E+03  0.00000000000E+00 0. -1.
         -2   -1    0    0    0  501 -0.00000000000E+00 -0.00000000000E+00 -0.21672509765E+03  0.21672509765E+03  0.00000000000E+00 0.  1.
         23    2    1    2    0    0 -0.29638052402E+02 -0.25687956487E+03 -0.99791194231E+01  0.27601977336E+03  0.96030242417E+02 0.  0.
          5    1    1    2  502    0  0.41556879694E+02  0.17625958476E+03  0.68749105063E+02  0.19376001888E+03  0.47000000000E+01 0. -1.
         -5    1    1    2    0  502 -0.11918827292E+02  0.80619980118E+02  0.13725605815E+03  0.15969644685E+03  0.47000000000E+01 0. -1.
        -11    1    3    3    0    0 -0.26367199090E+02 -0.10989824353E+03 -0.50103026347E+02  0.12362510412E+03  0.00000000000E+00 0.  1.
         11    1    3    3    0    0 -0.32708533123E+01 -0.14698132134E+03  0.40123906924E+02  0.15239466924E+03  0.00000000000E+00 0. -1.
<mgrwt>
<rscale>  0 0.28432899E+03</rscale>
<asrwt>0</asrwt>
<pdfrwt beam="1">  1        2 0.63500175E-01 0.28721655E+03</pdfrwt>
<pdfrwt beam="2">  1       -2 0.33342323E-01 0.28721655E+03</pdfrwt>
<totfact> 0.65113053E+02</totfact>
</mgrwt>
</event>
<event>
 7    1  0.1020736E-005  0.1476604E+03  0.7546771E-02  0.1212882E+00
          1   -1    0    0  501    0  0.00000000000E+00  0.00000000000E+00  0.15442505429E+03  0.15442505429E+03  0.00000000000E+00 0. -1.
         -1   -1    0    0    0  501 -0.00000000000E+00 -0.00000000000E+00 -0.17598086141E+03  0.17598086141E+03  0.00000000000E+00 0.  1.
         23    2    1    2    0    0  0.74843936430E+02 -0.24013287734E+02 -0.10586798985E+03  0.16037024597E+03  0.91281606631E+02 0.  0.
          5    1    1    2  502    0 -0.65994126196E+02  0.62725851148E+02  0.18500410394E+02  0.93027481312E+02  0.47000000000E+01 0. -1.
         -5    1    1    2    0  502 -0.88498102344E+01 -0.38712563415E+02  0.65811772330E+02  0.77008188425E+02  0.47000000000E+01 0. -1.
        -11    1    3    3    0    0  0.36235250503E+02 -0.43999161951E+02 -0.13938104924E+02  0.58678704828E+02  0.00000000000E+00 0. -1.
         11    1    3    3    0    0  0.38608685927E+02  0.19985874218E+02 -0.91929884922E+02  0.10169154114E+03  0.00000000000E+00 0.  1.
<mgrwt>
<rscale>  0 0.14033260E+03</rscale>
<asrwt>0</asrwt>
<pdfrwt beam="1">  1        1 0.23757701E-01 0.14766037E+03</pdfrwt>
<pdfrwt beam="2">  1       -1 0.27073978E-01 0.14766037E+03</pdfrwt>
<totfact> 0.24231757E+03</totfact>
</mgrwt>
</event>
<event>
 7    1  0.1020736E-005  0.2316239E+03  0.7546771E-02  0.1128148E+00
          2   -1    0    0  501    0  0.00000000000E+00  0.00000000000E+00  0.57792182411E+03  0.57792182411E+03  0.00000000000E+00 0. -1.
         -2   -1    0    0    0  501 -0.00000000000E+00 -0.00000000000E+00 -0.13243063108E+03  0.13243063108E+03  0.00000000000E+00 0.  1.
         23    2    1    2    0    0  0.18354603354E+03  0.65845431454E+02  0.10125849185E+02  0.21720682813E+03  0.95139403471E+02 0.  0.
          5    1    1    2  502    0  0.14763837867E+02  0.74317070534E+01  0.15997684464E+02  0.23478012831E+02  0.47000000000E+01 0.  1.
         -5    1    1    2    0  502 -0.19830987141E+03 -0.73277138507E+02  0.41936765938E+03  0.46966761423E+03  0.47000000000E+01 0.  1.
        -11    1    3    3    0    0  0.12532186033E+03 -0.75609096334E+00 -0.12354175277E+02  0.12593159253E+03  0.00000000000E+00 0.  1.
         11    1    3    3    0    0  0.58224173213E+02  0.66601522417E+02  0.22480024463E+02  0.91275235603E+02  0.00000000000E+00 0. -1.
<mgrwt>
<rscale>  0 0.22787033E+03</rscale>
<asrwt>0</asrwt>
<pdfrwt beam="1">  1        2 0.88911049E-01 0.23162389E+03</pdfrwt>
<pdfrwt beam="2">  1       -2 0.20373944E-01 0.23162389E+03</pdfrwt>
<totfact> 0.10740818E+03</totfact>
</mgrwt>
</event>
<event>
 7    1  0.1020736E-005  0.1286937E+03  0.7546771E-02  0.1242640E+00
          2   -1    0    0  501    0  0.00000000000E+00  0.00000000000E+00  0.69292405779E+03  0.69292405779E+03  0.00000000000E+00 0. -1.
         -2   -1    0    0    0  501 -0.00000000000E+00 -0.00000000000E+00 -0.23880908478E+02  0.23880908478E+02  0.00000000000E+00 0.  1.
         23    2    1    2    0    0 -0.23515688210E+02 -0.19698070093E+02  0.13175230460E+03  0.16431649302E+03  0.93275069293E+02 0.  0.
          5    1    1    2  502    0  0.53861180971E+02 -0.33758910210E+02  0.21070556157E+03  0.22013544583E+03  0.47000000000E+01 0. -1.
         -5    1    1    2    0  502 -0.30345492761E+02  0.53456980303E+02  0.32658528314E+03  0.33235302742E+03  0.47000000000E+01 0. -1.
        -11    1    3    3    0    0  0.19315821322E+01 -0.53940352701E+02  0.87799895609E+02  0.10306364212E+03  0.00000000000E+00 0. -1.
         11    1    3    3    0    0 -0.25447270342E+02  0.34242282608E+02  0.43952408996E+02  0.61252850893E+02  0.00000000000E+00 0.  1.
<mgrwt>
<rscale>  0 0.12027753E+03</rscale>
<asrwt>0</asrwt>
<pdfrwt beam="1">  1        2 0.10660369E+00 0.12869367E+03</pdfrwt>
<pdfrwt beam="2">  1       -2 0.36739864E-02 0.12869367E+03</pdfrwt>
<totfact> 0.12605850E+04</totfact>
</mgrwt>
</event>
<event>
 7    1  0.1020736E-005  0.1740017E+03  0.7546771E-02  0.1179012E+00
         -1   -1    0    0    0  501 -0.00000000000E+00  0.00000000000E+00  0.34788992798E+02  0.34788992798E+02  0.00000000000E+00 0.  1.
          1   -1    0    0  501    0  0.00000000000E+00 -0.00000000000E+00 -0.77692193340E+03  0.77692193340E+03  0.00000000000E+00 0. -1.
         23    2    1    2    0    0  0.10776518140E+03  0.55118080037E+02 -0.36825368010E+03  0.39932480964E+03  0.95907213610E+02 0.  0.
          5    1    1    2  502    0 -0.65769534942E+02 -0.38213096735E+02 -0.35504034522E+03  0.36312753851E+03  0.47000000000E+01 0.  1.
         -5    1    1    2    0  502 -0.41995646460E+02 -0.16904983302E+02 -0.18838915285E+02  0.49258578046E+02  0.47000000000E+01 0.  1.
        -11    1    3    3    0    0  0.91470455749E+02  0.10993519989E+01 -0.28011193976E+03  0.29467058158E+03  0.00000000000E+00 0. -1.
         11    1    3    3    0    0  0.16294725652E+02  0.54018728038E+02 -0.88141740337E+02  0.10465422807E+03  0.00000000000E+00 0.  1.
<mgrwt>
<rscale>  0 0.16888854E+03</rscale>
<asrwt>0</asrwt>
<pdfrwt beam="2">  1        1 0.11952644E+00 0.17400175E+03</pdfrwt>
<pdfrwt beam="1">  1       -1 0.53521532E-02 0.17400175E+03</pdfrwt>
<totfact> 0.37706899E+03</totfact>
</mgrwt>
</event>
<event>
 7    1  0.1020736E-005  0.1594285E+03  0.7546771E-02  0.1197179E+00
         -1   -1    0    0    0  501 -0.00000000000E+00  0.00000000000E+00  0.88611569836E+02  0.88611569836E+02  0.00000000000E+00 0.  1.
          1   -1    0    0  501    0  0.00000000000E+00 -0.00000000000E+00 -0.26149339985E+03  0.26149339985E+03  0.00000000000E+00 0. -1.
         23    2    1    2    0    0 -0.25025731675E+02 -0.95787110648E+02 -0.33482714849E+02  0.13832784539E+03  0.90620322243E+02 0.  0.
          5    1    1    2  502    0  0.24626154089E+02  0.12489555068E+03 -0.96916443850E+02  0.16006321606E+03  0.47000000000E+01 0. -1.
         -5    1    1    2    0  502  0.39957758666E+00 -0.29108440037E+02 -0.42482671318E+02  0.51713908245E+02  0.47000000000E+01 0. -1.
        -11    1    3    3    0    0  0.17285504863E+02 -0.88937827947E+02 -0.29488563080E+02  0.95280120019E+02  0.00000000000E+00 0. -1.
         11    1    3    3    0    0 -0.42311236538E+02 -0.68492827007E+01 -0.39941517689E+01  0.43047725367E+02  0.00000000000E+00 0.  1.
<mgrwt>
<rscale>  0 0.15271235E+03</rscale>
<asrwt>0</asrwt>
<pdfrwt beam="2">  1        1 0.40229753E-01 0.15942847E+03</pdfrwt>
<pdfrwt beam="1">  1       -1 0.13632550E-01 0.15942847E+03</pdfrwt>
<totfact> 0.37938735E+03</totfact>
</mgrwt>
</event>
<event>
 7    1  0.1020736E-005  0.1801422E+03  0.7546771E-02  0.1174342E+00
         -1   -1    0    0    0  501 -0.00000000000E+00  0.00000000000E+00  0.14413356159E+03  0.14413356159E+03  0.00000000000E+00 0.  1.
          1   -1    0    0  501    0  0.00000000000E+00 -0.00000000000E+00 -0.21772255459E+03  0.21772255459E+03  0.00000000000E+00 0. -1.
         23    2    1    2    0    0  0.11618038262E+03 -0.57721017403E+02  0.24722799493E+02  0.15663327058E+03  0.84220944442E+02 0.  0.
          5    1    1    2  502    0 -0.36939716178E+01 -0.33931178566E+02 -0.12915272764E+02  0.36794898774E+02  0.47000000000E+01 0.  1.
         -5    1    1    2    0  502 -0.11248641101E+03  0.91652195970E+02 -0.85396519730E+02  0.16842794682E+03  0.47000000000E+01 0.  1.
        -11    1    3    3    0    0  0.34591941062E+02 -0.63778570132E+02  0.16500209072E+02  0.74408099653E+02  0.00000000000E+00 0.  1.
         11    1    3    3    0    0  0.81588441561E+02  0.60575527293E+01  0.82225904207E+01  0.82225170931E+02  0.00000000000E+00 0. -1.
<mgrwt>
<rscale>  0 0.17340555E+03</rscale>
<asrwt>0</asrwt>
<pdfrwt beam="2">  1        1 0.33495777E-01 0.18014219E+03</pdfrwt>
<pdfrwt beam="1">  1       -1 0.22174394E-01 0.18014219E+03</pdfrwt>
<totfact> 0.22041051E+03</totfact>
</mgrwt>
</event>
<event>
 7    1  0.1020736E-005  0.1279409E+03  0.7546771E-02  0.1244958E+00
         -1   -1    0    0    0  501 -0.00000000000E+00  0.00000000000E+00  0.54127603145E+02  0.54127603145E+02  0.00000000000E+00 0.  1.
          1   -1    0    0  501    0  0.00000000000E+00 -0.00000000000E+00 -0.23542272771E+03  0.23542272771E+03  0.00000000000E+00 0. -1.
         23    2    1    2    0    0 -0.27238087129E+02 -0.13393939069E+01 -0.98809826877E+02  0.13732454971E+03  0.91383492480E+02 0.  0.
          5    1    1    2  502    0 -0.62744846374E+01 -0.50604680931E+02 -0.73504861022E+02  0.89583801457E+02  0.47000000000E+01 0. -1.
         -5    1    1    2    0  502  0.33512571767E+02  0.51944074838E+02 -0.89804366673E+01  0.62641979693E+02  0.47000000000E+01 0. -1.
        -11    1    3    3    0    0  0.29342468890E+02  0.33722051634E+01 -0.86483638149E+01  0.30775744425E+02  0.00000000000E+00 0.  1.
         11    1    3    3    0    0 -0.56580556019E+02 -0.47115990703E+01 -0.90161463062E+02  0.10654880528E+03  0.00000000000E+00 0. -1.
<mgrwt>
<rscale>  0 0.11887902E+03</rscale>
<asrwt>0</asrwt>
<pdfrwt beam="2">  1        1 0.36218881E-01 0.12794086E+03</pdfrwt>
<pdfrwt beam="1">  1       -1 0.83273236E-02 0.12794086E+03</pdfrwt>
<totfact> 0.90807157E+03</totfact>
</mgrwt>
</event>
<event>
 7    1  0.1020736E-005  0.1250047E+03  0.7546771E-02  0.1244055E+00
          2   -1    0    0  501    0  0.00000000000E+00  0.00000000000E+00  0.85046577927E+03  0.85046577927E+03  0.00000000000E+00 0. -1.
         -2   -1    0    0    0  501 -0.00000000000E+00 -0.00000000000E+00 -0.15695844832E+03  0.15695844832E+03  0.00000000000E+00 0.  1.
         23    2    1    2    0    0 -0.20841165890E+02 -0.40781982020E+02 -0.13446675057E+03  0.17006692113E+03  0.93508964277E+02 0.  0.
          5    1    1    2  502    0  0.31061924722E+02  0.76981405926E+02  0.65643954634E+03  0.66168417543E+03  0.47000000000E+01 0. -1.
         -5    1    1    2    0  502 -0.10220758831E+02 -0.36199423906E+02  0.17153453519E+03  0.17567313103E+03  0.47000000000E+01 0.  1.
        -11    1    3    3    0    0 -0.16224868573E+02 -0.54876915908E+02 -0.14224145031E+03  0.15332107632E+03  0.00000000000E+00 0.  1.
         11    1    3    3    0    0 -0.46162973177E+01  0.14094933888E+02  0.77746997367E+01  0.16745844805E+02  0.00000000000E+00 0. -1.
<mgrwt>
<rscale>  0 0.11942101E+03</rscale>
<asrwt>0</asrwt>
<pdfrwt beam="1">  1        2 0.13084089E+00 0.12500472E+03</pdfrwt>
<pdfrwt beam="2">  1       -2 0.24147454E-01 0.12500472E+03</pdfrwt>
<totfact> 0.50437726E+02</totfact>
</mgrwt>
</event>
<event>
 7    1  0.1020736E-005  0.1286569E+03  0.7546771E-02  0.1244201E+00
         -3   -1    0    0    0  501 -0.00000000000E+00  0.00000000000E+00  0.14752708730E+03  0.14752708730E+03  0.00000000000E+00 0.  1.
          3   -1    0    0  501    0  0.00000000000E+00 -0.00000000000E+00 -0.88718387698E+02  0.88718387698E+02  0.00000000000E+00 0. -1.
         23    2    1    2    0    0 -0.30321146065E+02  0.28877768626E+01  0.49323581604E+02  0.10723937585E+03  0.90220601180E+02 0.  0.
          5    1    1    2  502    0 -0.15361918133E+02  0.53427395247E+02  0.55736656566E+00  0.55793151453E+02  0.47000000000E+01 0. -1.
         -5    1    1    2    0  502  0.45683064198E+02 -0.56315172109E+02  0.89277514328E+01  0.73212947693E+02  0.47000000000E+01 0. -1.
        -11    1    3    3    0    0 -0.21880594134E+02  0.28312973030E+02  0.66429856936E+02  0.75454030601E+02  0.00000000000E+00 0.  1.
         11    1    3    3    0    0 -0.84405519308E+01 -0.25425196168E+02 -0.17106275332E+02  0.31785345252E+02  0.00000000000E+00 0. -1.
<mgrwt>
<rscale>  0 0.11933302E+03</rscale>
<asrwt>0</asrwt>
<pdfrwt beam="2">  1        3 0.13648983E-01 0.12865693E+03</pdfrwt>
<pdfrwt beam="1">  1       -3 0.22696475E-01 0.12865693E+03</pdfrwt>
<totfact> 0.17761859E+03</totfact>
</mgrwt>
</event>
<event>
 7    1  0.1020736E-005  0.3118025E+03  0.7546771E-02  0.1110981E+00
          2   -1    0    0  501    0  0.00000000000E+00  0.00000000000E+00  0.30295344268E+03  0.30295344268E+03  0.00000000000E+00 0. -1.
         -2   -1    0    0    0  501 -0.00000000000E+00 -0.00000000000E+00 -0.17228087839E+03  0.17228087839E+03  0.00000000000E+00 0.  1.
         23    2    1    2    0    0 -0.83786589330E+02 -0.60165394299E+02 -0.12012542733E+01  0.13669112825E+03  0.89682519525E+02 0.  0.
          5    1    1    2  502    0  0.12119087942E+03 -0.64923870613E+02  0.15349554599E+03  0.20611965182E+03  0.47000000000E+01 0. -1.
         -5    1    1    2    0  502 -0.37404290086E+02  0.12508926491E+03 -0.21621727425E+02  0.13242354100E+03  0.47000000000E+01 0.  1.
        -11    1    3    3    0    0 -0.10278443752E+03 -0.56656587088E+02 -0.81538412186E+00  0.11736811453E+03  0.00000000000E+00 0.  1.
         11    1    3    3    0    0  0.18997848186E+02 -0.35088072110E+01 -0.38587015145E+00  0.19323013727E+02  0.00000000000E+00 0. -1.
<mgrwt>
<rscale>  0 0.25371174E+03</rscale>
<asrwt>0</asrwt>
<pdfrwt beam="1">  1        2 0.46608222E-01 0.31180248E+03</pdfrwt>
<pdfrwt beam="2">  1       -2 0.26504750E-01 0.31180248E+03</pdfrwt>
<totfact> 0.13875767E+03</totfact>
</mgrwt>
</event>
<event>
 7    1  0.1020736E-005  0.1810117E+03  0.7546771E-02  0.1172641E+00
          2   -1    0    0  501    0  0.00000000000E+00  0.00000000000E+00  0.42194269405E+03  0.42194269405E+03  0.00000000000E+00 0. -1.
         -2   -1    0    0    0  501 -0.00000000000E+00 -0.00000000000E+00 -0.75402391248E+02  0.75402391248E+02  0.00000000000E+00 0.  1.
         23    2    1    2    0    0  0.13076058484E+03  0.64791721694E+01  0.86583350480E+02  0.18057567745E+03  0.89278152347E+02 0.  0.
          5    1    1    2  502    0 -0.87365195185E+02  0.22577532999E+02  0.24663741891E+03  0.26266809614E+03  0.47000000000E+01 0. -1.
         -5    1    1    2    0  502 -0.43395389652E+02 -0.29056705169E+02  0.13319533417E+02  0.54101311710E+02  0.47000000000E+01 0. -1.
        -11    1    3    3    0    0  0.95564973166E+01  0.56512416143E+01  0.53911112149E+02  0.55042448945E+02  0.00000000000E+00 0. -1.
         11    1    3    3    0    0  0.12120408752E+03  0.82793055507E+00  0.32672238331E+02  0.12553322850E+03  0.00000000000E+00 0.  1.
<mgrwt>
<rscale>  0 0.17509058E+03</rscale>
<asrwt>0</asrwt>
<pdfrwt beam="1">  1        2 0.64914259E-01 0.18101171E+03</pdfrwt>
<pdfrwt beam="2">  1       -2 0.11600368E-01 0.18101171E+03</pdfrwt>
<totfact> 0.38518477E+03</totfact>
</mgrwt>
</event>
<event>
 7    1  0.1020736E-005  0.2707483E+03  0.7546771E-02  0.1102815E+00
         -1   -1    0    0    0  501 -0.00000000000E+00  0.00000000000E+00  0.17393117274E+03  0.17393117274E+03  0.00000000000E+00 0.  1.
          1   -1    0    0  501    0  0.00000000000E+00 -0.00000000000E+00 -0.47763437249E+03  0.47763437249E+03  0.00000000000E+00 0. -1.
         23    2    1    2    0    0 -0.92893917916E+01 -0.23998676571E+03 -0.18039582558E+02  0.25798158200E+03  0.92461503312E+02 0.  0.
          5    1    1    2  502    0  0.27914291293E+02  0.71893706106E+02 -0.22053375110E+02  0.80351440496E+02  0.47000000000E+01 0. -1.
         -5    1    1    2    0  502 -0.18624899501E+02  0.16809305960E+03 -0.26361024208E+03  0.31323252273E+03  0.47000000000E+01 0. -1.
        -11    1    3    3    0    0 -0.32574398346E+02 -0.21557072569E+03  0.33314993826E+01  0.21804340873E+03  0.00000000000E+00 0. -1.
         11    1    3    3    0    0  0.23285006554E+02 -0.24416040016E+02 -0.21371081941E+02  0.39938173263E+02  0.00000000000E+00 0.  1.
<mgrwt>
<rscale>  0 0.26733472E+03</rscale>
<asrwt>0</asrwt>
<pdfrwt beam="2">  1        1 0.73482212E-01 0.27074829E+03</pdfrwt>
<pdfrwt beam="1">  1       -1 0.26758642E-01 0.27074829E+03</pdfrwt>
<totfact> 0.59872445E+02</totfact>
</mgrwt>
</event>
<event>
 7    1  0.1020736E-005  0.2207119E+03  0.7546771E-02  0.1133353E+00
          2   -1    0    0  501    0  0.00000000000E+00  0.00000000000E+00  0.14880967303E+03  0.14880967303E+03  0.00000000000E+00 0. -1.
         -2   -1    0    0    0  501 -0.00000000000E+00 -0.00000000000E+00 -0.81838979292E+02  0.81838979292E+02  0.00000000000E+00 0.  1.
         23    2    1    2    0    0 -0.82528426450E+01 -0.22242559862E+02  0.22588860923E+02  0.95924056803E+02  0.90157235732E+02 0.  0.
          5    1    1    2  502    0  0.52813474898E+02  0.51296826855E+02  0.27103023138E+02  0.78595746955E+02  0.47000000000E+01 0. -1.
         -5    1    1    2    0  502 -0.44560632253E+02 -0.29054266993E+02  0.17278809678E+02  0.56128848565E+02  0.47000000000E+01 0. -1.
        -11    1    3    3    0    0  0.77780673703E+01  0.19268534697E+02  0.42397187928E+02  0.47215424445E+02  0.00000000000E+00 0. -1.
         11    1    3    3    0    0 -0.16030910015E+02 -0.41511094559E+02 -0.19808327005E+02  0.48708632357E+02  0.00000000000E+00 0.  1.
<mgrwt>
<rscale>  0 0.22071186E+03</rscale>
<asrwt>0</asrwt>
<pdfrwt beam="1">  1        2 0.22893796E-01 0.22071186E+03</pdfrwt>
<pdfrwt beam="2">  1       -2 0.12590612E-01 0.22071186E+03</pdfrwt>
<totfact> 0.10600093E+04</totfact>
</mgrwt>
</event>
<event>
 7    1  0.1020736E-005  0.1542957E+03  0.7546771E-02  0.1203892E+00
         -1   -1    0    0    0  501 -0.00000000000E+00  0.00000000000E+00  0.67677709911E+03  0.67677709911E+03  0.00000000000E+00 0.  1.
          1   -1    0    0  501    0  0.00000000000E+00 -0.00000000000E+00 -0.36045864976E+02  0.36045864976E+02  0.00000000000E+00 0. -1.
         23    2    1    2    0    0  0.86231573824E+02  0.27310838948E+02  0.44807218991E+03  0.46599372973E+03  0.90552208835E+02 0.  0.
          5    1    1    2  502    0  0.13039437779E+02  0.59185535478E+01 -0.10409647825E+02  0.18316849661E+02  0.47000000000E+01 0.  1.
         -5    1    1    2    0  502 -0.99271011603E+02 -0.33229392496E+02  0.20306869204E+03  0.22851238469E+03  0.47000000000E+01 0.  1.
        -11    1    3    3    0    0 -0.10278880961E+02  0.29688632906E+02  0.11460790622E+03  0.11883620023E+03  0.00000000000E+00 0.  1.
         11    1    3    3    0    0  0.96510454785E+02 -0.23777939579E+01  0.33346428370E+03  0.34715752950E+03  0.00000000000E+00 0. -1.
<mgrwt>
<rscale>  0 0.14725141E+03</rscale>
<asrwt>0</asrwt>
<pdfrwt beam="2">  1        1 0.55455182E-02 0.15429570E+03</pdfrwt>
<pdfrwt beam="1">  1       -1 0.10411954E+00 0.15429570E+03</pdfrwt>
<totfact> 0.13039394E+03</totfact>
</mgrwt>
</event>
<event>
 7    1  0.1020736E-005  0.1723528E+03  0.7546771E-02  0.1182298E+00
          1   -1    0    0  501    0  0.00000000000E+00  0.00000000000E+00  0.11240079806E+04  0.11240079806E+04  0.00000000000E+00 0. -1.
         -1   -1    0    0    0  501 -0.00000000000E+00 -0.00000000000E+00 -0.25885891748E+02  0.25885891748E+02  0.00000000000E+00 0.  1.
         23    2    1    2    0    0 -0.11197809218E+03  0.39240699348E+02  0.31273994725E+03  0.34582260521E+03  0.87795638030E+02 0.  0.
          5    1    1    2  502    0  0.11077739331E+03 -0.33464235035E+02  0.78770869311E+03  0.79617746834E+03  0.47000000000E+01 0. -1.
         -5    1    1    2    0  502  0.12006988701E+01 -0.57764643126E+01 -0.23265514956E+01  0.78937988062E+01  0.47000000000E+01 0. -1.
        -11    1    3    3    0    0 -0.48675828330E+02  0.26033162599E+02  0.24892239821E+03  0.25496945336E+03  0.00000000000E+00 0. -1.
         11    1    3    3    0    0 -0.63302263848E+02  0.13207536749E+02  0.63817549040E+02  0.90853151847E+02  0.00000000000E+00 0.  1.
<mgrwt>
<rscale>  0 0.16580151E+03</rscale>
<asrwt>0</asrwt>
<pdfrwt beam="1">  1        1 0.17292427E+00 0.17235282E+03</pdfrwt>
<pdfrwt beam="2">  1       -1 0.39824458E-02 0.17235282E+03</pdfrwt>
<totfact> 0.31818958E+03</totfact>
</mgrwt>
</event>
<event>
 7    1  0.1020736E-005  0.1938658E+03  0.7546771E-02  0.1162137E+00
         -1   -1    0    0    0  501 -0.00000000000E+00  0.00000000000E+00  0.33198288367E+03  0.33198288367E+03  0.00000000000E+00 0.  1.
          1   -1    0    0  501    0  0.00000000000E+00 -0.00000000000E+00 -0.10678543978E+03  0.10678543978E+03  0.00000000000E+00 0. -1.
         23    2    1    2    0    0  0.12545699048E+03  0.60111256491E+02  0.17187571278E+03  0.23770331621E+03  0.87228357048E+02 0.  0.
          5    1    1    2  502    0 -0.73703226160E+02 -0.95191792210E+02  0.65588408849E+02  0.13717715636E+03  0.47000000000E+01 0. -1.
         -5    1    1    2    0  502 -0.51753764319E+02  0.35080535720E+02 -0.12266677746E+02  0.63887850883E+02  0.47000000000E+01 0.  1.
        -11    1    3    3    0    0  0.64305867020E+02 -0.14488401472E+02  0.52782505200E+02  0.84446143580E+02  0.00000000000E+00 0. -1.
         11    1    3    3    0    0  0.61151123459E+02  0.74599657963E+02  0.11909320758E+03  0.15325717263E+03  0.00000000000E+00 0.  1.
<mgrwt>
<rscale>  0 0.18598120E+03</rscale>
<asrwt>0</asrwt>
<pdfrwt beam="2">  1        1 0.16428529E-01 0.19386575E+03</pdfrwt>
<pdfrwt beam="1">  1       -1 0.51074289E-01 0.19386575E+03</pdfrwt>
<totfact> 0.12942384E+03</totfact>
</mgrwt>
</event>
<event>
 7    1  0.1020736E-005  0.1358252E+03  0.7546771E-02  0.1231701E+00
         -1   -1    0    0    0  501 -0.00000000000E+00  0.00000000000E+00  0.20866449092E+02  0.20866449092E+02  0.00000000000E+00 0.  1.
          1   -1    0    0  501    0  0.00000000000E+00 -0.00000000000E+00 -0.76027570667E+03  0.76027570667E+03  0.00000000000E+00 0. -1.
         23    2    1    2    0    0  0.38171485733E+02  0.36968674782E+02 -0.20913967438E+03  0.23375352999E+03  0.89875269924E+02 0.  0.
          5    1    1    2  502    0  0.15373547068E+02  0.31954161537E+00 -0.41134096898E+03  0.41165511149E+03  0.47000000000E+01 0. -1.
         -5    1    1    2    0  502 -0.53545032802E+02 -0.37288216397E+02 -0.11892861422E+03  0.13573351429E+03  0.47000000000E+01 0. -1.
        -11    1    3    3    0    0 -0.24026302730E+02  0.18412441163E+02 -0.11827808169E+03  0.12209007257E+03  0.00000000000E+00 0. -1.
         11    1    3    3    0    0  0.62197788463E+02  0.18556233619E+02 -0.90861592687E+02  0.11166345741E+03  0.00000000000E+00 0.  1.
<mgrwt>
<rscale>  0 0.12718035E+03</rscale>
<asrwt>0</asrwt>
<pdfrwt beam="2">  1        1 0.11696547E+00 0.13582517E+03</pdfrwt>
<pdfrwt beam="1">  1       -1 0.32102236E-02 0.13582517E+03</pdfrwt>
<totfact> 0.81842579E+03</totfact>
</mgrwt>
</event>
<event>
 7    1  0.1020736E-005  0.2115732E+03  0.7546771E-02  0.1143875E+00
          1   -1    0    0  501    0  0.00000000000E+00  0.00000000000E+00  0.26312373652E+03  0.26312373652E+03  0.00000000000E+00 0. -1.
         -1   -1    0    0    0  501 -0.00000000000E+00 -0.00000000000E+00 -0.20908674948E+03  0.20908674948E+03  0.00000000000E+00 0.  1.
         23    2    1    2    0    0 -0.14898149478E+03  0.83492541311E+02 -0.92171233434E+02  0.21503334582E+03  0.92613785695E+02 0.  0.
          5    1    1    2  502    0  0.22441956821E+02 -0.63463998916E+02  0.10053893537E+03  0.12108463202E+03  0.47000000000E+01 0. -1.
         -5    1    1    2    0  502  0.12653953796E+03 -0.20028542395E+02  0.45669285099E+02  0.13609250817E+03  0.47000000000E+01 0. -1.
        -11    1    3    3    0    0 -0.12659835898E+03  0.10403514812E+03 -0.76248182221E+02  0.18073251460E+03  0.00000000000E+00 0. -1.
         11    1    3    3    0    0 -0.22383135801E+02 -0.20542606808E+02 -0.15923051213E+02  0.34300831225E+02  0.00000000000E+00 0.  1.
<mgrwt>
<rscale>  0 0.20711009E+03</rscale>
<asrwt>0</asrwt>
<pdfrwt beam="1">  1        1 0.40480575E-01 0.21157324E+03</pdfrwt>
<pdfrwt beam="2">  1       -1 0.32167192E-01 0.21157324E+03</pdfrwt>
<totfact> 0.93714078E+02</totfact>
</mgrwt>
</event>
<event>
 7    1  0.1020736E-005  0.2591453E+03  0.7546771E-02  0.1109964E+00
         -1   -1    0    0    0  501 -0.00000000000E+00  0.00000000000E+00  0.58508901171E+02  0.58508901171E+02  0.00000000000E+00 0. -1.
          1   -1    0    0  501    0  0.00000000000E+00 -0.00000000000E+00 -0.11833447187E+04  0.11833447187E+04  0.00000000000E+00 0.  1.
         23    2    1    2    0    0 -0.18173687211E+03 -0.13600617419E+03 -0.36662454413E+03  0.44057923896E+03  0.90391035701E+02 0.  0.
          5    1    1    2  502    0  0.15290545208E+03  0.42235534196E+02 -0.41584491481E+03  0.44509886632E+03  0.47000000000E+01 0.  1.
         -5    1    1    2    0  502  0.28831420031E+02  0.93770639994E+02 -0.34236635861E+03  0.35617551462E+03  0.47000000000E+01 0.  1.
        -11    1    3    3    0    0 -0.15536012181E+03 -0.89088863985E+02 -0.21577310009E+03  0.28041330899E+03  0.00000000000E+00 0. -1.
         11    1    3    3    0    0 -0.26376750309E+02 -0.46917310206E+02 -0.15085144404E+03  0.16016592997E+03  0.00000000000E+00 0.  1.
<mgrwt>
<rscale>  0 0.25535899E+03</rscale>
<asrwt>0</asrwt>
<pdfrwt beam="2">  1        1 0.18205304E+00 0.25914532E+03</pdfrwt>
<pdfrwt beam="1">  1       -1 0.90013692E-02 0.25914532E+03</pdfrwt>
<totfact> 0.84637143E+02</totfact>
</mgrwt>
</event>
<event>
 7    1  0.1020736E-005  0.1825025E+03  0.7546771E-02  0.1170815E+00
         -2   -1    0    0    0  501 -0.00000000000E+00  0.00000000000E+00  0.31281259173E+02  0.31281259173E+02  0.00000000000E+00 0.  1.
          2   -1    0    0  501    0  0.00000000000E+00 -0.00000000000E+00 -0.10049524739E+04  0.10049524739E+04  0.00000000000E+00 0. -1.
         23    2    1    2    0    0 -0.10034667836E+03 -0.87258519022E+02 -0.33113031301E+03  0.36827717321E+03  0.91089445693E+02 0.  0.
          5    1    1    2  502    0  0.46108510324E+02  0.25863421019E+02 -0.50512269551E+03  0.50790347389E+03  0.47000000000E+01 0. -1.
         -5    1    1    2    0  502  0.54238168037E+02  0.61395098003E+02 -0.13741820621E+03  0.16005308597E+03  0.47000000000E+01 0. -1.
        -11    1    3    3    0    0 -0.75293103435E+02 -0.31825223436E+02 -0.26973289918E+03  0.28184700313E+03  0.00000000000E+00 0. -1.
         11    1    3    3    0    0 -0.25053574926E+02 -0.55433295586E+02 -0.61397413824E+02  0.86430170082E+02  0.00000000000E+00 0.  1.
<mgrwt>
<rscale>  0 0.17692252E+03</rscale>
<asrwt>0</asrwt>
<pdfrwt beam="2">  1        2 0.15460804E+00 0.18250248E+03</pdfrwt>
<pdfrwt beam="1">  1       -2 0.48125023E-02 0.18250248E+03</pdfrwt>
<totfact> 0.53348549E+03</totfact>
</mgrwt>
</event>
<event>
 7    1  0.1020736E-005  0.1321781E+03  0.7546771E-02  0.1237408E+00
         -2   -1    0    0    0  501 -0.00000000000E+00  0.00000000000E+00  0.26284922266E+02  0.26284922266E+02  0.00000000000E+00 0.  1.
          2   -1    0    0  501    0  0.00000000000E+00 -0.00000000000E+00 -0.51823446035E+03  0.51823446035E+03  0.00000000000E+00 0. -1.
         23    2    1    2    0    0  0.23429135607E+02  0.36017407046E+02 -0.19605697298E+03  0.22044615152E+03  0.91170121520E+02 0.  0.
          5    1    1    2  502    0 -0.72125445412E+02 -0.16123204492E+01 -0.15657059671E+03  0.17245614285E+03  0.47000000000E+01 0. -1.
         -5    1    1    2    0  502  0.48696309806E+02 -0.34405086597E+02 -0.13932196839E+03  0.15161708825E+03  0.47000000000E+01 0. -1.
        -11    1    3    3    0    0  0.46825830526E+02 -0.10760514582E+02 -0.83643088181E+02  0.96460423382E+02  0.00000000000E+00 0.  1.
         11    1    3    3    0    0 -0.23396694920E+02  0.46777921628E+02 -0.11241388480E+03  0.12398572813E+03  0.00000000000E+00 0. -1.
<mgrwt>
<rscale>  0 0.12351552E+03</rscale>
<asrwt>0</asrwt>
<pdfrwt beam="2">  1        2 0.79728375E-01 0.13217810E+03</pdfrwt>
<pdfrwt beam="1">  1       -2 0.40438344E-02 0.13217810E+03</pdfrwt>
<totfact> 0.15250010E+04</totfact>
</mgrwt>
</event>
<event>
 7    1  0.1020736E-005  0.3115174E+03  0.7546771E-02  0.1081091E+00
         -2   -1    0    0    0  501 -0.00000000000E+00  0.00000000000E+00  0.69396988924E+02  0.69396988924E+02  0.00000000000E+00 0.  1.
          2   -1    0    0  501    0  0.00000000000E+00 -0.00000000000E+00 -0.14510010955E+04  0.14510010955E+04  0.00000000000E+00 0. -1.
         23    2    1    2    0    0  0.21583459525E+03 -0.18666543705E+03 -0.47235569445E+03  0.55926553521E+03  0.90716475298E+02 0.  0.
          5    1    1    2  502    0 -0.11558183752E+03  0.81024854377E+02 -0.63565057754E+03  0.65115123813E+03  0.47000000000E+01 0. -1.
         -5    1    1    2    0  502 -0.10025275773E+03  0.10564058267E+03 -0.27359783463E+03  0.30998131113E+03  0.47000000000E+01 0. -1.
        -11    1    3    3    0    0  0.11610656969E+03 -0.15116317315E+03 -0.34000322661E+03  0.38978613950E+03  0.00000000000E+00 0. -1.
         11    1    3    3    0    0  0.99728025560E+02 -0.35502263900E+02 -0.13235246784E+03  0.16947939570E+03  0.00000000000E+00 0.  1.
<mgrwt>
<rscale>  0 0.30845045E+03</rscale>
<asrwt>0</asrwt>
<pdfrwt beam="2">  1        2 0.22323092E+00 0.31151742E+03</pdfrwt>
<pdfrwt beam="1">  1       -2 0.10676461E-01 0.31151742E+03</pdfrwt>
<totfact> 0.86515224E+02</totfact>
</mgrwt>
</event>
<event>
 7    1  0.1020736E-005  0.1950541E+03  0.7546771E-02  0.1156246E+00
          1   -1    0    0  501    0  0.00000000000E+00  0.00000000000E+00  0.20595345634E+03  0.20595345634E+03  0.00000000000E+00 0. -1.
         -1   -1    0    0    0  501 -0.00000000000E+00 -0.00000000000E+00 -0.18449565468E+03  0.18449565468E+03  0.00000000000E+00 0.  1.
         23    2    1    2    0    0  0.19984244486E+02 -0.15922998936E+03 -0.33146912524E+02  0.18789600099E+03  0.91938184878E+02 0.  0.
          5    1    1    2  502    0 -0.51020477628E+02  0.15302244315E+03  0.35317946937E+02  0.16519202348E+03  0.47000000000E+01 0. -1.
         -5    1    1    2    0  502  0.31036233141E+02  0.62075462096E+01  0.19286767245E+02  0.37361086552E+02  0.47000000000E+01 0.  1.
        -11    1    3    3    0    0  0.65450341487E+01 -0.11958490329E+03 -0.64095558171E+02  0.13583676654E+03  0.00000000000E+00 0.  1.
         11    1    3    3    0    0  0.13439210337E+02 -0.39645086070E+02  0.30948645648E+02  0.52059234449E+02  0.00000000000E+00 0. -1.
<mgrwt>
<rscale>  0 0.19247722E+03</rscale>
<asrwt>0</asrwt>
<pdfrwt beam="1">  1        1 0.31685147E-01 0.19505406E+03</pdfrwt>
<pdfrwt beam="2">  1       -1 0.28383947E-01 0.19505406E+03</pdfrwt>
<totfact> 0.15733143E+03</totfact>
</mgrwt>
</event>
<event>
 7    1  0.1020736E-005  0.1695835E+03  0.7546771E-02  0.1184773E+00
         -2   -1    0    0    0  501 -0.00000000000E+00  0.00000000000E+00  0.42325764308E+02  0.42325764308E+02  0.00000000000E+00 0.  1.
          2   -1    0    0  501    0  0.00000000000E+00 -0.00000000000E+00 -0.59215962921E+03  0.59215962921E+03  0.00000000000E+00 0. -1.
         23    2    1    2    0    0  0.83092145235E+02  0.78930279046E+02 -0.23854583346E+03  0.28000152092E+03  0.91446396898E+02 0.  0.
          5    1    1    2  502    0 -0.66615467248E+02 -0.11163357999E+03 -0.26558426962E+03  0.29573090966E+03  0.47000000000E+01 0.  1.
         -5    1    1    2    0  502 -0.16476677987E+02  0.32703300940E+02 -0.45703761828E+02  0.58752962947E+02  0.47000000000E+01 0.  1.
        -11    1    3    3    0    0  0.28212141049E+02 -0.11997968606E+02 -0.10493485385E+03  0.10932154274E+03  0.00000000000E+00 0. -1.
         11    1    3    3    0    0  0.54880004185E+02  0.90928247653E+02 -0.13361097961E+03  0.17067997818E+03  0.00000000000E+00 0.  1.
<mgrwt>
<rscale>  0 0.16352507E+03</rscale>
<asrwt>0</asrwt>
<pdfrwt beam="2">  1        2 0.91101482E-01 0.16958354E+03</pdfrwt>
<pdfrwt beam="1">  1       -2 0.65116560E-02 0.16958354E+03</pdfrwt>
<totfact> 0.65059665E+03</totfact>
</mgrwt>
</event>
<event>
 7    1  0.1020736E-005  0.2488685E+03  0.7546771E-02  0.1116714E+00
          1   -1    0    0  501    0  0.00000000000E+00  0.00000000000E+00  0.73460297773E+03  0.73460297773E+03  0.00000000000E+00 0. -1.
         -1   -1    0    0    0  501 -0.00000000000E+00 -0.00000000000E+00 -0.83161736492E+02  0.83161736492E+02  0.00000000000E+00 0.  1.
         23    2    1    2    0    0 -0.83259616269E+02 -0.19843878777E+03  0.22237759901E+03  0.32174943387E+03  0.88095320313E+02 0.  0.
          5    1    1    2  502    0 -0.26882347335E+02  0.38851621287E+02  0.14064532518E+03  0.14844294045E+03  0.47000000000E+01 0.  1.
         -5    1    1    2    0  502  0.11014196360E+03  0.15958716649E+03  0.28841831705E+03  0.34757233990E+03  0.47000000000E+01 0.  1.
        -11    1    3    3    0    0 -0.91164072671E+01 -0.13381302528E+03  0.12488451162E+03  0.18326258717E+03  0.00000000000E+00 0. -1.
         11    1    3    3    0    0 -0.74143209002E+02 -0.64625762497E+02  0.97493087391E+02  0.13848684670E+03  0.00000000000E+00 0.  1.
<mgrwt>
<rscale>  0 0.24467971E+03</rscale>
<asrwt>0</asrwt>
<pdfrwt beam="1">  1        1 0.11301584E+00 0.24886854E+03</pdfrwt>
<pdfrwt beam="2">  1       -1 0.12794114E-01 0.24886854E+03</pdfrwt>
<totfact> 0.10879672E+03</totfact>
</mgrwt>
</event>
<event>
 7    1  0.1020736E-005  0.1266098E+03  0.7546771E-02  0.1251854E+00
         -3   -1    0    0    0  501 -0.00000000000E+00  0.00000000000E+00  0.91119359020E+02  0.91119359020E+02  0.00000000000E+00 0.  1.
          3   -1    0    0  501    0  0.00000000000E+00 -0.00000000000E+00 -0.16352707667E+03  0.16352707667E+03  0.00000000000E+00 0. -1.
         23    2    1    2    0    0  0.14351129488E+02  0.14103430404E+02  0.31031908058E+02  0.91153939899E+02  0.83313863041E+02 0.  0.
          5    1    1    2  502    0 -0.39176468241E+02  0.44768523688E+02 -0.32670872585E+02  0.68033023544E+02  0.47000000000E+01 0.  1.
         -5    1    1    2    0  502  0.24825338753E+02 -0.58871954093E+02 -0.70768753118E+02  0.95459472242E+02  0.47000000000E+01 0.  1.
        -11    1    3    3    0    0  0.21333329911E+02  0.22871230135E+01 -0.25300782199E+02  0.33173354920E+02  0.00000000000E+00 0. -1.
         11    1    3    3    0    0 -0.69822004233E+01  0.11816307391E+02  0.56332690256E+02  0.57980584980E+02  0.00000000000E+00 0.  1.
<mgrwt>
<rscale>  0 0.11484373E+03</rscale>
<asrwt>0</asrwt>
<pdfrwt beam="2">  1        3 0.25158012E-01 0.12660979E+03</pdfrwt>
<pdfrwt beam="1">  1       -3 0.14018363E-01 0.12660979E+03</pdfrwt>
<totfact> 0.14073681E+03</totfact>
</mgrwt>
</event>
<event>
 7    1  0.1020736E-005  0.1776968E+03  0.7546771E-02  0.1176264E+00
         -2   -1    0    0    0  501 -0.00000000000E+00  0.00000000000E+00  0.18884867828E+02  0.18884867828E+02  0.00000000000E+00 0. -1.
          2   -1    0    0  501    0  0.00000000000E+00 -0.00000000000E+00 -0.15453384851E+04  0.15453384851E+04  0.00000000000E+00 0.  1.
         23    2    1    2    0    0  0.27793941428E+02  0.12319325830E+03 -0.52787567830E+03  0.54995806941E+03  0.88611874477E+02 0.  0.
          5    1    1    2  502    0 -0.13466701065E+02  0.24938516231E+02 -0.17228718559E+03  0.17466609845E+03  0.47000000000E+01 0. -1.
         -5    1    1    2    0  502 -0.14327240364E+02 -0.14813177453E+03 -0.82629075340E+03  0.83959918508E+03  0.47000000000E+01 0. -1.
        -11    1    3    3    0    0  0.33748879659E+02  0.10983444998E+02 -0.69841891604E+02  0.78342279550E+02  0.00000000000E+00 0.  1.
         11    1    3    3    0    0 -0.59549382310E+01  0.11220981330E+03 -0.45803378670E+03  0.47161578986E+03  0.00000000000E+00 0. -1.
<mgrwt>
<rscale>  0 0.17152779E+03</rscale>
<asrwt>0</asrwt>
<pdfrwt beam="2">  1        2 0.23774433E+00 0.17769683E+03</pdfrwt>
<pdfrwt beam="1">  1       -2 0.29053649E-02 0.17769683E+03</pdfrwt>
<totfact> 0.56834450E+03</totfact>
</mgrwt>
</event>
<event>
 7    1  0.1020736E-005  0.1408414E+03  0.7546771E-02  0.1222847E+00
         -1   -1    0    0    0  501 -0.00000000000E+00  0.00000000000E+00  0.52560140429E+02  0.52560140429E+02  0.00000000000E+00 0.  1.
          1   -1    0    0  501    0  0.00000000000E+00 -0.00000000000E+00 -0.36654095024E+03  0.36654095024E+03  0.00000000000E+00 0. -1.
         23    2    1    2    0    0  0.44560509408E+02 -0.47188054021E+02 -0.57193643837E+02  0.12622576388E+03  0.91921048362E+02 0.  0.
          5    1    1    2  502    0 -0.55540816422E+02 -0.48435369933E+01 -0.22250335417E+03  0.22942989072E+03  0.47000000000E+01 0. -1.
         -5    1    1    2    0  502  0.10980307014E+02  0.52031591014E+02 -0.34283811806E+02  0.63445436066E+02  0.47000000000E+01 0. -1.
        -11    1    3    3    0    0 -0.42610873709E+01 -0.19571001947E+02  0.21631444618E+02  0.29480508460E+02  0.00000000000E+00 0.  1.
         11    1    3    3    0    0  0.48821596779E+02 -0.27617052074E+02 -0.78825088455E+02  0.96745255425E+02  0.00000000000E+00 0. -1.
<mgrwt>
<rscale>  0 0.13315574E+03</rscale>
<asrwt>0</asrwt>
<pdfrwt beam="2">  1        1 0.56390915E-01 0.14084143E+03</pdfrwt>
<pdfrwt beam="1">  1       -1 0.80861756E-02 0.14084143E+03</pdfrwt>
<totfact> 0.55193886E+03</totfact>
</mgrwt>
</event>
<event>
 7    1  0.1020736E-005  0.1538353E+03  0.7546771E-02  0.1203984E+00
         -1   -1    0    0    0  501 -0.00000000000E+00  0.00000000000E+00  0.14932823302E+03  0.14932823302E+03  0.00000000000E+00 0.  1.
          1   -1    0    0  501    0  0.00000000000E+00 -0.00000000000E+00 -0.21010329474E+03  0.21010329474E+03  0.00000000000E+00 0. -1.
         23    2    1    2    0    0 -0.89516547016E+02 -0.52946267427E+01  0.79342450847E+02  0.15134930417E+03  0.92575061992E+02 0.  0.
          5    1    1    2  502    0  0.90511191422E+02 -0.12082504536E+02 -0.29604367427E+02  0.96108122754E+02  0.47000000000E+01 0.  1.
         -5    1    1    2    0  502 -0.99464440641E+00  0.17377131278E+02 -0.11051314514E+03  0.11197410084E+03  0.47000000000E+01 0.  1.
        -11    1    3    3    0    0 -0.52166495717E+02  0.27570187742E+02  0.15690493177E+01  0.59024744331E+02  0.00000000000E+00 0. -1.
         11    1    3    3    0    0 -0.37350051299E+02 -0.32864814485E+02  0.77773401529E+02  0.92324559834E+02  0.00000000000E+00 0.  1.
<mgrwt>
<rscale>  0 0.14717794E+03</rscale>
<asrwt>0</asrwt>
<pdfrwt beam="2">  1        1 0.32323584E-01 0.15383528E+03</pdfrwt>
<pdfrwt beam="1">  1       -1 0.22973575E-01 0.15383528E+03</pdfrwt>
<totfact> 0.21629264E+03</totfact>
</mgrwt>
</event>
<event>
 7    1  0.1020736E-005  0.1630239E+03  0.7546771E-02  0.1192633E+00
          2   -1    0    0  501    0  0.00000000000E+00  0.00000000000E+00  0.80031521797E+03  0.80031521797E+03  0.00000000000E+00 0.  1.
         -2   -1    0    0    0  501 -0.00000000000E+00 -0.00000000000E+00 -0.29633427490E+02  0.29633427490E+02  0.00000000000E+00 0. -1.
         23    2    1    2    0    0  0.50379036176E+02 -0.91733537315E+02  0.27225014872E+03  0.30553383938E+03  0.90981835403E+02 0.  0.
          5    1    1    2  502    0 -0.15456001388E+01  0.10266559898E+03  0.41009709162E+03  0.42278165600E+03  0.47000000000E+01 0. -1.
         -5    1    1    2    0  502 -0.48833436037E+02 -0.10932061661E+02  0.88334550138E+02  0.10163315008E+03  0.47000000000E+01 0. -1.
        -11    1    3    3    0    0 -0.74444419837E+01  0.14064905133E+02  0.52771337110E+02  0.55118556705E+02  0.00000000000E+00 0.  1.
         11    1    3    3    0    0  0.57823478160E+02 -0.10579844245E+03  0.21947881161E+03  0.25041528267E+03  0.00000000000E+00 0. -1.
<mgrwt>
<rscale>  0 0.15656261E+03</rscale>
<asrwt>0</asrwt>
<pdfrwt beam="1">  1        2 0.12312540E+00 0.16302389E+03</pdfrwt>
<pdfrwt beam="2">  1       -2 0.45589894E-02 0.16302389E+03</pdfrwt>
<totfact> 0.77810478E+03</totfact>
</mgrwt>
</event>
<event>
 7    1  0.1020736E-005  0.1303957E+03  0.7546771E-02  0.1241322E+00
          1   -1    0    0  501    0  0.00000000000E+00  0.00000000000E+00  0.96385034660E+03  0.96385034660E+03  0.00000000000E+00 0. -1.
         -1   -1    0    0    0  501 -0.00000000000E+00 -0.00000000000E+00 -0.21233643420E+02  0.21233643420E+02  0.00000000000E+00 0.  1.
         23    2    1    2    0    0  0.37146308236E+02 -0.18248890984E+00  0.13052383756E+03  0.16258909424E+03  0.89548086953E+02 0.  0.
          5    1    1    2  502    0 -0.67118729864E+01 -0.51841393453E+02  0.17938786082E+03  0.18690819652E+03  0.47000000000E+01 0.  1.
         -5    1    1    2    0  502 -0.30434435250E+02  0.52023882363E+02  0.63270500479E+03  0.63558669926E+03  0.47000000000E+01 0.  1.
        -11    1    3    3    0    0  0.47865952027E+02  0.28979750943E+02  0.11492523685E+03  0.12782325842E+03  0.00000000000E+00 0. -1.
         11    1    3    3    0    0 -0.10719643791E+02 -0.29162239853E+02  0.15598600712E+02  0.34765835822E+02  0.00000000000E+00 0.  1.
<mgrwt>
<rscale>  0 0.12108242E+03</rscale>
<asrwt>0</asrwt>
<pdfrwt beam="1">  1        1 0.14828463E+00 0.13039567E+03</pdfrwt>
<pdfrwt beam="2">  1       -1 0.32667151E-02 0.13039567E+03</pdfrwt>
<totfact> 0.55048020E+03</totfact>
</mgrwt>
</event>
<event>
 7    1  0.1020736E-005  0.1546032E+03  0.7546771E-02  0.1203031E+00
          1   -1    0    0  501    0  0.00000000000E+00  0.00000000000E+00  0.11898510533E+03  0.11898510533E+03  0.00000000000E+00 0. -1.
         -1   -1    0    0    0  501 -0.00000000000E+00 -0.00000000000E+00 -0.17275415661E+03  0.17275415661E+03  0.00000000000E+00 0.  1.
         23    2    1    2    0    0 -0.77275600534E+02  0.48011780035E+02 -0.43799095639E+02  0.13681496713E+03  0.92321855434E+02 0.  0.
          5    1    1    2  502    0  0.38751031083E+02  0.33384588408E+02  0.26326891300E+02  0.57718007231E+02  0.47000000000E+01 0. -1.
         -5    1    1    2    0  502  0.38524569451E+02 -0.81396368443E+02 -0.36296846937E+02  0.97206287578E+02  0.47000000000E+01 0. -1.
        -11    1    3    3    0    0 -0.22374374488E+02  0.37362785622E+02 -0.63950296515E+02  0.77370736118E+02  0.00000000000E+00 0.  1.
         11    1    3    3    0    0 -0.54901226046E+02  0.10648994413E+02  0.20151200876E+02  0.59444231008E+02  0.00000000000E+00 0. -1.
<mgrwt>
<rscale>  0 0.14793719E+03</rscale>
<asrwt>0</asrwt>
<pdfrwt beam="1">  1        1 0.18305401E-01 0.15460316E+03</pdfrwt>
<pdfrwt beam="2">  1       -1 0.26577563E-01 0.15460316E+03</pdfrwt>
<totfact> 0.34888661E+03</totfact>
</mgrwt>
</event>
<event>
 7    1  0.1020736E-005  0.2401590E+03  0.7546771E-02  0.1121091E+00
         -1   -1    0    0    0  501 -0.00000000000E+00  0.00000000000E+00  0.75839393071E+03  0.75839393071E+03  0.00000000000E+00 0.  1.
          1   -1    0    0  501    0  0.00000000000E+00 -0.00000000000E+00 -0.73917603524E+02  0.73917603524E+02  0.00000000000E+00 0. -1.
         23    2    1    2    0    0 -0.15481962088E+03  0.14575685996E+03  0.30320493742E+03  0.38170727296E+03  0.92482597931E+02 0.  0.
          5    1    1    2  502    0  0.61867012292E+02 -0.12394128649E+03  0.17484939629E+03  0.22312187497E+03  0.47000000000E+01 0. -1.
         -5    1    1    2    0  502  0.92952608589E+02 -0.21815573465E+02  0.20642199348E+03  0.22748238631E+03  0.47000000000E+01 0.  1.
        -11    1    3    3    0    0 -0.14930553182E+02  0.74549979928E+01  0.90330987020E+02  0.91859597372E+02  0.00000000000E+00 0. -1.
         11    1    3    3    0    0 -0.13988906770E+03  0.13830186196E+03  0.21287395040E+03  0.28984767559E+03  0.00000000000E+00 0.  1.
<mgrwt>
<rscale>  0 0.23806129E+03</rscale>
<asrwt>0</asrwt>
<pdfrwt beam="2">  1        1 0.11371940E-01 0.24015896E+03</pdfrwt>
<pdfrwt beam="1">  1       -1 0.11667598E+00 0.24015896E+03</pdfrwt>
<totfact> 0.38213379E+02</totfact>
</mgrwt>
</event>
<event>
 7    1  0.1020736E-005  0.1499431E+03  0.7546771E-02  0.1209687E+00
         -1   -1    0    0    0  501 -0.00000000000E+00  0.00000000000E+00  0.17476563657E+02  0.17476563657E+02  0.00000000000E+00 0. -1.
          1   -1    0    0  501    0  0.00000000000E+00 -0.00000000000E+00 -0.13421942018E+04  0.13421942018E+04  0.00000000000E+00 0.  1.
         23    2    1    2    0    0 -0.35115728915E+01  0.82740667347E+02 -0.30395298794E+03  0.32795209769E+03  0.91141704625E+02 0.  0.
          5    1    1    2  502    0  0.32064231609E+02  0.19408543937E+02 -0.41545808377E+03  0.41717180621E+03  0.47000000000E+01 0.  1.
         -5    1    1    2    0  502 -0.28552658718E+02 -0.10214921128E+03 -0.60530656638E+03  0.61454686151E+03  0.47000000000E+01 0.  1.
        -11    1    3    3    0    0 -0.28495456899E+02  0.60512644932E+02 -0.27711763256E+03  0.28507534713E+03  0.00000000000E+00 0.  1.
         11    1    3    3    0    0  0.24983884008E+02  0.22228022415E+02 -0.26835355378E+02  0.42876750563E+02  0.00000000000E+00 0. -1.
<mgrwt>
<rscale>  0 0.14274167E+03</rscale>
<asrwt>0</asrwt>
<pdfrwt beam="2">  1        1 0.20649146E+00 0.14994312E+03</pdfrwt>
<pdfrwt beam="1">  1       -1 0.26887016E-02 0.14994312E+03</pdfrwt>
<totfact> 0.40018541E+03</totfact>
</mgrwt>
</event>
<event>
 7    1  0.1020736E-005  0.1360599E+03  0.7546771E-02  0.1231899E+00
          2   -1    0    0  501    0  0.00000000000E+00  0.00000000000E+00  0.10103581405E+04  0.10103581405E+04  0.00000000000E+00 0. -1.
         -2   -1    0    0    0  501 -0.00000000000E+00 -0.00000000000E+00 -0.16844685222E+02  0.16844685222E+02  0.00000000000E+00 0.  1.
         23    2    1    2    0    0 -0.22290837498E+02 -0.48893730022E+02  0.23761115057E+03  0.25915296916E+03  0.88395272936E+02 0.  0.
          5    1    1    2  502    0  0.31309986439E+02 -0.37122713531E+02  0.30950590384E+03  0.31332795219E+03  0.47000000000E+01 0.  1.
         -5    1    1    2    0  502 -0.90191489415E+01  0.86016443553E+02  0.44639640087E+03  0.45472190438E+03  0.47000000000E+01 0.  1.
        -11    1    3    3    0    0  0.24946998985E+02  0.74275592675E+01  0.34990126534E+02  0.43609979935E+02  0.00000000000E+00 0.  1.
         11    1    3    3    0    0 -0.47237836483E+02 -0.56321289289E+02  0.20262102404E+03  0.21554298923E+03  0.00000000000E+00 0. -1.
<mgrwt>
<rscale>  0 0.12705057E+03</rscale>
<asrwt>0</asrwt>
<pdfrwt beam="1">  1        2 0.15543967E+00 0.13605987E+03</pdfrwt>
<pdfrwt beam="2">  1       -2 0.25914908E-02 0.13605987E+03</pdfrwt>
<totfact> 0.13091764E+04</totfact>
</mgrwt>
</event>
<event>
 7    1  0.1020736E-005  0.1999693E+03  0.7546771E-02  0.1154030E+00
         -2   -1    0    0    0  501 -0.00000000000E+00  0.00000000000E+00  0.22165761253E+03  0.22165761253E+03  0.00000000000E+00 0. -1.
          2   -1    0    0  501    0  0.00000000000E+00 -0.00000000000E+00 -0.17247658615E+03  0.17247658615E+03  0.00000000000E+00 0.  1.
         23    2    1    2    0    0  0.91292077430E+02 -0.12660948670E+03  0.68239889809E+02  0.19325867999E+03  0.91258036934E+02 0.  0.
          5    1    1    2  502    0 -0.39677705481E+02  0.76411906072E+02 -0.71225383617E+02  0.11184026544E+03  0.47000000000E+01 0.  1.
         -5    1    1    2    0  502 -0.51614371949E+02  0.50197580629E+02  0.52166520194E+02  0.89035253253E+02  0.47000000000E+01 0.  1.
        -11    1    3    3    0    0 -0.16906234217E+02 -0.35263559768E+02  0.17460136344E+02  0.42827511766E+02  0.00000000000E+00 0.  1.
         11    1    3    3    0    0  0.10819831165E+03 -0.91345926934E+02  0.50779753466E+02  0.15043116822E+03  0.00000000000E+00 0. -1.
<mgrwt>
<rscale>  0 0.19499709E+03</rscale>
<asrwt>0</asrwt>
<pdfrwt beam="2">  1        2 0.26534859E-01 0.19996933E+03</pdfrwt>
<pdfrwt beam="1">  1       -2 0.34101171E-01 0.19996933E+03</pdfrwt>
<totfact> 0.16059657E+03</totfact>
</mgrwt>
</event>
<event>
 7    1  0.1020736E-005  0.1284878E+03  0.7546771E-02  0.1238632E+00
          1   -1    0    0  501    0  0.00000000000E+00  0.00000000000E+00  0.13415371124E+03  0.13415371124E+03  0.00000000000E+00 0. -1.
         -1   -1    0    0    0  501 -0.00000000000E+00 -0.00000000000E+00 -0.11204163604E+03  0.11204163604E+03  0.00000000000E+00 0.  1.
         23    2    1    2    0    0 -0.54081795439E+02 -0.64795878681E+01 -0.24008097353E+02  0.10968095634E+03  0.92123274954E+02 0.  0.
          5    1    1    2  502    0  0.27082304685E+02 -0.48096889381E+02  0.50934441783E+02  0.75254032150E+02  0.47000000000E+01 0. -1.
         -5    1    1    2    0  502  0.26999490754E+02  0.54576477249E+02 -0.48142692293E+01  0.61260358782E+02  0.47000000000E+01 0.  1.
        -11    1    3    3    0    0 -0.57154593208E+02  0.19095292725E+02 -0.46000316809E+02  0.75810994424E+02  0.00000000000E+00 0.  1.
         11    1    3    3    0    0  0.30727977695E+01 -0.25574880593E+02  0.21992219457E+02  0.33869961915E+02  0.00000000000E+00 0. -1.
<mgrwt>
<rscale>  0 0.12274781E+03</rscale>
<asrwt>0</asrwt>
<pdfrwt beam="1">  1        1 0.20639033E-01 0.12848778E+03</pdfrwt>
<pdfrwt beam="2">  1       -1 0.17237175E-01 0.12848778E+03</pdfrwt>
<totfact> 0.59685769E+03</totfact>
</mgrwt>
</event>
<event>
 7    1  0.1020736E-005  0.1326651E+03  0.7546771E-02  0.1232130E+00
         -2   -1    0    0    0  501 -0.00000000000E+00  0.00000000000E+00  0.39973850518E+03  0.39973850518E+03  0.00000000000E+00 0.  1.
          2   -1    0    0  501    0  0.00000000000E+00 -0.00000000000E+00 -0.44589945142E+02  0.44589945142E+02  0.00000000000E+00 0. -1.
         23    2    1    2    0    0 -0.19212989398E+02 -0.59680405588E+02  0.25490249425E+03  0.27804768838E+03  0.91675218396E+02 0.  0.
          5    1    1    2  502    0  0.41237856617E+02  0.64255825083E+02  0.14948620633E+02  0.77941793245E+02  0.47000000000E+01 0. -1.
         -5    1    1    2    0  502 -0.22024867219E+02 -0.45754194947E+01  0.85297445159E+02  0.88338968696E+02  0.47000000000E+01 0.  1.
        -11    1    3    3    0    0 -0.51273909373E+02 -0.35959401634E+02  0.99168505828E+02  0.11728804243E+03  0.00000000000E+00 0.  1.
         11    1    3    3    0    0  0.32060919975E+02 -0.23721003954E+02  0.15573398842E+03  0.16075964595E+03  0.00000000000E+00 0. -1.
<mgrwt>
<rscale>  0 0.12689977E+03</rscale>
<asrwt>0</asrwt>
<pdfrwt beam="2">  1        2 0.68599918E-02 0.13266506E+03</pdfrwt>
<pdfrwt beam="1">  1       -2 0.61498229E-01 0.13266506E+03</pdfrwt>
<totfact> 0.24975487E+03</totfact>
</mgrwt>
</event>
<event>
 7    1  0.1020736E-005  0.2130617E+03  0.7546771E-02  0.1142918E+00
          2   -1    0    0  501    0  0.00000000000E+00  0.00000000000E+00  0.19901725497E+04  0.19901725497E+04  0.00000000000E+00 0. -1.
         -2   -1    0    0    0  501 -0.00000000000E+00 -0.00000000000E+00 -0.21880479394E+02  0.21880479394E+02  0.00000000000E+00 0.  1.
         23    2    1    2    0    0  0.49014322363E+02 -0.16543277886E+03  0.72697998372E+03  0.75258847056E+03  0.90106055174E+02 0.  0.
          5    1    1    2  502    0 -0.45930958851E+02  0.13986103094E+03  0.12087104987E+04  0.12176509847E+04  0.47000000000E+01 0.  1.
         -5    1    1    2    0  502 -0.30833635126E+01  0.25571747920E+02  0.32601587964E+02  0.41813573873E+02  0.47000000000E+01 0.  1.
        -11    1    3    3    0    0  0.14789294781E+02 -0.46461617321E+02  0.78594222089E+02  0.92490306898E+02  0.00000000000E+00 0.  1.
         11    1    3    3    0    0  0.34225027582E+02 -0.11897116154E+03  0.64838576163E+03  0.66009816367E+03  0.00000000000E+00 0. -1.
<mgrwt>
<rscale>  0 0.20830221E+03</rscale>
<asrwt>0</asrwt>
<pdfrwt beam="1">  1        2 0.30618025E+00 0.21306168E+03</pdfrwt>
<pdfrwt beam="2">  1       -2 0.33662292E-02 0.21306168E+03</pdfrwt>
<totfact> 0.26838003E+03</totfact>
</mgrwt>
</event>
<event>
 7    1  0.1020736E-005  0.1267234E+03  0.7546771E-02  0.1247248E+00
          2   -1    0    0  501    0  0.00000000000E+00  0.00000000000E+00  0.88892097231E+03  0.88892097231E+03  0.00000000000E+00 0.  1.
         -2   -1    0    0    0  501 -0.00000000000E+00 -0.00000000000E+00 -0.19652879901E+02  0.19652879901E+02  0.00000000000E+00 0. -1.
         23    2    1    2    0    0 -0.64369930913E+01  0.19838787074E+02  0.14064577599E+03  0.16901364024E+03  0.91374853922E+02 0.  0.
          5    1    1    2  502    0  0.48671623584E+02 -0.52597514948E+02  0.46730507143E+03  0.47279122803E+03  0.47000000000E+01 0.  1.
         -5    1    1    2    0  502 -0.42234630492E+02  0.32758727874E+02  0.26131724499E+03  0.26676898394E+03  0.47000000000E+01 0.  1.
        -11    1    3    3    0    0  0.34574350531E+02  0.14116183103E+02  0.11353557890E+03  0.11951978922E+03  0.00000000000E+00 0.  1.
         11    1    3    3    0    0 -0.41011343622E+02  0.57226039716E+01  0.27110197097E+02  0.49493851018E+02  0.00000000000E+00 0. -1.
<mgrwt>
<rscale>  0 0.11751858E+03</rscale>
<asrwt>0</asrwt>
<pdfrwt beam="1">  1        2 0.13675704E+00 0.12672343E+03</pdfrwt>
<pdfrwt beam="2">  1       -2 0.30235207E-02 0.12672343E+03</pdfrwt>
<totfact> 0.12340050E+04</totfact>
</mgrwt>
</event>
<event>
 7    1  0.1020736E-005  0.1508466E+03  0.7546771E-02  0.1208976E+00
          2   -1    0    0  501    0  0.00000000000E+00  0.00000000000E+00  0.41012557317E+03  0.41012557317E+03  0.00000000000E+00 0. -1.
         -2   -1    0    0    0  501 -0.00000000000E+00 -0.00000000000E+00 -0.45760797249E+02  0.45760797249E+02  0.00000000000E+00 0.  1.
         23    2    1    2    0    0 -0.36101243040E+01 -0.84358286101E+02  0.15216947226E+03  0.19553747650E+03  0.89162789304E+02 0.  0.
          5    1    1    2  502    0 -0.99849026386E+01  0.70681076335E+02  0.22541921848E+03  0.23649825981E+03  0.47000000000E+01 0. -1.
         -5    1    1    2    0  502  0.13595026943E+02  0.13677209766E+02 -0.13223914816E+02  0.23850634114E+02  0.47000000000E+01 0. -1.
        -11    1    3    3    0    0 -0.11846931751E+02 -0.62144432954E+02  0.28095252680E+02  0.69221554174E+02  0.00000000000E+00 0.  1.
         11    1    3    3    0    0  0.82368074473E+01 -0.22213853147E+02  0.12407421958E+03  0.12631592233E+03  0.00000000000E+00 0. -1.
<mgrwt>
<rscale>  0 0.14328460E+03</rscale>
<asrwt>0</asrwt>
<pdfrwt beam="1">  1        2 0.63096239E-01 0.15084661E+03</pdfrwt>
<pdfrwt beam="2">  1       -2 0.70401229E-02 0.15084661E+03</pdfrwt>
<totfact> 0.86021470E+03</totfact>
</mgrwt>
</event>
<event>
 7    1  0.1020736E-005  0.2803614E+03  0.7546771E-02  0.1113857E+00
         -2   -1    0    0    0  501 -0.00000000000E+00  0.00000000000E+00  0.23553398956E+02  0.23553398956E+02  0.00000000000E+00 0.  1.
          2   -1    0    0  501    0  0.00000000000E+00 -0.00000000000E+00 -0.21999350694E+04  0.21999350694E+04  0.00000000000E+00 0. -1.
         23    2    1    2    0    0 -0.11641998559E+02  0.14907150491E+03 -0.81320423358E+03  0.83177901171E+03  0.90539213064E+02 0.  0.
          5    1    1    2  502    0  0.30462450833E+02 -0.11035681598E+03 -0.13353048289E+04  0.13402117981E+04  0.47000000000E+01 0. -1.
         -5    1    1    2    0  502 -0.18820452274E+02 -0.38714688925E+02 -0.27872608044E+02  0.51497658602E+02  0.47000000000E+01 0.  1.
        -11    1    3    3    0    0 -0.30027404938E+02  0.60862758202E+01 -0.14232730684E+03  0.14558760275E+03  0.00000000000E+00 0. -1.
         11    1    3    3    0    0  0.18385406379E+02  0.14298522909E+03 -0.67087692674E+03  0.68619140896E+03  0.00000000000E+00 0.  1.
<mgrwt>
<rscale>  0 0.24912898E+03</rscale>
<asrwt>0</asrwt>
<pdfrwt beam="2">  1        2 0.33845173E+00 0.28036135E+03</pdfrwt>
<pdfrwt beam="1">  1       -2 0.36235979E-02 0.28036135E+03</pdfrwt>
<totfact> 0.18553104E+03</totfact>
</mgrwt>
</event>
<event>
 7    1  0.1020736E-005  0.1276660E+03  0.7546771E-02  0.1245840E+00
         -1   -1    0    0    0  501 -0.00000000000E+00  0.00000000000E+00  0.43276921365E+02  0.43276921365E+02  0.00000000000E+00 0.  1.
          1   -1    0    0  501    0  0.00000000000E+00 -0.00000000000E+00 -0.33176050390E+03  0.33176050390E+03  0.00000000000E+00 0. -1.
         23    2    1    2    0    0  0.73988729824E+01 -0.24869366105E+02 -0.55624942721E+02  0.10947812179E+03  0.90653715893E+02 0.  0.
          5    1    1    2  502    0  0.10558474915E+01 -0.18081334263E+02 -0.21842813012E+03  0.21922816309E+03  0.47000000000E+01 0.  1.
         -5    1    1    2    0  502 -0.84547204739E+01  0.42950700368E+02 -0.14430509698E+02  0.46331140397E+02  0.47000000000E+01 0.  1.
        -11    1    3    3    0    0  0.43404837102E+02 -0.10424791862E+02 -0.54791795992E+02  0.70673878323E+02  0.00000000000E+00 0. -1.
         11    1    3    3    0    0 -0.36005964119E+02 -0.14444574243E+02 -0.83314672897E+00  0.38804243463E+02  0.00000000000E+00 0.  1.
<mgrwt>
<rscale>  0 0.11835242E+03</rscale>
<asrwt>0</asrwt>
<pdfrwt beam="2">  1        1 0.51040079E-01 0.12766596E+03</pdfrwt>
<pdfrwt beam="1">  1       -1 0.66579877E-02 0.12766596E+03</pdfrwt>
<totfact> 0.83159285E+03</totfact>
</mgrwt>
</event>
<event>
 7    1  0.1020736E-005  0.1377347E+03  0.7546771E-02  0.1227512E+00
         -1   -1    0    0    0  501 -0.00000000000E+00  0.00000000000E+00  0.17557804924E+02  0.17557804924E+02  0.00000000000E+00 0.  1.
          1   -1    0    0  501    0  0.00000000000E+00 -0.00000000000E+00 -0.11451253486E+04  0.11451253486E+04  0.00000000000E+00 0. -1.
         23    2    1    2    0    0 -0.42004091658E+02  0.39751745328E+02 -0.22986666590E+03  0.25447738812E+03  0.92604060405E+02 0.  0.
          5    1    1    2  502    0 -0.15007137590E+02  0.35625722769E+02 -0.37425655059E+03  0.37627710795E+03  0.47000000000E+01 0. -1.
         -5    1    1    2    0  502  0.57011229249E+02 -0.75377468096E+02 -0.52344432717E+03  0.53192865744E+03  0.47000000000E+01 0. -1.
        -11    1    3    3    0    0  0.20870625829E+02  0.41303712369E+02 -0.98958793211E+02  0.10924478217E+03  0.00000000000E+00 0.  1.
         11    1    3    3    0    0 -0.62874717487E+02 -0.15519670408E+01 -0.13090787269E+03  0.14523260595E+03  0.00000000000E+00 0. -1.
<mgrwt>
<rscale>  0 0.12996228E+03</rscale>
<asrwt>0</asrwt>
<pdfrwt beam="2">  1        1 0.17617312E+00 0.13773470E+03</pdfrwt>
<pdfrwt beam="1">  1       -1 0.27012010E-02 0.13773470E+03</pdfrwt>
<totfact> 0.53942722E+03</totfact>
</mgrwt>
</event>
<event>
 7    1  0.1020736E-005  0.1343494E+03  0.7546771E-02  0.1233626E+00
         -1   -1    0    0    0  501 -0.00000000000E+00  0.00000000000E+00  0.22483039017E+02  0.22483039017E+02  0.00000000000E+00 0.  1.
          1   -1    0    0  501    0  0.00000000000E+00 -0.00000000000E+00 -0.67558678838E+03  0.67558678838E+03  0.00000000000E+00 0. -1.
         23    2    1    2    0    0 -0.48485595035E+02 -0.85979551884E+01 -0.19749414011E+03  0.22306469290E+03  0.91264144540E+02 0.  0.
          5    1    1    2  502    0  0.76055680819E+02  0.37965083800E+02 -0.37766367422E+03  0.38714048484E+03  0.47000000000E+01 0. -1.
         -5    1    1    2    0  502 -0.27570085784E+02 -0.29367128612E+02 -0.77945935025E+02  0.87864649661E+02  0.47000000000E+01 0. -1.
        -11    1    3    3    0    0 -0.45715119783E+02 -0.45877469180E+02 -0.14297905902E+03  0.15696377185E+03  0.00000000000E+00 0.  1.
         11    1    3    3    0    0 -0.27704752524E+01  0.37279513992E+02 -0.54515081096E+02  0.66100921049E+02  0.00000000000E+00 0. -1.
<mgrwt>
<rscale>  0 0.12592810E+03</rscale>
<asrwt>0</asrwt>
<pdfrwt beam="2">  1        1 0.10393642E+00 0.13434940E+03</pdfrwt>
<pdfrwt beam="1">  1       -1 0.34589293E-02 0.13434940E+03</pdfrwt>
<totfact> 0.86959967E+03</totfact>
</mgrwt>
</event>
<event>
 7    1  0.1020736E-005  0.2046281E+03  0.7546771E-02  0.1150034E+00
          2   -1    0    0  501    0  0.00000000000E+00  0.00000000000E+00  0.86310463881E+03  0.86310463881E+03  0.00000000000E+00 0.  1.
         -2   -1    0    0    0  501 -0.00000000000E+00 -0.00000000000E+00 -0.44771969152E+02  0.44771969152E+02  0.00000000000E+00 0. -1.
         23    2    1    2    0    0 -0.14898973443E+03 -0.63635707338E+02  0.33258623401E+03  0.38078811579E+03  0.90213867318E+02 0.  0.
          5    1    1    2  502    0  0.13568710614E+03  0.78285524872E+02  0.28444740724E+03  0.32476457883E+03  0.47000000000E+01 0.  1.
         -5    1    1    2    0  502  0.13302628298E+02 -0.14649817534E+02  0.20129902841E+03  0.20232391335E+03  0.47000000000E+01 0.  1.
        -11    1    3    3    0    0 -0.25297166398E+02 -0.42976701350E+02  0.45500572315E+02  0.67507374172E+02  0.00000000000E+00 0. -1.
         11    1    3    3    0    0 -0.12369256804E+03 -0.20659005989E+02  0.28708566169E+03  0.31328074161E+03  0.00000000000E+00 0.  1.
<mgrwt>
<rscale>  0 0.19965110E+03</rscale>
<asrwt>0</asrwt>
<pdfrwt beam="1">  1        2 0.13278532E+00 0.20462815E+03</pdfrwt>
<pdfrwt beam="2">  1       -2 0.68879959E-02 0.20462815E+03</pdfrwt>
<totfact> 0.38028454E+03</totfact>
</mgrwt>
</event>
<event>
 7    1  0.1020736E-005  0.1406145E+03  0.7546771E-02  0.1220575E+00
         -2   -1    0    0    0  501 -0.00000000000E+00  0.00000000000E+00  0.11299146638E+03  0.11299146638E+03  0.00000000000E+00 0.  1.
          2   -1    0    0  501    0  0.00000000000E+00 -0.00000000000E+00 -0.16537660801E+03  0.16537660801E+03  0.00000000000E+00 0. -1.
         23    2    1    2    0    0  0.24700655606E+01  0.64323874516E+02  0.19940612570E+02  0.12024326670E+03  0.99584903975E+02 0.  0.
          5    1    1    2  502    0 -0.42638926912E+02 -0.50852738759E+02  0.81794881959E+01  0.67030389785E+02  0.47000000000E+01 0. -1.
         -5    1    1    2    0  502  0.40168861352E+02 -0.13471135757E+02 -0.80505242397E+02  0.91094417910E+02  0.47000000000E+01 0. -1.
        -11    1    3    3    0    0  0.22308397597E+02 -0.18457556351E+02 -0.90195881677E+01  0.30326538881E+02  0.00000000000E+00 0. -1.
         11    1    3    3    0    0 -0.19838332036E+02  0.82781430867E+02  0.28960200738E+02  0.89916727816E+02  0.00000000000E+00 0.  1.
<mgrwt>
<rscale>  0 0.13474849E+03</rscale>
<asrwt>0</asrwt>
<pdfrwt beam="2">  1        2 0.25442555E-01 0.14061451E+03</pdfrwt>
<pdfrwt beam="1">  1       -2 0.17383303E-01 0.14061451E+03</pdfrwt>
<totfact> 0.53855633E+03</totfact>
</mgrwt>
</event>
<event>
 7    1  0.1020736E-005  0.1657360E+03  0.7546771E-02  0.1189183E+00
         -3   -1    0    0    0  501 -0.00000000000E+00  0.00000000000E+00  0.81423107064E+02  0.81423107064E+02  0.00000000000E+00 0.  1.
          3   -1    0    0  501    0  0.00000000000E+00 -0.00000000000E+00 -0.34009816767E+03  0.34009816767E+03  0.00000000000E+00 0. -1.
         23    2    1    2    0    0 -0.10815230832E+03 -0.12052084682E+02 -0.41514183938E+02  0.14834136832E+03  0.91867075424E+02 0.  0.
          5    1    1    2  502    0 -0.16750561537E+02 -0.24781108364E+02 -0.72029998739E+02  0.78135109662E+02  0.47000000000E+01 0. -1.
         -5    1    1    2    0  502  0.12490286986E+03  0.36833193045E+02 -0.14513087793E+03  0.19504479674E+03  0.47000000000E+01 0. -1.
        -11    1    3    3    0    0  0.39719440271E+01 -0.24451581900E+02  0.66999150348E+01  0.25662132769E+02  0.00000000000E+00 0.  1.
         11    1    3    3    0    0 -0.11212425235E+03  0.12399497218E+02 -0.48214098972E+02  0.12267923556E+03  0.00000000000E+00 0. -1.
<mgrwt>
<rscale>  0 0.15956981E+03</rscale>
<asrwt>0</asrwt>
<pdfrwt beam="2">  1        3 0.52322795E-01 0.16573598E+03</pdfrwt>
<pdfrwt beam="1">  1       -3 0.12526632E-01 0.16573598E+03</pdfrwt>
<totfact> 0.43954073E+02</totfact>
</mgrwt>
</event>
<event>
 7    1  0.1020736E-005  0.1347253E+03  0.7546771E-02  0.1232233E+00
          2   -1    0    0  501    0  0.00000000000E+00  0.00000000000E+00  0.14690232813E+03  0.14690232813E+03  0.00000000000E+00 0. -1.
         -2   -1    0    0    0  501 -0.00000000000E+00 -0.00000000000E+00 -0.10762788384E+03  0.10762788384E+03  0.00000000000E+00 0.  1.
         23    2    1    2    0    0  0.50189544790E+02  0.28121155457E+01 -0.19396506625E+02  0.10758402217E+03  0.93119272743E+02 0.  0.
          5    1    1    2  502    0  0.33633955243E+02 -0.28363593139E+02  0.61490614424E+01  0.44672556650E+02  0.47000000000E+01 0.  1.
         -5    1    1    2    0  502 -0.83823500033E+02  0.25551477593E+02  0.52521889468E+02  0.10227363315E+03  0.47000000000E+01 0.  1.
        -11    1    3    3    0    0  0.80090057039E+00 -0.33246221878E+02 -0.30859342476E+02  0.45367959277E+02  0.00000000000E+00 0.  1.
         11    1    3    3    0    0  0.49388644219E+02  0.36058337424E+02  0.11462835852E+02  0.62216062889E+02  0.00000000000E+00 0. -1.
<mgrwt>
<rscale>  0 0.12683230E+03</rscale>
<asrwt>0</asrwt>
<pdfrwt beam="1">  1        2 0.22600358E-01 0.13472528E+03</pdfrwt>
<pdfrwt beam="2">  1       -2 0.16558136E-01 0.13472528E+03</pdfrwt>
<totfact> 0.66381165E+03</totfact>
</mgrwt>
</event>
<event>
 7    1  0.1020736E-005  0.1824169E+03  0.7546771E-02  0.1170687E+00
          2   -1    0    0  501    0  0.00000000000E+00  0.00000000000E+00  0.51994324084E+03  0.51994324084E+03  0.00000000000E+00 0. -1.
         -2   -1    0    0    0  501 -0.00000000000E+00 -0.00000000000E+00 -0.57009628380E+02  0.57009628380E+02  0.00000000000E+00 0.  1.
         23    2    1    2    0    0 -0.76317127309E+02  0.10875862499E+03  0.22173740775E+03  0.27454333367E+03  0.92486872784E+02 0.  0.
          5    1    1    2  502    0 -0.97400319764E+01 -0.94305692491E+02  0.12046967454E+03  0.15337361032E+03  0.47000000000E+01 0.  1.
         -5    1    1    2    0  502  0.86057159285E+02 -0.14452932494E+02  0.12072653017E+03  0.14903592523E+03  0.47000000000E+01 0.  1.
        -11    1    3    3    0    0 -0.41475187564E+02  0.11305727576E+03  0.13464515157E+03  0.18064178815E+03  0.00000000000E+00 0. -1.
         11    1    3    3    0    0 -0.34841939745E+02 -0.42986507758E+01  0.87092256185E+02  0.93901545520E+02  0.00000000000E+00 0.  1.
<mgrwt>
<rscale>  0 0.17705167E+03</rscale>
<asrwt>0</asrwt>
<pdfrwt beam="1">  1        2 0.79991265E-01 0.18241688E+03</pdfrwt>
<pdfrwt beam="2">  1       -2 0.87707124E-02 0.18241688E+03</pdfrwt>
<totfact> 0.47684425E+03</totfact>
</mgrwt>
</event>
<event>
 7    1  0.1020736E-005  0.1383260E+03  0.7546771E-02  0.1227647E+00
         -1   -1    0    0    0  501 -0.00000000000E+00  0.00000000000E+00  0.33710100210E+03  0.33710100210E+03  0.00000000000E+00 0.  1.
          1   -1    0    0  501    0  0.00000000000E+00 -0.00000000000E+00 -0.51057656063E+02  0.51057656063E+02  0.00000000000E+00 0. -1.
         23    2    1    2    0    0 -0.59089481919E+02  0.41049730669E+01  0.19468991681E+03  0.22238914824E+03  0.89690310889E+02 0.  0.
          5    1    1    2  502    0 -0.26663681326E+02  0.38461768046E+01  0.72496902625E+02  0.77483132797E+02  0.47000000000E+01 0.  1.
         -5    1    1    2    0  502  0.85753163245E+02 -0.79511498716E+01  0.18856526597E+02  0.88286377127E+02  0.47000000000E+01 0.  1.
        -11    1    3    3    0    0 -0.42215065998E+02  0.11648462615E+02  0.19870566149E+03  0.20347417130E+03  0.00000000000E+00 0.  1.
         11    1    3    3    0    0 -0.16874415921E+02 -0.75434895478E+01 -0.40157446753E+01  0.18914976937E+02  0.00000000000E+00 0. -1.
<mgrwt>
<rscale>  0 0.12987143E+03</rscale>
<asrwt>0</asrwt>
<pdfrwt beam="2">  1        1 0.78550242E-02 0.13832600E+03</pdfrwt>
<pdfrwt beam="1">  1       -1 0.51861691E-01 0.13832600E+03</pdfrwt>
<totfact> 0.32949484E+03</totfact>
</mgrwt>
</event>
<event>
 7    1  0.1020736E-005  0.1520368E+03  0.7546771E-02  0.1211008E+00
         -2   -1    0    0    0  501 -0.00000000000E+00  0.00000000000E+00  0.10688777106E+02  0.10688777106E+02  0.00000000000E+00 0.  1.
          2   -1    0    0  501    0  0.00000000000E+00 -0.00000000000E+00 -0.18264316452E+04  0.18264316452E+04  0.00000000000E+00 0. -1.
         23    2    1    2    0    0 -0.60059317768E+02 -0.62310718473E+02 -0.52256974234E+03  0.53504057188E+03  0.75495236076E+02 0.  0.
          5    1    1    2  502    0  0.81633176170E+02  0.86084172372E+02 -0.10684750004E+04  0.10750513368E+04  0.47000000000E+01 0.  1.
         -5    1    1    2    0  502 -0.21573858403E+02 -0.23773453900E+02 -0.22469812533E+03  0.22702851364E+03  0.47000000000E+01 0.  1.
        -11    1    3    3    0    0 -0.36410801311E+02 -0.77880521073E+02 -0.41462722426E+03  0.42344640406E+03  0.00000000000E+00 0. -1.
         11    1    3    3    0    0 -0.23648516457E+02  0.15569802601E+02 -0.10794251808E+03  0.11159416783E+03  0.00000000000E+00 0.  1.
<mgrwt>
<rscale>  0 0.14173897E+03</rscale>
<asrwt>0</asrwt>
<pdfrwt beam="2">  1        2 0.28098943E+00 0.15203685E+03</pdfrwt>
<pdfrwt beam="1">  1       -2 0.16444276E-02 0.15203685E+03</pdfrwt>
<totfact> 0.93086311E+03</totfact>
</mgrwt>
</event>
<event>
 7    1  0.1020736E-005  0.1466576E+03  0.7546771E-02  0.1212146E+00
          1   -1    0    0  501    0  0.00000000000E+00  0.00000000000E+00  0.23349197294E+03  0.23349197294E+03  0.00000000000E+00 0. -1.
         -1   -1    0    0    0  501 -0.00000000000E+00 -0.00000000000E+00 -0.84432622305E+02  0.84432622305E+02  0.00000000000E+00 0.  1.
         23    2    1    2    0    0  0.43712924081E+02 -0.72450196708E+02  0.28558411201E+02  0.12811174094E+03  0.91854148421E+02 0.  0.
          5    1    1    2  502    0 -0.20681307186E+02 -0.16876977482E+02  0.87701056409E+02  0.91793867612E+02  0.47000000000E+01 0. -1.
         -5    1    1    2    0  502 -0.23031616895E+02  0.89327174190E+02  0.32799883024E+02  0.98018986691E+02  0.47000000000E+01 0.  1.
        -11    1    3    3    0    0 -0.23070582539E+02 -0.51825491493E+01 -0.10139300293E+02  0.25727728326E+02  0.00000000000E+00 0. -1.
         11    1    3    3    0    0  0.66783506620E+02 -0.67267647558E+02  0.38697711494E+02  0.10238401262E+03  0.00000000000E+00 0.  1.
<mgrwt>
<rscale>  0 0.14088301E+03</rscale>
<asrwt>0</asrwt>
<pdfrwt beam="1">  1        1 0.35921842E-01 0.14665757E+03</pdfrwt>
<pdfrwt beam="2">  1       -1 0.12989634E-01 0.14665757E+03</pdfrwt>
<totfact> 0.46873220E+03</totfact>
</mgrwt>
</event>
<event>
 7    1  0.1020736E-005  0.1530890E+03  0.7546771E-02  0.1205147E+00
          1   -1    0    0  501    0  0.00000000000E+00  0.00000000000E+00  0.10197696729E+04  0.10197696729E+04  0.00000000000E+00 0. -1.
         -1   -1    0    0    0  501 -0.00000000000E+00 -0.00000000000E+00 -0.21372530328E+02  0.21372530328E+02  0.00000000000E+00 0.  1.
         23    2    1    2    0    0 -0.41118762994E+01 -0.88287528673E+02  0.29691634112E+03  0.32315087057E+03  0.91954207522E+02 0.  0.
          5    1    1    2  502    0  0.48025548035E+02 -0.26513667007E+01  0.30603900218E+03  0.30983131518E+03  0.47000000000E+01 0.  1.
         -5    1    1    2    0  502 -0.43913671736E+02  0.90938895373E+02  0.39544179928E+03  0.40816001748E+03  0.47000000000E+01 0.  1.
        -11    1    3    3    0    0  0.16362472675E+02 -0.37765780149E+02  0.24306292725E+03  0.24652296296E+03  0.00000000000E+00 0. -1.
         11    1    3    3    0    0 -0.20474348974E+02 -0.50521748524E+02  0.53853413873E+02  0.76627907616E+02  0.00000000000E+00 0.  1.
<mgrwt>
<rscale>  0 0.14625879E+03</rscale>
<asrwt>0</asrwt>
<pdfrwt beam="1">  1        1 0.15688760E+00 0.15308899E+03</pdfrwt>
<pdfrwt beam="2">  1       -1 0.32880824E-02 0.15308899E+03</pdfrwt>
<totfact> 0.49918943E+03</totfact>
</mgrwt>
</event>
<event>
 7    1  0.1020736E-005  0.1352216E+03  0.7546771E-02  0.1233721E+00
         -2   -1    0    0    0  501 -0.00000000000E+00  0.00000000000E+00  0.23574921261E+02  0.23574921261E+02  0.00000000000E+00 0.  1.
          2   -1    0    0  501    0  0.00000000000E+00 -0.00000000000E+00 -0.70256916161E+03  0.70256916161E+03  0.00000000000E+00 0. -1.
         23    2    1    2    0    0  0.12187469358E+02  0.50114108448E+02 -0.15729533712E+03  0.18720565749E+03  0.87430983300E+02 0.  0.
          5    1    1    2  502    0 -0.39746628377E+02  0.14403816291E+02 -0.36141572469E+03  0.36391026428E+03  0.47000000000E+01 0. -1.
         -5    1    1    2    0  502  0.27559159019E+02 -0.64517924738E+02 -0.16028317854E+03  0.17502816111E+03  0.47000000000E+01 0. -1.
        -11    1    3    3    0    0  0.20497580358E+02  0.36384992720E+02 -0.16442458834E+03  0.16964511118E+03  0.00000000000E+00 0. -1.
         11    1    3    3    0    0 -0.83101110002E+01  0.13729115728E+02  0.71292512249E+01  0.17560546305E+02  0.00000000000E+00 0.  1.
<mgrwt>
<rscale>  0 0.12586674E+03</rscale>
<asrwt>0</asrwt>
<pdfrwt beam="2">  1        2 0.10808757E+00 0.13522160E+03</pdfrwt>
<pdfrwt beam="1">  1       -2 0.36269106E-02 0.13522160E+03</pdfrwt>
<totfact> 0.12683953E+04</totfact>
</mgrwt>
</event>
<event>
 7    1  0.1020736E-005  0.1940538E+03  0.7546771E-02  0.1159480E+00
         -1   -1    0    0    0  501 -0.00000000000E+00  0.00000000000E+00  0.30895930766E+02  0.30895930766E+02  0.00000000000E+00 0.  1.
          1   -1    0    0  501    0  0.00000000000E+00 -0.00000000000E+00 -0.11605839071E+04  0.11605839071E+04  0.00000000000E+00 0. -1.
         23    2    1    2    0    0 -0.14661731455E+03  0.23161534273E+02 -0.39677728911E+03  0.43331430729E+03  0.91082260370E+02 0.  0.
          5    1    1    2  502    0  0.75786419960E+02 -0.45389319437E+02 -0.18315354567E+03  0.20339882758E+03  0.47000000000E+01 0.  1.
         -5    1    1    2    0  502  0.70830894588E+02  0.22227785164E+02 -0.54975714156E+03  0.55476670300E+03  0.47000000000E+01 0.  1.
        -11    1    3    3    0    0 -0.12755643656E+03  0.48740006393E+02 -0.35765127137E+03  0.38283242371E+03  0.00000000000E+00 0. -1.
         11    1    3    3    0    0 -0.19060877992E+02 -0.25578472120E+02 -0.39126017740E+02  0.50481883582E+02  0.00000000000E+00 0.  1.
<mgrwt>
<rscale>  0 0.18887483E+03</rscale>
<asrwt>0</asrwt>
<pdfrwt beam="2">  1        1 0.17855135E+00 0.19405385E+03</pdfrwt>
<pdfrwt beam="1">  1       -1 0.47532206E-02 0.19405385E+03</pdfrwt>
<totfact> 0.23111152E+03</totfact>
</mgrwt>
</event>
<event>
 7    1  0.1020736E-005  0.1351197E+03  0.7546771E-02  0.1232680E+00
          2   -1    0    0  501    0  0.00000000000E+00  0.00000000000E+00  0.16630091794E+03  0.16630091794E+03  0.00000000000E+00 0. -1.
         -2   -1    0    0    0  501 -0.00000000000E+00 -0.00000000000E+00 -0.86733443315E+02  0.86733443315E+02  0.00000000000E+00 0.  1.
         23    2    1    2    0    0  0.16168855953E+01 -0.51279126249E+02  0.46860247976E+02  0.11401238892E+03  0.90392360727E+02 0.  0.
          5    1    1    2  502    0 -0.17079177471E+02 -0.25235412925E+02 -0.26721920151E+02  0.40800433639E+02  0.47000000000E+01 0.  1.
         -5    1    1    2    0  502  0.15462291876E+02  0.76514539175E+02  0.59429146798E+02  0.98221538698E+02  0.47000000000E+01 0.  1.
        -11    1    3    3    0    0  0.12772985392E+01 -0.77029828263E+02  0.27528663979E+02  0.81811082833E+02  0.00000000000E+00 0.  1.
         11    1    3    3    0    0  0.33958705616E+00  0.25750702014E+02  0.19331583997E+02  0.32201306082E+02  0.00000000000E+00 0. -1.
<mgrwt>
<rscale>  0 0.12654118E+03</rscale>
<asrwt>0</asrwt>
<pdfrwt beam="1">  1        2 0.25584757E-01 0.13511975E+03</pdfrwt>
<pdfrwt beam="2">  1       -2 0.13343607E-01 0.13511975E+03</pdfrwt>
<totfact> 0.82316707E+03</totfact>
</mgrwt>
</event>
<event>
 7    1  0.1020736E-005  0.1329866E+03  0.7546771E-02  0.1236662E+00
         -2   -1    0    0    0  501 -0.00000000000E+00  0.00000000000E+00  0.14988203904E+02  0.14988203904E+02  0.00000000000E+00 0. -1.
          2   -1    0    0  501    0  0.00000000000E+00 -0.00000000000E+00 -0.11789115931E+04  0.11789115931E+04  0.00000000000E+00 0.  1.
         23    2    1    2    0    0  0.44974157357E+02  0.62533160130E+01 -0.23606231368E+03  0.25655694509E+03  0.89634096999E+02 0.  0.
          5    1    1    2  502    0 -0.67379921641E+02  0.33974974303E+02 -0.74046808402E+03  0.74431809475E+03  0.47000000000E+01 0. -1.
         -5    1    1    2    0  502  0.22405764284E+02 -0.40228290316E+02 -0.18739299150E+03  0.19302475717E+03  0.47000000000E+01 0. -1.
        -11    1    3    3    0    0 -0.22344828744E+02 -0.32052623321E+01 -0.11955241313E+03  0.12166488632E+03  0.00000000000E+00 0.  1.
         11    1    3    3    0    0  0.67318986101E+02  0.94585783451E+01 -0.11650990055E+03  0.13489205877E+03  0.00000000000E+00 0. -1.
<mgrwt>
<rscale>  0 0.12398666E+03</rscale>
<asrwt>0</asrwt>
<pdfrwt beam="2">  1        2 0.18137103E+00 0.13298664E+03</pdfrwt>
<pdfrwt beam="1">  1       -2 0.23058773E-02 0.13298664E+03</pdfrwt>
<totfact> 0.12407704E+04</totfact>
</mgrwt>
</event>
<event>
 7    1  0.1020736E-005  0.1330552E+03  0.7546771E-02  0.1233247E+00
         -4   -1    0    0    0  501 -0.00000000000E+00  0.00000000000E+00  0.29841903018E+02  0.29841903018E+02  0.00000000000E+00 0. -1.
          4   -1    0    0  501    0  0.00000000000E+00 -0.00000000000E+00 -0.65783507363E+03  0.65783507363E+03  0.00000000000E+00 0.  1.
         23    2    1    2    0    0  0.98219725204E+01  0.44520319104E+02 -0.11404917969E+03  0.15678893921E+03  0.97452686533E+02 0.  0.
          5    1    1    2  502    0 -0.83710281483E+01 -0.72261269411E+02 -0.48517730621E+03  0.49062294445E+03  0.47000000000E+01 0. -1.
         -5    1    1    2    0  502 -0.14509443721E+01  0.27740950307E+02 -0.28766684719E+02  0.40265092987E+02  0.47000000000E+01 0. -1.
        -11    1    3    3    0    0 -0.94333093084E+01  0.57444860493E+02 -0.11953622828E+03  0.13295792264E+03  0.00000000000E+00 0.  1.
         11    1    3    3    0    0  0.19255281829E+02 -0.12924541388E+02  0.54870485898E+01  0.23831016567E+02  0.00000000000E+00 0. -1.
<mgrwt>
<rscale>  0 0.12617305E+03</rscale>
<asrwt>0</asrwt>
<pdfrwt beam="2">  1        4 0.10120538E+00 0.13305519E+03</pdfrwt>
<pdfrwt beam="1">  1       -4 0.45910626E-02 0.13305519E+03</pdfrwt>
<totfact> 0.37823937E+02</totfact>
</mgrwt>
</event>
<event>
 7    1  0.1020736E-005  0.1721774E+03  0.7546771E-02  0.1182002E+00
          1   -1    0    0  501    0  0.00000000000E+00  0.00000000000E+00  0.23807011310E+03  0.23807011310E+03  0.00000000000E+00 0. -1.
         -1   -1    0    0    0  501 -0.00000000000E+00 -0.00000000000E+00 -0.14949947867E+03  0.14949947867E+03  0.00000000000E+00 0.  1.
         23    2    1    2    0    0 -0.75336889705E+02  0.91357374872E+02 -0.59499018027E+02  0.16047999455E+03  0.90508997404E+02 0.  0.
          5    1    1    2  502    0  0.58670902509E+02 -0.39829742212E+02  0.15668727955E+03  0.17205137820E+03  0.47000000000E+01 0. -1.
         -5    1    1    2    0  502  0.16665987196E+02 -0.51527632660E+02 -0.86176270906E+01  0.55038219025E+02  0.47000000000E+01 0. -1.
        -11    1    3    3    0    0 -0.80414265499E+02  0.10469199581E+03 -0.43386399647E+02  0.13895771931E+03  0.00000000000E+00 0. -1.
         11    1    3    3    0    0  0.50773757936E+01 -0.13334620935E+02 -0.16112618380E+02  0.21522275240E+02  0.00000000000E+00 0.  1.
<mgrwt>
<rscale>  0 0.16607710E+03</rscale>
<asrwt>0</asrwt>
<pdfrwt beam="1">  1        1 0.36626171E-01 0.17217742E+03</pdfrwt>
<pdfrwt beam="2">  1       -1 0.22999920E-01 0.17217742E+03</pdfrwt>
<totfact> 0.18544753E+03</totfact>
</mgrwt>
</event>
<event>
 7    1  0.1020736E-005  0.1331676E+03  0.7546771E-02  0.1234870E+00
          2   -1    0    0  501    0  0.00000000000E+00  0.00000000000E+00  0.31950346281E+03  0.31950346281E+03  0.00000000000E+00 0. -1.
         -2   -1    0    0    0  501 -0.00000000000E+00 -0.00000000000E+00 -0.43973192962E+02  0.43973192962E+02  0.00000000000E+00 0.  1.
         23    2    1    2    0    0  0.45779102292E+02 -0.35854242739E+01  0.12567395364E+03  0.16300088460E+03  0.93095457900E+02 0.  0.
          5    1    1    2  502    0 -0.22162339552E+02 -0.57659656904E+02  0.44581675265E+02  0.76324446268E+02  0.47000000000E+01 0.  1.
         -5    1    1    2    0  502 -0.23616762740E+02  0.61245081178E+02  0.10527464094E+03  0.12415132491E+03  0.47000000000E+01 0.  1.
        -11    1    3    3    0    0  0.40387782651E+02 -0.44829268191E+02  0.89127527280E+02  0.10763155854E+03  0.00000000000E+00 0.  1.
         11    1    3    3    0    0  0.53913196404E+01  0.41243843917E+02  0.36546426359E+02  0.55369326059E+02  0.00000000000E+00 0. -1.
<mgrwt>
<rscale>  0 0.12512754E+03</rscale>
<asrwt>0</asrwt>
<pdfrwt beam="1">  1        2 0.49154377E-01 0.13316764E+03</pdfrwt>
<pdfrwt beam="2">  1       -2 0.67651068E-02 0.13316764E+03</pdfrwt>
<totfact> 0.11824880E+04</totfact>
</mgrwt>
</event>
<event>
 7    1  0.1020736E-005  0.1261299E+03  0.7546771E-02  0.1248703E+00
          2   -1    0    0  501    0  0.00000000000E+00  0.00000000000E+00  0.49830631354E+03  0.49830631354E+03  0.00000000000E+00 0. -1.
         -2   -1    0    0    0  501 -0.00000000000E+00 -0.00000000000E+00 -0.37036404484E+02  0.37036404484E+02  0.00000000000E+00 0.  1.
         23    2    1    2    0    0  0.12879467092E+02  0.10845205375E+02  0.49637122337E+02  0.10481943503E+03  0.90773183778E+02 0.  0.
          5    1    1    2  502    0 -0.10934374186E+02  0.47605112986E+02  0.80838397748E+02  0.94566082036E+02  0.47000000000E+01 0. -1.
         -5    1    1    2    0  502 -0.19450929066E+01 -0.58450318361E+02  0.33079438897E+03  0.33595720096E+03  0.47000000000E+01 0. -1.
        -11    1    3    3    0    0 -0.31074461221E+02 -0.14412814385E+02  0.55661201701E+00  0.34258738675E+02  0.00000000000E+00 0.  1.
         11    1    3    3    0    0  0.43953928313E+02  0.25258019761E+02  0.49080510320E+02  0.70560696352E+02  0.00000000000E+00 0. -1.
<mgrwt>
<rscale>  0 0.11666464E+03</rscale>
<asrwt>0</asrwt>
<pdfrwt beam="1">  1        2 0.76662505E-01 0.12612988E+03</pdfrwt>
<pdfrwt beam="2">  1       -2 0.56979087E-02 0.12612988E+03</pdfrwt>
<totfact> 0.94958724E+03</totfact>
</mgrwt>
</event>
<event>
 7    1  0.1020736E-005  0.1283165E+03  0.7546771E-02  0.1243436E+00
          2   -1    0    0  501    0  0.00000000000E+00  0.00000000000E+00  0.24943129201E+03  0.24943129201E+03  0.00000000000E+00 0. -1.
         -2   -1    0    0    0  501 -0.00000000000E+00 -0.00000000000E+00 -0.51703321968E+02  0.51703321968E+02  0.00000000000E+00 0.  1.
         23    2    1    2    0    0 -0.22372214677E+02 -0.18436953089E+02  0.69398940554E+02  0.11965881126E+03  0.93067614852E+02 0.  0.
          5    1    1    2  502    0  0.66568086839E+02 -0.12904480084E+02  0.43458412876E+02  0.80675643421E+02  0.47000000000E+01 0. -1.
         -5    1    1    2    0  502 -0.44195872162E+02  0.31341433173E+02  0.84870616614E+02  0.10080015930E+03  0.47000000000E+01 0. -1.
        -11    1    3    3    0    0  0.12739198248E+02  0.26432776750E+02 -0.66934012242E+00  0.29350074530E+02  0.00000000000E+00 0.  1.
         11    1    3    3    0    0 -0.35111412925E+02 -0.44869729839E+02  0.70068280677E+02  0.90308736734E+02  0.00000000000E+00 0. -1.
<mgrwt>
<rscale>  0 0.11979505E+03</rscale>
<asrwt>0</asrwt>
<pdfrwt beam="1">  1        2 0.38374044E-01 0.12831651E+03</pdfrwt>
<pdfrwt beam="2">  1       -2 0.79543574E-02 0.12831651E+03</pdfrwt>
<totfact> 0.11954388E+04</totfact>
</mgrwt>
</event>
<event>
 7    1  0.1020736E-005  0.2367801E+03  0.7546771E-02  0.1125283E+00
          1   -1    0    0  501    0  0.00000000000E+00  0.00000000000E+00  0.49328047404E+03  0.49328047404E+03  0.00000000000E+00 0. -1.
         -1   -1    0    0    0  501 -0.00000000000E+00 -0.00000000000E+00 -0.16760442190E+03  0.16760442190E+03  0.00000000000E+00 0.  1.
         23    2    1    2    0    0  0.18914583020E+03 -0.68279938675E+02 -0.43505767308E+02  0.22229618820E+03  0.84169759363E+02 0.  0.
          5    1    1    2  502    0 -0.19740910338E+03  0.45311356681E+02  0.27743652579E+03  0.34353542610E+03  0.47000000000E+01 0.  1.
         -5    1    1    2    0  502  0.82632731803E+01  0.22968581994E+02  0.91745293651E+02  0.95053281635E+02  0.47000000000E+01 0.  1.
        -11    1    3    3    0    0  0.57459390462E+02 -0.14904222108E+02 -0.53419321508E+02  0.79858257553E+02  0.00000000000E+00 0.  1.
         11    1    3    3    0    0  0.13168643974E+03 -0.53375716567E+02  0.99135542002E+01  0.14243793065E+03  0.00000000000E+00 0. -1.
<mgrwt>
<rscale>  0 0.23193793E+03</rscale>
<asrwt>0</asrwt>
<pdfrwt beam="1">  1        1 0.75889303E-01 0.23678015E+03</pdfrwt>
<pdfrwt beam="2">  1       -1 0.25785296E-01 0.23678015E+03</pdfrwt>
<totfact> 0.61115195E+02</totfact>
</mgrwt>
</event>
<event>
 7    1  0.1020736E-005  0.1574569E+03  0.7546771E-02  0.1199437E+00
          1   -1    0    0  501    0  0.00000000000E+00  0.00000000000E+00  0.88490518178E+03  0.88490518178E+03  0.00000000000E+00 0. -1.
         -1   -1    0    0    0  501 -0.00000000000E+00 -0.00000000000E+00 -0.23776087942E+02  0.23776087942E+02  0.00000000000E+00 0.  1.
         23    2    1    2    0    0  0.83565541905E+02  0.46711455235E+02  0.39016013808E+03  0.41208843144E+03  0.91797506178E+02 0.  0.
          5    1    1    2  502    0 -0.54931553419E+02 -0.46747111782E+02  0.45988474161E+03  0.46553070102E+03  0.47000000000E+01 0. -1.
         -5    1    1    2    0  502 -0.28633988486E+02  0.35656547625E-01  0.11084214149E+02  0.31062137263E+02  0.47000000000E+01 0. -1.
        -11    1    3    3    0    0  0.88377026009E+02  0.64683709082E+02  0.36304056478E+03  0.37920038584E+03  0.00000000000E+00 0. -1.
         11    1    3    3    0    0 -0.48114841041E+01 -0.17972253847E+02  0.27119573297E+02  0.32888045600E+02  0.00000000000E+00 0.  1.
<mgrwt>
<rscale>  0 0.15084662E+03</rscale>
<asrwt>0</asrwt>
<pdfrwt beam="1">  1        1 0.13613923E+00 0.15745695E+03</pdfrwt>
<pdfrwt beam="2">  1       -1 0.36578604E-02 0.15745695E+03</pdfrwt>
<totfact> 0.53994813E+03</totfact>
</mgrwt>
</event>
<event>
 7    1  0.1020736E-005  0.1252751E+03  0.7546771E-02  0.1247765E+00
         -1   -1    0    0    0  501 -0.00000000000E+00  0.00000000000E+00  0.20711178422E+03  0.20711178422E+03  0.00000000000E+00 0.  1.
          1   -1    0    0  501    0  0.00000000000E+00 -0.00000000000E+00 -0.79814164959E+02  0.79814164959E+02  0.00000000000E+00 0. -1.
         23    2    1    2    0    0  0.81622065524E+01 -0.13179240148E+01  0.13001287284E+03  0.16162139425E+03  0.95654427158E+02 0.  0.
          5    1    1    2  502    0 -0.16775998226E+02 -0.60358719735E+02 -0.13223322056E+01  0.62836675015E+02  0.47000000000E+01 0.  1.
         -5    1    1    2    0  502  0.86137916736E+01  0.61676643750E+02 -0.13929213721E+01  0.62467879916E+02  0.47000000000E+01 0.  1.
        -11    1    3    3    0    0 -0.19064817002E+02  0.16427633231E+02 -0.23982975358E+01  0.25280154508E+02  0.00000000000E+00 0. -1.
         11    1    3    3    0    0  0.27227023554E+02 -0.17745557246E+02  0.13241117037E+03  0.13634123974E+03  0.00000000000E+00 0.  1.
<mgrwt>
<rscale>  0 0.11721387E+03</rscale>
<asrwt>0</asrwt>
<pdfrwt beam="2">  1        1 0.12279102E-01 0.12527513E+03</pdfrwt>
<pdfrwt beam="1">  1       -1 0.31863351E-01 0.12527513E+03</pdfrwt>
<totfact> 0.42677799E+03</totfact>
</mgrwt>
</event>
<event>
 7    1  0.1020736E-005  0.3507131E+03  0.7546771E-02  0.1063449E+00
          1   -1    0    0  501    0  0.00000000000E+00  0.00000000000E+00  0.16198026222E+04  0.16198026222E+04  0.00000000000E+00 0. -1.
         -1   -1    0    0    0  501 -0.00000000000E+00 -0.00000000000E+00 -0.74521299431E+02  0.74521299431E+02  0.00000000000E+00 0.  1.
         23    2    1    2    0    0 -0.11726743363E+03 -0.30598167781E+03  0.66704232243E+03  0.74864776415E+03  0.90286082591E+02 0.  0.
          5    1    1    2  502    0 -0.19038574524E+02  0.68959324086E+02  0.12191098087E+03  0.14142925070E+03  0.47000000000E+01 0.  1.
         -5    1    1    2    0  502  0.13630600815E+03  0.23702235372E+03  0.75632801946E+03  0.80424690676E+03  0.47000000000E+01 0.  1.
        -11    1    3    3    0    0 -0.57216620906E+02 -0.58375819265E+02  0.12014910499E+03  0.14531787713E+03  0.00000000000E+00 0.  1.
         11    1    3    3    0    0 -0.60050812725E+02 -0.24760585854E+03  0.54689321744E+03  0.60332988703E+03  0.00000000000E+00 0. -1.
<mgrwt>
<rscale>  0 0.34797646E+03</rscale>
<asrwt>0</asrwt>
<pdfrwt beam="1">  1        1 0.24920038E+00 0.35071306E+03</pdfrwt>
<pdfrwt beam="2">  1       -1 0.11464816E-01 0.35071306E+03</pdfrwt>
<totfact> 0.29098520E+02</totfact>
</mgrwt>
</event>
<event>
 7    1  0.1020736E-005  0.1706088E+03  0.7546771E-02  0.1183719E+00
         -1   -1    0    0    0  501 -0.00000000000E+00  0.00000000000E+00  0.64631677683E+02  0.64631677683E+02  0.00000000000E+00 0.  1.
          1   -1    0    0  501    0  0.00000000000E+00 -0.00000000000E+00 -0.56774654640E+03  0.56774654640E+03  0.00000000000E+00 0. -1.
         23    2    1    2    0    0 -0.11031930972E+03  0.36193078375E+02 -0.62931334742E+02  0.16028827438E+03  0.90838807742E+02 0.  0.
          5    1    1    2  502    0  0.12944017941E+03 -0.42409910887E+01 -0.37637866118E+03  0.39806498545E+03  0.47000000000E+01 0.  1.
         -5    1    1    2    0  502 -0.19120869691E+02 -0.31952087286E+02 -0.63804872797E+02  0.74024964251E+02  0.47000000000E+01 0.  1.
        -11    1    3    3    0    0 -0.71577268234E+01  0.22483252333E+02  0.16987055771E+02  0.29073867175E+02  0.00000000000E+00 0. -1.
         11    1    3    3    0    0 -0.10316158290E+03  0.13709826042E+02 -0.79918390514E+02  0.13121440721E+03  0.00000000000E+00 0.  1.
<mgrwt>
<rscale>  0 0.16448964E+03</rscale>
<asrwt>0</asrwt>
<pdfrwt beam="2">  1        1 0.87345624E-01 0.17060884E+03</pdfrwt>
<pdfrwt beam="1">  1       -1 0.99433349E-02 0.17060884E+03</pdfrwt>
<totfact> 0.23061357E+03</totfact>
</mgrwt>
</event>
<event>
 7    1  0.1020736E-005  0.1695392E+03  0.7546771E-02  0.1184990E+00
         -1   -1    0    0    0  501 -0.00000000000E+00  0.00000000000E+00  0.85620134625E+02  0.85620134625E+02  0.00000000000E+00 0.  1.
          1   -1    0    0  501    0  0.00000000000E+00 -0.00000000000E+00 -0.32722827265E+03  0.32722827265E+03  0.00000000000E+00 0. -1.
         23    2    1    2    0    0  0.92022436822E+02 -0.68115004650E+02 -0.44070304423E+02  0.15253176891E+03  0.90641966317E+02 0.  0.
          5    1    1    2  502    0 -0.47713043067E+02 -0.68741637533E+01 -0.15667633445E+03  0.16399192780E+03  0.47000000000E+01 0.  1.
         -5    1    1    2    0  502 -0.44309393755E+02  0.74989168404E+02 -0.40861499150E+02  0.96324710566E+02  0.47000000000E+01 0.  1.
        -11    1    3    3    0    0  0.41342432908E+02  0.18784743810E+02 -0.12592625123E+02  0.47123641267E+02  0.00000000000E+00 0.  1.
         11    1    3    3    0    0  0.50680003913E+02 -0.86899748460E+02 -0.31477679300E+02  0.10540812764E+03  0.00000000000E+00 0. -1.
<mgrwt>
<rscale>  0 0.16332800E+03</rscale>
<asrwt>0</asrwt>
<pdfrwt beam="2">  1        1 0.50342812E-01 0.16953925E+03</pdfrwt>
<pdfrwt beam="1">  1       -1 0.13172328E-01 0.16953925E+03</pdfrwt>
<totfact> 0.30357424E+03</totfact>
</mgrwt>
</event>
<event>
 7    1  0.1020736E-005  0.1797176E+03  0.7546771E-02  0.1174831E+00
         -2   -1    0    0    0  501 -0.00000000000E+00  0.00000000000E+00  0.14167717267E+04  0.14167717267E+04  0.00000000000E+00 0.  1.
          2   -1    0    0  501    0  0.00000000000E+00 -0.00000000000E+00 -0.19800511267E+02  0.19800511267E+02  0.00000000000E+00 0. -1.
         23    2    1    2    0    0 -0.11294508124E+03 -0.62566726386E+02  0.58428221026E+03  0.60424907402E+03  0.84024136984E+02 0.  0.
          5    1    1    2  502    0  0.69783764424E+02  0.24054864751E+02  0.71410361455E+03  0.71792372339E+03  0.47000000000E+01 0.  1.
         -5    1    1    2    0  502  0.43161316812E+02  0.38511861635E+02  0.98585390609E+02  0.11439944054E+03  0.47000000000E+01 0.  1.
        -11    1    3    3    0    0 -0.77382699821E+02 -0.76636000865E+02  0.49957656796E+03  0.51130999024E+03  0.00000000000E+00 0.  1.
         11    1    3    3    0    0 -0.35562381415E+02  0.14069274479E+02  0.84705642298E+02  0.92939083777E+02  0.00000000000E+00 0. -1.
<mgrwt>
<rscale>  0 0.17292512E+03</rscale>
<asrwt>0</asrwt>
<pdfrwt beam="2">  1        2 0.30462336E-02 0.17971764E+03</pdfrwt>
<pdfrwt beam="1">  1       -2 0.21796480E+00 0.17971764E+03</pdfrwt>
<totfact> 0.33944061E+02</totfact>
</mgrwt>
</event>
<event>
 7    1  0.1020736E-005  0.1338632E+03  0.7546771E-02  0.1234330E+00
          2   -1    0    0  501    0  0.00000000000E+00  0.00000000000E+00  0.47859341588E+03  0.47859341588E+03  0.00000000000E+00 0. -1.
         -2   -1    0    0    0  501 -0.00000000000E+00 -0.00000000000E+00 -0.29459689031E+02  0.29459689031E+02  0.00000000000E+00 0.  1.
         23    2    1    2    0    0  0.28384855486E+02 -0.38589499636E+02  0.18337919620E+03  0.21048829811E+03  0.91556237017E+02 0.  0.
          5    1    1    2  502    0  0.29198117511E+02 -0.67685472683E+01  0.18864914290E+03  0.19107310751E+03  0.47000000000E+01 0.  1.
         -5    1    1    2    0  502 -0.57582972997E+02  0.45358046905E+02  0.77105387750E+02  0.10649169929E+03  0.47000000000E+01 0.  1.
        -11    1    3    3    0    0 -0.19455400373E+02 -0.91978891773E+01  0.31917404470E+01  0.21755481518E+02  0.00000000000E+00 0.  1.
         11    1    3    3    0    0  0.47840255859E+02 -0.29391610459E+02  0.18018745575E+03  0.18873281659E+03  0.00000000000E+00 0. -1.
<mgrwt>
<rscale>  0 0.12547406E+03</rscale>
<asrwt>0</asrwt>
<pdfrwt beam="1">  1        2 0.73629751E-01 0.13386315E+03</pdfrwt>
<pdfrwt beam="2">  1       -2 0.45322602E-02 0.13386315E+03</pdfrwt>
<totfact> 0.14054896E+04</totfact>
</mgrwt>
</event>
<event>
 7    1  0.1020736E-005  0.1447041E+03  0.7546771E-02  0.1215640E+00
         -2   -1    0    0    0  501 -0.00000000000E+00  0.00000000000E+00  0.36613337137E+02  0.36613337137E+02  0.00000000000E+00 0.  1.
          2   -1    0    0  501    0  0.00000000000E+00 -0.00000000000E+00 -0.54966126040E+03  0.54966126040E+03  0.00000000000E+00 0. -1.
         23    2    1    2    0    0 -0.68480963424E+02 -0.25006315821E+02 -0.13304984548E+03  0.17965708135E+03  0.96226022024E+02 0.  0.
          5    1    1    2  502    0 -0.92291241149E+01 -0.24401675801E+02 -0.22280620231E+03  0.22437761096E+03  0.47000000000E+01 0.  1.
         -5    1    1    2    0  502  0.77710087539E+02  0.49407991622E+02 -0.15719187547E+03  0.18223990522E+03  0.47000000000E+01 0.  1.
        -11    1    3    3    0    0 -0.35823241940E+02 -0.60429840575E+02 -0.95589960639E+02  0.11862761428E+03  0.00000000000E+00 0.  1.
         11    1    3    3    0    0 -0.32657721484E+02  0.35423524754E+02 -0.37459884844E+02  0.61029467071E+02  0.00000000000E+00 0. -1.
<mgrwt>
<rscale>  0 0.13829593E+03</rscale>
<asrwt>0</asrwt>
<pdfrwt beam="2">  1        2 0.84563261E-01 0.14470406E+03</pdfrwt>
<pdfrwt beam="1">  1       -2 0.56328218E-02 0.14470406E+03</pdfrwt>
<totfact> 0.87472125E+03</totfact>
</mgrwt>
</event>
<event>
 7    1  0.1020736E-005  0.1435606E+03  0.7546771E-02  0.1219339E+00
          2   -1    0    0  501    0  0.00000000000E+00  0.00000000000E+00  0.17370610483E+03  0.17370610483E+03  0.00000000000E+00 0. -1.
         -2   -1    0    0    0  501 -0.00000000000E+00 -0.00000000000E+00 -0.96811000770E+02  0.96811000770E+02  0.00000000000E+00 0.  1.
         23    2    1    2    0    0 -0.41539875063E+02 -0.57085250337E+02  0.20002197818E+02  0.11609412573E+03  0.89963720941E+02 0.  0.
          5    1    1    2  502    0  0.19011311623E+02  0.39655519496E+02  0.96067957273E+02  0.10575978730E+03  0.47000000000E+01 0. -1.
         -5    1    1    2    0  502  0.22528563440E+02  0.17429730841E+02 -0.39175051027E+02  0.48663192567E+02  0.47000000000E+01 0. -1.
        -11    1    3    3    0    0 -0.62236609905E+02 -0.23144256431E+02 -0.88305955005E+01  0.66985309099E+02  0.00000000000E+00 0. -1.
         11    1    3    3    0    0  0.20696734842E+02 -0.33940993906E+02  0.28832793318E+02  0.49108816632E+02  0.00000000000E+00 0.  1.
<mgrwt>
<rscale>  0 0.13562607E+03</rscale>
<asrwt>0</asrwt>
<pdfrwt beam="1">  1        2 0.26724016E-01 0.14356063E+03</pdfrwt>
<pdfrwt beam="2">  1       -2 0.14894000E-01 0.14356063E+03</pdfrwt>
<totfact> 0.65917175E+03</totfact>
</mgrwt>
</event>
<event>
 6    1  0.1020736E-005  0.1613749E+03  0.7546771E-02  0.1189874E+00
         -3   -1    0    0    0  501 -0.00000000000E+00  0.00000000000E+00  0.26232477168E+03  0.26232477168E+03  0.00000000000E+00 0.  1.
          3   -1    0    0  501    0  0.00000000000E+00 -0.00000000000E+00 -0.94635850782E+02  0.94635850782E+02  0.00000000000E+00 0. -1.
          5    1    1    2  502    0  0.57042671796E+02  0.29011418499E+02  0.19161913607E+02  0.66968632523E+02  0.47000000000E+01 0. -1.
         -5    1    1    2    0  502 -0.57836381974E+02  0.57352194218E+02  0.81285854022E+02  0.11516857786E+03  0.47000000000E+01 0. -1.
        -11    1    1    2    0    0 -0.47402384807E+02 -0.86993060665E+02  0.93746678328E+01  0.99512125322E+02  0.00000000000E+00 0. -1.
         11    1    1    2    0    0  0.48196094985E+02  0.62944794701E+00  0.57866485434E+02  0.75311286757E+02  0.00000000000E+00 0.  1.
<mgrwt>
<rscale>  0 0.15896127E+03</rscale>
<asrwt>0</asrwt>
<pdfrwt beam="2">  1        3 0.14559362E-01 0.16137488E+03</pdfrwt>
<pdfrwt beam="1">  1       -3 0.40357657E-01 0.16137488E+03</pdfrwt>
<totfact> 0.56634546E+02</totfact>
</mgrwt>
</event>
<event>
 7    1  0.1020736E-005  0.1353674E+03  0.7546771E-02  0.1231980E+00
          1   -1    0    0  501    0  0.00000000000E+00  0.00000000000E+00  0.36769061002E+02  0.36769061002E+02  0.00000000000E+00 0. -1.
         -1   -1    0    0    0  501 -0.00000000000E+00 -0.00000000000E+00 -0.51320613600E+03  0.51320613600E+03  0.00000000000E+00 0.  1.
         23    2    1    2    0    0 -0.47564828590E+02 -0.20934341193E+02 -0.34768671814E+03  0.36315716336E+03  0.91084640650E+02 0.  0.
          5    1    1    2  502    0 -0.17135616820E+02  0.16052542893E+02 -0.11857980999E+03  0.12097344682E+03  0.47000000000E+01 0. -1.
         -5    1    1    2    0  502  0.64700445411E+02  0.48817983004E+01 -0.10170546858E+02  0.65844586827E+02  0.47000000000E+01 0. -1.
        -11    1    3    3    0    0 -0.27056598101E+02 -0.57048220396E+02 -0.22048385782E+03  0.22934622410E+03  0.00000000000E+00 0. -1.
         11    1    3    3    0    0 -0.20508230489E+02  0.36113879203E+02 -0.12720286033E+03  0.13381093926E+03  0.00000000000E+00 0.  1.
<mgrwt>
<rscale>  0 0.12699748E+03</rscale>
<asrwt>0</asrwt>
<pdfrwt beam="1">  1        1 0.56567785E-02 0.13536736E+03</pdfrwt>
<pdfrwt beam="2">  1       -1 0.78954791E-01 0.13536736E+03</pdfrwt>
<totfact> 0.22773542E+03</totfact>
</mgrwt>
</event>
<event>
 7    1  0.1020736E-005  0.1529906E+03  0.7546771E-02  0.1205474E+00
          1   -1    0    0  501    0  0.00000000000E+00  0.00000000000E+00  0.64451060516E+03  0.64451060516E+03  0.00000000000E+00 0.  1.
         -1   -1    0    0    0  501 -0.00000000000E+00 -0.00000000000E+00 -0.39106554939E+02  0.39106554939E+02  0.00000000000E+00 0. -1.
         23    2    1    2    0    0  0.74273186982E+02 -0.47580496640E+02  0.11990280316E+03  0.17458123790E+03  0.91222346249E+02 0.  0.
          5    1    1    2  502    0  0.17126911803E+02  0.36950634823E+02  0.29032519657E+03  0.29320554272E+03  0.47000000000E+01 0. -1.
         -5    1    1    2    0  502 -0.91400098785E+02  0.10629861818E+02  0.19517605048E+03  0.21583037947E+03  0.47000000000E+01 0. -1.
        -11    1    3    3    0    0  0.33526973415E+02 -0.65309412465E+02  0.10417605538E+03  0.12744421453E+03  0.00000000000E+00 0.  1.
         11    1    3    3    0    0  0.40746213567E+02  0.17728915825E+02  0.15726747788E+02  0.47137023372E+02  0.00000000000E+00 0. -1.
<mgrwt>
<rscale>  0 0.14600179E+03</rscale>
<asrwt>0</asrwt>
<pdfrwt beam="1">  1        1 0.99155470E-01 0.15299055E+03</pdfrwt>
<pdfrwt beam="2">  1       -1 0.60163935E-02 0.15299055E+03</pdfrwt>
<totfact> 0.41290442E+03</totfact>
</mgrwt>
</event>
<event>
 7    1  0.1020736E-005  0.1499148E+03  0.7546771E-02  0.1209233E+00
          1   -1    0    0  501    0  0.00000000000E+00  0.00000000000E+00  0.10581682110E+03  0.10581682110E+03  0.00000000000E+00 0. -1.
         -1   -1    0    0    0  501 -0.00000000000E+00 -0.00000000000E+00 -0.18164765946E+03  0.18164765946E+03  0.00000000000E+00 0.  1.
         23    2    1    2    0    0  0.71528400288E+02  0.41627507723E+02 -0.55292199136E+02  0.13614925634E+03  0.92899038041E+02 0.  0.
          5    1    1    2  502    0 -0.95263353292E+02  0.59931591402E+01 -0.21224304378E+02  0.97895789150E+02  0.47000000000E+01 0. -1.
         -5    1    1    2    0  502  0.23734953004E+02 -0.47620666863E+02  0.68566516053E+00  0.53419435071E+02  0.47000000000E+01 0. -1.
        -11    1    3    3    0    0  0.82609940092E+02  0.48187249922E+02 -0.68549893729E+02  0.11766690778E+03  0.00000000000E+00 0.  1.
         11    1    3    3    0    0 -0.11081539804E+02 -0.65597421992E+01  0.13257694593E+02  0.18482348554E+02  0.00000000000E+00 0. -1.
<mgrwt>
<rscale>  0 0.14308784E+03</rscale>
<asrwt>0</asrwt>
<pdfrwt beam="1">  1        1 0.16279511E-01 0.14991485E+03</pdfrwt>
<pdfrwt beam="2">  1       -1 0.27945793E-01 0.14991485E+03</pdfrwt>
<totfact> 0.37261892E+03</totfact>
</mgrwt>
</event>
<event>
 7    1  0.1020736E-005  0.1508486E+03  0.7546771E-02  0.1209359E+00
         -1   -1    0    0    0  501 -0.00000000000E+00  0.00000000000E+00  0.31345180237E+02  0.31345180237E+02  0.00000000000E+00 0.  1.
          1   -1    0    0  501    0  0.00000000000E+00 -0.00000000000E+00 -0.62247880304E+03  0.62247880304E+03  0.00000000000E+00 0. -1.
         23    2    1    2    0    0 -0.70848342453E+02 -0.45949446927E+02 -0.19463941264E+03  0.22960356943E+03  0.87763653315E+02 0.  0.
          5    1    1    2  502    0  0.63781413746E+01 -0.40220813664E+02 -0.14367754439E+03  0.14941124891E+03  0.47000000000E+01 0.  1.
         -5    1    1    2    0  502  0.64470201079E+02  0.86170260591E+02 -0.25281666578E+03  0.27480916494E+03  0.47000000000E+01 0.  1.
        -11    1    3    3    0    0 -0.26548898480E+02 -0.57212359355E+02 -0.58610707012E+02  0.86100598429E+02  0.00000000000E+00 0.  1.
         11    1    3    3    0    0 -0.44299443974E+02  0.11262912427E+02 -0.13602870563E+03  0.14350297101E+03  0.00000000000E+00 0. -1.
<mgrwt>
<rscale>  0 0.14299165E+03</rscale>
<asrwt>0</asrwt>
<pdfrwt beam="2">  1        1 0.95765970E-01 0.15084860E+03</pdfrwt>
<pdfrwt beam="1">  1       -1 0.48223354E-02 0.15084860E+03</pdfrwt>
<totfact> 0.60182954E+03</totfact>
</mgrwt>
</event>
<event>
 7    1  0.1020736E-005  0.1728053E+03  0.7546771E-02  0.1180987E+00
          2   -1    0    0  501    0  0.00000000000E+00  0.00000000000E+00  0.21366279257E+03  0.21366279257E+03  0.00000000000E+00 0. -1.
         -2   -1    0    0    0  501 -0.00000000000E+00 -0.00000000000E+00 -0.12744257026E+03  0.12744257026E+03  0.00000000000E+00 0.  1.
         23    2    1    2    0    0 -0.57942918365E+01 -0.11917250565E+03  0.69209141377E+01  0.15097371430E+03  0.92246969792E+02 0.  0.
          5    1    1    2  502    0 -0.27187345604E+02  0.43004382695E+02  0.92772259247E+02  0.10591180660E+03  0.47000000000E+01 0. -1.
         -5    1    1    2    0  502  0.32981637440E+02  0.76168122957E+02 -0.13472951074E+02  0.84219841924E+02  0.47000000000E+01 0. -1.
        -11    1    3    3    0    0  0.15114658239E+02 -0.66780503245E+02  0.45877989152E+02  0.82418920134E+02  0.00000000000E+00 0.  1.
         11    1    3    3    0    0 -0.20908950076E+02 -0.52392002407E+02 -0.38957075015E+02  0.68554794166E+02  0.00000000000E+00 0. -1.
<mgrwt>
<rscale>  0 0.16702400E+03</rscale>
<asrwt>0</asrwt>
<pdfrwt beam="1">  1        2 0.32871199E-01 0.17280528E+03</pdfrwt>
<pdfrwt beam="2">  1       -2 0.19606549E-01 0.17280528E+03</pdfrwt>
<totfact> 0.33641059E+03</totfact>
</mgrwt>
</event>
<event>
 7    1  0.1020736E-005  0.1392678E+03  0.7546771E-02  0.1226823E+00
          2   -1    0    0  501    0  0.00000000000E+00  0.00000000000E+00  0.54743009229E+03  0.54743009229E+03  0.00000000000E+00 0. -1.
         -2   -1    0    0    0  501 -0.00000000000E+00 -0.00000000000E+00 -0.30347193660E+02  0.30347193660E+02  0.00000000000E+00 0.  1.
         23    2    1    2    0    0 -0.38490745504E+02  0.47839596751E+02  0.14350594946E+03  0.17908536248E+03  0.87792055535E+02 0.  0.
          5    1    1    2  502    0  0.76399817613E+02 -0.16637911719E+02  0.30039786915E+03  0.31044278383E+03  0.47000000000E+01 0. -1.
         -5    1    1    2    0  502 -0.37909072109E+02 -0.31201685032E+02  0.73179080011E+02  0.88249139646E+02  0.47000000000E+01 0. -1.
        -11    1    3    3    0    0 -0.45659526135E+02  0.68259182007E+02  0.12937709768E+03  0.15324014376E+03  0.00000000000E+00 0. -1.
         11    1    3    3    0    0  0.71687806312E+01 -0.20419585256E+02  0.14128851779E+02  0.25845218713E+02  0.00000000000E+00 0.  1.
<mgrwt>
<rscale>  0 0.13042757E+03</rscale>
<asrwt>0</asrwt>
<pdfrwt beam="1">  1        2 0.84220007E-01 0.13926777E+03</pdfrwt>
<pdfrwt beam="2">  1       -2 0.46687994E-02 0.13926777E+03</pdfrwt>
<totfact> 0.11626413E+04</totfact>
</mgrwt>
</event>
<event>
 7    1  0.1020736E-005  0.1390484E+03  0.7546771E-02  0.1226245E+00
          1   -1    0    0  501    0  0.00000000000E+00  0.00000000000E+00  0.41488339479E+03  0.41488339479E+03  0.00000000000E+00 0. -1.
         -1   -1    0    0    0  501 -0.00000000000E+00 -0.00000000000E+00 -0.38344079777E+02  0.38344079777E+02  0.00000000000E+00 0.  1.
         23    2    1    2    0    0 -0.50295079710E-01 -0.60902846091E+02  0.12496788811E+03  0.16578591111E+03  0.90326275648E+02 0.  0.
          5    1    1    2  502    0  0.13422993555E+02  0.24836370844E+02 -0.40448461278E+01  0.28904547270E+02  0.47000000000E+01 0. -1.
         -5    1    1    2    0  502 -0.13372698476E+02  0.36066475247E+02  0.25561627302E+03  0.25853701618E+03  0.47000000000E+01 0. -1.
        -11    1    3    3    0    0 -0.16350471322E+02 -0.66253520739E+01 -0.93754163689E+01  0.19978279071E+02  0.00000000000E+00 0.  1.
         11    1    3    3    0    0  0.16300176243E+02 -0.54277494017E+02  0.13434330448E+03  0.14580763204E+03  0.00000000000E+00 0. -1.
<mgrwt>
<rscale>  0 0.13081928E+03</rscale>
<asrwt>0</asrwt>
<pdfrwt beam="1">  1        1 0.63828212E-01 0.13904844E+03</pdfrwt>
<pdfrwt beam="2">  1       -1 0.58990895E-02 0.13904844E+03</pdfrwt>
<totfact> 0.75721227E+03</totfact>
</mgrwt>
</event>
<event>
 7    1  0.1020736E-005  0.1696976E+03  0.7546771E-02  0.1184696E+00
         -2   -1    0    0    0  501 -0.00000000000E+00  0.00000000000E+00  0.15444431114E+03  0.15444431114E+03  0.00000000000E+00 0.  1.
          2   -1    0    0  501    0  0.00000000000E+00 -0.00000000000E+00 -0.27309505572E+03  0.27309505572E+03  0.00000000000E+00 0. -1.
         23    2    1    2    0    0  0.62268667943E+02 -0.96406054968E+02  0.79424179650E+02  0.16671192436E+03  0.91176482546E+02 0.  0.
          5    1    1    2  502    0 -0.35751785973E+02  0.10083928557E+03 -0.20619949490E+03  0.23235118551E+03  0.47000000000E+01 0. -1.
         -5    1    1    2    0  502 -0.26516881971E+02 -0.44332305976E+01  0.81245706656E+01  0.28476256978E+02  0.47000000000E+01 0. -1.
        -11    1    3    3    0    0  0.95712813637E+01 -0.32690201089E+02  0.76767050349E+02  0.83984752744E+02  0.00000000000E+00 0.  1.
         11    1    3    3    0    0  0.52697386580E+02 -0.63715853879E+02  0.26571293015E+01  0.82727171618E+02  0.00000000000E+00 0. -1.
<mgrwt>
<rscale>  0 0.16359607E+03</rscale>
<asrwt>0</asrwt>
<pdfrwt beam="2">  1        2 0.42014624E-01 0.16969761E+03</pdfrwt>
<pdfrwt beam="1">  1       -2 0.23760663E-01 0.16969761E+03</pdfrwt>
<totfact> 0.18557064E+03</totfact>
</mgrwt>
</event>
<event>
 7    1  0.1020736E-005  0.2288227E+03  0.7546771E-02  0.1130557E+00
         -2   -1    0    0    0  501 -0.00000000000E+00  0.00000000000E+00  0.54161648208E+02  0.54161648208E+02  0.00000000000E+00 0. -1.
          2   -1    0    0  501    0  0.00000000000E+00 -0.00000000000E+00 -0.10019714041E+04  0.10019714041E+04  0.00000000000E+00 0.  1.
         23    2    1    2    0    0  0.18917255361E+03 -0.30794095271E+02 -0.28727045842E+03  0.35708226876E+03  0.90823449841E+02 0.  0.
          5    1    1    2  502    0 -0.85136710063E+02 -0.40343608473E+02 -0.19327990051E+03  0.21506993301E+03  0.47000000000E+01 0. -1.
         -5    1    1    2    0  502 -0.10403584354E+03  0.71137703744E+02 -0.46725939701E+03  0.48398085058E+03  0.47000000000E+01 0. -1.
        -11    1    3    3    0    0  0.15899956526E+03 -0.29051546961E+02 -0.28388041699E+03  0.32666947406E+03  0.00000000000E+00 0. -1.
         11    1    3    3    0    0  0.30172988351E+02 -0.17425483105E+01 -0.33900414309E+01  0.30412794702E+02  0.00000000000E+00 0.  1.
<mgrwt>
<rscale>  0 0.22452046E+03</rscale>
<asrwt>0</asrwt>
<pdfrwt beam="2">  1        2 0.15414945E+00 0.22882271E+03</pdfrwt>
<pdfrwt beam="1">  1       -2 0.83325611E-02 0.22882271E+03</pdfrwt>
<totfact> 0.23155097E+03</totfact>
</mgrwt>
</event>
<event>
 7    1  0.1020736E-005  0.1646292E+03  0.7546771E-02  0.1191192E+00
          1   -1    0    0  501    0  0.00000000000E+00  0.00000000000E+00  0.65404318364E+02  0.65404318364E+02  0.00000000000E+00 0. -1.
         -1   -1    0    0    0  501 -0.00000000000E+00 -0.00000000000E+00 -0.43275004611E+03  0.43275004611E+03  0.00000000000E+00 0.  1.
         23    2    1    2    0    0 -0.10621036105E+03  0.14010552242E+02 -0.27807075555E+03  0.31087704927E+03  0.88567817520E+02 0.  0.
          5    1    1    2  502    0  0.67001667977E+02  0.30245330953E+02 -0.10277583856E+03  0.12644748533E+03  0.47000000000E+01 0. -1.
         -5    1    1    2    0  502  0.39208693077E+02 -0.44255883195E+02  0.13500866358E+02  0.60829829875E+02  0.47000000000E+01 0. -1.
        -11    1    3    3    0    0 -0.81118290783E+02 -0.31300198208E+02 -0.16496310644E+03  0.18647441109E+03  0.00000000000E+00 0. -1.
         11    1    3    3    0    0 -0.25092070271E+02  0.45310750451E+02 -0.11310764911E+03  0.12440263817E+03  0.00000000000E+00 0.  1.
<mgrwt>
<rscale>  0 0.15780995E+03</rscale>
<asrwt>0</asrwt>
<pdfrwt beam="1">  1        1 0.10062203E-01 0.16462920E+03</pdfrwt>
<pdfrwt beam="2">  1       -1 0.66576931E-01 0.16462920E+03</pdfrwt>
<totfact> 0.14845084E+03</totfact>
</mgrwt>
</event>
<event>
 7    1  0.1020736E-005  0.1404603E+03  0.7546771E-02  0.1224173E+00
         -2   -1    0    0    0  501 -0.00000000000E+00  0.00000000000E+00  0.34649780645E+02  0.34649780645E+02  0.00000000000E+00 0. -1.
          2   -1    0    0  501    0  0.00000000000E+00 -0.00000000000E+00 -0.58376326484E+03  0.58376326484E+03  0.00000000000E+00 0.  1.
         23    2    1    2    0    0  0.55883918401E+02 -0.31318928975E+02 -0.10388206082E+03  0.15155104501E+03  0.89846252204E+02 0.  0.
          5    1    1    2  502    0 -0.94584009969E+02  0.16571230512E+02 -0.26578389208E+03  0.28263741421E+03  0.47000000000E+01 0. -1.
         -5    1    1    2    0  502  0.38700091568E+02  0.14747698463E+02 -0.17944753129E+03  0.18422458626E+03  0.47000000000E+01 0. -1.
        -11    1    3    3    0    0  0.41058342293E+02 -0.62352680954E+02 -0.59890060040E+02  0.95710310759E+02  0.00000000000E+00 0. -1.
         11    1    3    3    0    0  0.14825576108E+02  0.31033751980E+02 -0.43992000783E+02  0.55840734251E+02  0.00000000000E+00 0.  1.
<mgrwt>
<rscale>  0 0.13223744E+03</rscale>
<asrwt>0</asrwt>
<pdfrwt beam="2">  1        2 0.89809729E-01 0.14046034E+03</pdfrwt>
<pdfrwt beam="1">  1       -2 0.53307357E-02 0.14046034E+03</pdfrwt>
<totfact> 0.88675790E+03</totfact>
</mgrwt>
</event>
<event>
 7    1  0.1020736E-005  0.1664824E+03  0.7546771E-02  0.1188356E+00
         -1   -1    0    0    0  501 -0.00000000000E+00  0.00000000000E+00  0.19161838734E+02  0.19161838734E+02  0.00000000000E+00 0.  1.
          1   -1    0    0  501    0  0.00000000000E+00 -0.00000000000E+00 -0.18753396955E+04  0.18753396955E+04  0.00000000000E+00 0. -1.
         23    2    1    2    0    0  0.35876302684E+02  0.10400596914E+03 -0.33559534948E+03  0.36483243580E+03  0.91510201116E+02 0.  0.
          5    1    1    2  502    0 -0.24398642325E+02 -0.13266785280E+03 -0.11987563124E+04  0.12063311483E+04  0.47000000000E+01 0. -1.
         -5    1    1    2    0  502 -0.11477660360E+02  0.28661883663E+02 -0.32182619492E+03  0.32333795013E+03  0.47000000000E+01 0. -1.
        -11    1    3    3    0    0  0.11099225493E+02  0.66167451380E+02 -0.76215677784E+02  0.10153892834E+03  0.00000000000E+00 0.  1.
         11    1    3    3    0    0  0.24777077191E+02  0.37838517756E+02 -0.25937967170E+03  0.26329350746E+03  0.00000000000E+00 0. -1.
<mgrwt>
<rscale>  0 0.16030181E+03</rscale>
<asrwt>0</asrwt>
<pdfrwt beam="2">  1        1 0.28851389E+00 0.16648240E+03</pdfrwt>
<pdfrwt beam="1">  1       -1 0.29479742E-02 0.16648240E+03</pdfrwt>
<totfact> 0.15811208E+03</totfact>
</mgrwt>
</event>
<event>
 7    1  0.1020736E-005  0.3678379E+03  0.7546771E-02  0.1056451E+00
          2   -1    0    0  501    0  0.00000000000E+00  0.00000000000E+00  0.56632883258E+03  0.56632883258E+03  0.00000000000E+00 0. -1.
         -2   -1    0    0    0  501 -0.00000000000E+00 -0.00000000000E+00 -0.33828582860E+03  0.33828582860E+03  0.00000000000E+00 0.  1.
         23    2    1    2    0    0 -0.80150424181E+02  0.33653235620E+03 -0.13958255203E+03  0.38456341863E+03  0.93421715134E+02 0.  0.
          5    1    1    2  502    0  0.77048978684E+02 -0.20781644508E+03  0.30430169920E+03  0.37649147945E+03  0.47000000000E+01 0.  1.
         -5    1    1    2    0  502  0.31014454966E+01 -0.12871591112E+03  0.63323856812E+02  0.14355976310E+03  0.47000000000E+01 0.  1.
        -11    1    3    3    0    0 -0.63163467233E+02  0.19559602784E+03 -0.35610492232E+02  0.20860377958E+03  0.00000000000E+00 0. -1.
         11    1    3    3    0    0 -0.16986956948E+02  0.14093632836E+03 -0.10397205980E+03  0.17595963905E+03  0.00000000000E+00 0.  1.
<mgrwt>
<rscale>  0 0.36543946E+03</rscale>
<asrwt>0</asrwt>
<pdfrwt beam="1">  1        2 0.87127512E-01 0.36783793E+03</pdfrwt>
<pdfrwt beam="2">  1       -2 0.52043974E-01 0.36783793E+03</pdfrwt>
<totfact> 0.19136683E+02</totfact>
</mgrwt>
</event>
<event>
 7    1  0.1020736E-005  0.1487276E+03  0.7546771E-02  0.1211442E+00
         -1   -1    0    0    0  501 -0.00000000000E+00  0.00000000000E+00  0.10287666036E+02  0.10287666036E+02  0.00000000000E+00 0.  1.
          1   -1    0    0  501    0  0.00000000000E+00 -0.00000000000E+00 -0.19466494429E+04  0.19466494429E+04  0.00000000000E+00 0. -1.
         23    2    1    2    0    0 -0.39559386132E+02  0.70191768663E+02 -0.59040486040E+03  0.60278796393E+03  0.91014289280E+02 0.  0.
          5    1    1    2  502    0  0.21424395319E+02  0.97084244783E+01 -0.48578133344E+02  0.54177331605E+02  0.47000000000E+01 0. -1.
         -5    1    1    2    0  502  0.18134990814E+02 -0.79900193141E+02 -0.12973787832E+04  0.12999718134E+04  0.47000000000E+01 0. -1.
        -11    1    3    3    0    0 -0.63779963114E+02  0.26663346329E+02 -0.40245905061E+03  0.40835291740E+03  0.00000000000E+00 0. -1.
         11    1    3    3    0    0  0.24220576981E+02  0.43528422334E+02 -0.18794580979E+03  0.19443504653E+03  0.00000000000E+00 0.  1.
<mgrwt>
<rscale>  0 0.14141195E+03</rscale>
<asrwt>0</asrwt>
<pdfrwt beam="2">  1        1 0.29948457E+00 0.14872756E+03</pdfrwt>
<pdfrwt beam="1">  1       -1 0.15827176E-02 0.14872756E+03</pdfrwt>
<totfact> 0.35087894E+03</totfact>
</mgrwt>
</event>
<event>
 7    1  0.1020736E-005  0.1523778E+03  0.7546771E-02  0.1206619E+00
          2   -1    0    0  501    0  0.00000000000E+00  0.00000000000E+00  0.23794203844E+03  0.23794203844E+03  0.00000000000E+00 0.  1.
         -2   -1    0    0    0  501 -0.00000000000E+00 -0.00000000000E+00 -0.13332918476E+03  0.13332918476E+03  0.00000000000E+00 0. -1.
         23    2    1    2    0    0 -0.54289392823E+02  0.68163134176E+02 -0.66733943019E+02  0.14197075554E+03  0.90048460532E+02 0.  0.
          5    1    1    2  502    0  0.85235128255E+02 -0.59603347749E+02  0.16666883123E+03  0.19651507691E+03  0.47000000000E+01 0.  1.
         -5    1    1    2    0  502 -0.30945735432E+02 -0.85597864267E+01  0.46779654739E+01  0.32785390741E+02  0.47000000000E+01 0.  1.
        -11    1    3    3    0    0 -0.61772906363E+02  0.35987603089E+02 -0.46464790594E+01  0.71642091708E+02  0.00000000000E+00 0.  1.
         11    1    3    3    0    0  0.74835135396E+01  0.32175531088E+02 -0.62087463960E+02  0.70328663834E+02  0.00000000000E+00 0. -1.
<mgrwt>
<rscale>  0 0.14510638E+03</rscale>
<asrwt>0</asrwt>
<pdfrwt beam="1">  1        2 0.36606467E-01 0.15237775E+03</pdfrwt>
<pdfrwt beam="2">  1       -2 0.20512182E-01 0.15237775E+03</pdfrwt>
<totfact> 0.27587814E+03</totfact>
</mgrwt>
</event>
<event>
 7    1  0.1020736E-005  0.1901174E+03  0.7546771E-02  0.1182647E+00
         -1   -1    0    0    0  501 -0.00000000000E+00  0.00000000000E+00  0.10671987853E+03  0.10671987853E+03  0.00000000000E+00 0.  1.
          1   -1    0    0  501    0  0.00000000000E+00 -0.00000000000E+00 -0.21102484370E+03  0.21102484370E+03  0.00000000000E+00 0. -1.
         23    2    1    2    0    0 -0.55779579477E+02 -0.11368784438E+02 -0.26281566048E+02  0.11223982314E+03  0.93093750806E+02 0.  0.
          5    1    1    2  502    0  0.71744357929E+02  0.80218233519E+02 -0.80736725319E+02  0.13462067708E+03  0.47000000000E+01 0. -1.
         -5    1    1    2    0  502 -0.15964778452E+02 -0.68849449080E+02  0.27133261918E+01  0.70884222001E+02  0.47000000000E+01 0.  1.
        -11    1    3    3    0    0 -0.39515902910E+02 -0.44337431100E+01 -0.61267446154E+02  0.73040157578E+02  0.00000000000E+00 0. -1.
         11    1    3    3    0    0 -0.16263676567E+02 -0.69350413284E+01  0.34985880106E+02  0.39199665566E+02  0.00000000000E+00 0.  1.
<mgrwt>
<rscale>  0 0.16547862E+03</rscale>
<asrwt>0</asrwt>
<pdfrwt beam="2">  1        1 0.32465360E-01 0.19011737E+03</pdfrwt>
<pdfrwt beam="1">  1       -1 0.16418443E-01 0.19011737E+03</pdfrwt>
<totfact> 0.37279694E+03</totfact>
</mgrwt>
</event>
<event>
 7    1  0.1020736E-005  0.1494561E+03  0.7546771E-02  0.1209845E+00
          1   -1    0    0  501    0  0.00000000000E+00  0.00000000000E+00  0.16128721910E+03  0.16128721910E+03  0.00000000000E+00 0. -1.
         -1   -1    0    0    0  501 -0.00000000000E+00 -0.00000000000E+00 -0.11951347996E+03  0.11951347996E+03  0.00000000000E+00 0.  1.
         23    2    1    2    0    0 -0.81237019044E+02  0.11050811899E+02 -0.54677601229E+01  0.12405603863E+03  0.92943157974E+02 0.  0.
          5    1    1    2  502    0  0.47294826331E+02 -0.59798258776E+02 -0.62902943429E+01  0.76643917914E+02  0.47000000000E+01 0. -1.
         -5    1    1    2    0  502  0.33942192713E+02  0.48747446878E+02  0.53531793612E+02  0.80100742510E+02  0.47000000000E+01 0. -1.
        -11    1    3    3    0    0 -0.13398930997E+02  0.33594096915E+02  0.27401695605E+02  0.45375628055E+02  0.00000000000E+00 0. -1.
         11    1    3    3    0    0 -0.67838088047E+02 -0.22543285016E+02 -0.32869455727E+02  0.78680410580E+02  0.00000000000E+00 0.  1.
<mgrwt>
<rscale>  0 0.14262123E+03</rscale>
<asrwt>0</asrwt>
<pdfrwt beam="1">  1        1 0.24813418E-01 0.14945611E+03</pdfrwt>
<pdfrwt beam="2">  1       -1 0.18386689E-01 0.14945611E+03</pdfrwt>
<totfact> 0.43085853E+03</totfact>
</mgrwt>
</event>
<event>
 7    1  0.1020736E-005  0.1443930E+03  0.7546771E-02  0.1217880E+00
          1   -1    0    0  501    0  0.00000000000E+00  0.00000000000E+00  0.40382107220E+02  0.40382107220E+02  0.00000000000E+00 0. -1.
         -1   -1    0    0    0  501 -0.00000000000E+00 -0.00000000000E+00 -0.43735419164E+03  0.43735419164E+03  0.00000000000E+00 0.  1.
         23    2    1    2    0    0 -0.41565194302E+02  0.59125753597E+02 -0.22572115281E+03  0.25373582409E+03  0.90599721229E+02 0.  0.
          5    1    1    2  502    0 -0.61692209015E+01 -0.73932676081E+02 -0.15385517245E+03  0.17087306391E+03  0.47000000000E+01 0.  1.
         -5    1    1    2    0  502  0.47734415203E+02  0.14806922483E+02 -0.17395759164E+02  0.53127410864E+02  0.47000000000E+01 0.  1.
        -11    1    3    3    0    0 -0.57590967315E+02  0.38983858339E+02 -0.81068044641E+02  0.10681052658E+03  0.00000000000E+00 0. -1.
         11    1    3    3    0    0  0.16025773013E+02  0.20141895258E+02 -0.14465310817E+03  0.14692529751E+03  0.00000000000E+00 0.  1.
<mgrwt>
<rscale>  0 0.13667102E+03</rscale>
<asrwt>0</asrwt>
<pdfrwt beam="1">  1        1 0.62126321E-02 0.14439297E+03</pdfrwt>
<pdfrwt beam="2">  1       -1 0.67285258E-01 0.14439297E+03</pdfrwt>
<totfact> 0.27677795E+03</totfact>
</mgrwt>
</event>
<event>
 7    1  0.1020736E-005  0.1809807E+03  0.7546771E-02  0.1172206E+00
         -2   -1    0    0    0  501 -0.00000000000E+00  0.00000000000E+00  0.80901146568E+02  0.80901146568E+02  0.00000000000E+00 0.  1.
          2   -1    0    0  501    0  0.00000000000E+00 -0.00000000000E+00 -0.38748340828E+03  0.38748340828E+03  0.00000000000E+00 0. -1.
         23    2    1    2    0    0  0.11986544848E+02 -0.13032498009E+03 -0.81827441412E+02  0.17982134557E+03  0.92258920783E+02 0.  0.
          5    1    1    2  502    0  0.28027069935E+02  0.12492023339E+03 -0.20864546375E+03  0.24483790741E+03  0.47000000000E+01 0.  1.
         -5    1    1    2    0  502 -0.40013614784E+02  0.54047466974E+01 -0.16109356550E+02  0.43725301867E+02  0.47000000000E+01 0.  1.
        -11    1    3    3    0    0 -0.70210825125E+01 -0.13787665391E+03 -0.62009727752E+02  0.15134224007E+03  0.00000000000E+00 0.  1.
         11    1    3    3    0    0  0.19007627361E+02  0.75516738271E+01 -0.19817713660E+02  0.28479105502E+02  0.00000000000E+00 0. -1.
<mgrwt>
<rscale>  0 0.17552494E+03</rscale>
<asrwt>0</asrwt>
<pdfrwt beam="2">  1        2 0.59612831E-01 0.18098065E+03</pdfrwt>
<pdfrwt beam="1">  1       -2 0.12446330E-01 0.18098065E+03</pdfrwt>
<totfact> 0.37714181E+03</totfact>
</mgrwt>
</event>
<event>
 7    1  0.1020736E-005  0.1265770E+03  0.7546771E-02  0.1243647E+00
          1   -1    0    0  501    0  0.00000000000E+00  0.00000000000E+00  0.31071466607E+03  0.31071466607E+03  0.00000000000E+00 0. -1.
         -1   -1    0    0    0  501 -0.00000000000E+00 -0.00000000000E+00 -0.41765459927E+02  0.41765459927E+02  0.00000000000E+00 0.  1.
         23    2    1    2    0    0 -0.52598654282E+00 -0.19843315655E+02  0.11337156520E+03  0.15191557950E+03  0.99152396135E+02 0.  0.
          5    1    1    2  502    0  0.21975848944E+02  0.28493225884E+02  0.16938006317E+03  0.17322383686E+03  0.47000000000E+01 0.  1.
         -5    1    1    2    0  502 -0.21449862401E+02 -0.86499102285E+01 -0.13802422230E+02  0.27340709636E+02  0.47000000000E+01 0.  1.
        -11    1    3    3    0    0  0.24527599433E+02  0.33855541500E+02  0.49429907565E+02  0.64738833678E+02  0.00000000000E+00 0.  1.
         11    1    3    3    0    0 -0.25053585975E+02 -0.53698857155E+02  0.63941657638E+02  0.87176745819E+02  0.00000000000E+00 0. -1.
<mgrwt>
<rscale>  0 0.11966723E+03</rscale>
<asrwt>0</asrwt>
<pdfrwt beam="1">  1        1 0.47802255E-01 0.12657699E+03</pdfrwt>
<pdfrwt beam="2">  1       -1 0.64254556E-02 0.12657699E+03</pdfrwt>
<totfact> 0.95044417E+03</totfact>
</mgrwt>
</event>
<event>
 7    1  0.1020736E-005  0.1467703E+03  0.7546771E-02  0.1218136E+00
          2   -1    0    0  501    0  0.00000000000E+00  0.00000000000E+00  0.80702567696E+03  0.80702567696E+03  0.00000000000E+00 0. -1.
         -2   -1    0    0    0  501 -0.00000000000E+00 -0.00000000000E+00 -0.26651831832E+02  0.26651831832E+02  0.00000000000E+00 0.  1.
         23    2    1    2    0    0 -0.59968049240E+02 -0.15748522601E+02  0.14663022991E+03  0.18316041988E+03  0.90571144371E+02 0.  0.
          5    1    1    2  502    0  0.80843485066E+02  0.47905902895E+02  0.55374423643E+03  0.56168088270E+03  0.47000000000E+01 0. -1.
         -5    1    1    2    0  502 -0.20875435826E+02 -0.32157380294E+02  0.79999378778E+02  0.88836206206E+02  0.47000000000E+01 0.  1.
        -11    1    3    3    0    0 -0.43370219224E+02  0.35395011494E+02  0.73515855126E+02  0.92403266766E+02  0.00000000000E+00 0.  1.
         11    1    3    3    0    0 -0.16597830016E+02 -0.51143534095E+02  0.73114374789E+02  0.90757153116E+02  0.00000000000E+00 0. -1.
<mgrwt>
<rscale>  0 0.13648655E+03</rscale>
<asrwt>0</asrwt>
<pdfrwt beam="1">  1        2 0.12415778E+00 0.14677027E+03</pdfrwt>
<pdfrwt beam="2">  1       -2 0.41002824E-02 0.14677027E+03</pdfrwt>
<totfact> 0.89737105E+03</totfact>
</mgrwt>
</event>
<event>
 7    1  0.1020736E-005  0.1299804E+03  0.7546771E-02  0.1240236E+00
         -1   -1    0    0    0  501 -0.00000000000E+00  0.00000000000E+00  0.61770241251E+02  0.61770241251E+02  0.00000000000E+00 0. -1.
          1   -1    0    0  501    0  0.00000000000E+00 -0.00000000000E+00 -0.23691455438E+03  0.23691455438E+03  0.00000000000E+00 0.  1.
         23    2    1    2    0    0 -0.43700389280E+01 -0.35394343201E+02 -0.31361671761E+02  0.10485923790E+03  0.93488226781E+02 0.  0.
          5    1    1    2  502    0 -0.41215432868E+02 -0.41419326144E+01 -0.44631714228E+01  0.41927048685E+02  0.47000000000E+01 0.  1.
         -5    1    1    2    0  502  0.45585471796E+02  0.39536275816E+02 -0.13931946994E+03  0.15189850904E+03  0.47000000000E+01 0.  1.
        -11    1    3    3    0    0  0.10610377583E+02 -0.40713593006E+02 -0.59303233116E+02  0.72712105085E+02  0.00000000000E+00 0.  1.
         11    1    3    3    0    0 -0.14980416511E+02  0.53192498050E+01  0.27941561355E+02  0.32147132816E+02  0.00000000000E+00 0. -1.
<mgrwt>
<rscale>  0 0.12175111E+03</rscale>
<asrwt>0</asrwt>
<pdfrwt beam="2">  1        1 0.36448393E-01 0.12998038E+03</pdfrwt>
<pdfrwt beam="1">  1       -1 0.95031139E-02 0.12998038E+03</pdfrwt>
<totfact> 0.73852502E+03</totfact>
</mgrwt>
</event>
<event>
 7    1  0.1020736E-005  0.1263734E+03  0.7546771E-02  0.1247995E+00
          2   -1    0    0  501    0  0.00000000000E+00  0.00000000000E+00  0.78898130955E+03  0.78898130955E+03  0.00000000000E+00 0. -1.
         -2   -1    0    0    0  501 -0.00000000000E+00 -0.00000000000E+00 -0.17594059738E+02  0.17594059738E+02  0.00000000000E+00 0.  1.
         23    2    1    2    0    0 -0.17101067411E+02  0.73633395811E+01  0.18963763153E+03  0.21125793135E+03  0.91218512312E+02 0.  0.
          5    1    1    2  502    0  0.19329819065E+01  0.45532510159E+02  0.45182471369E+03  0.45414161646E+03  0.47000000000E+01 0. -1.
         -5    1    1    2    0  502  0.15168085504E+02 -0.52895849740E+02  0.12992490459E+03  0.14117582148E+03  0.47000000000E+01 0. -1.
        -11    1    3    3    0    0  0.25851739849E+01  0.42532080199E+02  0.48887340817E+02  0.64850852444E+02  0.00000000000E+00 0.  1.
         11    1    3    3    0    0 -0.19686241396E+02 -0.35168740618E+02  0.14075029072E+03  0.14640707891E+03  0.00000000000E+00 0. -1.
<mgrwt>
<rscale>  0 0.11707882E+03</rscale>
<asrwt>0</asrwt>
<pdfrwt beam="1">  1        2 0.12138171E+00 0.12637339E+03</pdfrwt>
<pdfrwt beam="2">  1       -2 0.27067790E-02 0.12637339E+03</pdfrwt>
<totfact> 0.16867644E+04</totfact>
</mgrwt>
</event>
<event>
 7    1  0.1020736E-005  0.1711415E+03  0.7546771E-02  0.1183740E+00
         -1   -1    0    0    0  501 -0.00000000000E+00  0.00000000000E+00  0.36512294769E+02  0.36512294769E+02  0.00000000000E+00 0.  1.
          1   -1    0    0  501    0  0.00000000000E+00 -0.00000000000E+00 -0.72667051828E+03  0.72667051828E+03  0.00000000000E+00 0. -1.
         23    2    1    2    0    0 -0.11649492477E+03 -0.94694365741E+01 -0.23201862735E+03  0.27412114988E+03  0.87458696792E+02 0.  0.
          5    1    1    2  502    0  0.38232823981E+02  0.93749514381E+01 -0.36573408460E+03  0.36787654068E+03  0.47000000000E+01 0.  1.
         -5    1    1    2    0  502  0.78262100789E+02  0.94485135925E-01 -0.92405511556E+02  0.12118512249E+03  0.47000000000E+01 0.  1.
        -11    1    3    3    0    0 -0.10128685599E+03 -0.40959644558E+02 -0.15610421782E+03  0.19053935682E+03  0.00000000000E+00 0.  1.
         11    1    3    3    0    0 -0.15208068784E+02  0.31490207984E+02 -0.75914409534E+02  0.83581793053E+02  0.00000000000E+00 0. -1.
<mgrwt>
<rscale>  0 0.16447082E+03</rscale>
<asrwt>0</asrwt>
<pdfrwt beam="2">  1        1 0.11179546E+00 0.17114152E+03</pdfrwt>
<pdfrwt beam="1">  1       -1 0.56172763E-02 0.17114152E+03</pdfrwt>
<totfact> 0.38710391E+03</totfact>
</mgrwt>
</event>
<event>
 7    1  0.1020736E-005  0.1594679E+03  0.7546771E-02  0.1197243E+00
         -1   -1    0    0    0  501 -0.00000000000E+00  0.00000000000E+00  0.53600548157E+02  0.53600548157E+02  0.00000000000E+00 0.  1.
          1   -1    0    0  501    0  0.00000000000E+00 -0.00000000000E+00 -0.41469514328E+03  0.41469514328E+03  0.00000000000E+00 0. -1.
         23    2    1    2    0    0 -0.65154701883E+02  0.74578026761E+02 -0.12371462667E+03  0.18232497551E+03  0.90166904065E+02 0.  0.
          5    1    1    2  502    0  0.68695927171E+02 -0.10655569677E+03 -0.19265931004E+03  0.23067931565E+03  0.47000000000E+01 0. -1.
         -5    1    1    2    0  502 -0.35412252886E+01  0.31977670011E+02 -0.44720658416E+02  0.55291400281E+02  0.47000000000E+01 0. -1.
        -11    1    3    3    0    0 -0.40336777311E+02  0.21644341592E+02 -0.31629363041E+00  0.45778086116E+02  0.00000000000E+00 0.  1.
         11    1    3    3    0    0 -0.24817924571E+02  0.52933685170E+02 -0.12339833304E+03  0.13654688939E+03  0.00000000000E+00 0. -1.
<mgrwt>
<rscale>  0 0.15265952E+03</rscale>
<asrwt>0</asrwt>
<pdfrwt beam="2">  1        1 0.63799252E-01 0.15946787E+03</pdfrwt>
<pdfrwt beam="1">  1       -1 0.82462383E-02 0.15946787E+03</pdfrwt>
<totfact> 0.46157017E+03</totfact>
</mgrwt>
</event>
<event>
 7    1  0.1020736E-005  0.1348775E+03  0.7546771E-02  0.1233598E+00
          1   -1    0    0  501    0  0.00000000000E+00  0.00000000000E+00  0.21300460510E+03  0.21300460510E+03  0.00000000000E+00 0. -1.
         -1   -1    0    0    0  501 -0.00000000000E+00 -0.00000000000E+00 -0.66428174542E+02  0.66428174542E+02  0.00000000000E+00 0.  1.
         23    2    1    2    0    0 -0.50221221703E+02 -0.66782899357E+01  0.54562184992E+02  0.11615829318E+03  0.89156863883E+02 0.  0.
          5    1    1    2  502    0  0.88479810992E+02  0.25010927632E+02  0.66131010592E+02  0.11335618208E+03  0.47000000000E+01 0. -1.
         -5    1    1    2    0  502 -0.38258589289E+02 -0.18332637696E+02  0.25883234970E+02  0.49918304377E+02  0.47000000000E+01 0. -1.
        -11    1    3    3    0    0 -0.63280535383E+02 -0.75108395037E+01  0.70832251783E+02  0.95278784422E+02  0.00000000000E+00 0. -1.
         11    1    3    3    0    0  0.13059313680E+02  0.83254956808E+00 -0.16270066791E+02  0.20879508757E+02  0.00000000000E+00 0.  1.
<mgrwt>
<rscale>  0 0.12594602E+03</rscale>
<asrwt>0</asrwt>
<pdfrwt beam="1">  1        1 0.32769939E-01 0.13487749E+03</pdfrwt>
<pdfrwt beam="2">  1       -1 0.10219719E-01 0.13487749E+03</pdfrwt>
<totfact> 0.75608467E+03</totfact>
</mgrwt>
</event>
<event>
 7    1  0.1020736E-005  0.1320145E+03  0.7546771E-02  0.1237150E+00
          1   -1    0    0  501    0  0.00000000000E+00  0.00000000000E+00  0.15033932514E+04  0.15033932514E+04  0.00000000000E+00 0. -1.
         -1   -1    0    0    0  501 -0.00000000000E+00 -0.00000000000E+00 -0.15468922483E+02  0.15468922483E+02  0.00000000000E+00 0.  1.
         23    2    1    2    0    0 -0.39407540554E+02  0.15822580590E+02  0.20176658256E+03  0.22594702869E+03  0.92406696881E+02 0.  0.
          5    1    1    2  502    0  0.74592922975E+02 -0.14542013423E+02  0.48234123748E+03  0.48831417518E+03  0.47000000000E+01 0.  1.
         -5    1    1    2    0  502 -0.35185382420E+02 -0.12805671672E+01  0.80381650889E+03  0.80460097001E+03  0.47000000000E+01 0.  1.
        -11    1    3    3    0    0 -0.50205696119E+02 -0.22457518381E+02  0.74448919526E+02  0.92561296843E+02  0.00000000000E+00 0.  1.
         11    1    3    3    0    0  0.10798155565E+02  0.38280098972E+02  0.12731766303E+03  0.13338573185E+03  0.00000000000E+00 0. -1.
<mgrwt>
<rscale>  0 0.12367826E+03</rscale>
<asrwt>0</asrwt>
<pdfrwt beam="1">  1        1 0.23129115E+00 0.13201448E+03</pdfrwt>
<pdfrwt beam="2">  1       -1 0.23798354E-02 0.13201448E+03</pdfrwt>
<totfact> 0.37337057E+03</totfact>
</mgrwt>
</event>
<event>
 7    1  0.1020736E-005  0.1330488E+03  0.7546771E-02  0.1235908E+00
         -2   -1    0    0    0  501 -0.00000000000E+00  0.00000000000E+00  0.12148071058E+03  0.12148071058E+03  0.00000000000E+00 0.  1.
          2   -1    0    0  501    0  0.00000000000E+00 -0.00000000000E+00 -0.13234565122E+03  0.13234565122E+03  0.00000000000E+00 0. -1.
         23    2    1    2    0    0 -0.43550896187E+02 -0.13441309126E+02  0.42593731990E+02  0.11043944354E+03  0.91133393082E+02 0.  0.
          5    1    1    2  502    0  0.18776348524E+02  0.48511569366E+02 -0.77875306762E+02  0.93768742284E+02  0.47000000000E+01 0.  1.
         -5    1    1    2    0  502  0.24774547663E+02 -0.35070260240E+02  0.24416634133E+02  0.49618175981E+02  0.47000000000E+01 0.  1.
        -11    1    3    3    0    0 -0.34522949838E+02  0.26100426121E+02  0.53137438820E+02  0.68532136356E+02  0.00000000000E+00 0.  1.
         11    1    3    3    0    0 -0.90279463488E+01 -0.39541735247E+02 -0.10543706830E+02  0.41907307183E+02  0.00000000000E+00 0. -1.
<mgrwt>
<rscale>  0 0.12446484E+03</rscale>
<asrwt>0</asrwt>
<pdfrwt beam="2">  1        2 0.20360869E-01 0.13304878E+03</pdfrwt>
<pdfrwt beam="1">  1       -2 0.18689340E-01 0.13304878E+03</pdfrwt>
<totfact> 0.60953844E+03</totfact>
</mgrwt>
</event>
<event>
 7    1  0.1020736E-005  0.1252952E+03  0.7546771E-02  0.1249949E+00
         -2   -1    0    0    0  501 -0.00000000000E+00  0.00000000000E+00  0.25692826049E+02  0.25692826049E+02  0.00000000000E+00 0.  1.
          2   -1    0    0  501    0  0.00000000000E+00 -0.00000000000E+00 -0.62525654981E+03  0.62525654981E+03  0.00000000000E+00 0. -1.
         23    2    1    2    0    0 -0.17483515102E+00  0.85866123845E+01 -0.99469937389E+02  0.13539851861E+03  0.91458897423E+02 0.  0.
          5    1    1    2  502    0 -0.70067304896E+01  0.46204831309E+02 -0.88074478794E+02  0.99815752882E+02  0.47000000000E+01 0. -1.
         -5    1    1    2    0  502  0.71815656406E+01 -0.54791443694E+02 -0.41201930757E+03  0.41573510436E+03  0.47000000000E+01 0. -1.
        -11    1    3    3    0    0  0.30530676861E+02  0.60316243704E+01  0.15141710643E+00  0.31121144730E+02  0.00000000000E+00 0.  1.
         11    1    3    3    0    0 -0.30705512012E+02  0.25549880141E+01 -0.99621354495E+02  0.10427737388E+03  0.00000000000E+00 0. -1.
<mgrwt>
<rscale>  0 0.11594018E+03</rscale>
<asrwt>0</asrwt>
<pdfrwt beam="2">  1        2 0.96193312E-01 0.12529522E+03</pdfrwt>
<pdfrwt beam="1">  1       -2 0.39527426E-02 0.12529522E+03</pdfrwt>
<totfact> 0.12723210E+04</totfact>
</mgrwt>
</event>
<event>
 7    1  0.1020736E-005  0.2357633E+03  0.7546771E-02  0.1125558E+00
          1   -1    0    0  501    0  0.00000000000E+00  0.00000000000E+00  0.48987852059E+03  0.48987852059E+03  0.00000000000E+00 0. -1.
         -1   -1    0    0    0  501 -0.00000000000E+00 -0.00000000000E+00 -0.10978852786E+03  0.10978852786E+03  0.00000000000E+00 0.  1.
         23    2    1    2    0    0 -0.19975907150E+03 -0.74588065113E+01  0.12559135867E+03  0.25274644748E+03  0.90267695776E+02 0.  0.
          5    1    1    2  502    0  0.14497706630E+03 -0.48955977065E+02  0.19649491581E+03  0.24909311388E+03  0.47000000000E+01 0. -1.
         -5    1    1    2    0  502  0.54782005201E+02  0.56414783576E+02  0.58003718254E+02  0.97827487093E+02  0.47000000000E+01 0. -1.
        -11    1    3    3    0    0 -0.78639420845E+02  0.21328383692E+02  0.86425282970E+01  0.81937486885E+02  0.00000000000E+00 0.  1.
         11    1    3    3    0    0 -0.12111965066E+03 -0.28787190203E+02  0.11694883037E+03  0.17080896060E+03  0.00000000000E+00 0. -1.
<mgrwt>
<rscale>  0 0.23154419E+03</rscale>
<asrwt>0</asrwt>
<pdfrwt beam="1">  1        1 0.75365925E-01 0.23576333E+03</pdfrwt>
<pdfrwt beam="2">  1       -1 0.16890543E-01 0.23576333E+03</pdfrwt>
<totfact> 0.12316874E+03</totfact>
</mgrwt>
</event>
<event>
 7    1  0.1020736E-005  0.2301890E+03  0.7546771E-02  0.1129520E+00
          1   -1    0    0  501    0  0.00000000000E+00  0.00000000000E+00  0.47507134171E+03  0.47507134171E+03  0.00000000000E+00 0. -1.
         -1   -1    0    0    0  501 -0.00000000000E+00 -0.00000000000E+00 -0.10370030041E+03  0.10370030041E+03  0.00000000000E+00 0.  1.
         23    2    1    2    0    0 -0.16871498293E+03 -0.94322383271E+02  0.18079095144E+03  0.27992762999E+03  0.91173748734E+02 0.  0.
          5    1    1    2  502    0  0.17629292235E+03  0.85880061933E+02  0.20236078495E+03  0.28182717540E+03  0.47000000000E+01 0. -1.
         -5    1    1    2    0  502 -0.75779394192E+01  0.84423213383E+01 -0.11780695090E+02  0.17016836728E+02  0.47000000000E+01 0. -1.
        -11    1    3    3    0    0 -0.78603576618E+02 -0.18008856887E+01  0.10145403403E+03  0.12835375517E+03  0.00000000000E+00 0. -1.
         11    1    3    3    0    0 -0.90111406313E+02 -0.92521497583E+02  0.79336917409E+02  0.15157387482E+03  0.00000000000E+00 0.  1.
<mgrwt>
<rscale>  0 0.22595512E+03</rscale>
<asrwt>0</asrwt>
<pdfrwt beam="1">  1        1 0.73087897E-01 0.23018899E+03</pdfrwt>
<pdfrwt beam="2">  1       -1 0.15953893E-01 0.23018899E+03</pdfrwt>
<totfact> 0.14047197E+03</totfact>
</mgrwt>
</event>
<event>
 6    1  0.1020736E-005  0.1209362E+03  0.7546771E-02  0.1299536E+00
          1   -1    0    0  501    0  0.00000000000E+00  0.00000000000E+00  0.63552394639E+03  0.63552394639E+03  0.00000000000E+00 0. -1.
         -1   -1    0    0    0  501 -0.00000000000E+00 -0.00000000000E+00 -0.37412022212E+02  0.37412022212E+02  0.00000000000E+00 0.  1.
          5    1    1    2  502    0 -0.29898473983E+02  0.61391635755E+01  0.55028009801E+03  0.55114597372E+03  0.47000000000E+01 0. -1.
         -5    1    1    2    0  502  0.38219383388E+02 -0.96379604272E+01  0.67056630267E+02  0.77924920343E+02  0.47000000000E+01 0.  1.
        -11    1    1    2    0    0  0.12619400452E+02 -0.38055097969E+01  0.18028891036E+01  0.13303442476E+02  0.00000000000E+00 0. -1.
         11    1    1    2    0    0 -0.20940309856E+02  0.73043066486E+01 -0.21027693211E+02  0.30561632061E+02  0.00000000000E+00 0.  1.
<mgrwt>
<rscale>  0 0.91383495E+02</rscale>
<asrwt>0</asrwt>
<pdfrwt beam="1">  1        1 0.97772907E-01 0.12093616E+03</pdfrwt>
<pdfrwt beam="2">  1       -1 0.57556962E-02 0.12093616E+03</pdfrwt>
<totfact> 0.44505186E+03</totfact>
</mgrwt>
</event>
<event>
 7    1  0.1020736E-005  0.1881356E+03  0.7546771E-02  0.1164917E+00
          2   -1    0    0  501    0  0.00000000000E+00  0.00000000000E+00  0.96097392780E+03  0.96097392780E+03  0.00000000000E+00 0. -1.
         -2   -1    0    0    0  501 -0.00000000000E+00 -0.00000000000E+00 -0.38245851408E+02  0.38245851408E+02  0.00000000000E+00 0.  1.
         23    2    1    2    0    0  0.36736851116E+01 -0.14055966750E+03  0.25604339709E+03  0.30649800320E+03  0.92802417441E+02 0.  0.
          5    1    1    2  502    0  0.16322150442E+02  0.14420264424E+03  0.40562786899E+03  0.43083276721E+03  0.47000000000E+01 0. -1.
         -5    1    1    2    0  502 -0.19995835553E+02 -0.36429767366E+01  0.26105681031E+03  0.26188900879E+03  0.47000000000E+01 0. -1.
        -11    1    3    3    0    0  0.47609630202E+02 -0.60872061514E+02  0.11025242758E+03  0.13463908254E+03  0.00000000000E+00 0. -1.
         11    1    3    3    0    0 -0.43935945091E+02 -0.79687605986E+02  0.14579096951E+03  0.17185892065E+03  0.00000000000E+00 0.  1.
<mgrwt>
<rscale>  0 0.18301434E+03</rscale>
<asrwt>0</asrwt>
<pdfrwt beam="1">  1        2 0.14784212E+00 0.18813558E+03</pdfrwt>
<pdfrwt beam="2">  1       -2 0.58839779E-02 0.18813558E+03</pdfrwt>
<totfact> 0.41867628E+03</totfact>
</mgrwt>
</event>
<event>
 7    1  0.1020736E-005  0.1364119E+03  0.7546771E-02  0.1224839E+00
          1   -1    0    0  501    0  0.00000000000E+00  0.00000000000E+00  0.84985710399E+03  0.84985710399E+03  0.00000000000E+00 0. -1.
         -1   -1    0    0    0  501 -0.00000000000E+00 -0.00000000000E+00 -0.26145203998E+02  0.26145203998E+02  0.00000000000E+00 0.  1.
         23    2    1    2    0    0  0.70939060042E+02  0.24277588418E+02  0.16504591806E+03  0.20335894380E+03  0.92157221183E+02 0.  0.
          5    1    1    2  502    0 -0.63157904769E+02 -0.67121984385E+02  0.46794743661E+03  0.47696034967E+03  0.47000000000E+01 0. -1.
         -5    1    1    2    0  502 -0.77811552729E+01  0.42844395967E+02  0.19071854532E+03  0.19568301452E+03  0.47000000000E+01 0.  1.
        -11    1    3    3    0    0  0.87746319720E+02 -0.16661004492E+01  0.11777505349E+03  0.14687803014E+03  0.00000000000E+00 0.  1.
         11    1    3    3    0    0 -0.16807259678E+02  0.25943688867E+02  0.47270864573E+02  0.56480913656E+02  0.00000000000E+00 0. -1.
<mgrwt>
<rscale>  0 0.13177963E+03</rscale>
<asrwt>0</asrwt>
<pdfrwt beam="1">  1        1 0.13074723E+00 0.13641195E+03</pdfrwt>
<pdfrwt beam="2">  1       -1 0.40223397E-02 0.13641195E+03</pdfrwt>
<totfact> 0.49732766E+03</totfact>
</mgrwt>
</event>
<event>
 6    1  0.1020736E-005  0.3647734E+03  0.7546771E-02  0.1056710E+00
          2   -1    0    0  501    0  0.00000000000E+00  0.00000000000E+00  0.14056700772E+04  0.14056700772E+04  0.00000000000E+00 0.  1.
         -2   -1    0    0    0  501 -0.00000000000E+00 -0.00000000000E+00 -0.23664799266E+02  0.23664799266E+02  0.00000000000E+00 0. -1.
          5    1    1    2  502    0  0.22233080996E+02  0.55063902071E+02  0.74134491612E+03  0.74373430596E+03  0.47000000000E+01 0. -1.
         -5    1    1    2    0  502 -0.32503220464E+02 -0.43799443346E+02  0.43116905578E+03  0.43463052728E+03  0.47000000000E+01 0.  1.
        -11    1    1    2    0    0  0.43422080702E+02  0.15057073136E+02  0.99959194417E+01  0.47033083563E+02  0.00000000000E+00 0. -1.
         11    1    1    2    0    0 -0.33151941234E+02 -0.26321531861E+02  0.19949538656E+03  0.20393695964E+03  0.00000000000E+00 0.  1.
<mgrwt>
<rscale>  0 0.36477336E+03</rscale>
<asrwt>0</asrwt>
<pdfrwt beam="1">  1        2 0.21625687E+00 0.36477336E+03</pdfrwt>
<pdfrwt beam="2">  1       -2 0.36407395E-02 0.36477336E+03</pdfrwt>
<totfact> 0.48757628E+03</totfact>
</mgrwt>
</event>
<event>
 7    1  0.1020736E-005  0.1282692E+03  0.7546771E-02  0.1246092E+00
          1   -1    0    0  501    0  0.00000000000E+00  0.00000000000E+00  0.24604939968E+03  0.24604939968E+03  0.00000000000E+00 0. -1.
         -1   -1    0    0    0  501 -0.00000000000E+00 -0.00000000000E+00 -0.77788840184E+02  0.77788840184E+02  0.00000000000E+00 0.  1.
         23    2    1    2    0    0 -0.94695342621E+01  0.27144916740E+02 -0.21336394386E+02  0.94927791286E+02  0.87917718630E+02 0.  0.
          5    1    1    2  502    0  0.37631350973E+02 -0.34129249047E+02  0.16923753930E+02  0.53753396764E+02  0.47000000000E+01 0. -1.
         -5    1    1    2    0  502 -0.28161816711E+02  0.69843323073E+01  0.17267319995E+03  0.17515705181E+03  0.47000000000E+01 0. -1.
        -11    1    3    3    0    0  0.25681212300E+02  0.28818660454E+01 -0.40557219575E+02  0.48090725475E+02  0.00000000000E+00 0.  1.
         11    1    3    3    0    0 -0.35150746562E+02  0.24263050694E+02  0.19220825189E+02  0.46837065811E+02  0.00000000000E+00 0. -1.
<mgrwt>
<rscale>  0 0.11820230E+03</rscale>
<asrwt>0</asrwt>
<pdfrwt beam="1">  1        1 0.37853753E-01 0.12826920E+03</pdfrwt>
<pdfrwt beam="2">  1       -1 0.11967514E-01 0.12826920E+03</pdfrwt>
<totfact> 0.49485309E+03</totfact>
</mgrwt>
</event>
<event>
 7    1  0.1020736E-005  0.1320005E+03  0.7546771E-02  0.1232888E+00
         -2   -1    0    0    0  501 -0.00000000000E+00  0.00000000000E+00  0.17778159010E+02  0.17778159010E+02  0.00000000000E+00 0. -1.
          2   -1    0    0  501    0  0.00000000000E+00 -0.00000000000E+00 -0.10369285172E+04  0.10369285172E+04  0.00000000000E+00 0.  1.
         23    2    1    2    0    0 -0.13251707847E+02  0.40260828935E+02 -0.23967215270E+03  0.26413068826E+03  0.10259501740E+03 0.  0.
          5    1    1    2  502    0 -0.27407189806E+02 -0.22792690079E+02 -0.68707536230E+03  0.68801548257E+03  0.47000000000E+01 0.  1.
         -5    1    1    2    0  502  0.40658897654E+02 -0.17468138856E+02 -0.92402843176E+02  0.10256050536E+03  0.47000000000E+01 0.  1.
        -11    1    3    3    0    0 -0.26958146328E+02  0.70848012831E+02 -0.18598408345E+03  0.20083889532E+03  0.00000000000E+00 0. -1.
         11    1    3    3    0    0  0.13706438481E+02 -0.30587183896E+02 -0.53688069242E+02  0.63291792939E+02  0.00000000000E+00 0.  1.
<mgrwt>
<rscale>  0 0.12640608E+03</rscale>
<asrwt>0</asrwt>
<pdfrwt beam="2">  1        2 0.15952746E+00 0.13200045E+03</pdfrwt>
<pdfrwt beam="1">  1       -2 0.27351014E-02 0.13200045E+03</pdfrwt>
<totfact> 0.11647871E+04</totfact>
</mgrwt>
</event>
<event>
 7    1  0.1020736E-005  0.1868411E+03  0.7546771E-02  0.1164736E+00
          2   -1    0    0  501    0  0.00000000000E+00  0.00000000000E+00  0.13582649109E+04  0.13582649109E+04  0.00000000000E+00 0. -1.
         -2   -1    0    0    0  501 -0.00000000000E+00 -0.00000000000E+00 -0.31623238034E+02  0.31623238034E+02  0.00000000000E+00 0.  1.
         23    2    1    2    0    0  0.58113410076E+02  0.12612800790E+03  0.29816777320E+03  0.34458046690E+03  0.10269486056E+03 0.  0.
          5    1    1    2  502    0  0.92747480369E+01 -0.38479001085E+02  0.70696285539E+02  0.81158544003E+02  0.47000000000E+01 0. -1.
         -5    1    1    2    0  502 -0.67388158113E+02 -0.87649006814E+02  0.95777761414E+03  0.96414913805E+03  0.47000000000E+01 0. -1.
        -11    1    3    3    0    0  0.63175965966E+02  0.50480154586E+02  0.22550299622E+03  0.23956429197E+03  0.00000000000E+00 0. -1.
         11    1    3    3    0    0 -0.50625558896E+01  0.75647853312E+02  0.72664776984E+02  0.10501617493E+03  0.00000000000E+00 0.  1.
<mgrwt>
<rscale>  0 0.18320570E+03</rscale>
<asrwt>0</asrwt>
<pdfrwt beam="1">  1        2 0.20896379E+00 0.18684108E+03</pdfrwt>
<pdfrwt beam="2">  1       -2 0.48651146E-02 0.18684108E+03</pdfrwt>
<totfact> 0.33113959E+03</totfact>
</mgrwt>
</event>
<event>
 7    1  0.1020736E-005  0.1338375E+03  0.7546771E-02  0.1233619E+00
          1   -1    0    0  501    0  0.00000000000E+00  0.00000000000E+00  0.24605092741E+03  0.24605092741E+03  0.00000000000E+00 0. -1.
         -1   -1    0    0    0  501 -0.00000000000E+00 -0.00000000000E+00 -0.57980613869E+02  0.57980613869E+02  0.00000000000E+00 0.  1.
         23    2    1    2    0    0  0.45602393098E+02  0.14696394615E+02  0.77579874568E+02  0.13047864982E+03  0.93329946160E+02 0.  0.
          5    1    1    2  502    0 -0.46148211186E+02 -0.43886696126E+02  0.12518530959E+03  0.14053167340E+03  0.47000000000E+01 0.  1.
         -5    1    1    2    0  502  0.54581808869E+00  0.29190301511E+02 -0.14694870614E+02  0.33021218058E+02  0.47000000000E+01 0.  1.
        -11    1    3    3    0    0  0.25865025020E+02  0.38488164797E+02  0.86636706774E+02  0.98266257227E+02  0.00000000000E+00 0. -1.
         11    1    3    3    0    0  0.19737368078E+02 -0.23791770182E+02 -0.90568322063E+01  0.32212392594E+02  0.00000000000E+00 0.  1.
<mgrwt>
<rscale>  0 0.12593231E+03</rscale>
<asrwt>0</asrwt>
<pdfrwt beam="1">  1        1 0.37853988E-01 0.13383747E+03</pdfrwt>
<pdfrwt beam="2">  1       -1 0.89200946E-02 0.13383747E+03</pdfrwt>
<totfact> 0.77750123E+03</totfact>
</mgrwt>
</event>
<event>
 7    1  0.1020736E-005  0.1562282E+03  0.7546771E-02  0.1200006E+00
         -1   -1    0    0    0  501 -0.00000000000E+00  0.00000000000E+00  0.12351708027E+03  0.12351708027E+03  0.00000000000E+00 0.  1.
          1   -1    0    0  501    0  0.00000000000E+00 -0.00000000000E+00 -0.20089207920E+03  0.20089207920E+03  0.00000000000E+00 0. -1.
         23    2    1    2    0    0  0.30138450244E+02 -0.89385192851E+02  0.26617741848E+02  0.13673462893E+03  0.95340524881E+02 0.  0.
          5    1    1    2  502    0  0.31476049661E+02 -0.14136226988E+02 -0.15475947048E+02  0.38107342504E+02  0.47000000000E+01 0. -1.
         -5    1    1    2    0  502 -0.61614499905E+02  0.10352141984E+03 -0.88516793730E+02  0.14956718803E+03  0.47000000000E+01 0. -1.
        -11    1    3    3    0    0  0.36814237248E+02 -0.22377941807E+02  0.49492169742E+02  0.65616577245E+02  0.00000000000E+00 0.  1.
         11    1    3    3    0    0 -0.66757870036E+01 -0.67007251045E+02 -0.22874427893E+02  0.71118051690E+02  0.00000000000E+00 0. -1.
<mgrwt>
<rscale>  0 0.15038064E+03</rscale>
<asrwt>0</asrwt>
<pdfrwt beam="2">  1        1 0.30906473E-01 0.15622816E+03</pdfrwt>
<pdfrwt beam="1">  1       -1 0.19002628E-01 0.15622816E+03</pdfrwt>
<totfact> 0.31112443E+03</totfact>
</mgrwt>
</event>
<event>
 7    1  0.1020736E-005  0.2159813E+03  0.7546771E-02  0.1140333E+00
          2   -1    0    0  501    0  0.00000000000E+00  0.00000000000E+00  0.17711895627E+04  0.17711895627E+04  0.00000000000E+00 0. -1.
         -2   -1    0    0    0  501 -0.00000000000E+00 -0.00000000000E+00 -0.28195708414E+02  0.28195708414E+02  0.00000000000E+00 0.  1.
         23    2    1    2    0    0  0.46224934157E+02 -0.16996449386E+03  0.50584472225E+03  0.54352464433E+03  0.92279370699E+02 0.  0.
          5    1    1    2  502    0 -0.72003320859E+02  0.17497259356E+03  0.10765286220E+04  0.10930397297E+04  0.47000000000E+01 0. -1.
         -5    1    1    2    0  502  0.25778386701E+02 -0.50080996972E+01  0.16062051009E+03  0.16282089714E+03  0.47000000000E+01 0. -1.
        -11    1    3    3    0    0 -0.20101064212E+01 -0.13312979529E+03  0.28629993293E+03  0.31574552177E+03  0.00000000000E+00 0. -1.
         11    1    3    3    0    0  0.48235040579E+02 -0.36834698576E+02  0.21954478931E+03  0.22777912256E+03  0.00000000000E+00 0.  1.
<mgrwt>
<rscale>  0 0.21156410E+03</rscale>
<asrwt>0</asrwt>
<pdfrwt beam="1">  1        2 0.27249061E+00 0.21598134E+03</pdfrwt>
<pdfrwt beam="2">  1       -2 0.43378027E-02 0.21598134E+03</pdfrwt>
<totfact> 0.23854784E+03</totfact>
</mgrwt>
</event>
<event>
 7    1  0.1020736E-005  0.1815567E+03  0.7546771E-02  0.1171078E+00
         -1   -1    0    0    0  501 -0.00000000000E+00  0.00000000000E+00  0.68663490863E+02  0.68663490863E+02  0.00000000000E+00 0.  1.
          1   -1    0    0  501    0  0.00000000000E+00 -0.00000000000E+00 -0.43234238488E+03  0.43234238488E+03  0.00000000000E+00 0. -1.
         23    2    1    2    0    0 -0.11684234298E+03  0.60701007749E+02 -0.16147750502E+03  0.22925556756E+03  0.95636735496E+02 0.  0.
          5    1    1    2  502    0  0.67774572838E+02 -0.14951686347E+02 -0.12757100911E+02  0.70723258350E+02  0.47000000000E+01 0.  1.
         -5    1    1    2    0  502  0.49067770141E+02 -0.45749321402E+02 -0.18944428809E+03  0.20102704984E+03  0.47000000000E+01 0.  1.
        -11    1    3    3    0    0 -0.18415375182E+02 -0.16587007171E+02 -0.69952382209E+02  0.74213143221E+02  0.00000000000E+00 0.  1.
         11    1    3    3    0    0 -0.98426967796E+02  0.77288014920E+02 -0.91525122806E+02  0.15504242434E+03  0.00000000000E+00 0. -1.
<mgrwt>
<rscale>  0 0.17665679E+03</rscale>
<asrwt>0</asrwt>
<pdfrwt beam="2">  1        1 0.66514214E-01 0.18155668E+03</pdfrwt>
<pdfrwt beam="1">  1       -1 0.10563614E-01 0.18155668E+03</pdfrwt>
<totfact> 0.30126564E+03</totfact>
</mgrwt>
</event>
<event>
 7    1  0.1020736E-005  0.1338715E+03  0.7546771E-02  0.1234405E+00
          2   -1    0    0  501    0  0.00000000000E+00  0.00000000000E+00  0.63926088692E+03  0.63926088692E+03  0.00000000000E+00 0.  1.
         -2   -1    0    0    0  501 -0.00000000000E+00 -0.00000000000E+00 -0.24209931416E+02  0.24209931416E+02  0.00000000000E+00 0. -1.
         23    2    1    2    0    0 -0.45383143970E+02 -0.15366454202E+02  0.17124770871E+03  0.19991617081E+03  0.91350642802E+02 0.  0.
          5    1    1    2  502    0  0.61276650538E+02 -0.74652456689E+01  0.42537468010E+03  0.42985609948E+03  0.47000000000E+01 0.  1.
         -5    1    1    2    0  502 -0.15893506568E+02  0.22831699871E+02  0.18428566696E+02  0.33698548047E+02  0.47000000000E+01 0.  1.
        -11    1    3    3    0    0 -0.44433743706E+02  0.25617747408E+02  0.48830161676E+02  0.70816744145E+02  0.00000000000E+00 0. -1.
         11    1    3    3    0    0 -0.94940026424E+00 -0.40984201610E+02  0.12241754704E+03  0.12909942666E+03  0.00000000000E+00 0.  1.
<mgrwt>
<rscale>  0 0.12542597E+03</rscale>
<asrwt>0</asrwt>
<pdfrwt beam="1">  1        2 0.98347816E-01 0.13387154E+03</pdfrwt>
<pdfrwt beam="2">  1       -2 0.37246053E-02 0.13387154E+03</pdfrwt>
<totfact> 0.13611509E+04</totfact>
</mgrwt>
</event>
<event>
 7    1  0.1020736E-005  0.1770342E+03  0.7546771E-02  0.1177193E+00
          1   -1    0    0  501    0  0.00000000000E+00  0.00000000000E+00  0.91547422817E+02  0.91547422817E+02  0.00000000000E+00 0. -1.
         -1   -1    0    0    0  501 -0.00000000000E+00 -0.00000000000E+00 -0.30173459896E+03  0.30173459896E+03  0.00000000000E+00 0.  1.
         23    2    1    2    0    0 -0.66101314166E+01  0.12518202608E+03 -0.12195034600E+03  0.19547693351E+03  0.87321882441E+02 0.  0.
          5    1    1    2  502    0 -0.17919104383E+01 -0.85642269329E+02 -0.11906421923E+03  0.14675212959E+03  0.47000000000E+01 0. -1.
         -5    1    1    2    0  502  0.84020418550E+01 -0.39539756753E+02  0.30827389090E+02  0.51052958675E+02  0.47000000000E+01 0. -1.
        -11    1    3    3    0    0  0.11146251350E+02  0.12608089629E+03 -0.79538083010E+02  0.14948892259E+03  0.00000000000E+00 0. -1.
         11    1    3    3    0    0 -0.17756382767E+02 -0.89887020392E+00 -0.42412262989E+02  0.45988010920E+02  0.00000000000E+00 0.  1.
<mgrwt>
<rscale>  0 0.17062945E+03</rscale>
<asrwt>0</asrwt>
<pdfrwt beam="1">  1        1 0.14084219E-01 0.17703422E+03</pdfrwt>
<pdfrwt beam="2">  1       -1 0.46420707E-01 0.17703422E+03</pdfrwt>
<totfact> 0.18793562E+03</totfact>
</mgrwt>
</event>
<event>
 7    1  0.1020736E-005  0.1255254E+03  0.7546771E-02  0.1251000E+00
         -1   -1    0    0    0  501 -0.00000000000E+00  0.00000000000E+00  0.44952944653E+02  0.44952944653E+02  0.00000000000E+00 0.  1.
          1   -1    0    0  501    0  0.00000000000E+00 -0.00000000000E+00 -0.28525167575E+03  0.28525167575E+03  0.00000000000E+00 0. -1.
         23    2    1    2    0    0  0.67355559234E+01 -0.92548145850E+01 -0.50727267587E+02  0.10284152404E+03  0.88724878603E+02 0.  0.
          5    1    1    2  502    0 -0.53209410561E+02  0.69974662530E+00 -0.30848181954E+02  0.61688178345E+02  0.47000000000E+01 0.  1.
         -5    1    1    2    0  502  0.46473854638E+02  0.85550679598E+01 -0.15872328156E+03  0.16567491802E+03  0.47000000000E+01 0.  1.
        -11    1    3    3    0    0  0.26275069196E+02 -0.12415576132E+02 -0.69642914384E+02  0.75462979770E+02  0.00000000000E+00 0. -1.
         11    1    3    3    0    0 -0.19539513272E+02  0.31607615471E+01  0.18915646797E+02  0.27378544268E+02  0.00000000000E+00 0.  1.
<mgrwt>
<rscale>  0 0.11533371E+03</rscale>
<asrwt>0</asrwt>
<pdfrwt beam="2">  1        1 0.43884872E-01 0.12552545E+03</pdfrwt>
<pdfrwt beam="1">  1       -1 0.69158378E-02 0.12552545E+03</pdfrwt>
<totfact> 0.94579691E+03</totfact>
</mgrwt>
</event>
<event>
 7    1  0.1020736E-005  0.1412337E+03  0.7546771E-02  0.1223182E+00
         -1   -1    0    0    0  501 -0.00000000000E+00  0.00000000000E+00  0.17890217216E+02  0.17890217216E+02  0.00000000000E+00 0.  1.
          1   -1    0    0  501    0  0.00000000000E+00 -0.00000000000E+00 -0.93364215191E+03  0.93364215191E+03  0.00000000000E+00 0. -1.
         23    2    1    2    0    0  0.58603277647E+02 -0.29829198412E+02 -0.30055458408E+03  0.32033133091E+03  0.89190685192E+02 0.  0.
          5    1    1    2  502    0  0.12169204234E+02  0.25226176671E+01 -0.44033669120E+03  0.44053710939E+03  0.47000000000E+01 0.  1.
         -5    1    1    2    0  502 -0.70772481881E+02  0.27306580745E+02 -0.17486065942E+03  0.19066392883E+03  0.47000000000E+01 0.  1.
        -11    1    3    3    0    0  0.42646757079E+02 -0.61531349769E+02 -0.21699720549E+03  0.22954877496E+03  0.00000000000E+00 0.  1.
         11    1    3    3    0    0  0.15956520568E+02  0.31702151357E+02 -0.83557378589E+02  0.90782555956E+02  0.00000000000E+00 0. -1.
<mgrwt>
<rscale>  0 0.13292286E+03</rscale>
<asrwt>0</asrwt>
<pdfrwt beam="2">  1        1 0.14363726E+00 0.14123374E+03</pdfrwt>
<pdfrwt beam="1">  1       -1 0.27523409E-02 0.14123374E+03</pdfrwt>
<totfact> 0.74706900E+03</totfact>
</mgrwt>
</event>
<event>
 7    1  0.1020736E-005  0.1881568E+03  0.7546771E-02  0.1164736E+00
         -1   -1    0    0    0  501 -0.00000000000E+00  0.00000000000E+00  0.10154374961E+03  0.10154374961E+03  0.00000000000E+00 0.  1.
          1   -1    0    0  501    0  0.00000000000E+00 -0.00000000000E+00 -0.32275571660E+03  0.32275571660E+03  0.00000000000E+00 0. -1.
         23    2    1    2    0    0  0.12755739145E+01  0.14063772459E+03 -0.70512339599E+02  0.18323234223E+03  0.93922864833E+02 0.  0.
          5    1    1    2  502    0 -0.55587019724E+02 -0.54716035802E+02 -0.10135022799E+03  0.12797546659E+03  0.47000000000E+01 0. -1.
         -5    1    1    2    0  502  0.54311445810E+02 -0.85921688784E+02 -0.49349399397E+02  0.11309165739E+03  0.47000000000E+01 0. -1.
        -11    1    3    3    0    0 -0.39833538058E+02  0.27266155060E+02 -0.15653868729E+02  0.50746404525E+02  0.00000000000E+00 0. -1.
         11    1    3    3    0    0  0.41109111972E+02  0.11337156953E+03 -0.54858470869E+02  0.13248593771E+03  0.00000000000E+00 0.  1.
<mgrwt>
<rscale>  0 0.18320599E+03</rscale>
<asrwt>0</asrwt>
<pdfrwt beam="2">  1        1 0.49654726E-01 0.18815680E+03</pdfrwt>
<pdfrwt beam="1">  1       -1 0.15622115E-01 0.18815680E+03</pdfrwt>
<totfact> 0.23706725E+03</totfact>
</mgrwt>
</event>
<event>
 7    1  0.1020736E-005  0.1513173E+03  0.7546771E-02  0.1207880E+00
         -2   -1    0    0    0  501 -0.00000000000E+00  0.00000000000E+00  0.13254794889E+03  0.13254794889E+03  0.00000000000E+00 0.  1.
          2   -1    0    0  501    0  0.00000000000E+00 -0.00000000000E+00 -0.16646561882E+03  0.16646561882E+03  0.00000000000E+00 0. -1.
         23    2    1    2    0    0 -0.66953298911E+02 -0.52822130430E+02  0.39726584206E+02  0.13072686190E+03  0.90765572945E+02 0.  0.
          5    1    1    2  502    0  0.20462021082E+02 -0.41244848936E+02 -0.22972571342E+02  0.51668761399E+02  0.47000000000E+01 0. -1.
         -5    1    1    2    0  502  0.46491277829E+02  0.94066979365E+02 -0.50671682788E+02  0.11661794441E+03  0.47000000000E+01 0. -1.
        -11    1    3    3    0    0 -0.37682735264E+02 -0.14884878539E+02 -0.26919264418E+02  0.48643549859E+02  0.00000000000E+00 0. -1.
         11    1    3    3    0    0 -0.29270563647E+02 -0.37937251891E+02  0.66645848624E+02  0.82083312044E+02  0.00000000000E+00 0.  1.
<mgrwt>
<rscale>  0 0.14412775E+03</rscale>
<asrwt>0</asrwt>
<pdfrwt beam="2">  1        2 0.25610095E-01 0.15131735E+03</pdfrwt>
<pdfrwt beam="1">  1       -2 0.20391992E-01 0.15131735E+03</pdfrwt>
<totfact> 0.41057928E+03</totfact>
</mgrwt>
</event>
<event>
 7    1  0.1020736E-005  0.1190644E+03  0.7546771E-02  0.1253754E+00
          2   -1    0    0  501    0  0.00000000000E+00  0.00000000000E+00  0.10297107816E+03  0.10297107816E+03  0.00000000000E+00 0. -1.
         -2   -1    0    0    0  501 -0.00000000000E+00 -0.00000000000E+00 -0.11578969608E+03  0.11578969608E+03  0.00000000000E+00 0.  1.
         23    2    1    2    0    0 -0.42020429576E+02  0.56194046827E+01 -0.28325129791E+01  0.99278322107E+02  0.89726628711E+02 0.  0.
          5    1    1    2  502    0 -0.36887615239E+02 -0.23365095023E+00  0.84502294046E+01  0.38134592273E+02  0.47000000000E+01 0. -1.
         -5    1    1    2    0  502  0.78908044816E+02 -0.53857537325E+01 -0.18436334352E+02  0.81347859862E+02  0.47000000000E+01 0.  1.
        -11    1    3    3    0    0 -0.56204098409E+02  0.67222354144E+01 -0.33285670126E+02  0.65666010711E+02  0.00000000000E+00 0. -1.
         11    1    3    3    0    0  0.14183668833E+02 -0.11028307317E+01  0.30453157147E+02  0.33612311396E+02  0.00000000000E+00 0.  1.
<mgrwt>
<rscale>  0 0.11376427E+03</rscale>
<asrwt>0</asrwt>
<pdfrwt beam="1">  1        2 0.15841704E-01 0.11906441E+03</pdfrwt>
<pdfrwt beam="2">  1       -2 0.17813799E-01 0.11906441E+03</pdfrwt>
<totfact> 0.87228540E+03</totfact>
</mgrwt>
</event>
<event>
 7    1  0.1020736E-005  0.1790963E+03  0.7546771E-02  0.1173806E+00
          1   -1    0    0  501    0  0.00000000000E+00  0.00000000000E+00  0.61508105851E+03  0.61508105851E+03  0.00000000000E+00 0. -1.
         -1   -1    0    0    0  501 -0.00000000000E+00 -0.00000000000E+00 -0.47521647236E+02  0.47521647236E+02  0.00000000000E+00 0.  1.
         23    2    1    2    0    0  0.12772990586E+03  0.11667475900E+02  0.22024902123E+03  0.27183425297E+03  0.94515453177E+02 0.  0.
          5    1    1    2  502    0 -0.37628574645E+01 -0.44978052825E+02  0.53808086413E+02  0.70388809449E+02  0.47000000000E+01 0. -1.
         -5    1    1    2    0  502 -0.12396704839E+03  0.33310576925E+02  0.29350230363E+03  0.32037964333E+03  0.47000000000E+01 0. -1.
        -11    1    3    3    0    0  0.61271338930E+01  0.28827447404E+02  0.80857498712E+02  0.86061016678E+02  0.00000000000E+00 0. -1.
         11    1    3    3    0    0  0.12160277197E+03 -0.17159971504E+02  0.13939152252E+03  0.18577323629E+03  0.00000000000E+00 0.  1.
<mgrwt>
<rscale>  0 0.17393437E+03</rscale>
<asrwt>0</asrwt>
<pdfrwt beam="1">  1        1 0.94627849E-01 0.17909628E+03</pdfrwt>
<pdfrwt beam="2">  1       -1 0.73110231E-02 0.17909628E+03</pdfrwt>
<totfact> 0.33063254E+03</totfact>
</mgrwt>
</event>
<event>
 7    1  0.1020736E-005  0.1346476E+03  0.7546771E-02  0.1233456E+00
          1   -1    0    0  501    0  0.00000000000E+00  0.00000000000E+00  0.84240499603E+03  0.84240499603E+03  0.00000000000E+00 0. -1.
         -1   -1    0    0    0  501 -0.00000000000E+00 -0.00000000000E+00 -0.17432405071E+02  0.17432405071E+02  0.00000000000E+00 0.  1.
         23    2    1    2    0    0 -0.45041708925E+02  0.21842358481E+02  0.27985707758E+03  0.29833861489E+03  0.90443911322E+02 0.  0.
          5    1    1    2  502    0  0.51136191715E+02  0.11203540062E+02  0.83678949170E+02  0.98816425493E+02  0.47000000000E+01 0. -1.
         -5    1    1    2    0  502 -0.60944827903E+01 -0.33045898543E+02  0.46143656421E+03  0.46268236072E+03  0.47000000000E+01 0. -1.
        -11    1    3    3    0    0  0.32505078593E+01  0.35043710852E+02  0.20680181757E+03  0.20977516351E+03  0.00000000000E+00 0. -1.
         11    1    3    3    0    0 -0.48292216784E+02 -0.13201352372E+02  0.73055260003E+02  0.88563451381E+02  0.00000000000E+00 0.  1.
<mgrwt>
<rscale>  0 0.12603770E+03</rscale>
<asrwt>0</asrwt>
<pdfrwt beam="1">  1        1 0.12960074E+00 0.13464755E+03</pdfrwt>
<pdfrwt beam="2">  1       -1 0.26819091E-02 0.13464755E+03</pdfrwt>
<totfact> 0.91043349E+03</totfact>
</mgrwt>
</event>
<event>
 7    1  0.1020736E-005  0.2008764E+03  0.7546771E-02  0.1153297E+00
         -1   -1    0    0    0  501 -0.00000000000E+00  0.00000000000E+00  0.44091437544E+02  0.44091437544E+02  0.00000000000E+00 0.  1.
          1   -1    0    0  501    0  0.00000000000E+00 -0.00000000000E+00 -0.11424149347E+04  0.11424149347E+04  0.00000000000E+00 0. -1.
         23    2    1    2    0    0 -0.30111213519E+01  0.15721210177E+03 -0.21846164072E+03  0.28400528944E+03  0.90602451244E+02 0.  0.
          5    1    1    2  502    0  0.56848059179E+02 -0.76072813527E+02 -0.30648645547E+03  0.32089688714E+03  0.47000000000E+01 0.  1.
         -5    1    1    2    0  502 -0.53836937827E+02 -0.81139288247E+02 -0.57337540096E+03  0.58160419565E+03  0.47000000000E+01 0.  1.
        -11    1    3    3    0    0 -0.38684895675E+02  0.45609546756E+02 -0.10539332540E+03  0.12117963916E+03  0.00000000000E+00 0. -1.
         11    1    3    3    0    0  0.35673774323E+02  0.11160255502E+03 -0.11306831531E+03  0.16282565028E+03  0.00000000000E+00 0.  1.
<mgrwt>
<rscale>  0 0.19584000E+03</rscale>
<asrwt>0</asrwt>
<pdfrwt beam="2">  1        1 0.17575616E+00 0.20087638E+03</pdfrwt>
<pdfrwt beam="1">  1       -1 0.67832975E-02 0.20087638E+03</pdfrwt>
<totfact> 0.13960769E+03</totfact>
</mgrwt>
</event>
<event>
 7    1  0.1020736E-005  0.1256390E+03  0.7546771E-02  0.1253046E+00
          2   -1    0    0  501    0  0.00000000000E+00  0.00000000000E+00  0.45675001079E+03  0.45675001079E+03  0.00000000000E+00 0. -1.
         -2   -1    0    0    0  501 -0.00000000000E+00 -0.00000000000E+00 -0.46432136956E+02  0.46432136956E+02  0.00000000000E+00 0.  1.
         23    2    1    2    0    0  0.56373315668E+01 -0.11353304189E+02  0.13204521724E+02  0.86667840155E+02  0.84712915780E+02 0.  0.
          5    1    1    2  502    0  0.58912641678E+02 -0.27523872875E+01  0.17468477369E+03  0.18443192550E+03  0.47000000000E+01 0.  1.
         -5    1    1    2    0  502 -0.64549973245E+02  0.14105691476E+02  0.22242857842E+03  0.23208238209E+03  0.47000000000E+01 0.  1.
        -11    1    3    3    0    0 -0.21686816728E+02 -0.33596075308E+02 -0.13772725402E+02  0.42293052159E+02  0.00000000000E+00 0.  1.
         11    1    3    3    0    0  0.27324148295E+02  0.22242771120E+02  0.26977247127E+02  0.44374787996E+02  0.00000000000E+00 0. -1.
<mgrwt>
<rscale>  0 0.11416495E+03</rscale>
<asrwt>0</asrwt>
<pdfrwt beam="1">  1        2 0.70269229E-01 0.12563898E+03</pdfrwt>
<pdfrwt beam="2">  1       -2 0.71434060E-02 0.12563898E+03</pdfrwt>
<totfact> 0.74026907E+03</totfact>
</mgrwt>
</event>
<event>
 7    1  0.1020736E-005  0.1372222E+03  0.7546771E-02  0.1228444E+00
          1   -1    0    0  501    0  0.00000000000E+00  0.00000000000E+00  0.15707418555E+02  0.15707418555E+02  0.00000000000E+00 0. -1.
         -1   -1    0    0    0  501 -0.00000000000E+00 -0.00000000000E+00 -0.95942173689E+03  0.95942173689E+03  0.00000000000E+00 0.  1.
         23    2    1    2    0    0 -0.47582152978E+02  0.30679294819E+02 -0.41826898977E+03  0.43206127678E+03  0.92318571667E+02 0.  0.
          5    1    1    2  502    0  0.71038913767E+02 -0.25326453707E+01 -0.15274035577E+03  0.16853678484E+03  0.47000000000E+01 0.  1.
         -5    1    1    2    0  502 -0.23456760789E+02 -0.28146649448E+02 -0.37270497279E+03  0.37453109383E+03  0.47000000000E+01 0.  1.
        -11    1    3    3    0    0  0.27287874365E+02  0.75812042350E+01 -0.14700608000E+03  0.14970935276E+03  0.00000000000E+00 0. -1.
         11    1    3    3    0    0 -0.74870027343E+02  0.23098090584E+02 -0.27126290977E+03  0.28235192403E+03  0.00000000000E+00 0.  1.
<mgrwt>
<rscale>  0 0.12933654E+03</rscale>
<asrwt>0</asrwt>
<pdfrwt beam="1">  1        1 0.24165266E-02 0.13722218E+03</pdfrwt>
<pdfrwt beam="2">  1       -1 0.14760331E+00 0.13722218E+03</pdfrwt>
<totfact> 0.17740590E+03</totfact>
</mgrwt>
</event>
<event>
 7    1  0.1020736E-005  0.1294641E+03  0.7546771E-02  0.1243955E+00
         -2   -1    0    0    0  501 -0.00000000000E+00  0.00000000000E+00  0.16165991802E+03  0.16165991802E+03  0.00000000000E+00 0.  1.
          2   -1    0    0  501    0  0.00000000000E+00 -0.00000000000E+00 -0.39326192922E+03  0.39326192922E+03  0.00000000000E+00 0. -1.
         23    2    1    2    0    0 -0.22338352258E+02  0.16241170808E+02  0.13594924139E+03  0.16523624138E+03  0.89766595245E+02 0.  0.
          5    1    1    2  502    0  0.54765837116E+02 -0.55069574745E+02 -0.24365405825E+03  0.25577596658E+03  0.47000000000E+01 0. -1.
         -5    1    1    2    0  502 -0.32427484859E+02  0.38828403938E+02 -0.12389719433E+03  0.13390963927E+03  0.47000000000E+01 0.  1.
        -11    1    3    3    0    0 -0.40076248091E+02  0.97348116527E+01  0.13997017654E+03  0.14591957558E+03  0.00000000000E+00 0.  1.
         11    1    3    3    0    0  0.17737895834E+02  0.65063591552E+01 -0.40209351504E+01  0.19316665798E+02  0.00000000000E+00 0. -1.
<mgrwt>
<rscale>  0 0.11948148E+03</rscale>
<asrwt>0</asrwt>
<pdfrwt beam="2">  1        2 0.60501834E-01 0.12946408E+03</pdfrwt>
<pdfrwt beam="1">  1       -2 0.24870757E-01 0.12946408E+03</pdfrwt>
<totfact> 0.11541590E+03</totfact>
</mgrwt>
</event>
<event>
 7    1  0.1020736E-005  0.1394097E+03  0.7546771E-02  0.1225303E+00
         -1   -1    0    0    0  501 -0.00000000000E+00  0.00000000000E+00  0.18009673111E+02  0.18009673111E+02  0.00000000000E+00 0.  1.
          1   -1    0    0  501    0  0.00000000000E+00 -0.00000000000E+00 -0.91067474153E+03  0.91067474153E+03  0.00000000000E+00 0. -1.
         23    2    1    2    0    0 -0.36193672523E+02  0.50001491529E+02 -0.29359727435E+03  0.31360938068E+03  0.91331008199E+02 0.  0.
          5    1    1    2  502    0  0.25835071986E+01 -0.85977547900E+02 -0.30733552154E+03  0.31918024070E+03  0.47000000000E+01 0. -1.
         -5    1    1    2    0  502  0.33610165324E+02  0.35976056372E+02 -0.29173227253E+03  0.29589479326E+03  0.47000000000E+01 0. -1.
        -11    1    3    3    0    0  0.19080538578E+02  0.39791089352E+02 -0.67615291891E+02  0.80741720578E+02  0.00000000000E+00 0.  1.
         11    1    3    3    0    0 -0.55274211101E+02  0.10210402176E+02 -0.22598198246E+03  0.23286766011E+03  0.00000000000E+00 0. -1.
<mgrwt>
<rscale>  0 0.13146148E+03</rscale>
<asrwt>0</asrwt>
<pdfrwt beam="2">  1        1 0.14010379E+00 0.13940974E+03</pdfrwt>
<pdfrwt beam="1">  1       -1 0.27707192E-02 0.13940974E+03</pdfrwt>
<totfact> 0.76971986E+03</totfact>
</mgrwt>
</event>
<event>
 7    1  0.1020736E-005  0.1495329E+03  0.7546771E-02  0.1210285E+00
         -2   -1    0    0    0  501 -0.00000000000E+00  0.00000000000E+00  0.16417832819E+02  0.16417832819E+02  0.00000000000E+00 0.  1.
          2   -1    0    0  501    0  0.00000000000E+00 -0.00000000000E+00 -0.12656760735E+04  0.12656760735E+04  0.00000000000E+00 0. -1.
         23    2    1    2    0    0  0.56114420832E+01 -0.81874723299E+02 -0.35870679089E+03  0.37907564139E+03  0.91064929976E+02 0.  0.
          5    1    1    2  502    0 -0.17212697194E+02  0.74539745004E+02 -0.23251505533E+03  0.24482195875E+03  0.47000000000E+01 0.  1.
         -5    1    1    2    0  502  0.11601255111E+02  0.73349782947E+01 -0.65803639446E+03  0.65819630617E+03  0.47000000000E+01 0.  1.
        -11    1    3    3    0    0 -0.26286744777E+02 -0.46147458677E+02 -0.78327330819E+02  0.94634833157E+02  0.00000000000E+00 0.  1.
         11    1    3    3    0    0  0.31898186860E+02 -0.35727264622E+02 -0.28037946007E+03  0.28444080824E+03  0.00000000000E+00 0. -1.
<mgrwt>
<rscale>  0 0.14228677E+03</rscale>
<asrwt>0</asrwt>
<pdfrwt beam="2">  1        2 0.19471940E+00 0.14953295E+03</pdfrwt>
<pdfrwt beam="1">  1       -2 0.25258203E-02 0.14953295E+03</pdfrwt>
<totfact> 0.97875678E+03</totfact>
</mgrwt>
</event>
<event>
 7    1  0.1020736E-005  0.1794218E+03  0.7546771E-02  0.1173719E+00
         -2   -1    0    0    0  501 -0.00000000000E+00  0.00000000000E+00  0.39155858572E+02  0.39155858572E+02  0.00000000000E+00 0.  1.
          2   -1    0    0  501    0  0.00000000000E+00 -0.00000000000E+00 -0.89365053353E+03  0.89365053353E+03  0.00000000000E+00 0. -1.
         23    2    1    2    0    0 -0.57152380254E+02 -0.11538503057E+03 -0.20680268369E+03  0.26072225283E+03  0.92890490854E+02 0.  0.
          5    1    1    2  502    0  0.92608676748E+01  0.43408315228E+02 -0.45634574941E+02  0.63832984664E+02  0.47000000000E+01 0. -1.
         -5    1    1    2    0  502  0.47891512579E+02  0.71976715340E+02 -0.60205741633E+03  0.60825115461E+03  0.47000000000E+01 0. -1.
        -11    1    3    3    0    0  0.15681121412E+02 -0.49433392716E+02 -0.11543361455E+03  0.12654831984E+03  0.00000000000E+00 0. -1.
         11    1    3    3    0    0 -0.72833501665E+02 -0.65951637852E+02 -0.91369069134E+02  0.13417393299E+03  0.00000000000E+00 0.  1.
<mgrwt>
<rscale>  0 0.17402044E+03</rscale>
<asrwt>0</asrwt>
<pdfrwt beam="2">  1        2 0.13748469E+00 0.17942178E+03</pdfrwt>
<pdfrwt beam="1">  1       -2 0.60239786E-02 0.17942178E+03</pdfrwt>
<totfact> 0.44462099E+03</totfact>
</mgrwt>
</event>
<event>
 7    1  0.1020736E-005  0.1875130E+03  0.7546771E-02  0.1165498E+00
          2   -1    0    0  501    0  0.00000000000E+00  0.00000000000E+00  0.50283243631E+03  0.50283243631E+03  0.00000000000E+00 0. -1.
         -2   -1    0    0    0  501 -0.00000000000E+00 -0.00000000000E+00 -0.65810927748E+02  0.65810927748E+02  0.00000000000E+00 0.  1.
         23    2    1    2    0    0 -0.13734789183E+03  0.25924416162E+02  0.14627470387E+03  0.22267398476E+03  0.93010191658E+02 0.  0.
          5    1    1    2  502    0  0.10544491413E+03 -0.29197654730E+02  0.29366971747E+03  0.31342483296E+03  0.47000000000E+01 0. -1.
         -5    1    1    2    0  502  0.31902977703E+02  0.32732385679E+01 -0.29229127830E+01  0.32544546335E+02  0.47000000000E+01 0. -1.
        -11    1    3    3    0    0 -0.41842851697E+02 -0.79757378525E+01 -0.24914223845E+01  0.42669003011E+02  0.00000000000E+00 0.  1.
         11    1    3    3    0    0 -0.95505040133E+02  0.33900154014E+02  0.14876612625E+03  0.18000498175E+03  0.00000000000E+00 0. -1.
<mgrwt>
<rscale>  0 0.18240232E+03</rscale>
<asrwt>0</asrwt>
<pdfrwt beam="1">  1        2 0.77358834E-01 0.18751295E+03</pdfrwt>
<pdfrwt beam="2">  1       -2 0.10124758E-01 0.18751295E+03</pdfrwt>
<totfact> 0.39524112E+03</totfact>
</mgrwt>
</event>
<event>
 7    1  0.1020736E-005  0.2566230E+03  0.7546771E-02  0.1109189E+00
         -2   -1    0    0    0  501 -0.00000000000E+00  0.00000000000E+00  0.29314381325E+02  0.29314381325E+02  0.00000000000E+00 0.  1.
          2   -1    0    0  501    0  0.00000000000E+00 -0.00000000000E+00 -0.56163007972E+03  0.56163007972E+03  0.00000000000E+00 0. -1.
         23    2    1    2    0    0  0.37066644286E+02  0.46384546639E+01 -0.20157391417E+03  0.22358708115E+03  0.89239501350E+02 0.  0.
          5    1    1    2  502    0  0.57810389600E+02  0.84472635395E+01 -0.82182055117E+02  0.10094244692E+03  0.47000000000E+01 0. -1.
         -5    1    1    2    0  502 -0.94877033886E+02 -0.13085718203E+02 -0.24855972911E+03  0.26641493298E+03  0.47000000000E+01 0.  1.
        -11    1    3    3    0    0 -0.21880978846E+02  0.24987851762E+02 -0.87298244421E+02  0.93403176873E+02  0.00000000000E+00 0.  1.
         11    1    3    3    0    0  0.58947623132E+02 -0.20349397098E+02 -0.11427566975E+03  0.13018390428E+03  0.00000000000E+00 0. -1.
<mgrwt>
<rscale>  0 0.25662298E+03</rscale>
<asrwt>0</asrwt>
<pdfrwt beam="2">  1        2 0.86404626E-01 0.25662298E+03</pdfrwt>
<pdfrwt beam="1">  1       -2 0.45099049E-02 0.25662298E+03</pdfrwt>
<totfact> 0.12372730E+04</totfact>
</mgrwt>
</event>
<event>
 7    1  0.1020736E-005  0.1475187E+03  0.7546771E-02  0.1212725E+00
         -1   -1    0    0    0  501 -0.00000000000E+00  0.00000000000E+00  0.47938564897E+02  0.47938564897E+02  0.00000000000E+00 0.  1.
          1   -1    0    0  501    0  0.00000000000E+00 -0.00000000000E+00 -0.42495731471E+03  0.42495731471E+03  0.00000000000E+00 0. -1.
         23    2    1    2    0    0  0.77800301412E+02  0.92043610152E+01 -0.92740766310E+02  0.15262141017E+03  0.92492366950E+02 0.  0.
          5    1    1    2  502    0  0.21777692330E+02 -0.68916468883E+00 -0.15603741722E+03  0.15762140846E+03  0.47000000000E+01 0.  1.
         -5    1    1    2    0  502 -0.99577993742E+02 -0.85151963264E+01 -0.12824056628E+03  0.16265306098E+03  0.47000000000E+01 0.  1.
        -11    1    3    3    0    0  0.96187866481E+02  0.11395024191E+02 -0.57050201180E+02  0.11241297829E+03  0.00000000000E+00 0.  1.
         11    1    3    3    0    0 -0.18387565068E+02 -0.21906631755E+01 -0.35690565131E+02  0.40208431873E+02  0.00000000000E+00 0. -1.
<mgrwt>
<rscale>  0 0.14045010E+03</rscale>
<asrwt>0</asrwt>
<pdfrwt beam="2">  1        1 0.65378046E-01 0.14751869E+03</pdfrwt>
<pdfrwt beam="1">  1       -1 0.73751641E-02 0.14751869E+03</pdfrwt>
<totfact> 0.52752365E+03</totfact>
</mgrwt>
</event>
<event>
 7    1  0.1020736E-005  0.1629636E+03  0.7546771E-02  0.1193582E+00
          2   -1    0    0  501    0  0.00000000000E+00  0.00000000000E+00  0.42582825819E+03  0.42582825819E+03  0.00000000000E+00 0. -1.
         -2   -1    0    0    0  501 -0.00000000000E+00 -0.00000000000E+00 -0.60211208596E+02  0.60211208596E+02  0.00000000000E+00 0.  1.
         23    2    1    2    0    0  0.26307728261E+02  0.10119465785E+03  0.81547615180E+02  0.15854506503E+03  0.86914145914E+02 0.  0.
          5    1    1    2  502    0 -0.72851090805E+02 -0.81952246874E+02  0.22006498467E+03  0.24591490332E+03  0.47000000000E+01 0.  1.
         -5    1    1    2    0  502  0.46543362544E+02 -0.19242410979E+02  0.64004449749E+02  0.81579498435E+02  0.47000000000E+01 0.  1.
        -11    1    3    3    0    0 -0.12447120139E+02  0.95916805218E+02  0.61190413449E+02  0.11445187207E+03  0.00000000000E+00 0.  1.
         11    1    3    3    0    0  0.38754848400E+02  0.52778526351E+01  0.20357201731E+02  0.44093192958E+02  0.00000000000E+00 0. -1.
<mgrwt>
<rscale>  0 0.15574887E+03</rscale>
<asrwt>0</asrwt>
<pdfrwt beam="1">  1        2 0.65512038E-01 0.16296361E+03</pdfrwt>
<pdfrwt beam="2">  1       -2 0.92632631E-02 0.16296361E+03</pdfrwt>
<totfact> 0.54214624E+03</totfact>
</mgrwt>
</event>
<event>
 7    1  0.1020736E-005  0.1465268E+03  0.7546771E-02  0.1231831E+00
          2   -1    0    0  501    0  0.00000000000E+00  0.00000000000E+00  0.98547570992E+03  0.98547570992E+03  0.00000000000E+00 0. -1.
         -2   -1    0    0    0  501 -0.00000000000E+00 -0.00000000000E+00 -0.13831962409E+02  0.13831962409E+02  0.00000000000E+00 0.  1.
         23    2    1    2    0    0 -0.31385762964E+01 -0.51729633608E+02  0.26679563068E+03  0.27939034022E+03  0.64755293235E+02 0.  0.
          5    1    1    2  502    0 -0.52668243883E+02  0.40157541725E+02  0.56410912414E+03  0.56800331514E+03  0.47000000000E+01 0. -1.
         -5    1    1    2    0  502  0.55806820180E+02  0.11572091884E+02  0.14073899269E+03  0.15191401697E+03  0.47000000000E+01 0.  1.
        -11    1    3    3    0    0 -0.26496557287E+02 -0.52795202345E+00  0.93701703306E+02  0.97377386923E+02  0.00000000000E+00 0. -1.
         11    1    3    3    0    0  0.23357980990E+02 -0.51201681585E+02  0.17309392738E+03  0.18201295330E+03  0.00000000000E+00 0.  1.
<mgrwt>
<rscale>  0 0.12709511E+03</rscale>
<asrwt>0</asrwt>
<pdfrwt beam="1">  1        2 0.15161159E+00 0.14652678E+03</pdfrwt>
<pdfrwt beam="2">  1       -2 0.21279950E-02 0.14652678E+03</pdfrwt>
<totfact> 0.18151953E+04</totfact>
</mgrwt>
</event>
<event>
 7    1  0.1020736E-005  0.2121448E+03  0.7546771E-02  0.1143611E+00
         -1   -1    0    0    0  501 -0.00000000000E+00  0.00000000000E+00  0.48049955900E+03  0.48049955900E+03  0.00000000000E+00 0.  1.
          1   -1    0    0  501    0  0.00000000000E+00 -0.00000000000E+00 -0.95429928928E+02  0.95429928928E+02  0.00000000000E+00 0. -1.
         23    2    1    2    0    0  0.88400586054E+02 -0.14683292509E+03  0.27617919968E+03  0.33747078377E+03  0.90757964171E+02 0.  0.
          5    1    1    2  502    0 -0.12046045706E+03  0.11934629716E+03  0.85815423504E+02  0.19010691011E+03  0.47000000000E+01 0. -1.
         -5    1    1    2    0  502  0.32059871006E+02  0.27486627935E+02  0.23075006887E+02  0.48351794041E+02  0.47000000000E+01 0. -1.
        -11    1    3    3    0    0  0.69735700178E+02 -0.11136145422E+03  0.26511519783E+03  0.29588935345E+03  0.00000000000E+00 0.  1.
         11    1    3    3    0    0  0.18664885876E+02 -0.35471470874E+02  0.11064001845E+02  0.41581430321E+02  0.00000000000E+00 0. -1.
<mgrwt>
<rscale>  0 0.20743858E+03</rscale>
<asrwt>0</asrwt>
<pdfrwt beam="2">  1        1 0.14681528E-01 0.21214483E+03</pdfrwt>
<pdfrwt beam="1">  1       -1 0.73923008E-01 0.21214483E+03</pdfrwt>
<totfact> 0.73510930E+02</totfact>
</mgrwt>
</event>
<event>
 7    1  0.1020736E-005  0.1552151E+03  0.7546771E-02  0.1202672E+00
          2   -1    0    0  501    0  0.00000000000E+00  0.00000000000E+00  0.58178509913E+02  0.58178509913E+02  0.00000000000E+00 0. -1.
         -2   -1    0    0    0  501 -0.00000000000E+00 -0.00000000000E+00 -0.35728161232E+03  0.35728161232E+03  0.00000000000E+00 0.  1.
         23    2    1    2    0    0 -0.91938000587E+02  0.43506372566E+01 -0.17072739783E+03  0.21403508641E+03  0.90507733626E+02 0.  0.
          5    1    1    2  502    0  0.98183302956E+02  0.26577166762E+02 -0.43454549194E+02  0.11070995718E+03  0.47000000000E+01 0.  1.
         -5    1    1    2    0  502 -0.62453023696E+01 -0.30927804019E+02 -0.84921155380E+02  0.90715078649E+02  0.47000000000E+01 0.  1.
        -11    1    3    3    0    0 -0.29053256669E+02  0.45439668915E+02 -0.73764405659E+02  0.91378568474E+02  0.00000000000E+00 0.  1.
         11    1    3    3    0    0 -0.62884743918E+02 -0.41089031658E+02 -0.96962992175E+02  0.12265651793E+03  0.00000000000E+00 0. -1.
<mgrwt>
<rscale>  0 0.14822456E+03</rscale>
<asrwt>0</asrwt>
<pdfrwt beam="1">  1        2 0.89505401E-02 0.15521509E+03</pdfrwt>
<pdfrwt beam="2">  1       -2 0.54966401E-01 0.15521509E+03</pdfrwt>
<totfact> 0.22671317E+03</totfact>
</mgrwt>
</event>
<event>
 7    1  0.1020736E-005  0.3637093E+03  0.7546771E-02  0.1057966E+00
         -1   -1    0    0    0  501 -0.00000000000E+00  0.00000000000E+00  0.13634344756E+03  0.13634344756E+03  0.00000000000E+00 0.  1.
          1   -1    0    0  501    0  0.00000000000E+00 -0.00000000000E+00 -0.97180713503E+03  0.97180713503E+03  0.00000000000E+00 0. -1.
         23    2    1    2    0    0 -0.32364738118E+03 -0.10914053236E+03 -0.50021727640E+03  0.61350466182E+03  0.97526218605E+02 0.  0.
          5    1    1    2  502    0  0.26763780251E+03  0.12020244743E+03 -0.22273397705E+03  0.36838992417E+03  0.47000000000E+01 0.  1.
         -5    1    1    2    0  502  0.56009578665E+02 -0.11061915062E+02 -0.11251243403E+03  0.12625599660E+03  0.47000000000E+01 0.  1.
        -11    1    3    3    0    0 -0.15575608231E+03 -0.42425330543E+02 -0.15460912434E+03  0.22352594296E+03  0.00000000000E+00 0.  1.
         11    1    3    3    0    0 -0.16789129887E+03 -0.66715201822E+02 -0.34560815206E+03  0.38997871886E+03  0.00000000000E+00 0. -1.
<mgrwt>
<rscale>  0 0.36156432E+03</rscale>
<asrwt>0</asrwt>
<pdfrwt beam="2">  1        1 0.14950879E+00 0.36370927E+03</pdfrwt>
<pdfrwt beam="1">  1       -1 0.20975915E-01 0.36370927E+03</pdfrwt>
<totfact> 0.31217743E+02</totfact>
</mgrwt>
</event>
<event>
 7    1  0.1020736E-005  0.1618233E+03  0.7546771E-02  0.1193533E+00
          2   -1    0    0  501    0  0.00000000000E+00  0.00000000000E+00  0.54475591974E+03  0.54475591974E+03  0.00000000000E+00 0. -1.
         -2   -1    0    0    0  501 -0.00000000000E+00 -0.00000000000E+00 -0.41597476890E+02  0.41597476890E+02  0.00000000000E+00 0.  1.
         23    2    1    2    0    0  0.63483706623E+02  0.80819159476E+02  0.22093504911E+03  0.26102769206E+03  0.93601509345E+02 0.  0.
          5    1    1    2  502    0 -0.18494891600E+02 -0.30808114321E+02  0.24624071617E+03  0.24889311205E+03  0.47000000000E+01 0.  1.
         -5    1    1    2    0  502 -0.44988815024E+02 -0.50011045154E+02  0.35982677565E+02  0.76432592521E+02  0.47000000000E+01 0.  1.
        -11    1    3    3    0    0  0.38340837395E+02  0.99455982364E+02  0.15591812621E+03  0.18887025790E+03  0.00000000000E+00 0. -1.
         11    1    3    3    0    0  0.25142869228E+02 -0.18636822889E+02  0.65016922899E+02  0.72157434154E+02  0.00000000000E+00 0.  1.
<mgrwt>
<rscale>  0 0.15579033E+03</rscale>
<asrwt>0</asrwt>
<pdfrwt beam="1">  1        2 0.83808598E-01 0.16182327E+03</pdfrwt>
<pdfrwt beam="2">  1       -2 0.63996122E-02 0.16182327E+03</pdfrwt>
<totfact> 0.73253297E+03</totfact>
</mgrwt>
</event>
<event>
 7    1  0.1020736E-005  0.1667345E+03  0.7546771E-02  0.1188334E+00
         -3   -1    0    0    0  501 -0.00000000000E+00  0.00000000000E+00  0.61158316340E+02  0.61158316340E+02  0.00000000000E+00 0.  1.
          3   -1    0    0  501    0  0.00000000000E+00 -0.00000000000E+00 -0.41107885674E+03  0.41107885674E+03  0.00000000000E+00 0. -1.
         23    2    1    2    0    0 -0.44851623592E+02 -0.10081498284E+03 -0.21401973925E+03  0.25713392953E+03  0.90211307609E+02 0.  0.
          5    1    1    2  502    0 -0.36999158060E+02  0.53611305107E+02 -0.86477312147E+02  0.10836754703E+03  0.47000000000E+01 0.  1.
         -5    1    1    2    0  502  0.81850781653E+02  0.47203677729E+02 -0.49423488998E+02  0.10673569653E+03  0.47000000000E+01 0.  1.
        -11    1    3    3    0    0  0.92311653757E+00 -0.33549446022E+02 -0.64351236360E+01  0.34173502728E+02  0.00000000000E+00 0.  1.
         11    1    3    3    0    0 -0.45774740130E+02 -0.67265536813E+02 -0.20758461562E+03  0.22296042680E+03  0.00000000000E+00 0. -1.
<mgrwt>
<rscale>  0 0.16032153E+03</rscale>
<asrwt>0</asrwt>
<pdfrwt beam="2">  1        3 0.63242901E-01 0.16673445E+03</pdfrwt>
<pdfrwt beam="1">  1       -3 0.94089717E-02 0.16673445E+03</pdfrwt>
<totfact> 0.48097233E+02</totfact>
</mgrwt>
</event>
<event>
 7    1  0.1020736E-005  0.1341785E+03  0.7546771E-02  0.1235344E+00
         -1   -1    0    0    0  501 -0.00000000000E+00  0.00000000000E+00  0.49455854540E+02  0.49455854540E+02  0.00000000000E+00 0.  1.
          1   -1    0    0  501    0  0.00000000000E+00 -0.00000000000E+00 -0.28242503975E+03  0.28242503975E+03  0.00000000000E+00 0. -1.
         23    2    1    2    0    0  0.36262281909E+02  0.32606959024E+02 -0.80369897267E+02  0.12868046376E+03  0.87870213956E+02 0.  0.
          5    1    1    2  502    0  0.42243885809E+02 -0.35706354276E+01 -0.21961601295E+02  0.47976007097E+02  0.47000000000E+01 0.  1.
         -5    1    1    2    0  502 -0.78506167718E+02 -0.29036323596E+02 -0.13063768665E+03  0.15522442344E+03  0.47000000000E+01 0.  1.
        -11    1    3    3    0    0 -0.12534618815E+02  0.33337459063E+01 -0.69559927823E+02  0.70758844602E+02  0.00000000000E+00 0. -1.
         11    1    3    3    0    0  0.48796900724E+02  0.29273213117E+02 -0.10809969444E+02  0.57921619158E+02  0.00000000000E+00 0.  1.
<mgrwt>
<rscale>  0 0.12482422E+03</rscale>
<asrwt>0</asrwt>
<pdfrwt beam="2">  1        1 0.43450006E-01 0.13417851E+03</pdfrwt>
<pdfrwt beam="1">  1       -1 0.76085930E-02 0.13417851E+03</pdfrwt>
<totfact> 0.83389270E+03</totfact>
</mgrwt>
</event>
<event>
 7    1  0.1020736E-005  0.1288562E+03  0.7546771E-02  0.1242628E+00
         -2   -1    0    0    0  501 -0.00000000000E+00  0.00000000000E+00  0.20447359173E+02  0.20447359173E+02  0.00000000000E+00 0. -1.
          2   -1    0    0  501    0  0.00000000000E+00 -0.00000000000E+00 -0.70769170133E+03  0.70769170133E+03  0.00000000000E+00 0.  1.
         23    2    1    2    0    0  0.10472435445E+02  0.29478868399E+02 -0.18099739579E+03  0.20575043151E+03  0.92706565011E+02 0.  0.
          5    1    1    2  502    0 -0.30370217145E+02 -0.72471069698E+02 -0.36304030934E+03  0.37147646257E+03  0.47000000000E+01 0.  1.
         -5    1    1    2    0  502  0.19897781700E+02  0.42992201299E+02 -0.14320663702E+03  0.15091216642E+03  0.47000000000E+01 0.  1.
        -11    1    3    3    0    0  0.40819612595E+02  0.37790325416E+02 -0.64960561961E+02  0.85523237063E+02  0.00000000000E+00 0. -1.
         11    1    3    3    0    0 -0.30347177150E+02 -0.83114570166E+01 -0.11603683383E+03  0.12022719445E+03  0.00000000000E+00 0.  1.
<mgrwt>
<rscale>  0 0.12028485E+03</rscale>
<asrwt>0</asrwt>
<pdfrwt beam="2">  1        2 0.10887564E+00 0.12885616E+03</pdfrwt>
<pdfrwt beam="1">  1       -2 0.31457476E-02 0.12885616E+03</pdfrwt>
<totfact> 0.15458251E+04</totfact>
</mgrwt>
</event>
<event>
 7    1  0.1020736E-005  0.1430694E+03  0.7546771E-02  0.1228694E+00
         -1   -1    0    0    0  501 -0.00000000000E+00  0.00000000000E+00  0.26644716335E+03  0.26644716335E+03  0.00000000000E+00 0.  1.
          1   -1    0    0  501    0  0.00000000000E+00 -0.00000000000E+00 -0.57286420765E+02  0.57286420765E+02  0.00000000000E+00 0. -1.
         23    2    1    2    0    0 -0.11168913104E+02  0.59113381833E+00  0.12738169515E+03  0.15894082632E+03  0.94398071758E+02 0.  0.
          5    1    1    2  502    0  0.41983148303E+02  0.21475832176E+02  0.10835471597E+03  0.11826508607E+03  0.47000000000E+01 0. -1.
         -5    1    1    2    0  502 -0.30814235199E+02 -0.22066965995E+02 -0.26575668534E+02  0.46527671736E+02  0.47000000000E+01 0.  1.
        -11    1    3    3    0    0  0.88325077891E+01 -0.36650230412E+02  0.10402308842E+03  0.11064382273E+03  0.00000000000E+00 0.  1.
         11    1    3    3    0    0 -0.20001420893E+02  0.37241364230E+02  0.23358606732E+02  0.48297003592E+02  0.00000000000E+00 0. -1.
<mgrwt>
<rscale>  0 0.12916877E+03</rscale>
<asrwt>0</asrwt>
<pdfrwt beam="2">  1        1 0.88132956E-02 0.14306936E+03</pdfrwt>
<pdfrwt beam="1">  1       -1 0.40991871E-01 0.14306936E+03</pdfrwt>
<totfact> 0.43206911E+03</totfact>
</mgrwt>
</event>
<event>
 7    1  0.1020736E-005  0.1270966E+03  0.7546771E-02  0.1246635E+00
         -2   -1    0    0    0  501 -0.00000000000E+00  0.00000000000E+00  0.13176047144E+02  0.13176047144E+02  0.00000000000E+00 0.  1.
          2   -1    0    0  501    0  0.00000000000E+00 -0.00000000000E+00 -0.98002790430E+03  0.98002790430E+03  0.00000000000E+00 0. -1.
         23    2    1    2    0    0  0.19409488818E+02  0.12284899669E+02 -0.30175934041E+03  0.31607649047E+03  0.91203077191E+02 0.  0.
          5    1    1    2  502    0 -0.90845293614E+01 -0.26999233847E+02 -0.29549203130E+02  0.41312621651E+02  0.47000000000E+01 0. -1.
         -5    1    1    2    0  502 -0.10324959457E+02  0.14714334178E+02 -0.63554331362E+03  0.63581483932E+03  0.47000000000E+01 0. -1.
        -11    1    3    3    0    0  0.41643622811E+02  0.39156328650E+02 -0.15426933529E+03  0.16451880502E+03  0.00000000000E+00 0.  1.
         11    1    3    3    0    0 -0.22234133993E+02 -0.26871428981E+02 -0.14749000511E+03  0.15155768545E+03  0.00000000000E+00 0. -1.
<mgrwt>
<rscale>  0 0.11788041E+03</rscale>
<asrwt>0</asrwt>
<pdfrwt beam="2">  1        2 0.15077354E+00 0.12709659E+03</pdfrwt>
<pdfrwt beam="1">  1       -2 0.20270839E-02 0.12709659E+03</pdfrwt>
<totfact> 0.19429304E+04</totfact>
</mgrwt>
</event>
<event>
 7    1  0.1020736E-005  0.1314873E+03  0.7546771E-02  0.1235871E+00
         -1   -1    0    0    0  501 -0.00000000000E+00  0.00000000000E+00  0.16322941223E+03  0.16322941223E+03  0.00000000000E+00 0.  1.
          1   -1    0    0  501    0  0.00000000000E+00 -0.00000000000E+00 -0.86879035465E+02  0.86879035465E+02  0.00000000000E+00 0. -1.
         23    2    1    2    0    0  0.40533199796E+02 -0.45301116752E+01  0.45617400744E+02  0.11507728544E+03  0.97459592534E+02 0.  0.
          5    1    1    2  502    0  0.28087240386E+02 -0.66755741707E+01 -0.30503249717E+02  0.42261029404E+02  0.47000000000E+01 0.  1.
         -5    1    1    2    0  502 -0.68620440182E+02  0.11205685846E+02  0.61236225740E+02  0.92770132850E+02  0.47000000000E+01 0.  1.
        -11    1    3    3    0    0  0.18644473887E+02 -0.50259334210E+02  0.14278208425E+02  0.55475078347E+02  0.00000000000E+00 0.  1.
         11    1    3    3    0    0  0.21888725909E+02  0.45729222535E+02  0.31339192319E+02  0.59602207097E+02  0.00000000000E+00 0. -1.
<mgrwt>
<rscale>  0 0.12448863E+03</rscale>
<asrwt>0</asrwt>
<pdfrwt beam="2">  1        1 0.13366005E-01 0.13148726E+03</pdfrwt>
<pdfrwt beam="1">  1       -1 0.25112217E-01 0.13148726E+03</pdfrwt>
<totfact> 0.56981994E+03</totfact>
</mgrwt>
</event>
<event>
 7    1  0.1020736E-005  0.1718450E+03  0.7546771E-02  0.1185628E+00
         -1   -1    0    0    0  501 -0.00000000000E+00  0.00000000000E+00  0.12329050635E+03  0.12329050635E+03  0.00000000000E+00 0.  1.
          1   -1    0    0  501    0  0.00000000000E+00 -0.00000000000E+00 -0.23182034855E+03  0.23182034855E+03  0.00000000000E+00 0. -1.
         23    2    1    2    0    0 -0.10940334411E+02 -0.98611387160E+02  0.21110646222E+02  0.13984971385E+03  0.96272459648E+02 0.  0.
          5    1    1    2  502    0  0.26645542771E+02  0.98445047274E+02 -0.15467770310E+03  0.18533400691E+03  0.47000000000E+01 0. -1.
         -5    1    1    2    0  502 -0.15705208360E+02  0.16633988595E+00  0.25037214679E+02  0.29927134134E+02  0.47000000000E+01 0.  1.
        -11    1    3    3    0    0 -0.45690919067E+02 -0.16418239393E+02  0.20205915015E+01  0.48593224425E+02  0.00000000000E+00 0.  1.
         11    1    3    3    0    0  0.34750584656E+02 -0.82193147767E+02  0.19090054721E+02  0.91256489430E+02  0.00000000000E+00 0. -1.
<mgrwt>
<rscale>  0 0.16274840E+03</rscale>
<asrwt>0</asrwt>
<pdfrwt beam="2">  1        1 0.35664669E-01 0.17184500E+03</pdfrwt>
<pdfrwt beam="1">  1       -1 0.18967770E-01 0.17184500E+03</pdfrwt>
<totfact> 0.26204510E+03</totfact>
</mgrwt>
</event>
<event>
 7    1  0.1020736E-005  0.1405049E+03  0.7546771E-02  0.1223380E+00
         -2   -1    0    0    0  501 -0.00000000000E+00  0.00000000000E+00  0.12595860797E+02  0.12595860797E+02  0.00000000000E+00 0.  1.
          2   -1    0    0  501    0  0.00000000000E+00 -0.00000000000E+00 -0.12704949601E+04  0.12704949601E+04  0.00000000000E+00 0. -1.
         23    2    1    2    0    0  0.59992601122E+02  0.22705985899E+02 -0.52171767870E+03  0.53362120945E+03  0.91910744326E+02 0.  0.
          5    1    1    2  502    0  0.22590526096E+02  0.16008734470E+02 -0.40361638370E+03  0.40459224738E+03  0.47000000000E+01 0.  1.
         -5    1    1    2    0  502 -0.82583127218E+02 -0.38714720369E+02 -0.33256503686E+03  0.34487736403E+03  0.47000000000E+01 0.  1.
        -11    1    3    3    0    0 -0.15850507573E+02 -0.17347748660E+02 -0.70176443662E+02  0.74006190409E+02  0.00000000000E+00 0.  1.
         11    1    3    3    0    0  0.75843108695E+02  0.40053734560E+02 -0.45154123504E+03  0.45961501904E+03  0.00000000000E+00 0. -1.
<mgrwt>
<rscale>  0 0.13278590E+03</rscale>
<asrwt>0</asrwt>
<pdfrwt beam="2">  1        2 0.19546085E+00 0.14050486E+03</pdfrwt>
<pdfrwt beam="1">  1       -2 0.19378239E-02 0.14050486E+03</pdfrwt>
<totfact> 0.14272765E+04</totfact>
</mgrwt>
</event>
<event>
 7    1  0.1020736E-005  0.1378454E+03  0.7546771E-02  0.1228819E+00
          1   -1    0    0  501    0  0.00000000000E+00  0.00000000000E+00  0.39454002363E+02  0.39454002363E+02  0.00000000000E+00 0. -1.
         -1   -1    0    0    0  501 -0.00000000000E+00 -0.00000000000E+00 -0.42491686169E+03  0.42491686169E+03  0.00000000000E+00 0.  1.
         23    2    1    2    0    0  0.15350562444E+02 -0.56044740201E+02 -0.24796381490E+03  0.26967281415E+03  0.88660704467E+02 0.  0.
          5    1    1    2  502    0  0.35170760456E+02  0.16701162737E+02 -0.12269124239E+03  0.12880660770E+03  0.47000000000E+01 0. -1.
         -5    1    1    2    0  502 -0.50521322899E+02  0.39343577464E+02 -0.14807802034E+02  0.65891442208E+02  0.47000000000E+01 0. -1.
        -11    1    3    3    0    0 -0.16349883751E+02 -0.48366521197E+02 -0.22252960038E+03  0.22831132717E+03  0.00000000000E+00 0.  1.
         11    1    3    3    0    0  0.31700446195E+02 -0.76782190033E+01 -0.25434214524E+02  0.41361486971E+02  0.00000000000E+00 0. -1.
<mgrwt>
<rscale>  0 0.12908543E+03</rscale>
<asrwt>0</asrwt>
<pdfrwt beam="1">  1        1 0.60698467E-02 0.13784536E+03</pdfrwt>
<pdfrwt beam="2">  1       -1 0.65371822E-01 0.13784536E+03</pdfrwt>
<totfact> 0.30142742E+03</totfact>
</mgrwt>
</event>
<event>
 7    1  0.2226312E-005  0.1870577E+03  0.7546771E-02  0.1167682E+00
         -1   -1    0    0    0  501 -0.00000000000E+00  0.00000000000E+00  0.22726764755E+02  0.22726764755E+02  0.00000000000E+00 0.  1.
          1   -1    0    0  501    0  0.00000000000E+00 -0.00000000000E+00 -0.16304846639E+04  0.16304846639E+04  0.00000000000E+00 0. -1.
         23    2    1    2    0    0 -0.11533551999E+03  0.77868148664E+02 -0.40115447669E+03  0.43219446941E+03  0.80631349176E+02 0.  0.
          5    1    1    2  502    0  0.12859778361E+03 -0.45438404392E+02 -0.69982762934E+03  0.71300970493E+03  0.47000000000E+01 0.  1.
         -5    1    1    2    0  502 -0.13262263619E+02 -0.32429744272E+02 -0.50677579311E+03  0.50800725431E+03  0.47000000000E+01 0.  1.
        -11    1    3    3    0    0  0.87032008286E+01  0.91291666705E+01 -0.99051943861E+01  0.16037464406E+02  0.00000000000E+00 0.  1.
         11    1    3    3    0    0 -0.12403872082E+03  0.68738981994E+02 -0.39124928231E+03  0.41615700500E+03  0.00000000000E+00 0. -1.
<mgrwt>
<rscale>  0 0.18012555E+03</rscale>
<asrwt>0</asrwt>
<pdfrwt beam="2">  1        1 0.25084383E+00 0.18705773E+03</pdfrwt>
<pdfrwt beam="1">  1       -1 0.34964248E-02 0.18705773E+03</pdfrwt>
<totfact> 0.17673717E+03</totfact>
</mgrwt>
</event>
<event>
 7    1  0.1020736E-005  0.1411062E+03  0.7546771E-02  0.1224630E+00
          2   -1    0    0  501    0  0.00000000000E+00  0.00000000000E+00  0.33060571006E+03  0.33060571006E+03  0.00000000000E+00 0. -1.
         -2   -1    0    0    0  501 -0.00000000000E+00 -0.00000000000E+00 -0.46892209846E+02  0.46892209846E+02  0.00000000000E+00 0.  1.
         23    2    1    2    0    0  0.39947883314E+02 -0.51872490809E+02  0.12844160167E+03  0.16768768476E+03  0.85646517136E+02 0.  0.
          5    1    1    2  502    0  0.20561518629E+02 -0.10540347580E+02 -0.79000843526E+01  0.24867173306E+02  0.47000000000E+01 0. -1.
         -5    1    1    2    0  502 -0.60509401944E+02  0.62412838389E+02  0.16317198290E+03  0.18494306184E+03  0.47000000000E+01 0. -1.
        -11    1    3    3    0    0  0.37329840646E+02 -0.89379502216E+01  0.11706051203E+03  0.12319321180E+03  0.00000000000E+00 0. -1.
         11    1    3    3    0    0  0.26180426680E+01 -0.42934540588E+02  0.11381089641E+02  0.44494472963E+02  0.00000000000E+00 0.  1.
<mgrwt>
<rscale>  0 0.13192266E+03</rscale>
<asrwt>0</asrwt>
<pdfrwt beam="1">  1        2 0.50862415E-01 0.14110624E+03</pdfrwt>
<pdfrwt beam="2">  1       -2 0.72141863E-02 0.14110624E+03</pdfrwt>
<totfact> 0.10380584E+04</totfact>
</mgrwt>
</event>
<event>
 7    1  0.1020736E-005  0.2064296E+03  0.7546771E-02  0.1147845E+00
          2   -1    0    0  501    0  0.00000000000E+00  0.00000000000E+00  0.14242295723E+04  0.14242295723E+04  0.00000000000E+00 0. -1.
         -2   -1    0    0    0  501 -0.00000000000E+00 -0.00000000000E+00 -0.34298846234E+02  0.34298846234E+02  0.00000000000E+00 0.  1.
         23    2    1    2    0    0 -0.11585746139E+03 -0.11646952967E+03  0.35060033418E+03  0.39889600654E+03  0.95965238523E+02 0.  0.
          5    1    1    2  502    0  0.84589653178E+02  0.21449215606E+02  0.71151422718E+03  0.71686125837E+03  0.47000000000E+01 0. -1.
         -5    1    1    2    0  502  0.31267808213E+02  0.95020314060E+02  0.32781616474E+03  0.34277115366E+03  0.47000000000E+01 0. -1.
        -11    1    3    3    0    0 -0.87131190245E+02 -0.96863774890E+02  0.16586921872E+03  0.21091949392E+03  0.00000000000E+00 0. -1.
         11    1    3    3    0    0 -0.28726271146E+02 -0.19605754777E+02  0.18473111547E+03  0.18797651262E+03  0.00000000000E+00 0.  1.
<mgrwt>
<rscale>  0 0.20226173E+03</rscale>
<asrwt>0</asrwt>
<pdfrwt beam="1">  1        2 0.21911220E+00 0.20642961E+03</pdfrwt>
<pdfrwt beam="2">  1       -2 0.52767467E-02 0.20642961E+03</pdfrwt>
<totfact> 0.27003979E+03</totfact>
</mgrwt>
</event>
<event>
 7    1  0.1020736E-005  0.2508448E+03  0.7546771E-02  0.1115179E+00
          2   -1    0    0  501    0  0.00000000000E+00  0.00000000000E+00  0.43937705856E+03  0.43937705856E+03  0.00000000000E+00 0. -1.
         -2   -1    0    0    0  501 -0.00000000000E+00 -0.00000000000E+00 -0.16810134204E+03  0.16810134204E+03  0.00000000000E+00 0.  1.
         23    2    1    2    0    0  0.20091995747E+03  0.83252086208E+02 -0.26522331751E+01  0.23604923363E+03  0.91719502786E+02 0.  0.
          5    1    1    2  502    0 -0.22094538786E+02 -0.49989597264E+02  0.12425619174E+03  0.13582643213E+03  0.47000000000E+01 0. -1.
         -5    1    1    2    0  502 -0.17882541868E+03 -0.33262488944E+02  0.14967175795E+03  0.23560273484E+03  0.47000000000E+01 0. -1.
        -11    1    3    3    0    0  0.45307202693E+02  0.50988208691E+02 -0.30478430079E+02  0.74709268109E+02  0.00000000000E+00 0.  1.
         11    1    3    3    0    0  0.15561275477E+03  0.32263877517E+02  0.27826196904E+02  0.16133996552E+03  0.00000000000E+00 0. -1.
<mgrwt>
<rscale>  0 0.24705725E+03</rscale>
<asrwt>0</asrwt>
<pdfrwt beam="1">  1        2 0.67596470E-01 0.25084478E+03</pdfrwt>
<pdfrwt beam="2">  1       -2 0.25861745E-01 0.25084478E+03</pdfrwt>
<totfact> 0.96409806E+02</totfact>
</mgrwt>
</event>
<event>
 7    1  0.1020736E-005  0.1698410E+03  0.7546771E-02  0.1178449E+00
         -1   -1    0    0    0  501 -0.00000000000E+00  0.00000000000E+00  0.46831377429E+02  0.46831377429E+02  0.00000000000E+00 0.  1.
          1   -1    0    0  501    0  0.00000000000E+00 -0.00000000000E+00 -0.65822073236E+03  0.65822073236E+03  0.00000000000E+00 0. -1.
         23    2    1    2    0    0  0.10385021744E+03 -0.43290580085E+02 -0.21161946449E+03  0.27134617838E+03  0.12722817608E+03 0.  0.
          5    1    1    2  502    0 -0.24971388369E+02 -0.19001933671E+02 -0.13388777946E+02  0.34438250466E+02  0.47000000000E+01 0. -1.
         -5    1    1    2    0  502 -0.78878829071E+02  0.62292513756E+02 -0.38638111250E+03  0.39926768094E+03  0.47000000000E+01 0. -1.
        -11    1    3    3    0    0  0.20937486073E+02 -0.72748105494E+02 -0.13451422268E+03  0.15435265233E+03  0.00000000000E+00 0.  1.
         11    1    3    3    0    0  0.82912731367E+02  0.29457525409E+02 -0.77105241802E+02  0.11699352606E+03  0.00000000000E+00 0. -1.
<mgrwt>
<rscale>  0 0.16942445E+03</rscale>
<asrwt>0</asrwt>
<pdfrwt beam="2">  1        1 0.10126473E+00 0.16984096E+03</pdfrwt>
<pdfrwt beam="1">  1       -1 0.72048272E-02 0.16984096E+03</pdfrwt>
<totfact> 0.30694448E+03</totfact>
</mgrwt>
</event>
<event>
 7    1  0.1020736E-005  0.1860164E+03  0.7546771E-02  0.1167815E+00
          2   -1    0    0  501    0  0.00000000000E+00  0.00000000000E+00  0.83086151027E+03  0.83086151027E+03  0.00000000000E+00 0.  1.
         -2   -1    0    0    0  501 -0.00000000000E+00 -0.00000000000E+00 -0.38222630358E+02  0.38222630358E+02  0.00000000000E+00 0. -1.
         23    2    1    2    0    0 -0.13027153549E+03 -0.44799336359E+02  0.28369756516E+03  0.32721389371E+03  0.87217946883E+02 0.  0.
          5    1    1    2  502    0  0.10303386797E+03 -0.26461299736E+02  0.24626717354E+03  0.26830167554E+03  0.47000000000E+01 0.  1.
         -5    1    1    2    0  502  0.27237667520E+02  0.71260636095E+02  0.26267414121E+03  0.27356857138E+03  0.47000000000E+01 0.  1.
        -11    1    3    3    0    0 -0.11974616950E+03 -0.29812486976E+01  0.21451579845E+03  0.24569302135E+03  0.00000000000E+00 0.  1.
         11    1    3    3    0    0 -0.10525365990E+02 -0.41818087661E+02  0.69181766707E+02  0.81520872356E+02  0.00000000000E+00 0. -1.
<mgrwt>
<rscale>  0 0.17998746E+03</rscale>
<asrwt>0</asrwt>
<pdfrwt beam="1">  1        2 0.12782483E+00 0.18601640E+03</pdfrwt>
<pdfrwt beam="2">  1       -2 0.58804053E-02 0.18601640E+03</pdfrwt>
<totfact> 0.50769123E+03</totfact>
</mgrwt>
</event>
<event>
 7    1  0.1020736E-005  0.1878033E+03  0.7546771E-02  0.1186816E+00
          2   -1    0    0  501    0  0.00000000000E+00  0.00000000000E+00  0.10037251028E+03  0.10037251028E+03  0.00000000000E+00 0. -1.
         -2   -1    0    0    0  501 -0.00000000000E+00 -0.00000000000E+00 -0.29057652759E+03  0.29057652759E+03  0.00000000000E+00 0.  1.
         23    2    1    2    0    0  0.21737422328E+02 -0.46071316954E+02 -0.17421857818E+03  0.20246667056E+03  0.89697034113E+02 0.  0.
          5    1    1    2  502    0 -0.20325913928E+02 -0.65904272775E+02  0.17866065580E+02  0.71398895274E+02  0.47000000000E+01 0. -1.
         -5    1    1    2    0  502 -0.14115083998E+01  0.11197558973E+03 -0.33851504706E+02  0.11708347203E+03  0.47000000000E+01 0.  1.
        -11    1    3    3    0    0  0.50244246913E+02 -0.53287402465E+02 -0.11485979989E+03  0.13622336525E+03  0.00000000000E+00 0.  1.
         11    1    3    3    0    0 -0.28506824585E+02  0.72160855117E+01 -0.59358778289E+02  0.66243305307E+02  0.00000000000E+00 0. -1.
<mgrwt>
<rscale>  0 0.16167703E+03</rscale>
<asrwt>0</asrwt>
<pdfrwt beam="1">  1        2 0.15441925E-01 0.18780327E+03</pdfrwt>
<pdfrwt beam="2">  1       -2 0.44704080E-01 0.18780327E+03</pdfrwt>
<totfact> 0.17785442E+03</totfact>
</mgrwt>
</event>
<event>
 7    1  0.1020736E-005  0.2258175E+03  0.7546771E-02  0.1129619E+00
         -3   -1    0    0    0  501 -0.00000000000E+00  0.00000000000E+00  0.40031068831E+03  0.40031068831E+03  0.00000000000E+00 0.  1.
          3   -1    0    0  501    0  0.00000000000E+00 -0.00000000000E+00 -0.31846220223E+02  0.31846220223E+02  0.00000000000E+00 0. -1.
         23    2    1    2    0    0  0.17402976565E+02 -0.17607928951E+02  0.19483528321E+03  0.21678908402E+03  0.91781352183E+02 0.  0.
          5    1    1    2  502    0 -0.43607865648E+02  0.45467155811E+02  0.36572306984E+02  0.72996793368E+02  0.47000000000E+01 0.  1.
         -5    1    1    2    0  502  0.26204889083E+02 -0.27859226861E+02  0.13705687789E+03  0.14237103115E+03  0.47000000000E+01 0.  1.
        -11    1    3    3    0    0 -0.33412221237E+02 -0.71512451611E+00  0.12131600515E+03  0.12583505488E+03  0.00000000000E+00 0.  1.
         11    1    3    3    0    0  0.50815197802E+02 -0.16892804435E+02  0.73519278067E+02  0.90954029140E+02  0.00000000000E+00 0. -1.
<mgrwt>
<rscale>  0 0.22581747E+03</rscale>
<asrwt>0</asrwt>
<pdfrwt beam="2">  1        3 0.48994188E-02 0.22581747E+03</pdfrwt>
<pdfrwt beam="1">  1       -3 0.61586256E-01 0.22581747E+03</pdfrwt>
<totfact> 0.15259107E+03</totfact>
</mgrwt>
</event>
<event>
 7    1  0.1020736E-005  0.1430478E+03  0.7546771E-02  0.1219439E+00
          2   -1    0    0  501    0  0.00000000000E+00  0.00000000000E+00  0.35296999085E+02  0.35296999085E+02  0.00000000000E+00 0. -1.
         -2   -1    0    0    0  501 -0.00000000000E+00 -0.00000000000E+00 -0.48377416836E+03  0.48377416836E+03  0.00000000000E+00 0.  1.
         23    2    1    2    0    0 -0.61455518411E+02 -0.32541088938E+02 -0.23941547279E+03  0.26575425242E+03  0.92031792646E+02 0.  0.
          5    1    1    2  502    0  0.86690792835E+02 -0.41261243101E+01 -0.18018055101E+03  0.20004859267E+03  0.47000000000E+01 0. -1.
         -5    1    1    2    0  502 -0.25235274424E+02  0.36667213248E+02 -0.28881145471E+02  0.53268322353E+02  0.47000000000E+01 0. -1.
        -11    1    3    3    0    0 -0.23435978775E+02  0.46424707176E+01 -0.37754292216E+01  0.24187837880E+02  0.00000000000E+00 0. -1.
         11    1    3    3    0    0 -0.38019539637E+02 -0.37183559655E+02 -0.23564004357E+03  0.24156641454E+03  0.00000000000E+00 0.  1.
<mgrwt>
<rscale>  0 0.13555482E+03</rscale>
<asrwt>0</asrwt>
<pdfrwt beam="1">  1        2 0.54303074E-02 0.14304778E+03</pdfrwt>
<pdfrwt beam="2">  1       -2 0.74426797E-01 0.14304778E+03</pdfrwt>
<totfact> 0.22661704E+03</totfact>
</mgrwt>
</event>
<event>
 7    1  0.1020736E-005  0.1464685E+03  0.7546771E-02  0.1224467E+00
         -3   -1    0    0    0  501 -0.00000000000E+00  0.00000000000E+00  0.27974645989E+02  0.27974645989E+02  0.00000000000E+00 0.  1.
          3   -1    0    0  501    0  0.00000000000E+00 -0.00000000000E+00 -0.10083817234E+04  0.10083817234E+04  0.00000000000E+00 0. -1.
         23    2    1    2    0    0 -0.24716360527E+01  0.29150906914E+02 -0.84131096106E+02  0.12819138184E+03  0.92190588924E+02 0.  0.
          5    1    1    2  502    0  0.34938425761E+02 -0.79037350139E+02 -0.50571178732E+03  0.51306344456E+03  0.47000000000E+01 0. -1.
         -5    1    1    2    0  502 -0.32466789708E+02  0.49886443224E+02 -0.39056419398E+03  0.39510154299E+03  0.47000000000E+01 0.  1.
        -11    1    3    3    0    0  0.28245053863E+02  0.38639510493E+02 -0.83253049215E+02  0.96030542238E+02  0.00000000000E+00 0. -1.
         11    1    3    3    0    0 -0.30716689916E+02 -0.94886035791E+01 -0.87804689083E+00  0.32160839597E+02  0.00000000000E+00 0.  1.
<mgrwt>
<rscale>  0 0.13203483E+03</rscale>
<asrwt>0</asrwt>
<pdfrwt beam="2">  1        3 0.15513565E+00 0.14646846E+03</pdfrwt>
<pdfrwt beam="1">  1       -3 0.43037918E-02 0.14646846E+03</pdfrwt>
<totfact> 0.21586110E+02</totfact>
</mgrwt>
</event>
<event>
 7    1  0.1020736E-005  0.2828840E+03  0.7546771E-02  0.1095902E+00
         -2   -1    0    0    0  501 -0.00000000000E+00  0.00000000000E+00  0.14342000096E+03  0.14342000096E+03  0.00000000000E+00 0.  1.
          2   -1    0    0  501    0  0.00000000000E+00 -0.00000000000E+00 -0.53345129381E+03  0.53345129381E+03  0.00000000000E+00 0. -1.
         23    2    1    2    0    0 -0.23943126970E+03 -0.84087722529E+02 -0.20159586975E+03  0.33697236099E+03  0.92257245667E+02 0.  0.
          5    1    1    2  502    0  0.31967095981E+02  0.24419120557E+00 -0.89570935065E+02  0.95220781677E+02  0.47000000000E+01 0.  1.
         -5    1    1    2    0  502  0.20746417372E+03  0.83843531324E+02 -0.98864488029E+02  0.24467815210E+03  0.47000000000E+01 0.  1.
        -11    1    3    3    0    0 -0.15150324325E+03 -0.96649557947E+02 -0.11789185935E+03  0.21492524344E+03  0.00000000000E+00 0.  1.
         11    1    3    3    0    0 -0.87928026452E+02  0.12561835417E+02 -0.83704010399E+02  0.12204711755E+03  0.00000000000E+00 0. -1.
<mgrwt>
<rscale>  0 0.27961105E+03</rscale>
<asrwt>0</asrwt>
<pdfrwt beam="2">  1        2 0.82069430E-01 0.28288403E+03</pdfrwt>
<pdfrwt beam="1">  1       -2 0.22064616E-01 0.28288403E+03</pdfrwt>
<totfact> 0.10265899E+03</totfact>
</mgrwt>
</event>
<event>
 7    1  0.1020736E-005  0.1716424E+03  0.7546771E-02  0.1182424E+00
         -1   -1    0    0    0  501 -0.00000000000E+00  0.00000000000E+00  0.46090748180E+02  0.46090748180E+02  0.00000000000E+00 0.  1.
          1   -1    0    0  501    0  0.00000000000E+00 -0.00000000000E+00 -0.69806139865E+03  0.69806139865E+03  0.00000000000E+00 0. -1.
         23    2    1    2    0    0  0.13190279746E+02 -0.11680075393E+03 -0.14113247523E+03  0.20524885663E+03  0.91609595490E+02 0.  0.
          5    1    1    2  502    0 -0.21573461577E+02  0.30875537116E+02 -0.38115516612E+03  0.38304055098E+03  0.47000000000E+01 0. -1.
         -5    1    1    2    0  502  0.83831818305E+01  0.85925216812E+02 -0.12968300912E+03  0.15586273921E+03  0.47000000000E+01 0. -1.
        -11    1    3    3    0    0 -0.32849054789E+02 -0.80333302431E+02 -0.61813493867E+02  0.10655237165E+03  0.00000000000E+00 0.  1.
         11    1    3    3    0    0  0.46039334536E+02 -0.36467451497E+02 -0.79318981368E+02  0.98696484985E+02  0.00000000000E+00 0. -1.
<mgrwt>
<rscale>  0 0.16568526E+03</rscale>
<asrwt>0</asrwt>
<pdfrwt beam="2">  1        1 0.10739406E+00 0.17164240E+03</pdfrwt>
<pdfrwt beam="1">  1       -1 0.70908843E-02 0.17164240E+03</pdfrwt>
<totfact> 0.28923675E+03</totfact>
</mgrwt>
</event>
<event>
 7    1  0.1020736E-005  0.1566879E+03  0.7546771E-02  0.1200295E+00
         -2   -1    0    0    0  501 -0.00000000000E+00  0.00000000000E+00  0.14326132908E+03  0.14326132908E+03  0.00000000000E+00 0.  1.
          2   -1    0    0  501    0  0.00000000000E+00 -0.00000000000E+00 -0.19723571700E+03  0.19723571700E+03  0.00000000000E+00 0. -1.
         23    2    1    2    0    0  0.59509892131E+02  0.73369941315E+02  0.61629284581E+02  0.14577848686E+03  0.92350543926E+02 0.  0.
          5    1    1    2  502    0 -0.52491155859E+02 -0.97847216432E+02 -0.12491798469E+03  0.16720045486E+03  0.47000000000E+01 0. -1.
         -5    1    1    2    0  502 -0.70187362716E+01  0.24477275117E+02  0.93143121897E+01  0.27518104360E+02  0.47000000000E+01 0. -1.
        -11    1    3    3    0    0 -0.11707935910E+02  0.31905873287E+02  0.52943170042E+02  0.62912953893E+02  0.00000000000E+00 0.  1.
         11    1    3    3    0    0  0.71217828040E+02  0.41464068028E+02  0.86861145389E+01  0.82865532968E+02  0.00000000000E+00 0. -1.
<mgrwt>
<rscale>  0 0.15014506E+03</rscale>
<asrwt>0</asrwt>
<pdfrwt beam="2">  1        2 0.30343956E-01 0.15668793E+03</pdfrwt>
<pdfrwt beam="1">  1       -2 0.22040205E-01 0.15668793E+03</pdfrwt>
<totfact> 0.29908839E+03</totfact>
</mgrwt>
</event>
<event>
 7    1  0.1020736E-005  0.1660251E+03  0.7546771E-02  0.1189418E+00
         -3   -1    0    0    0  501 -0.00000000000E+00  0.00000000000E+00  0.48177413762E+02  0.48177413762E+02  0.00000000000E+00 0.  1.
          3   -1    0    0  501    0  0.00000000000E+00 -0.00000000000E+00 -0.49900456669E+03  0.49900456669E+03  0.00000000000E+00 0. -1.
         23    2    1    2    0    0  0.45066869009E+02  0.99539012864E+02 -0.16865371525E+03  0.21978897284E+03  0.89017296922E+02 0.  0.
          5    1    1    2  502    0 -0.64298572046E+02 -0.10352764934E+03 -0.28194889666E+03  0.30719627418E+03  0.47000000000E+01 0.  1.
         -5    1    1    2    0  502  0.19231703036E+02  0.39886364792E+01 -0.22454102745E+00  0.20196733432E+02  0.47000000000E+01 0.  1.
        -11    1    3    3    0    0  0.59627711733E+02  0.72591743274E+02 -0.16373043255E+03  0.18876620392E+03  0.00000000000E+00 0. -1.
         11    1    3    3    0    0 -0.14560842724E+02  0.26947269590E+02 -0.49232826967E+01  0.31022768924E+02  0.00000000000E+00 0.  1.
<mgrwt>
<rscale>  0 0.15936254E+03</rscale>
<asrwt>0</asrwt>
<pdfrwt beam="2">  1        3 0.76769928E-01 0.16602510E+03</pdfrwt>
<pdfrwt beam="1">  1       -3 0.74119103E-02 0.16602510E+03</pdfrwt>
<totfact> 0.47093093E+02</totfact>
</mgrwt>
</event>
<event>
 7    1  0.1020736E-005  0.1374231E+03  0.7546771E-02  0.1228599E+00
         -2   -1    0    0    0  501 -0.00000000000E+00  0.00000000000E+00  0.16263439046E+02  0.16263439046E+02  0.00000000000E+00 0.  1.
          2   -1    0    0  501    0  0.00000000000E+00 -0.00000000000E+00 -0.10267396954E+04  0.10267396954E+04  0.00000000000E+00 0. -1.
         23    2    1    2    0    0  0.10356714350E+02 -0.56162832397E+02 -0.28426239191E+03  0.30390119361E+03  0.91045608062E+02 0.  0.
          5    1    1    2  502    0  0.31885678891E+02  0.99591529910E+01 -0.56633666923E+03  0.56734045701E+03  0.47000000000E+01 0.  1.
         -5    1    1    2    0  502 -0.42242393240E+02  0.46203679406E+02 -0.15987719523E+03  0.17176148385E+03  0.47000000000E+01 0.  1.
        -11    1    3    3    0    0 -0.29098741289E+02 -0.11666860094E+02 -0.18912680076E+03  0.19170758758E+03  0.00000000000E+00 0. -1.
         11    1    3    3    0    0  0.39455455638E+02 -0.44495972303E+02 -0.95135591148E+02  0.11219360603E+03  0.00000000000E+00 0.  1.
<mgrwt>
<rscale>  0 0.12923239E+03</rscale>
<asrwt>0</asrwt>
<pdfrwt beam="2">  1        2 0.15795993E+00 0.13742308E+03</pdfrwt>
<pdfrwt beam="1">  1       -2 0.25020679E-02 0.13742308E+03</pdfrwt>
<totfact> 0.13485187E+04</totfact>
</mgrwt>
</event>
<event>
 7    1  0.1020736E-005  0.2111547E+03  0.7546771E-02  0.1142924E+00
         -1   -1    0    0    0  501 -0.00000000000E+00  0.00000000000E+00  0.10892586755E+03  0.10892586755E+03  0.00000000000E+00 0.  1.
          1   -1    0    0  501    0  0.00000000000E+00 -0.00000000000E+00 -0.46980743617E+03  0.46980743617E+03  0.00000000000E+00 0. -1.
         23    2    1    2    0    0 -0.55813948901E+02 -0.16076390271E+03 -0.55580321354E+02  0.20752560188E+03  0.10496415582E+03 0.  0.
          5    1    1    2  502    0  0.62469687301E+02  0.15852247725E+03 -0.31511213119E+03  0.35825910017E+03  0.47000000000E+01 0.  1.
         -5    1    1    2    0  502 -0.66557383997E+01  0.22414254583E+01  0.98108839257E+01  0.12948601667E+02  0.47000000000E+01 0.  1.
        -11    1    3    3    0    0 -0.84271153048E+01 -0.15128735248E+03 -0.39354795525E+02  0.15654928688E+03  0.00000000000E+00 0.  1.
         11    1    3    3    0    0 -0.47386833597E+02 -0.94765502358E+01 -0.16225525829E+02  0.50976315001E+02  0.00000000000E+00 0. -1.
<mgrwt>
<rscale>  0 0.20829449E+03</rscale>
<asrwt>0</asrwt>
<pdfrwt beam="2">  1        1 0.72278068E-01 0.21115470E+03</pdfrwt>
<pdfrwt beam="1">  1       -1 0.16757826E-01 0.21115470E+03</pdfrwt>
<totfact> 0.13163612E+03</totfact>
</mgrwt>
</event>
<event>
 7    1  0.1020736E-005  0.1461451E+03  0.7546771E-02  0.1214328E+00
          2   -1    0    0  501    0  0.00000000000E+00  0.00000000000E+00  0.34602767513E+03  0.34602767513E+03  0.00000000000E+00 0.  1.
         -2   -1    0    0    0  501 -0.00000000000E+00 -0.00000000000E+00 -0.51459012159E+02  0.51459012159E+02  0.00000000000E+00 0. -1.
         23    2    1    2    0    0  0.66345347367E+02  0.36498496842E+02  0.14159558260E+03  0.18592310795E+03  0.93724317390E+02 0.  0.
          5    1    1    2  502    0  0.18619664886E+01  0.89513050425E+01  0.12411758624E+03  0.12454259511E+03  0.47000000000E+01 0.  1.
         -5    1    1    2    0  502 -0.68207313856E+02 -0.45449801884E+02  0.28855494128E+02  0.87020984229E+02  0.47000000000E+01 0.  1.
        -11    1    3    3    0    0  0.50263218474E+02 -0.19211880282E+02  0.10317617723E+03  0.11636499054E+03  0.00000000000E+00 0.  1.
         11    1    3    3    0    0  0.16082128894E+02  0.55710377124E+02  0.38419405364E+02  0.69558117409E+02  0.00000000000E+00 0. -1.
<mgrwt>
<rscale>  0 0.13926015E+03</rscale>
<asrwt>0</asrwt>
<pdfrwt beam="1">  1        2 0.53235026E-01 0.14614508E+03</pdfrwt>
<pdfrwt beam="2">  1       -2 0.79167713E-02 0.14614508E+03</pdfrwt>
<totfact> 0.85914807E+03</totfact>
</mgrwt>
</event>
<event>
 7    1  0.1020736E-005  0.1364335E+03  0.7546771E-02  0.1230150E+00
          2   -1    0    0  501    0  0.00000000000E+00  0.00000000000E+00  0.59848880386E+03  0.59848880386E+03  0.00000000000E+00 0. -1.
         -2   -1    0    0    0  501 -0.00000000000E+00 -0.00000000000E+00 -0.28199654775E+02  0.28199654775E+02  0.00000000000E+00 0.  1.
         23    2    1    2    0    0 -0.34384950850E+02 -0.42521074679E+02  0.14349656650E+03  0.17861926861E+03  0.91231638619E+02 0.  0.
          5    1    1    2  502    0  0.21522748934E+02 -0.32533978363E+01  0.38177232586E+03  0.38242124956E+03  0.47000000000E+01 0. -1.
         -5    1    1    2    0  502  0.12862201915E+02  0.45774472516E+02  0.45020256729E+02  0.65647940472E+02  0.47000000000E+01 0. -1.
        -11    1    3    3    0    0 -0.10666996493E+02 -0.13524346262E+01 -0.11949089771E+02  0.16074658316E+02  0.00000000000E+00 0.  1.
         11    1    3    3    0    0 -0.23717954356E+02 -0.41168640053E+02  0.15544565627E+03  0.16254461029E+03  0.00000000000E+00 0. -1.
<mgrwt>
<rscale>  0 0.12820078E+03</rscale>
<asrwt>0</asrwt>
<pdfrwt beam="1">  1        2 0.92075191E-01 0.13643347E+03</pdfrwt>
<pdfrwt beam="2">  1       -2 0.43384089E-02 0.13643347E+03</pdfrwt>
<totfact> 0.11717587E+04</totfact>
</mgrwt>
</event>
<event>
 7    1  0.1020736E-005  0.1514588E+03  0.7546771E-02  0.1207534E+00
         -1   -1    0    0    0  501 -0.00000000000E+00  0.00000000000E+00  0.42978810751E+02  0.42978810751E+02  0.00000000000E+00 0.  1.
          1   -1    0    0  501    0  0.00000000000E+00 -0.00000000000E+00 -0.44568265892E+03  0.44568265892E+03  0.00000000000E+00 0. -1.
         23    2    1    2    0    0  0.80013288381E+02 -0.30212223643E+02 -0.17245999663E+03  0.21306758148E+03  0.91326004325E+02 0.  0.
          5    1    1    2  502    0 -0.45706337091E+02  0.18425844758E+02 -0.23366917506E+03  0.23885550941E+03  0.47000000000E+01 0. -1.
         -5    1    1    2    0  502 -0.34306951290E+02  0.11786378884E+02  0.34253235163E+01  0.36738378777E+02  0.47000000000E+01 0. -1.
        -11    1    3    3    0    0  0.61100112830E+02 -0.44329223530E+02 -0.55355159952E+02  0.93608213207E+02  0.00000000000E+00 0.  1.
         11    1    3    3    0    0  0.18913175551E+02  0.14116999887E+02 -0.11710483668E+03  0.11945936827E+03  0.00000000000E+00 0. -1.
<mgrwt>
<rscale>  0 0.14439550E+03</rscale>
<asrwt>0</asrwt>
<pdfrwt beam="2">  1        1 0.68566558E-01 0.15145877E+03</pdfrwt>
<pdfrwt beam="1">  1       -1 0.66121252E-02 0.15145877E+03</pdfrwt>
<totfact> 0.58575086E+03</totfact>
</mgrwt>
</event>
<event>
 7    1  0.1020736E-005  0.1359957E+03  0.7546771E-02  0.1230893E+00
          1   -1    0    0  501    0  0.00000000000E+00  0.00000000000E+00  0.53639635430E+03  0.53639635430E+03  0.00000000000E+00 0. -1.
         -1   -1    0    0    0  501 -0.00000000000E+00 -0.00000000000E+00 -0.28175490654E+02  0.28175490654E+02  0.00000000000E+00 0.  1.
         23    2    1    2    0    0  0.33665986720E+02 -0.41673342559E+02  0.17235418816E+03  0.20221668538E+03  0.91189667883E+02 0.  0.
          5    1    1    2  502    0 -0.52715790491E+02  0.32421990108E+02  0.33494063920E+03  0.34064271869E+03  0.47000000000E+01 0.  1.
         -5    1    1    2    0  502  0.19049803771E+02  0.92513524502E+01  0.92603628856E+00  0.21712440883E+02  0.47000000000E+01 0.  1.
        -11    1    3    3    0    0  0.31200012560E+02 -0.38393814265E+01  0.15890995487E+03  0.16198936814E+03  0.00000000000E+00 0. -1.
         11    1    3    3    0    0  0.24659741602E+01 -0.37833961132E+02  0.13444233285E+02  0.40227317238E+02  0.00000000000E+00 0.  1.
<mgrwt>
<rscale>  0 0.12771046E+03</rscale>
<asrwt>0</asrwt>
<pdfrwt beam="1">  1        1 0.82522509E-01 0.13599573E+03</pdfrwt>
<pdfrwt beam="2">  1       -1 0.43346913E-02 0.13599573E+03</pdfrwt>
<totfact> 0.85618489E+03</totfact>
</mgrwt>
</event>
<event>
 7    1  0.1020736E-005  0.1295597E+03  0.7546771E-02  0.1241222E+00
          2   -1    0    0  501    0  0.00000000000E+00  0.00000000000E+00  0.48315866830E+03  0.48315866830E+03  0.00000000000E+00 0. -1.
         -2   -1    0    0    0  501 -0.00000000000E+00 -0.00000000000E+00 -0.27132735524E+02  0.27132735524E+02  0.00000000000E+00 0.  1.
         23    2    1    2    0    0  0.31953268057E+02 -0.11773497404E+02  0.18279955923E+03  0.20790363956E+03  0.92997945719E+02 0.  0.
          5    1    1    2  502    0 -0.64046115093E+02 -0.34406139062E+02  0.16362243638E+03  0.17910912581E+03  0.47000000000E+01 0.  1.
         -5    1    1    2    0  502  0.32092847036E+02  0.46179636466E+02  0.10960393717E+03  0.12327863845E+03  0.47000000000E+01 0.  1.
        -11    1    3    3    0    0  0.49457907860E+02  0.25531971512E+02  0.12584987951E+03  0.13760871481E+03  0.00000000000E+00 0. -1.
         11    1    3    3    0    0 -0.17504639803E+02 -0.37305468916E+02  0.56949679721E+02  0.70294924752E+02  0.00000000000E+00 0.  1.
<mgrwt>
<rscale>  0 0.12114383E+03</rscale>
<asrwt>0</asrwt>
<pdfrwt beam="1">  1        2 0.74332096E-01 0.12955967E+03</pdfrwt>
<pdfrwt beam="2">  1       -2 0.41742674E-02 0.12955967E+03</pdfrwt>
<totfact> 0.15683651E+04</totfact>
</mgrwt>
</event>
<event>
 7    1  0.1020736E-005  0.1350047E+03  0.7546771E-02  0.1232491E+00
          1   -1    0    0  501    0  0.00000000000E+00  0.00000000000E+00  0.29356818963E+03  0.29356818963E+03  0.00000000000E+00 0. -1.
         -1   -1    0    0    0  501 -0.00000000000E+00 -0.00000000000E+00 -0.56124362530E+02  0.56124362530E+02  0.00000000000E+00 0.  1.
         23    2    1    2    0    0 -0.86363193162E+01  0.50319500750E+02  0.43288140900E+02  0.11321274519E+03  0.91305116858E+02 0.  0.
          5    1    1    2  502    0 -0.58460091407E+01 -0.36086696624E+02 -0.41417802913E+01  0.37090023457E+02  0.47000000000E+01 0. -1.
         -5    1    1    2    0  502  0.14482328457E+02 -0.14232804126E+02  0.19829746649E+03  0.19938978351E+03  0.47000000000E+01 0. -1.
        -11    1    3    3    0    0 -0.27554136056E+02  0.71151899916E+02  0.34447271754E+02  0.83716413007E+02  0.00000000000E+00 0.  1.
         11    1    3    3    0    0  0.18917816740E+02 -0.20832399166E+02  0.88408691452E+01  0.29496332186E+02  0.00000000000E+00 0. -1.
<mgrwt>
<rscale>  0 0.12666453E+03</rscale>
<asrwt>0</asrwt>
<pdfrwt beam="1">  1        1 0.45164336E-01 0.13500470E+03</pdfrwt>
<pdfrwt beam="2">  1       -1 0.86345174E-02 0.13500470E+03</pdfrwt>
<totfact> 0.65706742E+03</totfact>
</mgrwt>
</event>
<event>
 7    1  0.1020736E-005  0.3470699E+03  0.7546771E-02  0.1064929E+00
         -2   -1    0    0    0  501 -0.00000000000E+00  0.00000000000E+00  0.17303466597E+03  0.17303466597E+03  0.00000000000E+00 0.  1.
          2   -1    0    0  501    0  0.00000000000E+00 -0.00000000000E+00 -0.85101678125E+03  0.85101678125E+03  0.00000000000E+00 0. -1.
         23    2    1    2    0    0 -0.11976722433E+03 -0.30080059199E+03 -0.10221675571E+03  0.35176933378E+03  0.92022904072E+02 0.  0.
          5    1    1    2  502    0  0.91626995793E+02  0.94599323771E+02 -0.29191024563E+03  0.32027834756E+03  0.47000000000E+01 0.  1.
         -5    1    1    2    0  502  0.28140228537E+02  0.20620126822E+03 -0.28385511395E+03  0.35200376588E+03  0.47000000000E+01 0.  1.
        -11    1    3    3    0    0 -0.12018247269E+03 -0.18541298429E+03 -0.60743123004E+02  0.22915394057E+03  0.00000000000E+00 0.  1.
         11    1    3    3    0    0  0.41524836336E+00 -0.11538760771E+03 -0.41473632706E+02  0.12261539321E+03  0.00000000000E+00 0. -1.
<mgrwt>
<rscale>  0 0.34441992E+03</rscale>
<asrwt>0</asrwt>
<pdfrwt beam="2">  1        2 0.13092566E+00 0.34706986E+03</pdfrwt>
<pdfrwt beam="1">  1       -2 0.26620718E-01 0.34706986E+03</pdfrwt>
<totfact> 0.41604031E+02</totfact>
</mgrwt>
</event>
<event>
 7    1  0.1020736E-005  0.1478190E+03  0.7546771E-02  0.1207431E+00
          1   -1    0    0  501    0  0.00000000000E+00  0.00000000000E+00  0.20685235579E+03  0.20685235579E+03  0.00000000000E+00 0. -1.
         -1   -1    0    0    0  501 -0.00000000000E+00 -0.00000000000E+00 -0.97226118815E+02  0.97226118815E+02  0.00000000000E+00 0.  1.
         23    2    1    2    0    0 -0.78481764880E+02 -0.81468359423E+01  0.64541922291E+02  0.14953705645E+03  0.10940709833E+03 0.  0.
          5    1    1    2  502    0  0.71320991120E+01 -0.52225271607E+02  0.64998296885E+01  0.53316823031E+02  0.47000000000E+01 0.  1.
         -5    1    1    2    0  502  0.71349665768E+02  0.60372107549E+02  0.38584484995E+02  0.10122459512E+03  0.47000000000E+01 0.  1.
        -11    1    3    3    0    0 -0.30782271211E+02  0.31009001646E+02  0.75140978419E+02  0.86921073634E+02  0.00000000000E+00 0. -1.
         11    1    3    3    0    0 -0.47699493669E+02 -0.39155837589E+02 -0.10599056128E+02  0.62615982819E+02  0.00000000000E+00 0.  1.
<mgrwt>
<rscale>  0 0.14447533E+03</rscale>
<asrwt>0</asrwt>
<pdfrwt beam="1">  1        1 0.31823439E-01 0.14781899E+03</pdfrwt>
<pdfrwt beam="2">  1       -1 0.14957865E-01 0.14781899E+03</pdfrwt>
<totfact> 0.43729288E+03</totfact>
</mgrwt>
</event>
<event>
 7    1  0.1020736E-005  0.1346179E+03  0.7546771E-02  0.1225520E+00
         -1   -1    0    0    0  501 -0.00000000000E+00  0.00000000000E+00  0.12251760848E+03  0.12251760848E+03  0.00000000000E+00 0.  1.
          1   -1    0    0  501    0  0.00000000000E+00 -0.00000000000E+00 -0.17527716712E+03  0.17527716712E+03  0.00000000000E+00 0. -1.
         23    2    1    2    0    0 -0.49393807796E+02 -0.76534662945E+01  0.46597221664E+02  0.13048142288E+03  0.11115654212E+03 0.  0.
          5    1    1    2  502    0  0.10727324167E+02  0.41194078757E+02  0.12160640109E+02  0.44519644836E+02  0.47000000000E+01 0. -1.
         -5    1    1    2    0  502  0.38666483629E+02 -0.33540612463E+02 -0.11151742041E+03  0.12279370788E+03  0.47000000000E+01 0. -1.
        -11    1    3    3    0    0 -0.99511072059E+01 -0.45362647640E+02 -0.14414671400E+02  0.48626917310E+02  0.00000000000E+00 0. -1.
         11    1    3    3    0    0 -0.39442700590E+02  0.37709181345E+02  0.61011893063E+02  0.81854505574E+02  0.00000000000E+00 0.  1.
<mgrwt>
<rscale>  0 0.13131308E+03</rscale>
<asrwt>0</asrwt>
<pdfrwt beam="2">  1        1 0.26965718E-01 0.13461793E+03</pdfrwt>
<pdfrwt beam="1">  1       -1 0.18848863E-01 0.13461793E+03</pdfrwt>
<totfact> 0.37097516E+03</totfact>
</mgrwt>
</event>
<event>
 7    1  0.1020736E-005  0.3713360E+03  0.7546771E-02  0.1055204E+00
          4   -1    0    0  501    0  0.00000000000E+00  0.00000000000E+00  0.45928025222E+03  0.45928025222E+03  0.00000000000E+00 0.  1.
         -4   -1    0    0    0  501 -0.00000000000E+00 -0.00000000000E+00 -0.44645191392E+03  0.44645191392E+03  0.00000000000E+00 0. -1.
         23    2    1    2    0    0  0.28118865003E+03  0.20786711731E+03 -0.26021046923E+03  0.44481932157E+03  0.88763422507E+02 0.  0.
          5    1    1    2  502    0 -0.21250366743E+03 -0.21435346693E+03  0.22937308242E+03  0.37912968546E+03  0.47000000000E+01 0.  1.
         -5    1    1    2    0  502 -0.68684982599E+02  0.64863496232E+01  0.43665725111E+02  0.81783159119E+02  0.47000000000E+01 0.  1.
        -11    1    3    3    0    0  0.20473806934E+03  0.98474848614E+02 -0.15833037470E+03  0.27691782247E+03  0.00000000000E+00 0. -1.
         11    1    3    3    0    0  0.76450580693E+02  0.10939226870E+03 -0.10188009453E+03  0.16790149910E+03  0.00000000000E+00 0.  1.
<mgrwt>
<rscale>  0 0.36866578E+03</rscale>
<asrwt>0</asrwt>
<pdfrwt beam="1">  1        4 0.70658501E-01 0.37133605E+03</pdfrwt>
<pdfrwt beam="2">  1       -4 0.68684909E-01 0.37133605E+03</pdfrwt>
<totfact> 0.68607156E+00</totfact>
</mgrwt>
</event>
<event>
 7    1  0.1020736E-005  0.1277876E+03  0.7546771E-02  0.1245193E+00
          1   -1    0    0  501    0  0.00000000000E+00  0.00000000000E+00  0.23186991346E+03  0.23186991346E+03  0.00000000000E+00 0. -1.
         -1   -1    0    0    0  501 -0.00000000000E+00 -0.00000000000E+00 -0.57973611407E+02  0.57973611407E+02  0.00000000000E+00 0.  1.
         23    2    1    2    0    0 -0.49191090509E+01  0.26092662226E+02  0.35981570186E+02  0.10182719949E+03  0.91482678731E+02 0.  0.
          5    1    1    2  502    0 -0.35525862425E+02 -0.46778862566E+02  0.12852573273E+03  0.14139060386E+03  0.47000000000E+01 0. -1.
         -5    1    1    2    0  502  0.40444971476E+02  0.20686200339E+02  0.93889991327E+01  0.46625721516E+02  0.47000000000E+01 0. -1.
        -11    1    3    3    0    0  0.30689496529E+02  0.34175941089E+02  0.44906956264E+02  0.64237643695E+02  0.00000000000E+00 0.  1.
         11    1    3    3    0    0 -0.35608605580E+02 -0.80832788627E+01 -0.89253860779E+01  0.37589555799E+02  0.00000000000E+00 0. -1.
<mgrwt>
<rscale>  0 0.11873861E+03</rscale>
<asrwt>0</asrwt>
<pdfrwt beam="1">  1        1 0.35672294E-01 0.12778758E+03</pdfrwt>
<pdfrwt beam="2">  1       -1 0.89190173E-02 0.12778758E+03</pdfrwt>
<totfact> 0.83401524E+03</totfact>
</mgrwt>
</event>
<event>
 7    1  0.1020736E-005  0.1866286E+03  0.7546771E-02  0.1166497E+00
         -2   -1    0    0    0  501 -0.00000000000E+00  0.00000000000E+00  0.27752691257E+02  0.27752691257E+02  0.00000000000E+00 0. -1.
          2   -1    0    0  501    0  0.00000000000E+00 -0.00000000000E+00 -0.14406394447E+04  0.14406394447E+04  0.00000000000E+00 0.  1.
         23    2    1    2    0    0  0.13547024539E+03 -0.29263164314E+02 -0.33048614072E+03  0.37002001911E+03  0.92115173357E+02 0.  0.
          5    1    1    2  502    0 -0.12815230819E+02 -0.42213876092E+02 -0.23543300048E+03  0.23957677098E+03  0.47000000000E+01 0. -1.
         -5    1    1    2    0  502 -0.12265501457E+03  0.71477040406E+02 -0.84696761222E+03  0.85879534585E+03  0.47000000000E+01 0. -1.
        -11    1    3    3    0    0  0.10747321847E+03  0.25529682396E+01 -0.29746207243E+03  0.31629210371E+03  0.00000000000E+00 0.  1.
         11    1    3    3    0    0  0.27997026918E+02 -0.31816132554E+02 -0.33024068296E+02  0.53727915405E+02  0.00000000000E+00 0. -1.
<mgrwt>
<rscale>  0 0.18135572E+03</rscale>
<asrwt>0</asrwt>
<pdfrwt beam="2">  1        2 0.22163681E+00 0.18662856E+03</pdfrwt>
<pdfrwt beam="1">  1       -2 0.42696454E-02 0.18662856E+03</pdfrwt>
<totfact> 0.36414112E+03</totfact>
</mgrwt>
</event>
<event>
 7    1  0.1020736E-005  0.1368090E+03  0.7546771E-02  0.1230716E+00
         -2   -1    0    0    0  501 -0.00000000000E+00  0.00000000000E+00  0.51138893680E+02  0.51138893680E+02  0.00000000000E+00 0.  1.
          2   -1    0    0  501    0  0.00000000000E+00 -0.00000000000E+00 -0.28438470240E+03  0.28438470240E+03  0.00000000000E+00 0. -1.
         23    2    1    2    0    0  0.49568321553E+02 -0.25211009583E+02 -0.10598103420E+03  0.14867330207E+03  0.88199533071E+02 0.  0.
          5    1    1    2  502    0  0.67809672334E+01 -0.44449753558E+02 -0.57802354033E+02  0.73382315579E+02  0.47000000000E+01 0. -1.
         -5    1    1    2    0  502 -0.56349288786E+02  0.69660763141E+02 -0.69462420487E+02  0.11346797843E+03  0.47000000000E+01 0. -1.
        -11    1    3    3    0    0  0.99327045447E+01  0.30895254125E+02 -0.18197470012E+02  0.37206494888E+02  0.00000000000E+00 0.  1.
         11    1    3    3    0    0  0.39635617008E+02 -0.56106263708E+02 -0.87783564185E+02  0.11146680718E+03  0.00000000000E+00 0. -1.
<mgrwt>
<rscale>  0 0.12782730E+03</rscale>
<asrwt>0</asrwt>
<pdfrwt beam="2">  1        2 0.43751493E-01 0.13680903E+03</pdfrwt>
<pdfrwt beam="1">  1       -2 0.78675221E-02 0.13680903E+03</pdfrwt>
<totfact> 0.10632803E+04</totfact>
</mgrwt>
</event>
<event>
 7    1  0.1020736E-005  0.1356124E+03  0.7546771E-02  0.1231354E+00
          1   -1    0    0  501    0  0.00000000000E+00  0.00000000000E+00  0.10594863128E+03  0.10594863128E+03  0.00000000000E+00 0. -1.
         -1   -1    0    0    0  501 -0.00000000000E+00 -0.00000000000E+00 -0.13911932489E+03  0.13911932489E+03  0.00000000000E+00 0.  1.
         23    2    1    2    0    0 -0.96458724074E+01 -0.51834292080E+02 -0.28256920675E+02  0.10936653914E+03  0.91557357037E+02 0.  0.
          5    1    1    2  502    0 -0.92131030118E+00  0.94590162726E+01  0.58005467524E+02  0.58966482549E+02  0.47000000000E+01 0. -1.
         -5    1    1    2    0  502  0.10567182709E+02  0.42375275807E+02 -0.62919240458E+02  0.76734934482E+02  0.47000000000E+01 0. -1.
        -11    1    3    3    0    0  0.15465085393E+02 -0.61181296382E+02 -0.45237318472E+02  0.77644928204E+02  0.00000000000E+00 0.  1.
         11    1    3    3    0    0 -0.25110957801E+02  0.93470043026E+01  0.16980397797E+02  0.31721610937E+02  0.00000000000E+00 0. -1.
<mgrwt>
<rscale>  0 0.12740756E+03</rscale>
<asrwt>0</asrwt>
<pdfrwt beam="1">  1        1 0.16299789E-01 0.13561242E+03</pdfrwt>
<pdfrwt beam="2">  1       -1 0.21402973E-01 0.13561242E+03</pdfrwt>
<totfact> 0.57291285E+03</totfact>
</mgrwt>
</event>
<event>
 7    1  0.1020736E-005  0.1526138E+03  0.7546771E-02  0.1206021E+00
         -2   -1    0    0    0  501 -0.00000000000E+00  0.00000000000E+00  0.21741138440E+03  0.21741138440E+03  0.00000000000E+00 0.  1.
          2   -1    0    0  501    0  0.00000000000E+00 -0.00000000000E+00 -0.29317056726E+03  0.29317056726E+03  0.00000000000E+00 0. -1.
         23    2    1    2    0    0  0.82012015633E+02 -0.30644749559E+02  0.17571626281E+03  0.21642063683E+03  0.91085759844E+02 0.  0.
          5    1    1    2  502    0  0.30070709430E+02  0.15417385231E+02 -0.30012398483E+02  0.45439821695E+02  0.47000000000E+01 0.  1.
         -5    1    1    2    0  502 -0.11208272506E+03  0.15227364328E+02 -0.22146304718E+03  0.24872149314E+03  0.47000000000E+01 0.  1.
        -11    1    3    3    0    0  0.39989623719E+02 -0.53789920173E+02  0.55625599086E+02  0.87101852972E+02  0.00000000000E+00 0. -1.
         11    1    3    3    0    0  0.42022391913E+02  0.23145170614E+02  0.12009066372E+03  0.12931878386E+03  0.00000000000E+00 0.  1.
<mgrwt>
<rscale>  0 0.14557281E+03</rscale>
<asrwt>0</asrwt>
<pdfrwt beam="2">  1        2 0.45103164E-01 0.15261382E+03</pdfrwt>
<pdfrwt beam="1">  1       -2 0.33447905E-01 0.15261382E+03</pdfrwt>
<totfact> 0.93141144E+02</totfact>
</mgrwt>
</event>
<event>
 7    1  0.1020736E-005  0.1253744E+03  0.7546771E-02  0.1249611E+00
         -3   -1    0    0    0  501 -0.00000000000E+00  0.00000000000E+00  0.20154873889E+03  0.20154873889E+03  0.00000000000E+00 0.  1.
          3   -1    0    0  501    0  0.00000000000E+00 -0.00000000000E+00 -0.59524440062E+02  0.59524440062E+02  0.00000000000E+00 0. -1.
         23    2    1    2    0    0 -0.60320290866E+01 -0.76206130386E+01  0.74817624487E+02  0.11882169358E+03  0.91795745076E+02 0.  0.
          5    1    1    2  502    0  0.47078722628E+02 -0.40065981062E+02  0.28546033679E+02  0.68254340532E+02  0.47000000000E+01 0. -1.
         -5    1    1    2    0  502 -0.41046693541E+02  0.47686594101E+02  0.38660640661E+02  0.73997144836E+02  0.47000000000E+01 0. -1.
        -11    1    3    3    0    0 -0.76285049392E+01  0.29057194421E+02 -0.54725219370E+01  0.30536259292E+02  0.00000000000E+00 0. -1.
         11    1    3    3    0    0  0.15964758525E+01 -0.36677807459E+02  0.80290146424E+02  0.88285434291E+02  0.00000000000E+00 0.  1.
<mgrwt>
<rscale>  0 0.11613618E+03</rscale>
<asrwt>0</asrwt>
<pdfrwt beam="2">  1        3 0.91576062E-02 0.12537443E+03</pdfrwt>
<pdfrwt beam="1">  1       -3 0.31007498E-01 0.12537443E+03</pdfrwt>
<totfact> 0.19486416E+03</totfact>
</mgrwt>
</event>
<event>
 7    1  0.1020736E-005  0.1424727E+03  0.7546771E-02  0.1220313E+00
         -2   -1    0    0    0  501 -0.00000000000E+00  0.00000000000E+00  0.37965860357E+02  0.37965860357E+02  0.00000000000E+00 0.  1.
          2   -1    0    0  501    0  0.00000000000E+00 -0.00000000000E+00 -0.46784061553E+03  0.46784061553E+03  0.00000000000E+00 0. -1.
         23    2    1    2    0    0 -0.15789041652E+01 -0.68337770973E+02 -0.12691258811E+03  0.17101619655E+03  0.92017338477E+02 0.  0.
          5    1    1    2  502    0 -0.59330924289E+02  0.20356675848E+02 -0.16300632604E+03  0.17472179360E+03  0.47000000000E+01 0.  1.
         -5    1    1    2    0  502  0.60909828454E+02  0.47981095125E+02 -0.13995584102E+03  0.16006848574E+03  0.47000000000E+01 0.  1.
        -11    1    3    3    0    0  0.26561715329E+02 -0.13643193707E+01 -0.21991722636E+01  0.26687496084E+02  0.00000000000E+00 0.  1.
         11    1    3    3    0    0 -0.28140619495E+02 -0.66973451602E+02 -0.12471341585E+03  0.14432870046E+03  0.00000000000E+00 0. -1.
<mgrwt>
<rscale>  0 0.13493417E+03</rscale>
<asrwt>0</asrwt>
<pdfrwt beam="2">  1        2 0.71975477E-01 0.14247265E+03</pdfrwt>
<pdfrwt beam="1">  1       -2 0.58409018E-02 0.14247265E+03</pdfrwt>
<totfact> 0.98810681E+03</totfact>
</mgrwt>
</event>
<event>
 7    1  0.1020736E-005  0.1303871E+03  0.7546771E-02  0.1240617E+00
         -2   -1    0    0    0  501 -0.00000000000E+00  0.00000000000E+00  0.13660875043E+03  0.13660875043E+03  0.00000000000E+00 0. -1.
          2   -1    0    0  501    0  0.00000000000E+00 -0.00000000000E+00 -0.11083084407E+03  0.11083084407E+03  0.00000000000E+00 0.  1.
         23    2    1    2    0    0  0.37005115659E+02 -0.26417582006E+01  0.56565820797E+02  0.11346683780E+03  0.91097056626E+02 0.  0.
          5    1    1    2  502    0 -0.57357184868E+02 -0.46544226953E+02 -0.38150366621E+01  0.74113805889E+02  0.47000000000E+01 0.  1.
         -5    1    1    2    0  502  0.20352069209E+02  0.49185985153E+02 -0.26972877781E+02  0.59858950813E+02  0.47000000000E+01 0.  1.
        -11    1    3    3    0    0  0.52348903822E+02 -0.65532909291E+01 -0.20027692964E+01  0.52795496382E+02  0.00000000000E+00 0.  1.
         11    1    3    3    0    0 -0.15343788164E+02  0.39115327285E+01  0.58568590094E+02  0.60671341415E+02  0.00000000000E+00 0. -1.
<mgrwt>
<rscale>  0 0.12151576E+03</rscale>
<asrwt>0</asrwt>
<pdfrwt beam="2">  1        2 0.17050899E-01 0.13038713E+03</pdfrwt>
<pdfrwt beam="1">  1       -2 0.21016731E-01 0.13038713E+03</pdfrwt>
<totfact> 0.61103744E+03</totfact>
</mgrwt>
</event>
<event>
 7    1  0.1020736E-005  0.1310127E+03  0.7546771E-02  0.1240784E+00
         -2   -1    0    0    0  501 -0.00000000000E+00  0.00000000000E+00  0.88632791012E+02  0.88632791012E+02  0.00000000000E+00 0.  1.
          2   -1    0    0  501    0  0.00000000000E+00 -0.00000000000E+00 -0.15570386973E+03  0.15570386973E+03  0.00000000000E+00 0. -1.
         23    2    1    2    0    0 -0.35794137784E+02 -0.15837358167E+02  0.11227697860E+01  0.96638572112E+02  0.88349933755E+02 0.  0.
          5    1    1    2  502    0 -0.31003707216E+02 -0.34184489921E+02 -0.33399987643E+02  0.57161686355E+02  0.47000000000E+01 0.  1.
         -5    1    1    2    0  502  0.66797845000E+02  0.50021848089E+02 -0.34793860858E+02  0.90536402272E+02  0.47000000000E+01 0.  1.
        -11    1    3    3    0    0 -0.15537522872E+02 -0.42692667989E+02  0.28185822411E+02  0.53465120424E+02  0.00000000000E+00 0.  1.
         11    1    3    3    0    0 -0.20256614912E+02  0.26855309821E+02 -0.27063052625E+02  0.43173451688E+02  0.00000000000E+00 0. -1.
<mgrwt>
<rscale>  0 0.12141304E+03</rscale>
<asrwt>0</asrwt>
<pdfrwt beam="2">  1        2 0.23954441E-01 0.13101269E+03</pdfrwt>
<pdfrwt beam="1">  1       -2 0.13635814E-01 0.13101269E+03</pdfrwt>
<totfact> 0.85280185E+03</totfact>
</mgrwt>
</event>
<event>
 7    1  0.1020736E-005  0.2406739E+03  0.7546771E-02  0.1155936E+00
         -2   -1    0    0    0  501 -0.00000000000E+00  0.00000000000E+00  0.43599269152E+02  0.43599269152E+02  0.00000000000E+00 0.  1.
          2   -1    0    0  501    0  0.00000000000E+00 -0.00000000000E+00 -0.66342324082E+03  0.66342324082E+03  0.00000000000E+00 0. -1.
         23    2    1    2    0    0 -0.32317087385E+02  0.22609204255E+02 -0.16760800374E+03  0.19474993410E+03  0.90991887895E+02 0.  0.
          5    1    1    2  502    0  0.29483662075E+02  0.63219720171E+02 -0.41099667755E+03  0.41690092145E+03  0.47000000000E+01 0. -1.
         -5    1    1    2    0  502  0.28334253098E+01 -0.85828924426E+02 -0.41219290380E+02  0.95371654419E+02  0.47000000000E+01 0.  1.
        -11    1    3    3    0    0  0.13368486848E+02  0.44998863363E+02 -0.64511079941E+02  0.79782789997E+02  0.00000000000E+00 0.  1.
         11    1    3    3    0    0 -0.45685574233E+02 -0.22389659108E+02 -0.10309692380E+03  0.11496714411E+03  0.00000000000E+00 0. -1.
<mgrwt>
<rscale>  0 0.19282752E+03</rscale>
<asrwt>0</asrwt>
<pdfrwt beam="2">  1        2 0.10206511E+00 0.24067387E+03</pdfrwt>
<pdfrwt beam="1">  1       -2 0.67075800E-02 0.24067387E+03</pdfrwt>
<totfact> 0.55275191E+03</totfact>
</mgrwt>
</event>
<event>
 7    1  0.1020736E-005  0.4001881E+03  0.7546771E-02  0.1043715E+00
          2   -1    0    0  501    0  0.00000000000E+00  0.00000000000E+00  0.22449401429E+03  0.22449401429E+03  0.00000000000E+00 0. -1.
         -2   -1    0    0    0  501 -0.00000000000E+00 -0.00000000000E+00 -0.17834611300E+03  0.17834611300E+03  0.00000000000E+00 0.  1.
         23    2    1    2    0    0 -0.77132820395E+02  0.95356340148E+02  0.29673420998E+02  0.15523265539E+03  0.90412177269E+02 0.  0.
          5    1    1    2  502    0 -0.20511784059E+02  0.34269998236E+02  0.66504106239E+02  0.77717772813E+02  0.47000000000E+01 0. -1.
         -5    1    1    2    0  502  0.97644604454E+02 -0.12962633838E+03 -0.50029625942E+02  0.16988969908E+03  0.47000000000E+01 0.  1.
        -11    1    3    3    0    0 -0.68012476113E+02  0.14485047738E+02  0.24338188617E+02  0.73674018080E+02  0.00000000000E+00 0. -1.
         11    1    3    3    0    0 -0.91203442819E+01  0.80871292410E+02  0.53352323818E+01  0.81558637314E+02  0.00000000000E+00 0.  1.
<mgrwt>
<rscale>  0 0.40018813E+03</rscale>
<asrwt>0</asrwt>
<pdfrwt beam="1">  1        2 0.34537541E-01 0.40018813E+03</pdfrwt>
<pdfrwt beam="2">  1       -2 0.27437864E-01 0.40018813E+03</pdfrwt>
<totfact> 0.18179454E+03</totfact>
</mgrwt>
</event>
<event>
 7    1  0.1020736E-005  0.1310870E+03  0.7546771E-02  0.1239585E+00
          4   -1    0    0  501    0  0.00000000000E+00  0.00000000000E+00  0.13904502309E+03  0.13904502309E+03  0.00000000000E+00 0. -1.
         -4   -1    0    0    0  501 -0.00000000000E+00 -0.00000000000E+00 -0.12003469723E+03  0.12003469723E+03  0.00000000000E+00 0.  1.
         23    2    1    2    0    0  0.23247042431E+02 -0.31918947319E+02 -0.50179334564E+02  0.11085349146E+03  0.90616150725E+02 0.  0.
          5    1    1    2  502    0 -0.18615308778E+02 -0.31200413981E+02 -0.17652939376E+02  0.40665855728E+02  0.47000000000E+01 0. -1.
         -5    1    1    2    0  502 -0.46317336533E+01  0.63119361299E+02  0.86842599800E+02  0.10756037313E+03  0.47000000000E+01 0. -1.
        -11    1    3    3    0    0  0.43295284676E+02  0.36293978143E+01 -0.54629095471E+02  0.69799658134E+02  0.00000000000E+00 0.  1.
         11    1    3    3    0    0 -0.20048242245E+02 -0.35548345133E+02  0.44497609069E+01  0.41053833328E+02  0.00000000000E+00 0. -1.
<mgrwt>
<rscale>  0 0.12215452E+03</rscale>
<asrwt>0</asrwt>
<pdfrwt beam="1">  1        4 0.21391542E-01 0.13108702E+03</pdfrwt>
<pdfrwt beam="2">  1       -4 0.18466876E-01 0.13108702E+03</pdfrwt>
<totfact> 0.85336982E+02</totfact>
</mgrwt>
</event>
<event>
 7    1  0.1020736E-005  0.2127968E+03  0.7546771E-02  0.1167729E+00
         -2   -1    0    0    0  501 -0.00000000000E+00  0.00000000000E+00  0.36490575022E+03  0.36490575022E+03  0.00000000000E+00 0.  1.
          2   -1    0    0  501    0  0.00000000000E+00 -0.00000000000E+00 -0.91597114146E+02  0.91597114146E+02  0.00000000000E+00 0. -1.
         23    2    1    2    0    0 -0.58854591377E+02  0.42398536386E+01  0.20633446214E+03  0.23341543315E+03  0.91798773850E+02 0.  0.
          5    1    1    2  502    0  0.13111158555E+02  0.67497721381E+02 -0.45050903636E+02  0.82337833277E+02  0.47000000000E+01 0. -1.
         -5    1    1    2    0  502  0.45743432821E+02 -0.71737575019E+02  0.11202507757E+03  0.14074959794E+03  0.47000000000E+01 0.  1.
        -11    1    3    3    0    0  0.54727586328E+01  0.27604428286E+02  0.11994326202E+03  0.12320041255E+03  0.00000000000E+00 0. -1.
         11    1    3    3    0    0 -0.64327350010E+02 -0.23364574648E+02  0.86391200119E+02  0.11021502060E+03  0.00000000000E+00 0.  1.
<mgrwt>
<rscale>  0 0.18007669E+03</rscale>
<asrwt>0</asrwt>
<pdfrwt beam="2">  1        2 0.14091864E-01 0.21279676E+03</pdfrwt>
<pdfrwt beam="1">  1       -2 0.56139345E-01 0.21279676E+03</pdfrwt>
<totfact> 0.12643950E+03</totfact>
</mgrwt>
</event>
<event>
 7    1  0.1020736E-005  0.1281637E+03  0.7546771E-02  0.1244639E+00
         -1   -1    0    0    0  501 -0.00000000000E+00  0.00000000000E+00  0.68291286301E+02  0.68291286301E+02  0.00000000000E+00 0.  1.
          1   -1    0    0  501    0  0.00000000000E+00 -0.00000000000E+00 -0.20592457173E+03  0.20592457173E+03  0.00000000000E+00 0. -1.
         23    2    1    2    0    0 -0.10559390715E+02  0.26261963851E+02 -0.14664739743E+02  0.96600543094E+02  0.91188918498E+02 0.  0.
          5    1    1    2  502    0 -0.15776385940E+02 -0.55146944117E+02 -0.12559973244E+03  0.13815738340E+03  0.47000000000E+01 0.  1.
         -5    1    1    2    0  502  0.26335776655E+02  0.28884980266E+02  0.26311867600E+01  0.39457931532E+02  0.47000000000E+01 0.  1.
        -11    1    3    3    0    0 -0.13149045148E+02 -0.31340505869E+02  0.75378021788E+01  0.34812973991E+02  0.00000000000E+00 0.  1.
         11    1    3    3    0    0  0.25896544337E+01  0.57602469719E+02 -0.22202541922E+02  0.61787569103E+02  0.00000000000E+00 0. -1.
<mgrwt>
<rscale>  0 0.11907017E+03</rscale>
<asrwt>0</asrwt>
<pdfrwt beam="2">  1        1 0.31680704E-01 0.12816371E+03</pdfrwt>
<pdfrwt beam="1">  1       -1 0.10506352E-01 0.12816371E+03</pdfrwt>
<totfact> 0.75304313E+03</totfact>
</mgrwt>
</event>
<event>
 7    1  0.1020736E-005  0.1434017E+03  0.7546771E-02  0.1219475E+00
          1   -1    0    0  501    0  0.00000000000E+00  0.00000000000E+00  0.31437781285E+03  0.31437781285E+03  0.00000000000E+00 0. -1.
         -1   -1    0    0    0  501 -0.00000000000E+00 -0.00000000000E+00 -0.62425698551E+02  0.62425698551E+02  0.00000000000E+00 0.  1.
         23    2    1    2    0    0  0.65061676434E+02  0.26575528707E+02  0.40611024911E+02  0.12140363094E+03  0.90279044049E+02 0.  0.
          5    1    1    2  502    0 -0.36867451248E+01 -0.57380613987E+02  0.38501519686E+02  0.69358373462E+02  0.47000000000E+01 0.  1.
         -5    1    1    2    0  502 -0.61374931309E+02  0.30805085281E+02  0.17283956971E+03  0.18604150700E+03  0.47000000000E+01 0.  1.
        -11    1    3    3    0    0  0.78137595002E+02  0.43971599284E+02  0.20950631354E+02  0.92075589873E+02  0.00000000000E+00 0.  1.
         11    1    3    3    0    0 -0.13075918569E+02 -0.17396070577E+02  0.19660393557E+02  0.29328041066E+02  0.00000000000E+00 0. -1.
<mgrwt>
<rscale>  0 0.13552875E+03</rscale>
<asrwt>0</asrwt>
<pdfrwt beam="1">  1        1 0.48365817E-01 0.14340168E+03</pdfrwt>
<pdfrwt beam="2">  1       -1 0.96039538E-02 0.14340168E+03</pdfrwt>
<totfact> 0.51534420E+03</totfact>
</mgrwt>
</event>
<event>
 7    1  0.1020736E-005  0.1590498E+03  0.7546771E-02  0.1196301E+00
          1   -1    0    0  501    0  0.00000000000E+00  0.00000000000E+00  0.15381005248E+04  0.15381005248E+04  0.00000000000E+00 0. -1.
         -1   -1    0    0    0  501 -0.00000000000E+00 -0.00000000000E+00 -0.22527891373E+02  0.22527891373E+02  0.00000000000E+00 0.  1.
         23    2    1    2    0    0 -0.60628850046E+01 -0.98157044432E+02  0.25311439632E+03  0.28819074084E+03  0.96516535052E+02 0.  0.
          5    1    1    2  502    0 -0.42886853345E+02  0.17462102926E+02  0.74283649620E+03  0.74429319312E+03  0.47000000000E+01 0.  1.
         -5    1    1    2    0  502  0.48949738350E+02  0.80694941506E+02  0.51962174095E+03  0.52814448226E+03  0.47000000000E+01 0.  1.
        -11    1    3    3    0    0  0.18339288276E+02 -0.88167556436E+02  0.24433080709E+03  0.26039852303E+03  0.00000000000E+00 0. -1.
         11    1    3    3    0    0 -0.24402173281E+02 -0.99894879954E+01  0.87835892253E+01  0.27792217812E+02  0.00000000000E+00 0.  1.
<mgrwt>
<rscale>  0 0.15344647E+03</rscale>
<asrwt>0</asrwt>
<pdfrwt beam="1">  1        1 0.23663077E+00 0.15904979E+03</pdfrwt>
<pdfrwt beam="2">  1       -1 0.34658306E-02 0.15904979E+03</pdfrwt>
<totfact> 0.20550957E+03</totfact>
</mgrwt>
</event>
<event>
 7    1  0.1020736E-005  0.1235330E+03  0.7546771E-02  0.1251498E+00
         -3   -1    0    0    0  501 -0.00000000000E+00  0.00000000000E+00  0.22790409387E+03  0.22790409387E+03  0.00000000000E+00 0.  1.
          3   -1    0    0  501    0  0.00000000000E+00 -0.00000000000E+00 -0.88876497718E+02  0.88876497718E+02  0.00000000000E+00 0. -1.
         23    2    1    2    0    0 -0.17470510852E+02 -0.10699391588E+02  0.16608730705E+03  0.19031862946E+03  0.90644864301E+02 0.  0.
          5    1    1    2  502    0  0.68080693749E+02  0.19334939558E+01 -0.30490858284E+02  0.74769657610E+02  0.47000000000E+01 0. -1.
         -5    1    1    2    0  502 -0.50610182897E+02  0.87658976320E+01  0.34311473805E+01  0.51692304519E+02  0.47000000000E+01 0.  1.
        -11    1    3    3    0    0  0.12757903837E+02  0.21872984379E+02  0.13174707882E+03  0.13415842997E+03  0.00000000000E+00 0.  1.
         11    1    3    3    0    0 -0.30228414689E+02 -0.32572375967E+02  0.34340228237E+02  0.56160199485E+02  0.00000000000E+00 0. -1.
<mgrwt>
<rscale>  0 0.11504758E+03</rscale>
<asrwt>0</asrwt>
<pdfrwt beam="2">  1        3 0.13673307E-01 0.12353299E+03</pdfrwt>
<pdfrwt beam="1">  1       -3 0.35062168E-01 0.12353299E+03</pdfrwt>
<totfact> 0.79268120E+02</totfact>
</mgrwt>
</event>
<event>
 7    1  0.1020736E-005  0.1372742E+03  0.7546771E-02  0.1228223E+00
          2   -1    0    0  501    0  0.00000000000E+00  0.00000000000E+00  0.14155464417E+04  0.14155464417E+04  0.00000000000E+00 0. -1.
         -2   -1    0    0    0  501 -0.00000000000E+00 -0.00000000000E+00 -0.11611018791E+02  0.11611018791E+02  0.00000000000E+00 0.  1.
         23    2    1    2    0    0 -0.56294889647E+02  0.70442856207E+01  0.42634678193E+03  0.43997776896E+03  0.92682911909E+02 0.  0.
          5    1    1    2  502    0  0.12365146660E+02 -0.50378908368E+02  0.18540669168E+03  0.19258417012E+03  0.47000000000E+01 0.  1.
         -5    1    1    2    0  502  0.43929742987E+02  0.43334622747E+02  0.79218194927E+03  0.79459552138E+03  0.47000000000E+01 0.  1.
        -11    1    3    3    0    0  0.15652358856E+02  0.20356379700E+01  0.13179488660E+02  0.20563051355E+02  0.00000000000E+00 0.  1.
         11    1    3    3    0    0 -0.71947248503E+02  0.50086476507E+01  0.41316729327E+03  0.41941471760E+03  0.00000000000E+00 0. -1.
<mgrwt>
<rscale>  0 0.12948443E+03</rscale>
<asrwt>0</asrwt>
<pdfrwt beam="1">  1        2 0.21777624E+00 0.13727415E+03</pdfrwt>
<pdfrwt beam="2">  1       -2 0.17863117E-02 0.13727415E+03</pdfrwt>
<totfact> 0.13416145E+04</totfact>
</mgrwt>
</event>
<event>
 7    1  0.1020736E-005  0.1643530E+03  0.7546771E-02  0.1191452E+00
          1   -1    0    0  501    0  0.00000000000E+00  0.00000000000E+00  0.24927365308E+04  0.24927365308E+04  0.00000000000E+00 0. -1.
         -1   -1    0    0    0  501 -0.00000000000E+00 -0.00000000000E+00 -0.13863222641E+02  0.13863222641E+02  0.00000000000E+00 0.  1.
         23    2    1    2    0    0 -0.63993398650E+00  0.10670811897E+03  0.44687364213E+03  0.46796429098E+03  0.88924088003E+02 0.  0.
          5    1    1    2  502    0 -0.49466582481E+02 -0.42910321085E+02  0.47486113569E+03  0.47937816661E+03  0.47000000000E+01 0.  1.
         -5    1    1    2    0  502  0.50106516468E+02 -0.63797797881E+02  0.15571385303E+04  0.15592572959E+04  0.47000000000E+01 0.  1.
        -11    1    3    3    0    0 -0.23402494276E+02  0.96978089257E+01  0.29609714945E+02  0.38967415303E+02  0.00000000000E+00 0.  1.
         11    1    3    3    0    0  0.22762560290E+02  0.97010310040E+02  0.41726392719E+03  0.42899687567E+03  0.00000000000E+00 0. -1.
<mgrwt>
<rscale>  0 0.15758413E+03</rscale>
<asrwt>0</asrwt>
<pdfrwt beam="1">  1        1 0.38349757E+00 0.16435299E+03</pdfrwt>
<pdfrwt beam="2">  1       -1 0.21328055E-02 0.16435299E+03</pdfrwt>
<totfact> 0.10134327E+03</totfact>
</mgrwt>
</event>
<event>
 7    1  0.1020736E-005  0.1574379E+03  0.7546771E-02  0.1200014E+00
         -1   -1    0    0    0  501 -0.00000000000E+00  0.00000000000E+00  0.29666896034E+02  0.29666896034E+02  0.00000000000E+00 0.  1.
          1   -1    0    0  501    0  0.00000000000E+00 -0.00000000000E+00 -0.70201569476E+03  0.70201569476E+03  0.00000000000E+00 0. -1.
         23    2    1    2    0    0  0.71956922710E+02  0.63111107545E+02 -0.29324892092E+03  0.32119091612E+03  0.89486671354E+02 0.  0.
          5    1    1    2  502    0 -0.60107065652E+02  0.24678334848E+02 -0.20486663392E+03  0.21497513169E+03  0.47000000000E+01 0.  1.
         -5    1    1    2    0  502 -0.11849857059E+02 -0.87789442393E+02 -0.17423324388E+03  0.19551654299E+03  0.47000000000E+01 0.  1.
        -11    1    3    3    0    0  0.16713266775E+02 -0.61907090512E+01 -0.34640627999E+01  0.18156483578E+02  0.00000000000E+00 0.  1.
         11    1    3    3    0    0  0.55243655936E+02  0.69301816596E+02 -0.28978485812E+03  0.30303443254E+03  0.00000000000E+00 0. -1.
<mgrwt>
<rscale>  0 0.15037447E+03</rscale>
<asrwt>0</asrwt>
<pdfrwt beam="2">  1        1 0.10800241E+00 0.15743792E+03</pdfrwt>
<pdfrwt beam="1">  1       -1 0.45641379E-02 0.15743792E+03</pdfrwt>
<totfact> 0.55233264E+03</totfact>
</mgrwt>
</event>
<event>
 7    1  0.1020736E-005  0.1707815E+03  0.7546771E-02  0.1183370E+00
          2   -1    0    0  501    0  0.00000000000E+00  0.00000000000E+00  0.11222637472E+04  0.11222637472E+04  0.00000000000E+00 0.  1.
         -2   -1    0    0    0  501 -0.00000000000E+00 -0.00000000000E+00 -0.23471617430E+02  0.23471617430E+02  0.00000000000E+00 0. -1.
         23    2    1    2    0    0  0.44708407575E+02  0.10743679697E+03  0.40513917525E+03  0.43136799363E+03  0.91646535956E+02 0.  0.
          5    1    1    2  502    0 -0.71056359366E+02 -0.74242667831E+02  0.27609519726E+03  0.29463813039E+03  0.47000000000E+01 0.  1.
         -5    1    1    2    0  502  0.26347951791E+02 -0.33194129139E+02  0.41755775726E+03  0.41972924061E+03  0.47000000000E+01 0.  1.
        -11    1    3    3    0    0  0.48873496930E+02  0.32302385864E+02  0.90135870764E+02  0.10750133968E+03  0.00000000000E+00 0. -1.
         11    1    3    3    0    0 -0.41650893552E+01  0.75134411106E+02  0.31500330449E+03  0.32386665395E+03  0.00000000000E+00 0.  1.
<mgrwt>
<rscale>  0 0.16481118E+03</rscale>
<asrwt>0</asrwt>
<pdfrwt beam="1">  1        2 0.17265592E+00 0.17078150E+03</pdfrwt>
<pdfrwt beam="2">  1       -2 0.36110189E-02 0.17078150E+03</pdfrwt>
<totfact> 0.69835600E+03</totfact>
</mgrwt>
</event>
<event>
 7    1  0.1020736E-005  0.1302680E+03  0.7546771E-02  0.1243759E+00
          2   -1    0    0  501    0  0.00000000000E+00  0.00000000000E+00  0.29863579760E+03  0.29863579760E+03  0.00000000000E+00 0. -1.
         -2   -1    0    0    0  501 -0.00000000000E+00 -0.00000000000E+00 -0.45813957113E+02  0.45813957113E+02  0.00000000000E+00 0.  1.
         23    2    1    2    0    0 -0.35669905889E+01 -0.36489656961E+02  0.55234765199E+02  0.10778456172E+03  0.84984786703E+02 0.  0.
          5    1    1    2  502    0 -0.34261531717E+02  0.11582674653E+02  0.27457668549E+01  0.36573763045E+02  0.47000000000E+01 0.  1.
         -5    1    1    2    0  502  0.37828522306E+02  0.24906982309E+02  0.19484130844E+03  0.20009142995E+03  0.47000000000E+01 0.  1.
        -11    1    3    3    0    0 -0.29793795338E+02 -0.53539514608E+02  0.36133909910E+02  0.71132336602E+02  0.00000000000E+00 0.  1.
         11    1    3    3    0    0  0.26226804749E+02  0.17049857647E+02  0.19100855289E+02  0.36652225115E+02  0.00000000000E+00 0. -1.
<mgrwt>
<rscale>  0 0.11959958E+03</rscale>
<asrwt>0</asrwt>
<pdfrwt beam="1">  1        2 0.45943968E-01 0.13026804E+03</pdfrwt>
<pdfrwt beam="2">  1       -2 0.70483013E-02 0.13026804E+03</pdfrwt>
<totfact> 0.11908592E+04</totfact>
</mgrwt>
</event>
<event>
 7    1  0.1020736E-005  0.1396119E+03  0.7546771E-02  0.1223785E+00
         -1   -1    0    0    0  501 -0.00000000000E+00  0.00000000000E+00  0.54426018644E+02  0.54426018644E+02  0.00000000000E+00 0.  1.
          1   -1    0    0  501    0  0.00000000000E+00 -0.00000000000E+00 -0.32282665563E+03  0.32282665563E+03  0.00000000000E+00 0. -1.
         23    2    1    2    0    0  0.19956025453E+02  0.58891684766E+02 -0.65182869619E+02  0.13069851366E+03  0.94693302268E+02 0.  0.
          5    1    1    2  502    0 -0.42614768994E+02 -0.90652171534E+02 -0.14849560445E+03  0.17918389794E+03  0.47000000000E+01 0.  1.
         -5    1    1    2    0  502  0.22658743540E+02  0.31760486768E+02 -0.54722162921E+02  0.67370262678E+02  0.47000000000E+01 0.  1.
        -11    1    3    3    0    0 -0.36696966650E+02  0.38065932655E+02 -0.32383443529E+02  0.62002983840E+02  0.00000000000E+00 0.  1.
         11    1    3    3    0    0  0.56652992104E+02  0.20825752111E+02 -0.32799426090E+02  0.68695529819E+02  0.00000000000E+00 0. -1.
<mgrwt>
<rscale>  0 0.13250559E+03</rscale>
<asrwt>0</asrwt>
<pdfrwt beam="2">  1        1 0.49665638E-01 0.13961194E+03</pdfrwt>
<pdfrwt beam="1">  1       -1 0.83732338E-02 0.13961194E+03</pdfrwt>
<totfact> 0.61315132E+03</totfact>
</mgrwt>
</event>
<event>
 7    1  0.1020736E-005  0.1419237E+03  0.7546771E-02  0.1221440E+00
         -1   -1    0    0    0  501 -0.00000000000E+00  0.00000000000E+00  0.26537164350E+02  0.26537164350E+02  0.00000000000E+00 0.  1.
          1   -1    0    0  501    0  0.00000000000E+00 -0.00000000000E+00 -0.78553686006E+03  0.78553686006E+03  0.00000000000E+00 0. -1.
         23    2    1    2    0    0  0.16226871321E+02 -0.65184680208E+02 -0.15709933860E+03  0.19366770684E+03  0.91184563382E+02 0.  0.
          5    1    1    2  502    0  0.32513078339E+02  0.62825740896E+02 -0.17674320124E+03  0.19043220097E+03  0.47000000000E+01 0. -1.
         -5    1    1    2    0  502 -0.48739949660E+02  0.23589393118E+01 -0.42515715587E+03  0.42797411659E+03  0.47000000000E+01 0. -1.
        -11    1    3    3    0    0  0.28392602683E+02 -0.75863784023E+02 -0.15789457685E+03  0.17746028010E+03  0.00000000000E+00 0. -1.
         11    1    3    3    0    0 -0.12165731363E+02  0.10679103816E+02  0.79523825061E+00  0.16207426747E+02  0.00000000000E+00 0.  1.
<mgrwt>
<rscale>  0 0.13413951E+03</rscale>
<asrwt>0</asrwt>
<pdfrwt beam="2">  1        1 0.12085183E+00 0.14192369E+03</pdfrwt>
<pdfrwt beam="1">  1       -1 0.40826405E-02 0.14192369E+03</pdfrwt>
<totfact> 0.54947285E+03</totfact>
</mgrwt>
</event>
<event>
 7    1  0.1020736E-005  0.1405461E+03  0.7546771E-02  0.1223626E+00
          2   -1    0    0  501    0  0.00000000000E+00  0.00000000000E+00  0.72120043189E+03  0.72120043189E+03  0.00000000000E+00 0. -1.
         -2   -1    0    0    0  501 -0.00000000000E+00 -0.00000000000E+00 -0.22143985383E+02  0.22143985383E+02  0.00000000000E+00 0.  1.
         23    2    1    2    0    0  0.10775210691E+01 -0.64239475273E+02  0.28013777491E+03  0.30147786012E+03  0.91015690799E+02 0.  0.
          5    1    1    2  502    0  0.41655225891E+02  0.36807052650E+02  0.71315108212E+02  0.90541988204E+02  0.47000000000E+01 0. -1.
         -5    1    1    2    0  502 -0.42732746960E+02  0.27432422622E+02  0.34760356338E+03  0.35132456895E+03  0.47000000000E+01 0. -1.
        -11    1    3    3    0    0 -0.33776583615E+02 -0.63651338658E+02  0.14501684384E+03  0.16193281172E+03  0.00000000000E+00 0.  1.
         11    1    3    3    0    0  0.34854104684E+02 -0.58813661429E+00  0.13512093107E+03  0.13954504840E+03  0.00000000000E+00 0. -1.
<mgrwt>
<rscale>  0 0.13261513E+03</rscale>
<asrwt>0</asrwt>
<pdfrwt beam="1">  1        2 0.11095389E+00 0.14054608E+03</pdfrwt>
<pdfrwt beam="2">  1       -2 0.34067675E-02 0.14054608E+03</pdfrwt>
<totfact> 0.13522205E+04</totfact>
</mgrwt>
</event>
<event>
 7    1  0.1020736E-005  0.1306976E+03  0.7546771E-02  0.1241838E+00
          2   -1    0    0  501    0  0.00000000000E+00  0.00000000000E+00  0.44256119307E+02  0.44256119307E+02  0.00000000000E+00 0. -1.
         -2   -1    0    0    0  501 -0.00000000000E+00 -0.00000000000E+00 -0.38795892497E+03  0.38795892497E+03  0.00000000000E+00 0.  1.
         23    2    1    2    0    0  0.38089706185E+02 -0.25166108190E+01 -0.26026290340E+03  0.27715346997E+03  0.87293229881E+02 0.  0.
          5    1    1    2  502    0 -0.58507361925E+02  0.45879296746E+02 -0.23387675512E+02  0.78083894852E+02  0.47000000000E+01 0.  1.
         -5    1    1    2    0  502  0.20417655741E+02 -0.43362685927E+02 -0.60052226752E+02  0.76977679457E+02  0.47000000000E+01 0.  1.
        -11    1    3    3    0    0 -0.27556735296E+02  0.31418613215E+01 -0.10244651254E+03  0.10613450374E+03  0.00000000000E+00 0.  1.
         11    1    3    3    0    0  0.65646441481E+02 -0.56584721405E+01 -0.15781639086E+03  0.17101896623E+03  0.00000000000E+00 0. -1.
<mgrwt>
<rscale>  0 0.12076615E+03</rscale>
<asrwt>0</asrwt>
<pdfrwt beam="1">  1        2 0.68086337E-02 0.13069765E+03</pdfrwt>
<pdfrwt beam="2">  1       -2 0.59685989E-01 0.13069765E+03</pdfrwt>
<totfact> 0.26789734E+03</totfact>
</mgrwt>
</event>
<event>
 7    1  0.1020736E-005  0.1403380E+03  0.7546771E-02  0.1223955E+00
         -2   -1    0    0    0  501 -0.00000000000E+00  0.00000000000E+00  0.25385129046E+02  0.25385129046E+02  0.00000000000E+00 0.  1.
          2   -1    0    0  501    0  0.00000000000E+00 -0.00000000000E+00 -0.73478754606E+03  0.73478754606E+03  0.00000000000E+00 0. -1.
         23    2    1    2    0    0  0.50465328930E+02 -0.39019793187E+02 -0.17227239399E+03  0.20501196854E+03  0.91010086431E+02 0.  0.
          5    1    1    2  502    0 -0.51777272291E+02 -0.36365904999E+02 -0.20739864881E+03  0.21688627089E+03  0.47000000000E+01 0.  1.
         -5    1    1    2    0  502  0.13119433618E+01  0.75385698186E+02 -0.32973137422E+03  0.33827443567E+03  0.47000000000E+01 0.  1.
        -11    1    3    3    0    0  0.61506410894E+02 -0.49081364711E+02 -0.17300110383E+03  0.19005630973E+03  0.00000000000E+00 0. -1.
         11    1    3    3    0    0 -0.11041081965E+02  0.10061571524E+02  0.72870984137E+00  0.14955658813E+02  0.00000000000E+00 0.  1.
<mgrwt>
<rscale>  0 0.13238816E+03</rscale>
<asrwt>0</asrwt>
<pdfrwt beam="2">  1        2 0.11304423E+00 0.14033798E+03</pdfrwt>
<pdfrwt beam="1">  1       -2 0.39054049E-02 0.14033798E+03</pdfrwt>
<totfact> 0.10798077E+04</totfact>
</mgrwt>
</event>
<event>
 7    1  0.1020736E-005  0.1346953E+03  0.7546771E-02  0.1233089E+00
         -4   -1    0    0    0  501 -0.00000000000E+00  0.00000000000E+00  0.20048277320E+03  0.20048277320E+03  0.00000000000E+00 0.  1.
          4   -1    0    0  501    0  0.00000000000E+00 -0.00000000000E+00 -0.75218392721E+02  0.75218392721E+02  0.00000000000E+00 0. -1.
         23    2    1    2    0    0  0.34275516169E+02 -0.36644152322E+02  0.87134625343E+02  0.13571291903E+03  0.91147948694E+02 0.  0.
          5    1    1    2  502    0  0.40881212532E+02  0.13883965563E+01 -0.12013423100E+02  0.42890715984E+02  0.47000000000E+01 0.  1.
         -5    1    1    2    0  502 -0.75156728701E+02  0.35255755766E+02  0.50143178235E+02  0.97097530901E+02  0.47000000000E+01 0.  1.
        -11    1    3    3    0    0  0.61027745804E+02 -0.27179727625E+02  0.83754676908E+02  0.10713528483E+03  0.00000000000E+00 0.  1.
         11    1    3    3    0    0 -0.26752229635E+02 -0.94644246970E+01  0.33799484344E+01  0.28577634204E+02  0.00000000000E+00 0. -1.
<mgrwt>
<rscale>  0 0.12627595E+03</rscale>
<asrwt>0</asrwt>
<pdfrwt beam="2">  1        4 0.11572060E-01 0.13469533E+03</pdfrwt>
<pdfrwt beam="1">  1       -4 0.30843503E-01 0.13469533E+03</pdfrwt>
<totfact> 0.98344657E+02</totfact>
</mgrwt>
</event>
<event>
 7    1  0.1020736E-005  0.1285358E+03  0.7546771E-02  0.1245511E+00
          1   -1    0    0  501    0  0.00000000000E+00  0.00000000000E+00  0.63880800962E+03  0.63880800962E+03  0.00000000000E+00 0. -1.
         -1   -1    0    0    0  501 -0.00000000000E+00 -0.00000000000E+00 -0.24424830654E+02  0.24424830654E+02  0.00000000000E+00 0.  1.
         23    2    1    2    0    0  0.26616490273E+02 -0.13659099897E+02  0.11675021326E+03  0.14926784203E+03  0.88063998336E+02 0.  0.
          5    1    1    2  502    0 -0.74960975692E+02 -0.61170800910E+01  0.26591552280E+03  0.27638690600E+03  0.47000000000E+01 0.  1.
         -5    1    1    2    0  502  0.48344485419E+02  0.19776179988E+02  0.23171744291E+03  0.23757809224E+03  0.47000000000E+01 0.  1.
        -11    1    3    3    0    0  0.25570848639E+02 -0.31719555810E+02  0.11305534387E+02  0.42282545201E+02  0.00000000000E+00 0.  1.
         11    1    3    3    0    0  0.10456416341E+01  0.18060455913E+02  0.10544467888E+03  0.10698529683E+03  0.00000000000E+00 0. -1.
<mgrwt>
<rscale>  0 0.11854871E+03</rscale>
<asrwt>0</asrwt>
<pdfrwt beam="1">  1        1 0.98278143E-01 0.12853580E+03</pdfrwt>
<pdfrwt beam="2">  1       -1 0.37576667E-02 0.12853580E+03</pdfrwt>
<totfact> 0.83075572E+03</totfact>
</mgrwt>
</event>
<event>
 7    1  0.1020736E-005  0.1300550E+03  0.7546771E-02  0.1242301E+00
         -2   -1    0    0    0  501 -0.00000000000E+00  0.00000000000E+00  0.33601269058E+03  0.33601269058E+03  0.00000000000E+00 0.  1.
          2   -1    0    0  501    0  0.00000000000E+00 -0.00000000000E+00 -0.41678357844E+02  0.41678357844E+02  0.00000000000E+00 0. -1.
         23    2    1    2    0    0  0.15087790892E+02  0.32563951106E+02  0.18272133190E+03  0.20630909219E+03  0.88816124911E+02 0.  0.
          5    1    1    2  502    0 -0.68628836778E+02 -0.32759778062E+02  0.61867681665E+02  0.98146932356E+02  0.47000000000E+01 0.  1.
         -5    1    1    2    0  502  0.53541045886E+02  0.19582695675E+00  0.49745319167E+02  0.73235023874E+02  0.47000000000E+01 0.  1.
        -11    1    3    3    0    0  0.28676036207E+02  0.19476220231E+02  0.18415447122E+03  0.18738865355E+03  0.00000000000E+00 0.  1.
         11    1    3    3    0    0 -0.13588245315E+02  0.13087730875E+02 -0.14331393228E+01  0.18920438645E+02  0.00000000000E+00 0. -1.
<mgrwt>
<rscale>  0 0.12048394E+03</rscale>
<asrwt>0</asrwt>
<pdfrwt beam="2">  1        2 0.64120552E-02 0.13005504E+03</pdfrwt>
<pdfrwt beam="1">  1       -2 0.51694259E-01 0.13005504E+03</pdfrwt>
<totfact> 0.38650665E+03</totfact>
</mgrwt>
</event>
<event>
 7    1  0.1410880E-005  0.1946011E+03  0.7546771E-02  0.1159947E+00
         -1   -1    0    0    0  501 -0.00000000000E+00  0.00000000000E+00  0.12147665229E+03  0.12147665229E+03  0.00000000000E+00 0.  1.
          1   -1    0    0  501    0  0.00000000000E+00 -0.00000000000E+00 -0.31241085809E+03  0.31241085809E+03  0.00000000000E+00 0. -1.
         23    2    1    2    0    0 -0.79681156002E+02 -0.12607138127E+03 -0.14882814914E+02  0.17146864396E+03  0.83288161719E+02 0.  0.
          5    1    1    2  502    0  0.63332961420E+02  0.36323550882E+02 -0.15085840562E+03  0.16766279521E+03  0.47000000000E+01 0.  1.
         -5    1    1    2    0  502  0.16348194583E+02  0.89747830392E+02 -0.25192985263E+02  0.94756071218E+02  0.47000000000E+01 0.  1.
        -11    1    3    3    0    0  0.74329033918E+01 -0.59083463943E+02  0.51282115123E+01  0.59769576857E+02  0.00000000000E+00 0.  1.
         11    1    3    3    0    0 -0.87114059394E+02 -0.66987917331E+02 -0.20011026426E+02  0.11169906710E+03  0.00000000000E+00 0. -1.
<mgrwt>
<rscale>  0 0.18836254E+03</rscale>
<asrwt>0</asrwt>
<pdfrwt beam="2">  1        1 0.48063210E-01 0.19460105E+03</pdfrwt>
<pdfrwt beam="1">  1       -1 0.18688715E-01 0.19460105E+03</pdfrwt>
<totfact> 0.18567264E+03</totfact>
</mgrwt>
</event>
<event>
 7    1  0.1020736E-005  0.1309611E+03  0.7546771E-02  0.1239534E+00
         -2   -1    0    0    0  501 -0.00000000000E+00  0.00000000000E+00  0.25421850496E+02  0.25421850496E+02  0.00000000000E+00 0.  1.
          2   -1    0    0  501    0  0.00000000000E+00 -0.00000000000E+00 -0.52146943395E+03  0.52146943395E+03  0.00000000000E+00 0. -1.
         23    2    1    2    0    0 -0.26446110386E+02 -0.28757757414E+02 -0.22103256186E+03  0.24228651787E+03  0.91219285104E+02 0.  0.
          5    1    1    2  502    0  0.64046598678E+02  0.10904072835E+02 -0.24383532912E+03  0.25238586199E+03  0.47000000000E+01 0.  1.
         -5    1    1    2    0  502 -0.37600488292E+02  0.17853684580E+02 -0.31179692477E+02  0.52218904583E+02  0.47000000000E+01 0.  1.
        -11    1    3    3    0    0 -0.27336982967E+01 -0.49811328716E+02 -0.19493822170E+03  0.20122015767E+03  0.00000000000E+00 0. -1.
         11    1    3    3    0    0 -0.23712412089E+02  0.21053571301E+02 -0.26094340158E+02  0.41066360198E+02  0.00000000000E+00 0.  1.
<mgrwt>
<rscale>  0 0.12218606E+03</rscale>
<asrwt>0</asrwt>
<pdfrwt beam="2">  1        2 0.80226070E-01 0.13096107E+03</pdfrwt>
<pdfrwt beam="1">  1       -2 0.39110538E-02 0.13096107E+03</pdfrwt>
<totfact> 0.15903068E+04</totfact>
</mgrwt>
</event>
<event>
 7    1  0.1020736E-005  0.1385195E+03  0.7546771E-02  0.1228135E+00
          1   -1    0    0  501    0  0.00000000000E+00  0.00000000000E+00  0.30763654160E+02  0.30763654160E+02  0.00000000000E+00 0. -1.
         -1   -1    0    0    0  501 -0.00000000000E+00 -0.00000000000E+00 -0.48571497963E+03  0.48571497963E+03  0.00000000000E+00 0.  1.
         23    2    1    2    0    0  0.28285476482E+02  0.52561338733E+02 -0.19640157022E+03  0.22316030999E+03  0.87545329174E+02 0.  0.
          5    1    1    2  502    0 -0.61982249282E+02  0.13409021478E+02 -0.10469009667E+03  0.12248962170E+03  0.47000000000E+01 0. -1.
         -5    1    1    2    0  502  0.33696772800E+02 -0.65970360211E+02 -0.15385965858E+03  0.17082870210E+03  0.47000000000E+01 0. -1.
        -11    1    3    3    0    0 -0.44296823833E+01  0.25398897847E+02 -0.39692699086E+01  0.26086034606E+02  0.00000000000E+00 0. -1.
         11    1    3    3    0    0  0.32715158865E+02  0.27162440886E+02 -0.19243230031E+03  0.19707427539E+03  0.00000000000E+00 0.  1.
<mgrwt>
<rscale>  0 0.12954361E+03</rscale>
<asrwt>0</asrwt>
<pdfrwt beam="1">  1        1 0.47328698E-02 0.13851954E+03</pdfrwt>
<pdfrwt beam="2">  1       -1 0.74725382E-01 0.13851954E+03</pdfrwt>
<totfact> 0.32515462E+03</totfact>
</mgrwt>
</event>
<event>
 7    1  0.1020736E-005  0.1313486E+03  0.7546771E-02  0.1239346E+00
         -2   -1    0    0    0  501 -0.00000000000E+00  0.00000000000E+00  0.25461123879E+02  0.25461123879E+02  0.00000000000E+00 0. -1.
          2   -1    0    0  501    0  0.00000000000E+00 -0.00000000000E+00 -0.58239412346E+03  0.58239412346E+03  0.00000000000E+00 0.  1.
         23    2    1    2    0    0 -0.97728223279E+01  0.39129246035E+02 -0.14449080824E+03  0.17500305352E+03  0.90121413239E+02 0.  0.
          5    1    1    2  502    0 -0.35502521188E+02 -0.64429211888E+02 -0.30019422539E+03  0.30911197860E+03  0.47000000000E+01 0. -1.
         -5    1    1    2    0  502  0.45275343516E+02  0.25299965852E+02 -0.11224796595E+03  0.12374021522E+03  0.47000000000E+01 0. -1.
        -11    1    3    3    0    0 -0.20183372741E+02  0.66475031178E+02 -0.10222414947E+03  0.12359642001E+03  0.00000000000E+00 0. -1.
         11    1    3    3    0    0  0.10410550413E+02 -0.27345785143E+02 -0.42266658765E+02  0.51406633503E+02  0.00000000000E+00 0.  1.
<mgrwt>
<rscale>  0 0.12230275E+03</rscale>
<asrwt>0</asrwt>
<pdfrwt beam="2">  1        2 0.89599096E-01 0.13134862E+03</pdfrwt>
<pdfrwt beam="1">  1       -2 0.39170960E-02 0.13134862E+03</pdfrwt>
<totfact> 0.14029690E+04</totfact>
</mgrwt>
</event>
<event>
 7    1  0.1020736E-005  0.1797821E+03  0.7546771E-02  0.1173560E+00
          1   -1    0    0  501    0  0.00000000000E+00  0.00000000000E+00  0.38613226782E+03  0.38613226782E+03  0.00000000000E+00 0. -1.
         -1   -1    0    0    0  501 -0.00000000000E+00 -0.00000000000E+00 -0.80323053623E+02  0.80323053623E+02  0.00000000000E+00 0.  1.
         23    2    1    2    0    0 -0.13995444977E+02  0.12845183451E+03  0.78892063879E+02  0.17695059979E+03  0.91606827006E+02 0.  0.
          5    1    1    2  502    0  0.41626008036E+02 -0.10233094943E+03  0.22551789624E+03  0.25116679574E+03  0.47000000000E+01 0. -1.
         -5    1    1    2    0  502 -0.27630563059E+02 -0.26120885073E+02  0.13992540811E+01  0.38337925921E+02  0.47000000000E+01 0. -1.
        -11    1    3    3    0    0 -0.48968292210E+02  0.55611138455E+02  0.56270639414E+02  0.93042341019E+02  0.00000000000E+00 0. -1.
         11    1    3    3    0    0  0.34972847233E+02  0.72840696051E+02  0.22621424465E+02  0.83908258769E+02  0.00000000000E+00 0.  1.
<mgrwt>
<rscale>  0 0.17417751E+03</rscale>
<asrwt>0</asrwt>
<pdfrwt beam="1">  1        1 0.59404963E-01 0.17978206E+03</pdfrwt>
<pdfrwt beam="2">  1       -1 0.12357393E-01 0.17978206E+03</pdfrwt>
<totfact> 0.27285214E+03</totfact>
</mgrwt>
</event>
<event>
 7    1  0.1020736E-005  0.1334510E+03  0.7546771E-02  0.1234355E+00
          2   -1    0    0  501    0  0.00000000000E+00  0.00000000000E+00  0.70560574325E+03  0.70560574325E+03  0.00000000000E+00 0. -1.
         -2   -1    0    0    0  501 -0.00000000000E+00 -0.00000000000E+00 -0.41361615185E+02  0.41361615185E+02  0.00000000000E+00 0.  1.
         23    2    1    2    0    0  0.12609005774E+02  0.45002473287E+02  0.45051901696E+02  0.11355739232E+03  0.93174019320E+02 0.  0.
          5    1    1    2  502    0  0.73777201973E+01 -0.65090168137E+02  0.15512708556E+03  0.16845671081E+03  0.47000000000E+01 0. -1.
         -5    1    1    2    0  502 -0.19986725972E+02  0.20087694849E+02  0.46406514081E+03  0.46495325530E+03  0.47000000000E+01 0. -1.
        -11    1    3    3    0    0 -0.32405560694E+02  0.18952468181E+01  0.39290965754E+02  0.50965599322E+02  0.00000000000E+00 0. -1.
         11    1    3    3    0    0  0.45014566468E+02  0.43107226469E+02  0.57609359415E+01  0.62591793001E+02  0.00000000000E+00 0.  1.
<mgrwt>
<rscale>  0 0.12545794E+03</rscale>
<asrwt>0</asrwt>
<pdfrwt beam="1">  1        2 0.10855472E+00 0.13345101E+03</pdfrwt>
<pdfrwt beam="2">  1       -2 0.63633259E-02 0.13345101E+03</pdfrwt>
<totfact> 0.54295060E+03</totfact>
</mgrwt>
</event>
<event>
 7    1  0.1020736E-005  0.1591682E+03  0.7546771E-02  0.1201154E+00
         -2   -1    0    0    0  501 -0.00000000000E+00  0.00000000000E+00  0.35046397960E+02  0.35046397960E+02  0.00000000000E+00 0.  1.
          2   -1    0    0  501    0  0.00000000000E+00 -0.00000000000E+00 -0.97327883396E+03  0.97327883396E+03  0.00000000000E+00 0. -1.
         23    2    1    2    0    0  0.41717844581E+02  0.89271473476E+02 -0.11190635367E+03  0.16680914768E+03  0.74782920687E+02 0.  0.
          5    1    1    2  502    0  0.11670968140E+02 -0.10019211535E+03 -0.44679301412E+03  0.45806195972E+03  0.47000000000E+01 0.  1.
         -5    1    1    2    0  502 -0.53388812722E+02  0.10920641877E+02 -0.37953306821E+03  0.38345412451E+03  0.47000000000E+01 0.  1.
        -11    1    3    3    0    0  0.63275107953E+02  0.58907446806E+02 -0.77113482109E+02  0.11584608625E+03  0.00000000000E+00 0.  1.
         11    1    3    3    0    0 -0.21557263372E+02  0.30364026670E+02 -0.34792871560E+02  0.50963061438E+02  0.00000000000E+00 0. -1.
<mgrwt>
<rscale>  0 0.14944684E+03</rscale>
<asrwt>0</asrwt>
<pdfrwt beam="2">  1        2 0.14973520E+00 0.15916823E+03</pdfrwt>
<pdfrwt beam="1">  1       -2 0.53917537E-02 0.15916823E+03</pdfrwt>
<totfact> 0.46747747E+03</totfact>
</mgrwt>
</event>
<event>
 7    1  0.1020736E-005  0.1542780E+03  0.7546771E-02  0.1204018E+00
         -2   -1    0    0    0  501 -0.00000000000E+00  0.00000000000E+00  0.10048322897E+02  0.10048322897E+02  0.00000000000E+00 0.  1.
          2   -1    0    0  501    0  0.00000000000E+00 -0.00000000000E+00 -0.21667038631E+04  0.21667038631E+04  0.00000000000E+00 0. -1.
         23    2    1    2    0    0  0.56451747948E+02  0.70626899781E+02 -0.66560856150E+03  0.67774491564E+03  0.90157943150E+02 0.  0.
          5    1    1    2  502    0 -0.94156454069E+02 -0.53838287412E+02 -0.12166099019E+04  0.12214441217E+04  0.47000000000E+01 0. -1.
         -5    1    1    2    0  502  0.37704706120E+02 -0.16788612369E+02 -0.27443707681E+03  0.27756314866E+03  0.47000000000E+01 0. -1.
        -11    1    3    3    0    0 -0.15064810672E+02  0.50778005256E+02 -0.24810112794E+03  0.25369178942E+03  0.00000000000E+00 0.  1.
         11    1    3    3    0    0  0.71516558621E+02  0.19848894525E+02 -0.41750743356E+03  0.42405312621E+03  0.00000000000E+00 0. -1.
<mgrwt>
<rscale>  0 0.14715087E+03</rscale>
<asrwt>0</asrwt>
<pdfrwt beam="2">  1        2 0.33333888E+00 0.15427801E+03</pdfrwt>
<pdfrwt beam="1">  1       -2 0.15458967E-02 0.15427801E+03</pdfrwt>
<totfact> 0.68019495E+03</totfact>
</mgrwt>
</event>
<event>
 7    1  0.1020736E-005  0.2055101E+03  0.7546771E-02  0.1148296E+00
          1   -1    0    0  501    0  0.00000000000E+00  0.00000000000E+00  0.41057700419E+03  0.41057700419E+03  0.00000000000E+00 0. -1.
         -1   -1    0    0    0  501 -0.00000000000E+00 -0.00000000000E+00 -0.96969492811E+02  0.96969492811E+02  0.00000000000E+00 0.  1.
         23    2    1    2    0    0  0.83333516617E+02  0.14023409300E+03  0.12111090249E+03  0.22596285053E+03  0.98900370505E+02 0.  0.
          5    1    1    2  502    0 -0.37551134172E+02 -0.61693307074E+02  0.42720030823E+01  0.72501667744E+02  0.47000000000E+01 0. -1.
         -5    1    1    2    0  502 -0.45782382445E+02 -0.78540785929E+02  0.18822460580E+03  0.20908197872E+03  0.47000000000E+01 0. -1.
        -11    1    3    3    0    0  0.20030254614E+02 -0.11799541896E+02  0.29338599747E+02  0.37432522277E+02  0.00000000000E+00 0. -1.
         11    1    3    3    0    0  0.63303262003E+02  0.15203363490E+03  0.91772302742E+02  0.18853032825E+03  0.00000000000E+00 0.  1.
<mgrwt>
<rscale>  0 0.20172033E+03</rscale>
<asrwt>0</asrwt>
<pdfrwt beam="1">  1        1 0.63165692E-01 0.20551011E+03</pdfrwt>
<pdfrwt beam="2">  1       -1 0.14918384E-01 0.20551011E+03</pdfrwt>
<totfact> 0.18846538E+03</totfact>
</mgrwt>
</event>
<event>
 7    1  0.1020736E-005  0.1425847E+03  0.7546771E-02  0.1219721E+00
          1   -1    0    0  501    0  0.00000000000E+00  0.00000000000E+00  0.87335542666E+03  0.87335542666E+03  0.00000000000E+00 0. -1.
         -1   -1    0    0    0  501 -0.00000000000E+00 -0.00000000000E+00 -0.24195869828E+02  0.24195869828E+02  0.00000000000E+00 0.  1.
         23    2    1    2    0    0  0.57916401519E+02  0.36764710323E+02  0.18491251457E+03  0.21817324796E+03  0.93279014755E+02 0.  0.
          5    1    1    2  502    0 -0.42713531474E+01 -0.10340881375E+02  0.55178978361E+03  0.55192321348E+03  0.47000000000E+01 0. -1.
         -5    1    1    2    0  502 -0.53645048371E+02 -0.26423828948E+02  0.11245725866E+03  0.12745483504E+03  0.47000000000E+01 0. -1.
        -11    1    3    3    0    0  0.40798810134E+02 -0.15984176221E+02  0.14034835784E+03  0.14702958323E+03  0.00000000000E+00 0.  1.
         11    1    3    3    0    0  0.17117591385E+02  0.52748886544E+02  0.44564156730E+02  0.71143664732E+02  0.00000000000E+00 0. -1.
<mgrwt>
<rscale>  0 0.13535393E+03</rscale>
<asrwt>0</asrwt>
<pdfrwt beam="1">  1        1 0.13436235E+00 0.14258471E+03</pdfrwt>
<pdfrwt beam="2">  1       -1 0.37224422E-02 0.14258471E+03</pdfrwt>
<totfact> 0.53502640E+03</totfact>
</mgrwt>
</event>
<event>
 7    1  0.1020736E-005  0.1376554E+03  0.7546771E-02  0.1230522E+00
         -2   -1    0    0    0  501 -0.00000000000E+00  0.00000000000E+00  0.95345397186E+02  0.95345397186E+02  0.00000000000E+00 0.  1.
          2   -1    0    0  501    0  0.00000000000E+00 -0.00000000000E+00 -0.17215793765E+03  0.17215793765E+03  0.00000000000E+00 0. -1.
         23    2    1    2    0    0  0.16168851794E+02 -0.55348804563E+02  0.12333543870E+02  0.10350325052E+03  0.85064003133E+02 0.  0.
          5    1    1    2  502    0 -0.13522447038E+02 -0.36847542101E+02 -0.64912568064E+01  0.40060258958E+02  0.47000000000E+01 0. -1.
         -5    1    1    2    0  502 -0.26464047551E+01  0.92196346665E+02 -0.82654827531E+02  0.12393982536E+03  0.47000000000E+01 0. -1.
        -11    1    3    3    0    0 -0.66619436379E+01 -0.53870618556E+02  0.40128425920E+02  0.67503448826E+02  0.00000000000E+00 0. -1.
         11    1    3    3    0    0  0.22830795431E+02 -0.14781860071E+01 -0.27794882050E+02  0.35999801695E+02  0.00000000000E+00 0.  1.
<mgrwt>
<rscale>  0 0.12795493E+03</rscale>
<asrwt>0</asrwt>
<pdfrwt beam="2">  1        2 0.26485836E-01 0.13765538E+03</pdfrwt>
<pdfrwt beam="1">  1       -2 0.14668523E-01 0.13765538E+03</pdfrwt>
<totfact> 0.68053739E+03</totfact>
</mgrwt>
</event>
<event>
 7    1  0.1020736E-005  0.2260402E+03  0.7546771E-02  0.1168056E+00
          1   -1    0    0  501    0  0.00000000000E+00  0.00000000000E+00  0.52045251573E+03  0.52045251573E+03  0.00000000000E+00 0. -1.
         -1   -1    0    0    0  501 -0.00000000000E+00 -0.00000000000E+00 -0.78191871100E+02  0.78191871100E+02  0.00000000000E+00 0.  1.
         23    2    1    2    0    0  0.13010235789E+02 -0.22064829036E+02 -0.12088993755E+02  0.91172434401E+02  0.86661099168E+02 0.  0.
          5    1    1    2  502    0 -0.22239063309E+01  0.58689746846E+02  0.46406926702E+03  0.46779462025E+03  0.47000000000E+01 0. -1.
         -5    1    1    2    0  502 -0.10786329458E+02 -0.36624917810E+02 -0.97196286356E+01  0.39677332176E+02  0.47000000000E+01 0.  1.
        -11    1    3    3    0    0 -0.32846020755E+02 -0.18949954884E+02 -0.22435508378E+02  0.44060343913E+02  0.00000000000E+00 0. -1.
         11    1    3    3    0    0  0.45856256545E+02 -0.31148741514E+01  0.10346514623E+02  0.47112090488E+02  0.00000000000E+00 0.  1.
<mgrwt>
<rscale>  0 0.17973898E+03</rscale>
<asrwt>0</asrwt>
<pdfrwt beam="1">  1        1 0.80069616E-01 0.22604024E+03</pdfrwt>
<pdfrwt beam="2">  1       -1 0.12029519E-01 0.22604024E+03</pdfrwt>
<totfact> 0.19427372E+03</totfact>
</mgrwt>
</event>
<event>
 7    1  0.1020736E-005  0.1334083E+03  0.7546771E-02  0.1235580E+00
         -1   -1    0    0    0  501 -0.00000000000E+00  0.00000000000E+00  0.11838528598E+02  0.11838528598E+02  0.00000000000E+00 0.  1.
          1   -1    0    0  501    0  0.00000000000E+00 -0.00000000000E+00 -0.12277947146E+04  0.12277947146E+04  0.00000000000E+00 0. -1.
         23    2    1    2    0    0 -0.44262652430E+02 -0.14640863822E+02 -0.39434378890E+03  0.40726030650E+03  0.90445542267E+02 0.  0.
          5    1    1    2  502    0  0.64210390798E+02 -0.39131344721E+02 -0.50183285284E+03  0.50745693277E+03  0.47000000000E+01 0. -1.
         -5    1    1    2    0  502 -0.19947738368E+02  0.53772208543E+02 -0.31977954425E+03  0.32491600391E+03  0.47000000000E+01 0. -1.
        -11    1    3    3    0    0 -0.12546082512E+02  0.34341751779E+02 -0.86095894195E+02  0.93537495684E+02  0.00000000000E+00 0.  1.
         11    1    3    3    0    0 -0.31716569918E+02 -0.48982615601E+02 -0.30824789470E+03  0.31372281082E+03  0.00000000000E+00 0. -1.
<mgrwt>
<rscale>  0 0.12467383E+03</rscale>
<asrwt>0</asrwt>
<pdfrwt beam="2">  1        1 0.18889152E+00 0.13340830E+03</pdfrwt>
<pdfrwt beam="1">  1       -1 0.18213118E-02 0.13340830E+03</pdfrwt>
<totfact> 0.83568482E+03</totfact>
</mgrwt>
</event>
<event>
 7    1  0.1020736E-005  0.3029959E+03  0.7546771E-02  0.1084748E+00
         -2   -1    0    0    0  501 -0.00000000000E+00  0.00000000000E+00  0.52799664542E+03  0.52799664542E+03  0.00000000000E+00 0.  1.
          2   -1    0    0  501    0  0.00000000000E+00 -0.00000000000E+00 -0.34910032156E+03  0.34910032156E+03  0.00000000000E+00 0. -1.
         23    2    1    2    0    0 -0.61682651858E+02 -0.26902857090E+03  0.40354860924E+03  0.49990318006E+03  0.10426211160E+03 0.  0.
          5    1    1    2  502    0  0.71789699229E+02  0.15333788166E+03 -0.19290125350E+03  0.25670849317E+03  0.47000000000E+01 0.  1.
         -5    1    1    2    0  502 -0.10107047371E+02  0.11569068924E+03 -0.31751031887E+02  0.12048529375E+03  0.47000000000E+01 0.  1.
        -11    1    3    3    0    0 -0.22150302038E+02 -0.13282347325E+03  0.10995083994E+03  0.17384446534E+03  0.00000000000E+00 0. -1.
         11    1    3    3    0    0 -0.39532349821E+02 -0.13620509765E+03  0.29359776930E+03  0.32605871472E+03  0.00000000000E+00 0.  1.
<mgrwt>
<rscale>  0 0.30098836E+03</rscale>
<asrwt>0</asrwt>
<pdfrwt beam="2">  1        2 0.53707742E-01 0.30299588E+03</pdfrwt>
<pdfrwt beam="1">  1       -2 0.81230253E-01 0.30299588E+03</pdfrwt>
<totfact> 0.12838029E+02</totfact>
</mgrwt>
</event>
<event>
 7    1  0.1020736E-005  0.1943680E+03  0.7546771E-02  0.1159027E+00
         -1   -1    0    0    0  501 -0.00000000000E+00  0.00000000000E+00  0.21832669234E+03  0.21832669234E+03  0.00000000000E+00 0.  1.
          1   -1    0    0  501    0  0.00000000000E+00 -0.00000000000E+00 -0.17835796956E+03  0.17835796956E+03  0.00000000000E+00 0. -1.
         23    2    1    2    0    0 -0.38407194121E+02 -0.14380202505E+03  0.88658471313E+02  0.19631094317E+03  0.92322948959E+02 0.  0.
          5    1    1    2  502    0 -0.91883249602E+01  0.24823040084E+02 -0.65729573217E+02  0.71014614200E+02  0.47000000000E+01 0.  1.
         -5    1    1    2    0  502  0.47595519081E+02  0.11897898496E+03  0.17039824689E+02  0.12935910453E+03  0.47000000000E+01 0.  1.
        -11    1    3    3    0    0  0.66917407231E+01 -0.24318381459E+02  0.60478637748E+02  0.65527312584E+02  0.00000000000E+00 0.  1.
         11    1    3    3    0    0 -0.45098934844E+02 -0.11948364359E+03  0.28179833565E+02  0.13078363058E+03  0.00000000000E+00 0. -1.
<mgrwt>
<rscale>  0 0.18937447E+03</rscale>
<asrwt>0</asrwt>
<pdfrwt beam="2">  1        1 0.27439688E-01 0.19436804E+03</pdfrwt>
<pdfrwt beam="1">  1       -1 0.33588722E-01 0.19436804E+03</pdfrwt>
<totfact> 0.14156600E+03</totfact>
</mgrwt>
</event>
<event>
 7    1  0.1020736E-005  0.1319332E+03  0.7546771E-02  0.1237593E+00
         -1   -1    0    0    0  501 -0.00000000000E+00  0.00000000000E+00  0.15609338588E+02  0.15609338588E+02  0.00000000000E+00 0.  1.
          1   -1    0    0  501    0  0.00000000000E+00 -0.00000000000E+00 -0.97670440045E+03  0.97670440045E+03  0.00000000000E+00 0. -1.
         23    2    1    2    0    0  0.37243582678E+02  0.19962706569E+02 -0.26006862994E+03  0.27898041333E+03  0.91699425515E+02 0.  0.
          5    1    1    2  502    0 -0.32185571627E+02 -0.21149597394E+02 -0.55212011754E+02  0.67480906432E+02  0.47000000000E+01 0.  1.
         -5    1    1    2    0  502 -0.50580110515E+01  0.11868908258E+01 -0.64581442017E+03  0.64585241927E+03  0.47000000000E+01 0.  1.
        -11    1    3    3    0    0  0.49157112106E+02 -0.19182254708E+02 -0.92539196636E+02  0.10652644498E+03  0.00000000000E+00 0. -1.
         11    1    3    3    0    0 -0.11913529428E+02  0.39144961276E+02 -0.16752943331E+03  0.17245396835E+03  0.00000000000E+00 0.  1.
<mgrwt>
<rscale>  0 0.12339874E+03</rscale>
<asrwt>0</asrwt>
<pdfrwt beam="2">  1        1 0.15026224E+00 0.13193322E+03</pdfrwt>
<pdfrwt beam="1">  1       -1 0.24014364E-02 0.13193322E+03</pdfrwt>
<totfact> 0.84249345E+03</totfact>
</mgrwt>
</event>
<event>
 7    1  0.1020736E-005  0.1755156E+03  0.7546771E-02  0.1178219E+00
          2   -1    0    0  501    0  0.00000000000E+00  0.00000000000E+00  0.46406633998E+03  0.46406633998E+03  0.00000000000E+00 0. -1.
         -2   -1    0    0    0  501 -0.00000000000E+00 -0.00000000000E+00 -0.74226705615E+02  0.74226705615E+02  0.00000000000E+00 0.  1.
         23    2    1    2    0    0 -0.12317193537E+03  0.30956715540E+01  0.59713779829E+02  0.16440962555E+03  0.91015826235E+02 0.  0.
          5    1    1    2  502    0  0.22421144959E+02  0.16193288799E+02 -0.10596496982E+00  0.28054082982E+02  0.47000000000E+01 0.  1.
         -5    1    1    2    0  502  0.10075079042E+03 -0.19288960353E+02  0.33023181950E+03  0.34582933706E+03  0.47000000000E+01 0.  1.
        -11    1    3    3    0    0 -0.10681262204E+03 -0.15841707451E+02  0.78177663254E+02  0.13331032576E+03  0.00000000000E+00 0. -1.
         11    1    3    3    0    0 -0.16359313338E+02  0.18937379005E+02 -0.18463883424E+02  0.31099299793E+02  0.00000000000E+00 0.  1.
<mgrwt>
<rscale>  0 0.16964416E+03</rscale>
<asrwt>0</asrwt>
<pdfrwt beam="1">  1        2 0.71394820E-01 0.17551562E+03</pdfrwt>
<pdfrwt beam="2">  1       -2 0.11419493E-01 0.17551562E+03</pdfrwt>
<totfact> 0.35562435E+03</totfact>
</mgrwt>
</event>
<event>
 7    1  0.1020736E-005  0.1280371E+03  0.7546771E-02  0.1240467E+00
         -2   -1    0    0    0  501 -0.00000000000E+00  0.00000000000E+00  0.17972979455E+03  0.17972979455E+03  0.00000000000E+00 0.  1.
          2   -1    0    0  501    0  0.00000000000E+00 -0.00000000000E+00 -0.10652521189E+03  0.10652521189E+03  0.00000000000E+00 0. -1.
         23    2    1    2    0    0  0.25142834776E+02 -0.11657393634E+02  0.11150589521E+03  0.15261184588E+03  0.10044278904E+03 0.  0.
          5    1    1    2  502    0 -0.25674138473E+01 -0.42967751963E+02 -0.56899860363E+02  0.71501772229E+02  0.47000000000E+01 0. -1.
         -5    1    1    2    0  502 -0.22575420929E+02  0.54625145597E+02  0.18598547809E+02  0.62141388319E+02  0.47000000000E+01 0. -1.
        -11    1    3    3    0    0  0.64100707813E+02 -0.23623066739E+01  0.68850304522E+02  0.94100189520E+02  0.00000000000E+00 0.  1.
         11    1    3    3    0    0 -0.38957873037E+02 -0.92950869599E+01  0.42655590692E+02  0.58511656364E+02  0.00000000000E+00 0. -1.
<mgrwt>
<rscale>  0 0.12160872E+03</rscale>
<asrwt>0</asrwt>
<pdfrwt beam="2">  1        2 0.16388494E-01 0.12803712E+03</pdfrwt>
<pdfrwt beam="1">  1       -2 0.27650738E-01 0.12803712E+03</pdfrwt>
<totfact> 0.39683777E+03</totfact>
</mgrwt>
</event>
<event>
 7    1  0.1020736E-005  0.1127644E+03  0.7546771E-02  0.1264826E+00
         -2   -1    0    0    0  501 -0.00000000000E+00  0.00000000000E+00  0.26586807168E+02  0.26586807168E+02  0.00000000000E+00 0.  1.
          2   -1    0    0  501    0  0.00000000000E+00 -0.00000000000E+00 -0.51063000447E+03  0.51063000447E+03  0.00000000000E+00 0. -1.
         23    2    1    2    0    0 -0.86224760164E+01 -0.14149915173E+02 -0.10108021702E+03  0.13799699275E+03  0.92473739755E+02 0.  0.
          5    1    1    2  502    0  0.66653172186E+01  0.62179910229E+02 -0.25034672499E+03  0.25808204200E+03  0.47000000000E+01 0. -1.
         -5    1    1    2    0  502  0.19571587978E+01 -0.48029995056E+02 -0.13261625530E+03  0.14113777689E+03  0.47000000000E+01 0.  1.
        -11    1    3    3    0    0 -0.42190448566E+02 -0.17186353850E+02 -0.19174493624E+02  0.49427380212E+02  0.00000000000E+00 0.  1.
         11    1    3    3    0    0  0.33567972550E+02  0.30364386773E+01 -0.81905723391E+02  0.88569612539E+02  0.00000000000E+00 0. -1.
<mgrwt>
<rscale>  0 0.10773315E+03</rscale>
<asrwt>0</asrwt>
<pdfrwt beam="2">  1        2 0.78558458E-01 0.11276444E+03</pdfrwt>
<pdfrwt beam="1">  1       -2 0.40902783E-02 0.11276444E+03</pdfrwt>
<totfact> 0.15041866E+04</totfact>
</mgrwt>
</event>
<event>
 7    1  0.1020736E-005  0.1940122E+03  0.7546771E-02  0.1165387E+00
         -1   -1    0    0    0  501 -0.00000000000E+00  0.00000000000E+00  0.58274616369E+03  0.58274616369E+03  0.00000000000E+00 0.  1.
          1   -1    0    0  501    0  0.00000000000E+00 -0.00000000000E+00 -0.54520316526E+02  0.54520316526E+02  0.00000000000E+00 0. -1.
         23    2    1    2    0    0 -0.11162600469E+03  0.54275263066E+02  0.31015490698E+03  0.34538349988E+03  0.87678541037E+02 0.  0.
          5    1    1    2  502    0  0.13589695466E+03 -0.64778910907E+02  0.12726345408E+03  0.19718612104E+03  0.47000000000E+01 0. -1.
         -5    1    1    2    0  502 -0.24270949973E+02  0.10503647841E+02  0.90807486096E+02  0.94696859302E+02  0.47000000000E+01 0.  1.
        -11    1    3    3    0    0 -0.16690178483E+02  0.51889681055E+02  0.84443586213E+02  0.10050781219E+03  0.00000000000E+00 0. -1.
         11    1    3    3    0    0 -0.94935826203E+02  0.23855820108E+01  0.22571132077E+03  0.24487568769E+03  0.00000000000E+00 0.  1.
<mgrwt>
<rscale>  0 0.18251917E+03</rscale>
<asrwt>0</asrwt>
<pdfrwt beam="2">  1        1 0.83877414E-02 0.19401221E+03</pdfrwt>
<pdfrwt beam="1">  1       -1 0.89653252E-01 0.19401221E+03</pdfrwt>
<totfact> 0.10366849E+03</totfact>
</mgrwt>
</event>
<event>
 7    1  0.2799282E-005  0.2029616E+03  0.7546771E-02  0.1151415E+00
          2   -1    0    0  501    0  0.00000000000E+00  0.00000000000E+00  0.12585389717E+04  0.12585389717E+04  0.00000000000E+00 0. -1.
         -2   -1    0    0    0  501 -0.00000000000E+00 -0.00000000000E+00 -0.29807969230E+02  0.29807969230E+02  0.00000000000E+00 0.  1.
         23    2    1    2    0    0 -0.11452129486E+02 -0.15948831912E+03  0.55212680841E+03  0.58195707503E+03  0.90897466405E+02 0.  0.
          5    1    1    2  502    0  0.16433574838E+02  0.51317315033E+02  0.61896833835E+02  0.82199983230E+02  0.47000000000E+01 0. -1.
         -5    1    1    2    0  502 -0.49814453518E+01  0.10817100409E+03  0.61470736020E+03  0.62418988266E+03  0.47000000000E+01 0. -1.
        -11    1    3    3    0    0  0.25881995253E+02 -0.89773807900E+02  0.19564827410E+03  0.21681204169E+03  0.00000000000E+00 0.  1.
         11    1    3    3    0    0 -0.37334124739E+02 -0.69714511220E+02  0.35647853431E+03  0.36514503334E+03  0.00000000000E+00 0. -1.
<mgrwt>
<rscale>  0 0.19802644E+03</rscale>
<asrwt>0</asrwt>
<pdfrwt beam="1">  1        2 0.19362134E+00 0.20296159E+03</pdfrwt>
<pdfrwt beam="2">  1       -2 0.45858424E-02 0.20296159E+03</pdfrwt>
<totfact> 0.41105791E+03</totfact>
</mgrwt>
</event>
<event>
 7    1  0.1020736E-005  0.1385311E+03  0.7546771E-02  0.1227345E+00
          1   -1    0    0  501    0  0.00000000000E+00  0.00000000000E+00  0.12256699839E+03  0.12256699839E+03  0.00000000000E+00 0. -1.
         -1   -1    0    0    0  501 -0.00000000000E+00 -0.00000000000E+00 -0.13438864811E+03  0.13438864811E+03  0.00000000000E+00 0.  1.
         23    2    1    2    0    0  0.49213314445E+02  0.33640234024E+02 -0.41290849177E+02  0.11532478583E+03  0.89673052454E+02 0.  0.
          5    1    1    2  502    0 -0.38464003772E+02 -0.44980683629E+02 -0.39138083416E+02  0.71109922369E+02  0.47000000000E+01 0. -1.
         -5    1    1    2    0  502 -0.10749310673E+02  0.11340449605E+02  0.68607282873E+02  0.70520938312E+02  0.47000000000E+01 0. -1.
        -11    1    3    3    0    0  0.41758282277E+02  0.15972536019E+02 -0.68643679610E+02  0.81919660620E+02  0.00000000000E+00 0.  1.
         11    1    3    3    0    0  0.74550321675E+01  0.17667698006E+02  0.27352830433E+02  0.33405125208E+02  0.00000000000E+00 0. -1.
<mgrwt>
<rscale>  0 0.13007497E+03</rscale>
<asrwt>0</asrwt>
<pdfrwt beam="1">  1        1 0.18856461E-01 0.13853110E+03</pdfrwt>
<pdfrwt beam="2">  1       -1 0.20675177E-01 0.13853110E+03</pdfrwt>
<totfact> 0.50325191E+03</totfact>
</mgrwt>
</event>
<event>
 7    1  0.1020736E-005  0.1341673E+03  0.7546771E-02  0.1233872E+00
          1   -1    0    0  501    0  0.00000000000E+00  0.00000000000E+00  0.69780098719E+03  0.69780098719E+03  0.00000000000E+00 0. -1.
         -1   -1    0    0    0  501 -0.00000000000E+00 -0.00000000000E+00 -0.22505396541E+02  0.22505396541E+02  0.00000000000E+00 0.  1.
         23    2    1    2    0    0 -0.37876300723E+02 -0.27864825043E+02  0.18552163333E+03  0.21248812453E+03  0.92313942611E+02 0.  0.
          5    1    1    2  502    0  0.18842747912E+02  0.58389236019E+02  0.44918248882E+03  0.45337771261E+03  0.47000000000E+01 0. -1.
         -5    1    1    2    0  502  0.19033552812E+02 -0.30524410976E+02  0.40591468490E+02  0.54440546582E+02  0.47000000000E+01 0.  1.
        -11    1    3    3    0    0 -0.57879589560E+02 -0.19104467053E+02  0.17989116399E+03  0.18993645893E+03  0.00000000000E+00 0. -1.
         11    1    3    3    0    0  0.20003288837E+02 -0.87603579904E+01  0.56304693462E+01  0.22551665603E+02  0.00000000000E+00 0.  1.
<mgrwt>
<rscale>  0 0.12576932E+03</rscale>
<asrwt>0</asrwt>
<pdfrwt beam="1">  1        1 0.10735398E+00 0.13416727E+03</pdfrwt>
<pdfrwt beam="2">  1       -1 0.34623692E-02 0.13416727E+03</pdfrwt>
<totfact> 0.82930194E+03</totfact>
</mgrwt>
</event>
<event>
 7    1  0.1020736E-005  0.1350174E+03  0.7546771E-02  0.1235355E+00
         -1   -1    0    0    0  501 -0.00000000000E+00  0.00000000000E+00  0.16779654794E+02  0.16779654794E+02  0.00000000000E+00 0.  1.
          1   -1    0    0  501    0  0.00000000000E+00 -0.00000000000E+00 -0.98510570878E+03  0.98510570878E+03  0.00000000000E+00 0. -1.
         23    2    1    2    0    0  0.49252776748E+02 -0.13387498989E+02 -0.21474684978E+03  0.23630628469E+03  0.84376475078E+02 0.  0.
          5    1    1    2  502    0  0.26350670868E+02  0.44783293896E+02 -0.33582509641E+03  0.33985362533E+03  0.47000000000E+01 0.  1.
         -5    1    1    2    0  502 -0.75603447616E+02 -0.31395794907E+02 -0.41775410780E+03  0.42572545357E+03  0.47000000000E+01 0.  1.
        -11    1    3    3    0    0  0.77023909301E+01 -0.38966482542E+02 -0.46640662096E+02  0.61262263658E+02  0.00000000000E+00 0.  1.
         11    1    3    3    0    0  0.41550385818E+02  0.25578983553E+02 -0.16810618768E+03  0.17504402103E+03  0.00000000000E+00 0. -1.
<mgrwt>
<rscale>  0 0.12481752E+03</rscale>
<asrwt>0</asrwt>
<pdfrwt beam="2">  1        1 0.15155468E+00 0.13501744E+03</pdfrwt>
<pdfrwt beam="1">  1       -1 0.25814861E-02 0.13501744E+03</pdfrwt>
<totfact> 0.74886934E+03</totfact>
</mgrwt>
</event>
<event>
 7    1  0.1020736E-005  0.1241752E+03  0.7546771E-02  0.1248769E+00
         -2   -1    0    0    0  501 -0.00000000000E+00  0.00000000000E+00  0.13968025009E+02  0.13968025009E+02  0.00000000000E+00 0.  1.
          2   -1    0    0  501    0  0.00000000000E+00 -0.00000000000E+00 -0.89296006030E+03  0.89296006030E+03  0.00000000000E+00 0. -1.
         23    2    1    2    0    0  0.20670945175E+02  0.21899067044E+02 -0.31789410991E+03  0.33225395924E+03  0.91810517953E+02 0.  0.
          5    1    1    2  502    0  0.44246443031E+02 -0.17424401172E+02 -0.36246616303E+03  0.36560247102E+03  0.47000000000E+01 0. -1.
         -5    1    1    2    0  502 -0.64917388206E+02 -0.44746658720E+01 -0.19863176235E+03  0.20907165504E+03  0.47000000000E+01 0.  1.
        -11    1    3    3    0    0 -0.25783609361E+02  0.39259956142E+02 -0.14873610553E+03  0.15597617689E+03  0.00000000000E+00 0.  1.
         11    1    3    3    0    0  0.46454554536E+02 -0.17360889098E+02 -0.16915800438E+03  0.17627778236E+03  0.00000000000E+00 0. -1.
<mgrwt>
<rscale>  0 0.11662625E+03</rscale>
<asrwt>0</asrwt>
<pdfrwt beam="2">  1        2 0.13737848E+00 0.12417516E+03</pdfrwt>
<pdfrwt beam="1">  1       -2 0.21489267E-02 0.12417516E+03</pdfrwt>
<totfact> 0.20160158E+04</totfact>
</mgrwt>
</event>
<event>
 7    1  0.1020736E-005  0.2371572E+03  0.7546771E-02  0.1124797E+00
          2   -1    0    0  501    0  0.00000000000E+00  0.00000000000E+00  0.30032486337E+03  0.30032486337E+03  0.00000000000E+00 0.  1.
         -2   -1    0    0    0  501 -0.00000000000E+00 -0.00000000000E+00 -0.17632919790E+03  0.17632919790E+03  0.00000000000E+00 0. -1.
         23    2    1    2    0    0  0.12522146799E+03 -0.15793712397E+03  0.30334543257E+02  0.22167179703E+03  0.87141551005E+02 0.  0.
          5    1    1    2  502    0 -0.44447145660E+02  0.13264588071E+03  0.17574117589E+02  0.14107238580E+03  0.47000000000E+01 0. -1.
         -5    1    1    2    0  502 -0.80774322326E+02  0.25291243265E+02  0.76087004626E+02  0.11390987844E+03  0.47000000000E+01 0. -1.
        -11    1    3    3    0    0  0.67266183861E+02 -0.27479024412E+02  0.30795811619E+02  0.78919061621E+02  0.00000000000E+00 0.  1.
         11    1    3    3    0    0  0.57955284126E+02 -0.13045809956E+03 -0.46126836176E+00  0.14275273541E+03  0.00000000000E+00 0. -1.
<mgrwt>
<rscale>  0 0.23263692E+03</rscale>
<asrwt>0</asrwt>
<pdfrwt beam="1">  1        2 0.46203825E-01 0.23715722E+03</pdfrwt>
<pdfrwt beam="2">  1       -2 0.27127569E-01 0.23715722E+03</pdfrwt>
<totfact> 0.13374596E+03</totfact>
</mgrwt>
</event>
<event>
 7    1  0.1020736E-005  0.1333793E+03  0.7546771E-02  0.1235257E+00
         -1   -1    0    0    0  501 -0.00000000000E+00  0.00000000000E+00  0.21230817091E+02  0.21230817091E+02  0.00000000000E+00 0.  1.
          1   -1    0    0  501    0  0.00000000000E+00 -0.00000000000E+00 -0.65515651705E+03  0.65515651705E+03  0.00000000000E+00 0. -1.
         23    2    1    2    0    0 -0.32339528648E+02  0.33441806532E+02 -0.27648428737E+03  0.29487142144E+03  0.91331234947E+02 0.  0.
          5    1    1    2  502    0  0.53355591818E+02 -0.46134437584E+02 -0.97798520405E+02  0.12067247450E+03  0.47000000000E+01 0.  1.
         -5    1    1    2    0  502 -0.21016063170E+02  0.12692631052E+02 -0.25964289218E+03  0.26084343820E+03  0.47000000000E+01 0.  1.
        -11    1    3    3    0    0 -0.24257780330E+02 -0.11520732797E+02 -0.17878305847E+02  0.32261447747E+02  0.00000000000E+00 0.  1.
         11    1    3    3    0    0 -0.80817483173E+01  0.44962539329E+02 -0.25860598153E+03  0.26260997369E+03  0.00000000000E+00 0. -1.
<mgrwt>
<rscale>  0 0.12488027E+03</rscale>
<asrwt>0</asrwt>
<pdfrwt beam="2">  1        1 0.10079332E+00 0.13337926E+03</pdfrwt>
<pdfrwt beam="1">  1       -1 0.32662794E-02 0.13337926E+03</pdfrwt>
<totfact> 0.98670967E+03</totfact>
</mgrwt>
</event>
<event>
 7    1  0.1020736E-005  0.1257426E+03  0.7546771E-02  0.1249272E+00
         -2   -1    0    0    0  501 -0.00000000000E+00  0.00000000000E+00  0.40791654537E+02  0.40791654537E+02  0.00000000000E+00 0.  1.
          2   -1    0    0  501    0  0.00000000000E+00 -0.00000000000E+00 -0.41714056554E+03  0.41714056554E+03  0.00000000000E+00 0. -1.
         23    2    1    2    0    0 -0.48327559095E+00  0.13732963360E+02 -0.43015873936E+02  0.10167090557E+03  0.91092149998E+02 0.  0.
          5    1    1    2  502    0  0.36504697193E+02  0.43079453537E+02 -0.18121175873E+03  0.18986369778E+03  0.47000000000E+01 0.  1.
         -5    1    1    2    0  502 -0.36021421602E+02 -0.56812416898E+02 -0.15212127834E+03  0.16639761672E+03  0.47000000000E+01 0.  1.
        -11    1    3    3    0    0  0.71700764242E+01 -0.84958865336E+01  0.26259115779E+02  0.28515456255E+02  0.00000000000E+00 0.  1.
         11    1    3    3    0    0 -0.76533520151E+01  0.22228849894E+02 -0.69274989715E+02  0.73155449317E+02  0.00000000000E+00 0. -1.
<mgrwt>
<rscale>  0 0.11633320E+03</rscale>
<asrwt>0</asrwt>
<pdfrwt beam="2">  1        2 0.64175473E-01 0.12574264E+03</pdfrwt>
<pdfrwt beam="1">  1       -2 0.62756390E-02 0.12574264E+03</pdfrwt>
<totfact> 0.99414274E+03</totfact>
</mgrwt>
</event>
<event>
 7    1  0.1020736E-005  0.1341512E+03  0.7546771E-02  0.1234931E+00
         -3   -1    0    0    0  501 -0.00000000000E+00  0.00000000000E+00  0.45685584455E+02  0.45685584455E+02  0.00000000000E+00 0.  1.
          3   -1    0    0  501    0  0.00000000000E+00 -0.00000000000E+00 -0.38942934343E+03  0.38942934343E+03  0.00000000000E+00 0. -1.
         23    2    1    2    0    0 -0.15372643361E+02 -0.46188846260E+02 -0.51911648292E+02  0.11392571143E+03  0.88963592632E+02 0.  0.
          5    1    1    2  502    0  0.15325933482E+02  0.61005500830E+02 -0.54533228133E+02  0.83381762630E+02  0.47000000000E+01 0. -1.
         -5    1    1    2    0  502  0.46709879803E-01 -0.14816654570E+02 -0.23729888255E+03  0.23780745382E+03  0.47000000000E+01 0. -1.
        -11    1    3    3    0    0  0.16797900313E+02 -0.46548238015E+02 -0.62805362721E+02  0.79958873827E+02  0.00000000000E+00 0. -1.
         11    1    3    3    0    0 -0.32170543675E+02  0.35939175445E+00  0.10893714429E+02  0.33966837604E+02  0.00000000000E+00 0.  1.
<mgrwt>
<rscale>  0 0.12508850E+03</rscale>
<asrwt>0</asrwt>
<pdfrwt beam="2">  1        3 0.59912207E-01 0.13415115E+03</pdfrwt>
<pdfrwt beam="1">  1       -3 0.70285514E-02 0.13415115E+03</pdfrwt>
<totfact> 0.83956618E+02</totfact>
</mgrwt>
</event>
<event>
 7    1  0.1020736E-005  0.1358355E+03  0.7546771E-02  0.1230836E+00
          2   -1    0    0  501    0  0.00000000000E+00  0.00000000000E+00  0.65158189240E+02  0.65158189240E+02  0.00000000000E+00 0. -1.
         -2   -1    0    0    0  501 -0.00000000000E+00 -0.00000000000E+00 -0.23503850745E+03  0.23503850745E+03  0.00000000000E+00 0.  1.
         23    2    1    2    0    0  0.48086408204E+02  0.22710043487E+02 -0.10599162294E+03  0.15008660401E+03  0.91998455647E+02 0.  0.
          5    1    1    2  502    0  0.20816097788E+02 -0.19900480655E+02 -0.74656879169E+02  0.80156588404E+02  0.47000000000E+01 0.  1.
         -5    1    1    2    0  502 -0.68902505992E+02 -0.28095628325E+01  0.10768183901E+02  0.69953504271E+02  0.47000000000E+01 0.  1.
        -11    1    3    3    0    0 -0.33219732902E+00  0.45999775665E+02 -0.23540514965E+02  0.51674418827E+02  0.00000000000E+00 0.  1.
         11    1    3    3    0    0  0.48418605533E+02 -0.23289732178E+02 -0.82451107974E+02  0.98412185185E+02  0.00000000000E+00 0. -1.
<mgrwt>
<rscale>  0 0.12774830E+03</rscale>
<asrwt>0</asrwt>
<pdfrwt beam="1">  1        2 0.10024337E-01 0.13583547E+03</pdfrwt>
<pdfrwt beam="2">  1       -2 0.36159771E-01 0.13583547E+03</pdfrwt>
<totfact> 0.43991617E+03</totfact>
</mgrwt>
</event>
<event>
 7    1  0.1020736E-005  0.2224521E+03  0.7546771E-02  0.1135436E+00
         -1   -1    0    0    0  501 -0.00000000000E+00  0.00000000000E+00  0.25978625103E+02  0.25978625103E+02  0.00000000000E+00 0.  1.
          1   -1    0    0  501    0  0.00000000000E+00 -0.00000000000E+00 -0.17805008795E+04  0.17805008795E+04  0.00000000000E+00 0. -1.
         23    2    1    2    0    0  0.41517659904E+02 -0.17926727434E+03 -0.73923080087E+03  0.76710388982E+03  0.90142826048E+02 0.  0.
          5    1    1    2  502    0  0.28833623931E+02  0.13342114409E+03 -0.56292200954E+03  0.57925457131E+03  0.47000000000E+01 0.  1.
         -5    1    1    2    0  502 -0.70351283835E+02  0.45846130249E+02 -0.45236944397E+03  0.46012104346E+03  0.47000000000E+01 0.  1.
        -11    1    3    3    0    0 -0.12750485695E+02 -0.62582009523E+02 -0.13532780071E+03  0.14964189402E+03  0.00000000000E+00 0.  1.
         11    1    3    3    0    0  0.54268145599E+02 -0.11668526481E+03 -0.60390300016E+03  0.61746199580E+03  0.00000000000E+00 0. -1.
<mgrwt>
<rscale>  0 0.21792933E+03</rscale>
<asrwt>0</asrwt>
<pdfrwt beam="2">  1        1 0.27392320E+00 0.22245209E+03</pdfrwt>
<pdfrwt beam="1">  1       -1 0.39967117E-02 0.22245209E+03</pdfrwt>
<totfact> 0.11574040E+03</totfact>
</mgrwt>
</event>
<event>
 7    1  0.1020736E-005  0.1465210E+03  0.7546771E-02  0.1215050E+00
         -1   -1    0    0    0  501 -0.00000000000E+00  0.00000000000E+00  0.69881095377E+02  0.69881095377E+02  0.00000000000E+00 0.  1.
          1   -1    0    0  501    0  0.00000000000E+00 -0.00000000000E+00 -0.26248627000E+03  0.26248627000E+03  0.00000000000E+00 0. -1.
         23    2    1    2    0    0  0.21455233558E+02 -0.73370886671E+02 -0.50066237244E+02  0.12795173058E+03  0.89562286648E+02 0.  0.
          5    1    1    2  502    0  0.42960631082E+02 -0.44514615001E+01 -0.58830789977E+02  0.73134008380E+02  0.47000000000E+01 0.  1.
         -5    1    1    2    0  502 -0.64415864640E+02  0.77822348172E+02 -0.83708147401E+02  0.13128162641E+03  0.47000000000E+01 0.  1.
        -11    1    3    3    0    0 -0.40708082557E+01 -0.67476331914E+02 -0.68250656653E+02  0.96061329274E+02  0.00000000000E+00 0. -1.
         11    1    3    3    0    0  0.25526041814E+02 -0.58945547578E+01  0.18184419408E+02  0.31890401310E+02  0.00000000000E+00 0.  1.
<mgrwt>
<rscale>  0 0.13872826E+03</rscale>
<asrwt>0</asrwt>
<pdfrwt beam="2">  1        1 0.40382504E-01 0.14652100E+03</pdfrwt>
<pdfrwt beam="1">  1       -1 0.10750938E-01 0.14652100E+03</pdfrwt>
<totfact> 0.54295304E+03</totfact>
</mgrwt>
</event>
<event>
 7    1  0.1020736E-005  0.1655984E+03  0.7546771E-02  0.1188824E+00
          2   -1    0    0  501    0  0.00000000000E+00  0.00000000000E+00  0.19445994258E+03  0.19445994258E+03  0.00000000000E+00 0. -1.
         -2   -1    0    0    0  501 -0.00000000000E+00 -0.00000000000E+00 -0.13104605143E+03  0.13104605143E+03  0.00000000000E+00 0.  1.
         23    2    1    2    0    0  0.10135683079E+03 -0.39049563566E+02 -0.10229143134E+02  0.14427097009E+03  0.94400221810E+02 0.  0.
          5    1    1    2  502    0 -0.41501496327E+02 -0.18711557121E+02 -0.24973474954E+02  0.52136944852E+02  0.47000000000E+01 0.  1.
         -5    1    1    2    0  502 -0.59855334464E+02  0.57761120687E+02  0.98616509239E+02  0.12909807908E+03  0.47000000000E+01 0.  1.
        -11    1    3    3    0    0  0.28373304330E+02 -0.59726464454E+02 -0.16516432255E+02  0.68154878689E+02  0.00000000000E+00 0. -1.
         11    1    3    3    0    0  0.72983526462E+02  0.20676900888E+02  0.62872891213E+01  0.76116091397E+02  0.00000000000E+00 0.  1.
<mgrwt>
<rscale>  0 0.15988705E+03</rscale>
<asrwt>0</asrwt>
<pdfrwt beam="1">  1        2 0.29916914E-01 0.16559842E+03</pdfrwt>
<pdfrwt beam="2">  1       -2 0.20160931E-01 0.16559842E+03</pdfrwt>
<totfact> 0.35469533E+03</totfact>
</mgrwt>
</event>
<event>
 7    1  0.1020736E-005  0.1288901E+03  0.7546771E-02  0.1243114E+00
         -2   -1    0    0    0  501 -0.00000000000E+00  0.00000000000E+00  0.12750753864E+03  0.12750753864E+03  0.00000000000E+00 0. -1.
          2   -1    0    0  501    0  0.00000000000E+00 -0.00000000000E+00 -0.10354566310E+03  0.10354566310E+03  0.00000000000E+00 0.  1.
         23    2    1    2    0    0  0.76978837066E+01 -0.30256805854E+02 -0.11196190066E+02  0.97453956364E+02  0.91636167669E+02 0.  0.
          5    1    1    2  502    0 -0.17767881293E+02 -0.18084470123E+02 -0.37569834793E+02  0.45566743922E+02  0.47000000000E+01 0.  1.
         -5    1    1    2    0  502  0.10069997587E+02  0.48341275977E+02  0.72727900403E+02  0.88032501450E+02  0.47000000000E+01 0.  1.
        -11    1    3    3    0    0  0.24105546169E+02 -0.58987477385E+02 -0.74499544953E+01  0.64156852060E+02  0.00000000000E+00 0. -1.
         11    1    3    3    0    0 -0.16407662463E+02  0.28730671530E+02 -0.37462355709E+01  0.33297104304E+02  0.00000000000E+00 0.  1.
<mgrwt>
<rscale>  0 0.11998953E+03</rscale>
<asrwt>0</asrwt>
<pdfrwt beam="2">  1        2 0.15930102E-01 0.12889014E+03</pdfrwt>
<pdfrwt beam="1">  1       -2 0.19616544E-01 0.12889014E+03</pdfrwt>
<totfact> 0.74224161E+03</totfact>
</mgrwt>
</event>
<event>
 7    1  0.1020736E-005  0.1479349E+03  0.7546771E-02  0.1212900E+00
          2   -1    0    0  501    0  0.00000000000E+00  0.00000000000E+00  0.19432985872E+03  0.19432985872E+03  0.00000000000E+00 0. -1.
         -2   -1    0    0    0  501 -0.00000000000E+00 -0.00000000000E+00 -0.93331057248E+02  0.93331057248E+02  0.00000000000E+00 0.  1.
         23    2    1    2    0    0 -0.68794527941E+02 -0.39101102692E+02  0.29348564815E+02  0.12328788005E+03  0.89872019034E+02 0.  0.
          5    1    1    2  502    0  0.84616163079E+02 -0.31221971067E+01  0.65684380337E+01  0.85058083374E+02  0.47000000000E+01 0. -1.
         -5    1    1    2    0  502 -0.15821635138E+02  0.42223299799E+02  0.65081798620E+02  0.79314952537E+02  0.47000000000E+01 0. -1.
        -11    1    3    3    0    0 -0.39777576752E+02 -0.45867029107E+02  0.56530706200E+02  0.82956378385E+02  0.00000000000E+00 0. -1.
         11    1    3    3    0    0 -0.29016951190E+02  0.67659264147E+01 -0.27182141386E+02  0.40331501669E+02  0.00000000000E+00 0.  1.
<mgrwt>
<rscale>  0 0.14031891E+03</rscale>
<asrwt>0</asrwt>
<pdfrwt beam="1">  1        2 0.29896901E-01 0.14793491E+03</pdfrwt>
<pdfrwt beam="2">  1       -2 0.14358624E-01 0.14793491E+03</pdfrwt>
<totfact> 0.62034285E+03</totfact>
</mgrwt>
</event>
<event>
 7    1  0.1020736E-005  0.1586324E+03  0.7546771E-02  0.1198287E+00
          3   -1    0    0  501    0  0.00000000000E+00  0.00000000000E+00  0.28095586832E+03  0.28095586832E+03  0.00000000000E+00 0. -1.
         -3   -1    0    0    0  501 -0.00000000000E+00 -0.00000000000E+00 -0.78434831446E+02  0.78434831446E+02  0.00000000000E+00 0.  1.
         23    2    1    2    0    0  0.88666539265E+02  0.40963596275E+02  0.12624771200E+03  0.18337406178E+03  0.90265111449E+02 0.  0.
          5    1    1    2  502    0 -0.67929703039E+02 -0.36774766875E+02 -0.17858858908E+02  0.79422017572E+02  0.47000000000E+01 0.  1.
         -5    1    1    2    0  502 -0.20736836226E+02 -0.41888293996E+01  0.94132183789E+02  0.96594620416E+02  0.47000000000E+01 0.  1.
        -11    1    3    3    0    0  0.38290305908E+02  0.35909134132E+02  0.12170286266E+03  0.13254131515E+03  0.00000000000E+00 0. -1.
         11    1    3    3    0    0  0.50376233356E+02  0.50544621430E+01  0.45448493315E+01  0.50832746632E+02  0.00000000000E+00 0.  1.
<mgrwt>
<rscale>  0 0.15179323E+03</rscale>
<asrwt>0</asrwt>
<pdfrwt beam="1">  1        3 0.43223980E-01 0.15863240E+03</pdfrwt>
<pdfrwt beam="2">  1       -3 0.12066897E-01 0.15863240E+03</pdfrwt>
<totfact> 0.68020329E+02</totfact>
</mgrwt>
</event>
<event>
 7    1  0.1020736E-005  0.2186995E+03  0.7546771E-02  0.1134856E+00
          1   -1    0    0  501    0  0.00000000000E+00  0.00000000000E+00  0.86276210083E+02  0.86276210083E+02  0.00000000000E+00 0. -1.
         -1   -1    0    0    0  501 -0.00000000000E+00 -0.00000000000E+00 -0.13859399947E+03  0.13859399947E+03  0.00000000000E+00 0.  1.
         23    2    1    2    0    0 -0.75161545159E+01 -0.11816972362E+02 -0.33874848426E+02  0.97745417003E+02  0.90611962647E+02 0.  0.
          5    1    1    2  502    0  0.37368325649E+02  0.36870608398E+02  0.33173925676E+02  0.62277065363E+02  0.47000000000E+01 0. -1.
         -5    1    1    2    0  502 -0.29852171134E+02 -0.25053636036E+02 -0.51616866642E+02  0.64847727192E+02  0.47000000000E+01 0. -1.
        -11    1    3    3    0    0  0.46065414202E+01 -0.12633023915E+02 -0.63929159039E+02  0.65328025323E+02  0.00000000000E+00 0.  1.
         11    1    3    3    0    0 -0.12122695936E+02  0.81605155329E+00  0.30054310614E+02  0.32417391681E+02  0.00000000000E+00 0. -1.
<mgrwt>
<rscale>  0 0.21869947E+03</rscale>
<asrwt>0</asrwt>
<pdfrwt beam="1">  1        1 0.13273263E-01 0.21869947E+03</pdfrwt>
<pdfrwt beam="2">  1       -1 0.21322154E-01 0.21869947E+03</pdfrwt>
<totfact> 0.77748235E+03</totfact>
</mgrwt>
</event>
<event>
 7    1  0.1020736E-005  0.1510148E+03  0.7546771E-02  0.1207689E+00
          1   -1    0    0  501    0  0.00000000000E+00  0.00000000000E+00  0.50567127522E+03  0.50567127522E+03  0.00000000000E+00 0. -1.
         -1   -1    0    0    0  501 -0.00000000000E+00 -0.00000000000E+00 -0.38437676274E+02  0.38437676274E+02  0.00000000000E+00 0.  1.
         23    2    1    2    0    0  0.84728522058E+02  0.13320857892E+01  0.18018807796E+03  0.21976251819E+03  0.92989913772E+02 0.  0.
          5    1    1    2  502    0 -0.10705915015E+03  0.27742036498E+02  0.24172780020E+03  0.26586782733E+03  0.47000000000E+01 0. -1.
         -5    1    1    2    0  502  0.22330628097E+02 -0.29074122288E+02  0.45317720787E+02  0.58478605963E+02  0.47000000000E+01 0. -1.
        -11    1    3    3    0    0  0.87280809354E+02 -0.24380011776E+02  0.97408650542E+02  0.13304424022E+03  0.00000000000E+00 0.  1.
         11    1    3    3    0    0 -0.25522872967E+01  0.25712097565E+02  0.82779427414E+02  0.86718277973E+02  0.00000000000E+00 0. -1.
<mgrwt>
<rscale>  0 0.14427541E+03</rscale>
<asrwt>0</asrwt>
<pdfrwt beam="1">  1        1 0.77795576E-01 0.15101483E+03</pdfrwt>
<pdfrwt beam="2">  1       -1 0.59134890E-02 0.15101483E+03</pdfrwt>
<totfact> 0.58759936E+03</totfact>
</mgrwt>
</event>
<event>
 7    1  0.1020736E-005  0.1708987E+03  0.7546771E-02  0.1183734E+00
          1   -1    0    0  501    0  0.00000000000E+00  0.00000000000E+00  0.43364451111E+03  0.43364451111E+03  0.00000000000E+00 0. -1.
         -1   -1    0    0    0  501 -0.00000000000E+00 -0.00000000000E+00 -0.58537349002E+02  0.58537349002E+02  0.00000000000E+00 0.  1.
         23    2    1    2    0    0 -0.10752057313E+03 -0.44959826322E+02  0.15265993385E+03  0.21166604142E+03  0.88968522845E+02 0.  0.
          5    1    1    2  502    0  0.27782267171E+02  0.27409456726E+02  0.18750603755E+03  0.19158219334E+03  0.47000000000E+01 0. -1.
         -5    1    1    2    0  502  0.79738305963E+02  0.17550369596E+02  0.34941190713E+02  0.88933625357E+02  0.47000000000E+01 0. -1.
        -11    1    3    3    0    0 -0.22851298933E+02 -0.47525724830E+02  0.24757418098E+02  0.58256382779E+02  0.00000000000E+00 0.  1.
         11    1    3    3    0    0 -0.84669274201E+02  0.25658985082E+01  0.12790251575E+03  0.15340965864E+03  0.00000000000E+00 0. -1.
<mgrwt>
<rscale>  0 0.16447595E+03</rscale>
<asrwt>0</asrwt>
<pdfrwt beam="1">  1        1 0.66714538E-01 0.17089867E+03</pdfrwt>
<pdfrwt beam="2">  1       -1 0.90057463E-02 0.17089867E+03</pdfrwt>
<totfact> 0.38243641E+03</totfact>
</mgrwt>
</event>
<event>
 7    1  0.1020736E-005  0.1805944E+03  0.7546771E-02  0.1172739E+00
          1   -1    0    0  501    0  0.00000000000E+00  0.00000000000E+00  0.27084363058E+03  0.27084363058E+03  0.00000000000E+00 0. -1.
         -1   -1    0    0    0  501 -0.00000000000E+00 -0.00000000000E+00 -0.21732893306E+03  0.21732893306E+03  0.00000000000E+00 0.  1.
         23    2    1    2    0    0  0.55216757610E+02 -0.11808616562E+03 -0.14814170136E+03  0.21747042816E+03  0.91401261553E+02 0.  0.
          5    1    1    2  502    0 -0.19662964718E+02  0.25146047428E+02  0.15915937212E+03  0.16239689534E+03  0.47000000000E+01 0.  1.
         -5    1    1    2    0  502 -0.35553792892E+02  0.92940118190E+02  0.42497026751E+02  0.10830524014E+03  0.47000000000E+01 0.  1.
        -11    1    3    3    0    0  0.10899125769E+02 -0.47255127162E+02 -0.12895312077E+01  0.48512893919E+02  0.00000000000E+00 0. -1.
         11    1    3    3    0    0  0.44317631840E+02 -0.70831038456E+02 -0.14685217015E+03  0.16895753424E+03  0.00000000000E+00 0.  1.
<mgrwt>
<rscale>  0 0.17499271E+03</rscale>
<asrwt>0</asrwt>
<pdfrwt beam="1">  1        1 0.41668251E-01 0.18059442E+03</pdfrwt>
<pdfrwt beam="2">  1       -1 0.33435221E-01 0.18059442E+03</pdfrwt>
<totfact> 0.84464936E+02</totfact>
</mgrwt>
</event>
<event>
 7    1  0.1020736E-005  0.1343115E+03  0.7546771E-02  0.1233539E+00
         -4   -1    0    0    0  501 -0.00000000000E+00  0.00000000000E+00  0.81453627150E+02  0.81453627150E+02  0.00000000000E+00 0.  1.
          4   -1    0    0  501    0  0.00000000000E+00 -0.00000000000E+00 -0.39229060374E+03  0.39229060374E+03  0.00000000000E+00 0. -1.
         23    2    1    2    0    0 -0.14209070199E+02 -0.47037050290E+02  0.29321096511E+02  0.10802974304E+03  0.91631418762E+02 0.  0.
          5    1    1    2  502    0 -0.79307147000E+01  0.86636304232E+02 -0.24858717400E+03  0.26341301890E+03  0.47000000000E+01 0.  1.
         -5    1    1    2    0  502  0.22139784899E+02 -0.39599253942E+02 -0.91570899096E+02  0.10230146895E+03  0.47000000000E+01 0.  1.
        -11    1    3    3    0    0  0.39227797889E+02 -0.20739273862E+02  0.10957244973E+02  0.45705566674E+02  0.00000000000E+00 0. -1.
         11    1    3    3    0    0 -0.53436868088E+02 -0.26297776428E+02  0.18363851538E+02  0.62324176364E+02  0.00000000000E+00 0.  1.
<mgrwt>
<rscale>  0 0.12598434E+03</rscale>
<asrwt>0</asrwt>
<pdfrwt beam="2">  1        4 0.60352402E-01 0.13431147E+03</pdfrwt>
<pdfrwt beam="1">  1       -4 0.12531327E-01 0.13431147E+03</pdfrwt>
<totfact> 0.22508077E+02</totfact>
</mgrwt>
</event>
<event>
 7    1  0.1020736E-005  0.3256686E+03  0.7546771E-02  0.1074388E+00
          1   -1    0    0  501    0  0.00000000000E+00  0.00000000000E+00  0.26561273755E+03  0.26561273755E+03  0.00000000000E+00 0. -1.
         -1   -1    0    0    0  501 -0.00000000000E+00 -0.00000000000E+00 -0.38615765565E+03  0.38615765565E+03  0.00000000000E+00 0.  1.
         23    2    1    2    0    0  0.24861501891E+03 -0.16918821317E+03 -0.44134903977E+02  0.31725800235E+03  0.90943230641E+02 0.  0.
          5    1    1    2  502    0 -0.82372870048E+02 -0.75639897780E+01 -0.15459454489E+02  0.84282788246E+02  0.47000000000E+01 0.  1.
         -5    1    1    2    0  502 -0.16624214886E+03  0.17675220295E+03 -0.60950559630E+02  0.25022960261E+03  0.47000000000E+01 0.  1.
        -11    1    3    3    0    0  0.91956683090E+02 -0.11747193944E+03 -0.19371619248E+02  0.15043585927E+03  0.00000000000E+00 0.  1.
         11    1    3    3    0    0  0.15665833582E+03 -0.51716273727E+02 -0.24763284729E+02  0.16682214308E+03  0.00000000000E+00 0. -1.
<mgrwt>
<rscale>  0 0.32275590E+03</rscale>
<asrwt>0</asrwt>
<pdfrwt beam="1">  1        1 0.40863498E-01 0.32566862E+03</pdfrwt>
<pdfrwt beam="2">  1       -1 0.59408870E-01 0.32566862E+03</pdfrwt>
<totfact> 0.30385087E+02</totfact>
</mgrwt>
</event>
<event>
 7    1  0.1020736E-005  0.1325793E+03  0.7546771E-02  0.1237183E+00
          2   -1    0    0  501    0  0.00000000000E+00  0.00000000000E+00  0.12355354553E+04  0.12355354553E+04  0.00000000000E+00 0.  1.
         -2   -1    0    0    0  501 -0.00000000000E+00 -0.00000000000E+00 -0.11376850556E+02  0.11376850556E+02  0.00000000000E+00 0. -1.
         23    2    1    2    0    0  0.29545991265E+02 -0.32790323447E+02  0.41448864642E+03  0.42645956298E+03  0.90104106067E+02 0.  0.
          5    1    1    2  502    0 -0.75784431291E+02  0.14687055722E+01  0.50352240746E+03  0.50921738181E+03  0.47000000000E+01 0. -1.
         -5    1    1    2    0  502  0.46238440026E+02  0.31321617875E+02  0.30614755089E+03  0.31123536110E+03  0.47000000000E+01 0. -1.
        -11    1    3    3    0    0  0.11018870745E+02  0.31349437436E+02  0.15480957970E+03  0.15833574678E+03  0.00000000000E+00 0. -1.
         11    1    3    3    0    0  0.18527120520E+02 -0.64139760883E+02  0.25967906672E+03  0.26812381620E+03  0.00000000000E+00 0.  1.
<mgrwt>
<rscale>  0 0.12365702E+03</rscale>
<asrwt>0</asrwt>
<pdfrwt beam="1">  1        2 0.19008227E+00 0.13257927E+03</pdfrwt>
<pdfrwt beam="2">  1       -2 0.17502857E-02 0.13257927E+03</pdfrwt>
<totfact> 0.17223569E+04</totfact>
</mgrwt>
</event>
<event>
 7    1  0.1020736E-005  0.2153731E+03  0.7546771E-02  0.1171759E+00
          2   -1    0    0  501    0  0.00000000000E+00  0.00000000000E+00  0.16604103963E+04  0.16604103963E+04  0.00000000000E+00 0. -1.
         -2   -1    0    0    0  501 -0.00000000000E+00 -0.00000000000E+00 -0.15014800342E+02  0.15014800342E+02  0.00000000000E+00 0.  1.
         23    2    1    2    0    0 -0.27789442901E+02  0.81151569369E+01  0.38654681783E+03  0.39828549810E+03  0.91513860761E+02 0.  0.
          5    1    1    2  502    0  0.24082301796E+02 -0.17374773789E+02  0.12644259833E+04  0.12647833796E+04  0.47000000000E+01 0. -1.
         -5    1    1    2    0  502  0.37071411051E+01  0.92596168519E+01 -0.55772052100E+01  0.12356318925E+02  0.47000000000E+01 0.  1.
        -11    1    3    3    0    0 -0.89393664064E+01 -0.41464907958E+02  0.19264324229E+03  0.19725787605E+03  0.00000000000E+00 0. -1.
         11    1    3    3    0    0 -0.18850076495E+02  0.49580064895E+02  0.19390357554E+03  0.20102762205E+03  0.00000000000E+00 0.  1.
<mgrwt>
<rscale>  0 0.17597180E+03</rscale>
<asrwt>0</asrwt>
<pdfrwt beam="1">  1        2 0.25544761E+00 0.21537308E+03</pdfrwt>
<pdfrwt beam="2">  1       -2 0.23099706E-02 0.21537308E+03</pdfrwt>
<totfact> 0.69683732E+03</totfact>
</mgrwt>
</event>
<event>
 7    1  0.1020736E-005  0.1395906E+03  0.7546771E-02  0.1226061E+00
          2   -1    0    0  501    0  0.00000000000E+00  0.00000000000E+00  0.30655251597E+02  0.30655251597E+02  0.00000000000E+00 0. -1.
         -2   -1    0    0    0  501 -0.00000000000E+00 -0.00000000000E+00 -0.50856172131E+03  0.50856172131E+03  0.00000000000E+00 0.  1.
         23    2    1    2    0    0 -0.16741878276E+02 -0.60031058555E+02 -0.24318990328E+03  0.26612833657E+03  0.88311629971E+02 0.  0.
          5    1    1    2  502    0  0.53107614218E+02  0.73976096398E+02 -0.20335416452E+03  0.22286293490E+03  0.47000000000E+01 0. -1.
         -5    1    1    2    0  502 -0.36365735942E+02 -0.13945037843E+02 -0.31362401918E+02  0.50225701440E+02  0.47000000000E+01 0. -1.
        -11    1    3    3    0    0  0.28859015114E+02  0.27165200506E+01 -0.47765171417E+02  0.55872478333E+02  0.00000000000E+00 0. -1.
         11    1    3    3    0    0 -0.45600893390E+02 -0.62747578606E+02 -0.19542473186E+03  0.21025585824E+03  0.00000000000E+00 0.  1.
<mgrwt>
<rscale>  0 0.13094420E+03</rscale>
<asrwt>0</asrwt>
<pdfrwt beam="1">  1        2 0.47161927E-02 0.13959060E+03</pdfrwt>
<pdfrwt beam="2">  1       -2 0.78240262E-01 0.13959060E+03</pdfrwt>
<totfact> 0.24409694E+03</totfact>
</mgrwt>
</event>
<event>
 7    1  0.1020736E-005  0.1346061E+03  0.7546771E-02  0.1234341E+00
         -2   -1    0    0    0  501 -0.00000000000E+00  0.00000000000E+00  0.11229115917E+03  0.11229115917E+03  0.00000000000E+00 0.  1.
          2   -1    0    0  501    0  0.00000000000E+00 -0.00000000000E+00 -0.13695719214E+03  0.13695719214E+03  0.00000000000E+00 0. -1.
         23    2    1    2    0    0  0.25940413194E+02 -0.42658470455E+02  0.26892402686E+02  0.10510581488E+03  0.88495089471E+02 0.  0.
          5    1    1    2  502    0 -0.22575411412E+02 -0.42779565727E+02 -0.13544126791E+02  0.50450706782E+02  0.47000000000E+01 0.  1.
         -5    1    1    2    0  502 -0.33650017814E+01  0.85438036183E+02 -0.38014308866E+02  0.93691829645E+02  0.47000000000E+01 0.  1.
        -11    1    3    3    0    0 -0.50836453884E+01 -0.55059311449E+02 -0.90543600555E+01  0.56029926501E+02  0.00000000000E+00 0. -1.
         11    1    3    3    0    0  0.31024058582E+02  0.12400840994E+02  0.35946762742E+02  0.49075888376E+02  0.00000000000E+00 0.  1.
<mgrwt>
<rscale>  0 0.12546705E+03</rscale>
<asrwt>0</asrwt>
<pdfrwt beam="2">  1        2 0.21070337E-01 0.13460609E+03</pdfrwt>
<pdfrwt beam="1">  1       -2 0.17275563E-01 0.13460609E+03</pdfrwt>
<totfact> 0.66924206E+03</totfact>
</mgrwt>
</event>
<event>
 7    1  0.1020736E-005  0.1418385E+03  0.7546771E-02  0.1230418E+00
         -1   -1    0    0    0  501 -0.00000000000E+00  0.00000000000E+00  0.23002295667E+02  0.23002295667E+02  0.00000000000E+00 0.  1.
          1   -1    0    0  501    0  0.00000000000E+00 -0.00000000000E+00 -0.67288593014E+03  0.67288593014E+03  0.00000000000E+00 0. -1.
         23    2    1    2    0    0 -0.32049719615E+02 -0.16184183401E+02 -0.15757674902E+03  0.18355607608E+03  0.87024645443E+02 0.  0.
          5    1    1    2  502    0  0.75521506143E+02  0.44815447682E+02 -0.26987783636E+03  0.28384513172E+03  0.47000000000E+01 0. -1.
         -5    1    1    2    0  502 -0.43471786528E+02 -0.28631264281E+02 -0.22242904910E+03  0.22848701801E+03  0.47000000000E+01 0.  1.
        -11    1    3    3    0    0  0.35679489630E+01 -0.21622633427E+02 -0.25356959543E-02  0.21915030061E+02  0.00000000000E+00 0.  1.
         11    1    3    3    0    0 -0.35617668578E+02  0.54384500264E+01 -0.15757421332E+03  0.16164104602E+03  0.00000000000E+00 0. -1.
<mgrwt>
<rscale>  0 0.12802345E+03</rscale>
<asrwt>0</asrwt>
<pdfrwt beam="2">  1        1 0.10352091E+00 0.14183851E+03</pdfrwt>
<pdfrwt beam="1">  1       -1 0.35388146E-02 0.14183851E+03</pdfrwt>
<totfact> 0.84858121E+03</totfact>
</mgrwt>
</event>
<event>
 7    1  0.1020736E-005  0.1557067E+03  0.7546771E-02  0.1218562E+00
         -1   -1    0    0    0  501 -0.00000000000E+00  0.00000000000E+00  0.24567902315E+02  0.24567902315E+02  0.00000000000E+00 0.  1.
          1   -1    0    0  501    0  0.00000000000E+00 -0.00000000000E+00 -0.68940628505E+03  0.68940628505E+03  0.00000000000E+00 0. -1.
         23    2    1    2    0    0 -0.20189201459E+02  0.17168504534E+02 -0.14436119433E+03  0.17070530311E+03  0.87165272210E+02 0.  0.
          5    1    1    2  502    0  0.31965882815E+02  0.38676596097E+02 -0.44834424111E+03  0.45116775736E+03  0.47000000000E+01 0. -1.
         -5    1    1    2    0  502 -0.11776681356E+02 -0.55845100631E+02 -0.72132947299E+02  0.92101126889E+02  0.47000000000E+01 0.  1.
        -11    1    3    3    0    0  0.28361376191E+02  0.26320792743E+02 -0.42378559694E+02  0.57385486944E+02  0.00000000000E+00 0. -1.
         11    1    3    3    0    0 -0.48550577650E+02 -0.91522882091E+01 -0.10198263463E+03  0.11331981617E+03  0.00000000000E+00 0.  1.
<mgrwt>
<rscale>  0 0.13618090E+03</rscale>
<asrwt>0</asrwt>
<pdfrwt beam="2">  1        1 0.10606250E+00 0.15570670E+03</pdfrwt>
<pdfrwt beam="1">  1       -1 0.37796774E-02 0.15570670E+03</pdfrwt>
<totfact> 0.74831640E+03</totfact>
</mgrwt>
</event>
<event>
 7    1  0.1020736E-005  0.1400837E+03  0.7546771E-02  0.1222225E+00
          1   -1    0    0  501    0  0.00000000000E+00  0.00000000000E+00  0.77133709131E+03  0.77133709131E+03  0.00000000000E+00 0. -1.
         -1   -1    0    0    0  501 -0.00000000000E+00 -0.00000000000E+00 -0.24099250948E+02  0.24099250948E+02  0.00000000000E+00 0.  1.
         23    2    1    2    0    0  0.34956920948E+02 -0.65125011944E+02  0.20580418968E+03  0.23617447354E+03  0.89217509269E+02 0.  0.
          5    1    1    2  502    0 -0.74612400871E+02  0.20396688798E+02  0.25045173484E+03  0.26216635322E+03  0.47000000000E+01 0. -1.
         -5    1    1    2    0  502  0.39655479923E+02  0.44728323147E+02  0.29098191584E+03  0.29709551550E+03  0.47000000000E+01 0.  1.
        -11    1    3    3    0    0 -0.22209689185E+02 -0.34980438352E+02  0.13060271951E+03  0.13701814370E+03  0.00000000000E+00 0. -1.
         11    1    3    3    0    0  0.57166610132E+02 -0.30144573593E+02  0.75201470171E+02  0.99156329839E+02  0.00000000000E+00 0.  1.
<mgrwt>
<rscale>  0 0.13358938E+03</rscale>
<asrwt>0</asrwt>
<pdfrwt beam="1">  1        1 0.11866723E+00 0.14008369E+03</pdfrwt>
<pdfrwt beam="2">  1       -1 0.37075777E-02 0.14008369E+03</pdfrwt>
<totfact> 0.65004406E+03</totfact>
</mgrwt>
</event>
<event>
 7    1  0.1652365E-005  0.3505534E+03  0.7546771E-02  0.1063515E+00
         -4   -1    0    0    0  501 -0.00000000000E+00  0.00000000000E+00  0.31843707569E+03  0.31843707569E+03  0.00000000000E+00 0.  1.
          4   -1    0    0  501    0  0.00000000000E+00 -0.00000000000E+00 -0.56683456290E+03  0.56683456290E+03  0.00000000000E+00 0. -1.
         23    2    1    2    0    0 -0.32242250643E+03  0.57500635294E+02  0.13517626329E+03  0.36564048507E+03  0.90320243854E+02 0.  0.
          5    1    1    2  502    0  0.20133942203E+03 -0.70023266322E+02 -0.16578669800E+03  0.27008913330E+03  0.47000000000E+01 0. -1.
         -5    1    1    2    0  502  0.12108308440E+03  0.12522631028E+02 -0.21778705251E+03  0.24954202022E+03  0.47000000000E+01 0. -1.
        -11    1    3    3    0    0 -0.19775396242E+03  0.72960296427E+02  0.10907742684E+03  0.23733461516E+03  0.00000000000E+00 0.  1.
         11    1    3    3    0    0 -0.12466854401E+03 -0.15459661133E+02  0.26098836452E+02  0.12830586991E+03  0.00000000000E+00 0. -1.
<mgrwt>
<rscale>  0 0.34781713E+03</rscale>
<asrwt>0</asrwt>
<pdfrwt beam="2">  1        4 0.87205317E-01 0.35055344E+03</pdfrwt>
<pdfrwt beam="1">  1       -4 0.48990319E-01 0.35055344E+03</pdfrwt>
<totfact> 0.87488820E+00</totfact>
</mgrwt>
</event>
<event>
 7    1  0.1020736E-005  0.1467664E+03  0.7546771E-02  0.1214312E+00
         -2   -1    0    0    0  501 -0.00000000000E+00  0.00000000000E+00  0.18039827184E+02  0.18039827184E+02  0.00000000000E+00 0.  1.
          2   -1    0    0  501    0  0.00000000000E+00 -0.00000000000E+00 -0.10547782560E+04  0.10547782560E+04  0.00000000000E+00 0. -1.
         23    2    1    2    0    0 -0.75962855599E+02 -0.11874655467E+02 -0.32496117980E+03  0.34606693983E+03  0.90836091924E+02 0.  0.
          5    1    1    2  502    0 -0.31402171061E+02 -0.15682331833E+02 -0.15002697801E+03  0.15414997895E+03  0.47000000000E+01 0. -1.
         -5    1    1    2    0  502  0.10736502666E+03  0.27556987300E+02 -0.56175027101E+03  0.57260116440E+03  0.47000000000E+01 0. -1.
        -11    1    3    3    0    0 -0.84692328109E+01 -0.35572693456E+02 -0.49947268686E+02  0.61902133027E+02  0.00000000000E+00 0.  1.
         11    1    3    3    0    0 -0.67493622788E+02  0.23698037989E+02 -0.27501391111E+03  0.28416480680E+03  0.00000000000E+00 0. -1.
<mgrwt>
<rscale>  0 0.13927163E+03</rscale>
<asrwt>0</asrwt>
<pdfrwt beam="2">  1        2 0.16227361E+00 0.14676639E+03</pdfrwt>
<pdfrwt beam="1">  1       -2 0.27753575E-02 0.14676639E+03</pdfrwt>
<totfact> 0.11196585E+04</totfact>
</mgrwt>
</event>
<event>
 7    1  0.1020736E-005  0.1195340E+03  0.7546771E-02  0.1251761E+00
          2   -1    0    0  501    0  0.00000000000E+00  0.00000000000E+00  0.12710182201E+03  0.12710182201E+03  0.00000000000E+00 0. -1.
         -2   -1    0    0    0  501 -0.00000000000E+00 -0.00000000000E+00 -0.10237898346E+03  0.10237898346E+03  0.00000000000E+00 0.  1.
         23    2    1    2    0    0 -0.38080406374E+02 -0.24157519500E+02 -0.15823544766E+02  0.10325728408E+03  0.91531300922E+02 0.  0.
          5    1    1    2  502    0  0.56473524267E+02  0.56610319338E+02  0.37669712558E+02  0.88516012352E+02  0.47000000000E+01 0. -1.
         -5    1    1    2    0  502 -0.18393117893E+02 -0.32452799838E+02  0.28766707533E+01  0.37707509037E+02  0.47000000000E+01 0.  1.
        -11    1    3    3    0    0 -0.31809420674E+02  0.12763878065E+02 -0.44442476278E+02  0.56123876600E+02  0.00000000000E+00 0.  1.
         11    1    3    3    0    0 -0.62709856998E+01 -0.36921397565E+02  0.28618931511E+02  0.47133407480E+02  0.00000000000E+00 0. -1.
<mgrwt>
<rscale>  0 0.11489698E+03</rscale>
<asrwt>0</asrwt>
<pdfrwt beam="1">  1        2 0.19554126E-01 0.11953396E+03</pdfrwt>
<pdfrwt beam="2">  1       -2 0.15750613E-01 0.11953396E+03</pdfrwt>
<totfact> 0.84018144E+03</totfact>
</mgrwt>
</event>
<event>
 7    1  0.1020736E-005  0.3394965E+03  0.7546771E-02  0.1068197E+00
         -2   -1    0    0    0  501 -0.00000000000E+00  0.00000000000E+00  0.25038327328E+03  0.25038327328E+03  0.00000000000E+00 0.  1.
          2   -1    0    0  501    0  0.00000000000E+00 -0.00000000000E+00 -0.58607567685E+03  0.58607567685E+03  0.00000000000E+00 0. -1.
         23    2    1    2    0    0 -0.12121185361E+03  0.29143392189E+03  0.38962251640E+02  0.33086625645E+03  0.91259949152E+02 0.  0.
          5    1    1    2  502    0  0.85029670476E+00 -0.10780650225E+03 -0.19071467488E+03  0.21912814093E+03  0.47000000000E+01 0.  1.
         -5    1    1    2    0  502  0.12036155691E+03 -0.18362741964E+03 -0.18393998033E+03  0.28646455276E+03  0.47000000000E+01 0.  1.
        -11    1    3    3    0    0 -0.11978231459E+03  0.24847778279E+03  0.46692814353E+01  0.27588188345E+03  0.00000000000E+00 0. -1.
         11    1    3    3    0    0 -0.14295390221E+01  0.42956139099E+02  0.34292970204E+02  0.54984372994E+02  0.00000000000E+00 0.  1.
<mgrwt>
<rscale>  0 0.33672977E+03</rscale>
<asrwt>0</asrwt>
<pdfrwt beam="2">  1        2 0.90165489E-01 0.33949648E+03</pdfrwt>
<pdfrwt beam="1">  1       -2 0.38520504E-01 0.33949648E+03</pdfrwt>
<totfact> 0.33318052E+02</totfact>
</mgrwt>
</event>
<event>
 7    1  0.1020736E-005  0.1359136E+03  0.7546771E-02  0.1231292E+00
          2   -1    0    0  501    0  0.00000000000E+00  0.00000000000E+00  0.18970517806E+03  0.18970517806E+03  0.00000000000E+00 0. -1.
         -2   -1    0    0    0  501 -0.00000000000E+00 -0.00000000000E+00 -0.82145724361E+02  0.82145724361E+02  0.00000000000E+00 0.  1.
         23    2    1    2    0    0 -0.45691503721E+02 -0.26391031746E+02  0.12136642757E+02  0.10578458500E+03  0.90878381687E+02 0.  0.
          5    1    1    2  502    0  0.36160742193E+02 -0.42597733315E+02  0.74404670578E+02  0.93168187507E+02  0.47000000000E+01 0. -1.
         -5    1    1    2    0  502  0.95307615274E+01  0.68988765061E+02  0.21018140364E+02  0.72898129910E+02  0.47000000000E+01 0. -1.
        -11    1    3    3    0    0 -0.55637986261E+02 -0.52612693138E+02  0.13274547232E+02  0.77716758802E+02  0.00000000000E+00 0.  1.
         11    1    3    3    0    0  0.99464825403E+01  0.26221661392E+02 -0.11379044757E+01  0.28067826201E+02  0.00000000000E+00 0. -1.
<mgrwt>
<rscale>  0 0.12744814E+03</rscale>
<asrwt>0</asrwt>
<pdfrwt beam="1">  1        2 0.29185412E-01 0.13591361E+03</pdfrwt>
<pdfrwt beam="2">  1       -2 0.12637804E-01 0.13591361E+03</pdfrwt>
<totfact> 0.77832290E+03</totfact>
</mgrwt>
</event>
<event>
 7    1  0.1020736E-005  0.1392696E+03  0.7546771E-02  0.1225772E+00
         -1   -1    0    0    0  501 -0.00000000000E+00  0.00000000000E+00  0.27194081825E+02  0.27194081825E+02  0.00000000000E+00 0.  1.
          1   -1    0    0  501    0  0.00000000000E+00 -0.00000000000E+00 -0.58964815386E+03  0.58964815386E+03  0.00000000000E+00 0. -1.
         23    2    1    2    0    0  0.20135316234E+02 -0.57995551233E+02 -0.19130527514E+03  0.22042396050E+03  0.90664762415E+02 0.  0.
          5    1    1    2  502    0  0.52178822765E+02  0.25046114766E+02 -0.12765740556E+03  0.14024421772E+03  0.47000000000E+01 0. -1.
         -5    1    1    2    0  502 -0.72314138999E+02  0.32949436467E+02 -0.24349139134E+03  0.25617405747E+03  0.47000000000E+01 0. -1.
        -11    1    3    3    0    0  0.53810023595E+02 -0.50633490149E+02 -0.14451104964E+03  0.16230438205E+03  0.00000000000E+00 0.  1.
         11    1    3    3    0    0 -0.33674707362E+02 -0.73620610839E+01 -0.46794225496E+02  0.58119578449E+02  0.00000000000E+00 0. -1.
<mgrwt>
<rscale>  0 0.13114150E+03</rscale>
<asrwt>0</asrwt>
<pdfrwt beam="2">  1        1 0.90715089E-01 0.13926959E+03</pdfrwt>
<pdfrwt beam="1">  1       -1 0.41837054E-02 0.13926959E+03</pdfrwt>
<totfact> 0.79582082E+03</totfact>
</mgrwt>
</event>
<event>
 7    1  0.1020736E-005  0.1452719E+03  0.7546771E-02  0.1216679E+00
         -2   -1    0    0    0  501 -0.00000000000E+00  0.00000000000E+00  0.30946151224E+02  0.30946151224E+02  0.00000000000E+00 0.  1.
          2   -1    0    0  501    0  0.00000000000E+00 -0.00000000000E+00 -0.67157997671E+03  0.67157997671E+03  0.00000000000E+00 0. -1.
         23    2    1    2    0    0  0.18831893059E+02 -0.71593835614E+02 -0.14557047811E+03  0.18658848369E+03  0.90245114292E+02 0.  0.
          5    1    1    2  502    0 -0.12569419390E+02  0.84308958919E+02 -0.49360599228E+03  0.50093408396E+03  0.47000000000E+01 0.  1.
         -5    1    1    2    0  502 -0.62624736684E+01 -0.12715123306E+02 -0.14573550854E+01  0.15003560277E+02  0.47000000000E+01 0.  1.
        -11    1    3    3    0    0  0.26869705720E+02  0.14148366694E+02 -0.43332753418E+02  0.52913938470E+02  0.00000000000E+00 0.  1.
         11    1    3    3    0    0 -0.80378126612E+01 -0.85742202308E+02 -0.10223772470E+03  0.13367454522E+03  0.00000000000E+00 0. -1.
<mgrwt>
<rscale>  0 0.13753916E+03</rscale>
<asrwt>0</asrwt>
<pdfrwt beam="2">  1        2 0.10332000E+00 0.14527193E+03</pdfrwt>
<pdfrwt beam="1">  1       -2 0.47609464E-02 0.14527193E+03</pdfrwt>
<totfact> 0.89611548E+03</totfact>
</mgrwt>
</event>
<event>
 7    1  0.1020736E-005  0.1288788E+03  0.7546771E-02  0.1251515E+00
         -2   -1    0    0    0  501 -0.00000000000E+00  0.00000000000E+00  0.26730865383E+02  0.26730865383E+02  0.00000000000E+00 0.  1.
          2   -1    0    0  501    0  0.00000000000E+00 -0.00000000000E+00 -0.92494451601E+03  0.92494451601E+03  0.00000000000E+00 0. -1.
         23    2    1    2    0    0  0.24397180286E+02  0.19786827938E+02 -0.54796342585E+02  0.98468196719E+02  0.75542078596E+02 0.  0.
          5    1    1    2  502    0  0.26674769071E+02  0.25080056824E+01 -0.43282665794E+02  0.51120568812E+02  0.47000000000E+01 0. -1.
         -5    1    1    2    0  502 -0.51071949357E+02 -0.22294833621E+02 -0.80013464225E+03  0.80208661586E+03  0.47000000000E+01 0. -1.
        -11    1    3    3    0    0  0.14259227106E+02 -0.22762177640E+02  0.18229023128E+01  0.26921464697E+02  0.00000000000E+00 0.  1.
         11    1    3    3    0    0  0.10137953180E+02  0.42549005578E+02 -0.56619244898E+02  0.71546732022E+02  0.00000000000E+00 0. -1.
<mgrwt>
<rscale>  0 0.11503805E+03</rscale>
<asrwt>0</asrwt>
<pdfrwt beam="2">  1        2 0.14229915E+00 0.12887880E+03</pdfrwt>
<pdfrwt beam="1">  1       -2 0.41124411E-02 0.12887880E+03</pdfrwt>
<totfact> 0.74467757E+03</totfact>
</mgrwt>
</event>
<event>
 7    1  0.1020736E-005  0.1265915E+03  0.7546771E-02  0.1248577E+00
         -2   -1    0    0    0  501 -0.00000000000E+00  0.00000000000E+00  0.78216781109E+02  0.78216781109E+02  0.00000000000E+00 0.  1.
          2   -1    0    0  501    0  0.00000000000E+00 -0.00000000000E+00 -0.15218958673E+03  0.15218958673E+03  0.00000000000E+00 0. -1.
         23    2    1    2    0    0  0.16073263362E+02 -0.11971690711E+02 -0.33942853706E+02  0.97636640503E+02  0.89325948511E+02 0.  0.
          5    1    1    2  502    0 -0.54652259743E+02  0.90338818319E+01 -0.65727616733E+02  0.86085365291E+02  0.47000000000E+01 0. -1.
         -5    1    1    2    0  502  0.38578996382E+02  0.29378088790E+01  0.25697664815E+02  0.46684362047E+02  0.47000000000E+01 0. -1.
        -11    1    3    3    0    0  0.14181261092E+02 -0.28237542370E+02  0.22549072486E+02  0.38819165823E+02  0.00000000000E+00 0.  1.
         11    1    3    3    0    0  0.18920022699E+01  0.16265851659E+02 -0.56491926192E+02  0.58817474680E+02  0.00000000000E+00 0. -1.
<mgrwt>
<rscale>  0 0.11673848E+03</rscale>
<asrwt>0</asrwt>
<pdfrwt beam="2">  1        2 0.23413783E-01 0.12659148E+03</pdfrwt>
<pdfrwt beam="1">  1       -2 0.12033351E-01 0.12659148E+03</pdfrwt>
<totfact> 0.10660138E+04</totfact>
</mgrwt>
</event>
<event>
 7    1  0.1020736E-005  0.1706808E+03  0.7546771E-02  0.1183402E+00
         -1   -1    0    0    0  501 -0.00000000000E+00  0.00000000000E+00  0.82373196040E+02  0.82373196040E+02  0.00000000000E+00 0. -1.
          1   -1    0    0  501    0  0.00000000000E+00 -0.00000000000E+00 -0.32268103440E+03  0.32268103440E+03  0.00000000000E+00 0.  1.
         23    2    1    2    0    0  0.11500834863E+03  0.18082102501E+02 -0.70119376207E+02  0.16402299675E+03  0.91831007050E+02 0.  0.
          5    1    1    2  502    0 -0.77259219340E+02 -0.48194799954E+02 -0.35458704044E+02  0.97832179819E+02  0.47000000000E+01 0. -1.
         -5    1    1    2    0  502 -0.37749129294E+02  0.30112697452E+02 -0.13472975811E+03  0.14319905387E+03  0.47000000000E+01 0. -1.
        -11    1    3    3    0    0  0.20449758107E+02 -0.29275668860E+01  0.22119946135E+02  0.30266404998E+02  0.00000000000E+00 0. -1.
         11    1    3    3    0    0  0.94558590527E+02  0.21009669387E+02 -0.92239322342E+02  0.13375659175E+03  0.00000000000E+00 0.  1.
<mgrwt>
<rscale>  0 0.16478165E+03</rscale>
<asrwt>0</asrwt>
<pdfrwt beam="2">  1        1 0.49643236E-01 0.17068082E+03</pdfrwt>
<pdfrwt beam="1">  1       -1 0.12672800E-01 0.17068082E+03</pdfrwt>
<totfact> 0.32821835E+03</totfact>
</mgrwt>
</event>
<event>
 7    1  0.1020736E-005  0.1293313E+03  0.7546771E-02  0.1235318E+00
         -3   -1    0    0    0  501 -0.00000000000E+00  0.00000000000E+00  0.79484672531E+02  0.79484672531E+02  0.00000000000E+00 0.  1.
          3   -1    0    0  501    0  0.00000000000E+00 -0.00000000000E+00 -0.25411719979E+03  0.25411719979E+03  0.00000000000E+00 0. -1.
         23    2    1    2    0    0  0.64297275585E+02 -0.10602480249E+02  0.48347994441E+01  0.11238906326E+03  0.91440549099E+02 0.  0.
          5    1    1    2  502    0 -0.40715089470E+02 -0.10259764599E+02 -0.18424006181E+03  0.18902241046E+03  0.47000000000E+01 0. -1.
         -5    1    1    2    0  502 -0.23582186115E+02  0.20862244848E+02  0.47727351029E+01  0.32190398606E+02  0.47000000000E+01 0.  1.
        -11    1    3    3    0    0  0.62980376733E+02  0.27215034951E+02 -0.14150537882E+02  0.70053006382E+02  0.00000000000E+00 0.  1.
         11    1    3    3    0    0  0.13168988516E+01 -0.37817515200E+02  0.18985337326E+02  0.42336056877E+02  0.00000000000E+00 0. -1.
<mgrwt>
<rscale>  0 0.12484127E+03</rscale>
<asrwt>0</asrwt>
<pdfrwt beam="2">  1        3 0.39094953E-01 0.12933130E+03</pdfrwt>
<pdfrwt beam="1">  1       -3 0.12228411E-01 0.12933130E+03</pdfrwt>
<totfact> 0.78381976E+02</totfact>
</mgrwt>
</event>
<event>
 7    1  0.1020736E-005  0.1464596E+03  0.7546771E-02  0.1215032E+00
         -2   -1    0    0    0  501 -0.00000000000E+00  0.00000000000E+00  0.44782340774E+02  0.44782340774E+02  0.00000000000E+00 0.  1.
          2   -1    0    0  501    0  0.00000000000E+00 -0.00000000000E+00 -0.39678956001E+03  0.39678956001E+03  0.00000000000E+00 0. -1.
         23    2    1    2    0    0 -0.74116513940E+02 -0.18228746238E+02 -0.12919521581E+03  0.17493433504E+03  0.89917033768E+02 0.  0.
          5    1    1    2  502    0 -0.43775933100E+01  0.55966415003E+02 -0.11420223313E+03  0.12734065723E+03  0.47000000000E+01 0.  1.
         -5    1    1    2    0  502  0.78494107250E+02 -0.37737668765E+02 -0.10860977030E+03  0.13929690851E+03  0.47000000000E+01 0.  1.
        -11    1    3    3    0    0  0.33924980744E+01  0.12294627972E+02  0.75445552000E+01  0.14818476080E+02  0.00000000000E+00 0.  1.
         11    1    3    3    0    0 -0.77509012014E+02 -0.30523374210E+02 -0.13673977101E+03  0.16011585896E+03  0.00000000000E+00 0. -1.
<mgrwt>
<rscale>  0 0.13874157E+03</rscale>
<asrwt>0</asrwt>
<pdfrwt beam="2">  1        2 0.61044546E-01 0.14645956E+03</pdfrwt>
<pdfrwt beam="1">  1       -2 0.68895911E-02 0.14645956E+03</pdfrwt>
<totfact> 0.91949851E+03</totfact>
</mgrwt>
</event>
<event>
 7    1  0.1020736E-005  0.1604077E+03  0.7546771E-02  0.1195772E+00
          2   -1    0    0  501    0  0.00000000000E+00  0.00000000000E+00  0.12912304670E+04  0.12912304670E+04  0.00000000000E+00 0.  1.
         -2   -1    0    0    0  501 -0.00000000000E+00 -0.00000000000E+00 -0.16998686385E+02  0.16998686385E+02  0.00000000000E+00 0. -1.
         23    2    1    2    0    0 -0.73770404430E+02 -0.68294307018E+02  0.58989830514E+03  0.60534726684E+03  0.91428212963E+02 0.  0.
          5    1    1    2  502    0  0.67051358541E+02 -0.13028441585E+02  0.43859735030E+03  0.44390916938E+03  0.47000000000E+01 0. -1.
         -5    1    1    2    0  502  0.67190458887E+01  0.81322748602E+02  0.24573612519E+03  0.25897271717E+03  0.47000000000E+01 0. -1.
        -11    1    3    3    0    0 -0.12193972731E+02  0.18937353064E+02  0.47897878462E+02  0.52929415954E+02  0.00000000000E+00 0.  1.
         11    1    3    3    0    0 -0.61576431699E+02 -0.87231660081E+02  0.54200042668E+03  0.55241785089E+03  0.00000000000E+00 0. -1.
<mgrwt>
<rscale>  0 0.15389111E+03</rscale>
<asrwt>0</asrwt>
<pdfrwt beam="1">  1        2 0.19865076E+00 0.16040773E+03</pdfrwt>
<pdfrwt beam="2">  1       -2 0.26151835E-02 0.16040773E+03</pdfrwt>
<totfact> 0.90349641E+03</totfact>
</mgrwt>
</event>
<event>
 7    1  0.1020736E-005  0.1293703E+03  0.7546771E-02  0.1229315E+00
          1   -1    0    0  501    0  0.00000000000E+00  0.00000000000E+00  0.53432766857E+03  0.53432766857E+03  0.00000000000E+00 0. -1.
         -1   -1    0    0    0  501 -0.00000000000E+00 -0.00000000000E+00 -0.34082749232E+02  0.34082749232E+02  0.00000000000E+00 0.  1.
         23    2    1    2    0    0  0.32999156178E+02 -0.52286221353E+01  0.15888673903E+03  0.20335963187E+03  0.12244942319E+03 0.  0.
          5    1    1    2  502    0 -0.70109617557E+02  0.46889499110E+01  0.10948023887E+03  0.13017433475E+03  0.47000000000E+01 0.  1.
         -5    1    1    2    0  502  0.37110461379E+02  0.53967222427E+00  0.23187794144E+03  0.23487645118E+03  0.47000000000E+01 0.  1.
        -11    1    3    3    0    0 -0.12098614063E+02 -0.29130861678E+02 -0.47939520336E+01  0.31905572248E+02  0.00000000000E+00 0.  1.
         11    1    3    3    0    0  0.45097770241E+02  0.23902239543E+02  0.16368069106E+03  0.17145405962E+03  0.00000000000E+00 0. -1.
<mgrwt>
<rscale>  0 0.12875477E+03</rscale>
<asrwt>0</asrwt>
<pdfrwt beam="1">  1        1 0.82204251E-01 0.12937028E+03</pdfrwt>
<pdfrwt beam="2">  1       -1 0.52435003E-02 0.12937028E+03</pdfrwt>
<totfact> 0.64778174E+03</totfact>
</mgrwt>
</event>
<event>
 7    1  0.1020736E-005  0.2076457E+03  0.7546771E-02  0.1145937E+00
         -1   -1    0    0    0  501 -0.00000000000E+00  0.00000000000E+00  0.15855603482E+03  0.15855603482E+03  0.00000000000E+00 0.  1.
          1   -1    0    0  501    0  0.00000000000E+00 -0.00000000000E+00 -0.48871351813E+03  0.48871351813E+03  0.00000000000E+00 0. -1.
         23    2    1    2    0    0 -0.16336007148E+03  0.57044378004E+02  0.60574975472E+02  0.20478948596E+03  0.91262434155E+02 0.  0.
          5    1    1    2  502    0  0.61630432894E+02 -0.52140952083E+02 -0.28225237067E+03  0.29360769726E+03  0.47000000000E+01 0. -1.
         -5    1    1    2    0  502  0.10172963859E+03 -0.49034259215E+01 -0.10848008811E+03  0.14887236973E+03  0.47000000000E+01 0.  1.
        -11    1    3    3    0    0 -0.61039504160E+02  0.37642739011E+02  0.70008063788E+02  0.10021938866E+03  0.00000000000E+00 0. -1.
         11    1    3    3    0    0 -0.10232056732E+03  0.19401638994E+02 -0.94330883162E+01  0.10457009730E+03  0.00000000000E+00 0.  1.
<mgrwt>
<rscale>  0 0.20457320E+03</rscale>
<asrwt>0</asrwt>
<pdfrwt beam="2">  1        1 0.75186693E-01 0.20764574E+03</pdfrwt>
<pdfrwt beam="1">  1       -1 0.24393237E-01 0.20764574E+03</pdfrwt>
<totfact> 0.67900412E+02</totfact>
</mgrwt>
</event>
<event>
 7    1  0.1020736E-005  0.1502820E+03  0.7546771E-02  0.1207859E+00
          1   -1    0    0  501    0  0.00000000000E+00  0.00000000000E+00  0.63493692105E+02  0.63493692105E+02  0.00000000000E+00 0. -1.
         -1   -1    0    0    0  501 -0.00000000000E+00 -0.00000000000E+00 -0.30317824147E+03  0.30317824147E+03  0.00000000000E+00 0.  1.
         23    2    1    2    0    0  0.51857007449E+02 -0.65337960354E+02 -0.11155513225E+03  0.16918310341E+03  0.96021750994E+02 0.  0.
          5    1    1    2  502    0  0.33694806724E+02  0.53018108471E+02 -0.44497568363E+02  0.77125763635E+02  0.47000000000E+01 0. -1.
         -5    1    1    2    0  502 -0.85551814173E+02  0.12319851883E+02 -0.83631848753E+02  0.12036306653E+03  0.47000000000E+01 0. -1.
        -11    1    3    3    0    0  0.11295108740E+02 -0.42933872441E+02  0.41066442563E+01  0.44584317997E+02  0.00000000000E+00 0. -1.
         11    1    3    3    0    0  0.40561898710E+02 -0.22404087913E+02 -0.11566177651E+03  0.12459878542E+03  0.00000000000E+00 0.  1.
<mgrwt>
<rscale>  0 0.14414420E+03</rscale>
<asrwt>0</asrwt>
<pdfrwt beam="1">  1        1 0.97682605E-02 0.15028204E+03</pdfrwt>
<pdfrwt beam="2">  1       -1 0.46642805E-01 0.15028204E+03</pdfrwt>
<totfact> 0.29998848E+03</totfact>
</mgrwt>
</event>
<event>
 7    1  0.1020736E-005  0.1293175E+03  0.7546771E-02  0.1243327E+00
         -2   -1    0    0    0  501 -0.00000000000E+00  0.00000000000E+00  0.17307357451E+02  0.17307357451E+02  0.00000000000E+00 0.  1.
          2   -1    0    0  501    0  0.00000000000E+00 -0.00000000000E+00 -0.11809466506E+04  0.11809466506E+04  0.00000000000E+00 0. -1.
         23    2    1    2    0    0  0.27223004288E+02  0.18913648424E+02 -0.15989116815E+03  0.18620987646E+03  0.89499242350E+02 0.  0.
          5    1    1    2  502    0 -0.59558948953E+02 -0.39151453762E+02 -0.35258487839E+03  0.35974753815E+03  0.47000000000E+01 0. -1.
         -5    1    1    2    0  502  0.32335944664E+02  0.20237805338E+02 -0.65116324662E+03  0.65229659345E+03  0.47000000000E+01 0. -1.
        -11    1    3    3    0    0  0.52571396757E+02  0.19954116449E+02 -0.56353188064E+02  0.79609046755E+02  0.00000000000E+00 0.  1.
         11    1    3    3    0    0 -0.25348392469E+02 -0.10404680248E+01 -0.10353798008E+03  0.10660082971E+03  0.00000000000E+00 0. -1.
<mgrwt>
<rscale>  0 0.11986062E+03</rscale>
<asrwt>0</asrwt>
<pdfrwt beam="2">  1        2 0.18168418E+00 0.12931754E+03</pdfrwt>
<pdfrwt beam="1">  1       -2 0.26626692E-02 0.12931754E+03</pdfrwt>
<totfact> 0.10016544E+04</totfact>
</mgrwt>
</event>
<event>
 7    1  0.1020736E-005  0.1487924E+03  0.7546771E-02  0.1211340E+00
         -3   -1    0    0    0  501 -0.00000000000E+00  0.00000000000E+00  0.41691795672E+03  0.41691795672E+03  0.00000000000E+00 0.  1.
          3   -1    0    0  501    0  0.00000000000E+00 -0.00000000000E+00 -0.44006967294E+02  0.44006967294E+02  0.00000000000E+00 0. -1.
         23    2    1    2    0    0 -0.80677439653E+02 -0.24972759077E+01  0.15456610401E+03  0.19670217392E+03  0.91027353369E+02 0.  0.
          5    1    1    2  502    0  0.69988029154E+02 -0.14582226248E+02  0.22970541110E+03  0.24061926656E+03  0.47000000000E+01 0. -1.
         -5    1    1    2    0  502  0.10689410499E+02  0.17079502155E+02 -0.11360525694E+02  0.23603483529E+02  0.47000000000E+01 0. -1.
        -11    1    3    3    0    0 -0.42212455874E+02  0.13182808790E+02  0.87439298633E+01  0.45079199061E+02  0.00000000000E+00 0. -1.
         11    1    3    3    0    0 -0.38464983779E+02 -0.15680084698E+02  0.14582217415E+03  0.15162297486E+03  0.00000000000E+00 0.  1.
<mgrwt>
<rscale>  0 0.14148883E+03</rscale>
<asrwt>0</asrwt>
<pdfrwt beam="2">  1        3 0.67703030E-02 0.14879238E+03</pdfrwt>
<pdfrwt beam="1">  1       -3 0.64141221E-01 0.14879238E+03</pdfrwt>
<totfact> 0.78575760E+02</totfact>
</mgrwt>
</event>
<event>
 7    1  0.1020736E-005  0.2491617E+03  0.7546771E-02  0.1116401E+00
         -1   -1    0    0    0  501 -0.00000000000E+00  0.00000000000E+00  0.34448441825E+02  0.34448441825E+02  0.00000000000E+00 0.  1.
          1   -1    0    0  501    0  0.00000000000E+00 -0.00000000000E+00 -0.17070252570E+04  0.17070252570E+04  0.00000000000E+00 0. -1.
         23    2    1    2    0    0  0.17490515807E+03 -0.12594934271E+03 -0.72503505793E+03  0.76172019123E+03  0.89926432431E+02 0.  0.
          5    1    1    2  502    0 -0.46230599975E+01 -0.76266875816E+01 -0.27079180520E+01  0.10438480128E+02  0.47000000000E+01 0. -1.
         -5    1    1    2    0  502 -0.17028209807E+03  0.13357603030E+03 -0.94483383920E+03  0.96931502747E+03  0.47000000000E+01 0. -1.
        -11    1    3    3    0    0  0.72087872090E+02 -0.44373405303E+02 -0.15334867812E+03  0.17516128991E+03  0.00000000000E+00 0.  1.
         11    1    3    3    0    0  0.10281728598E+03 -0.81575937412E+02 -0.57168637981E+03  0.58655890132E+03  0.00000000000E+00 0. -1.
<mgrwt>
<rscale>  0 0.24516144E+03</rscale>
<asrwt>0</asrwt>
<pdfrwt beam="2">  1        1 0.26261924E+00 0.24916170E+03</pdfrwt>
<pdfrwt beam="1">  1       -1 0.52997608E-02 0.24916170E+03</pdfrwt>
<totfact> 0.84508831E+02</totfact>
</mgrwt>
</event>
<event>
 7    1  0.1020736E-005  0.1925561E+03  0.7546771E-02  0.1160604E+00
          2   -1    0    0  501    0  0.00000000000E+00  0.00000000000E+00  0.14747365282E+04  0.14747365282E+04  0.00000000000E+00 0. -1.
         -2   -1    0    0    0  501 -0.00000000000E+00 -0.00000000000E+00 -0.26358559483E+02  0.26358559483E+02  0.00000000000E+00 0.  1.
         23    2    1    2    0    0  0.22815638396E+02  0.14466188898E+03  0.41390439613E+03  0.44885299180E+03  0.93298143786E+02 0.  0.
          5    1    1    2  502    0 -0.55927234061E+02 -0.12012172591E+03  0.54028306106E+03  0.55631372499E+03  0.47000000000E+01 0.  1.
         -5    1    1    2    0  502  0.33111595666E+02 -0.24540163077E+02  0.49419051150E+03  0.49592837086E+03  0.47000000000E+01 0.  1.
        -11    1    3    3    0    0  0.31655100703E+01  0.80810815473E+02  0.33887507352E+03  0.34839162419E+03  0.00000000000E+00 0. -1.
         11    1    3    3    0    0  0.19650128326E+02  0.63851073510E+02  0.75029322614E+02  0.10046136762E+03  0.00000000000E+00 0.  1.
<mgrwt>
<rscale>  0 0.18764318E+03</rscale>
<asrwt>0</asrwt>
<pdfrwt beam="1">  1        2 0.22688248E+00 0.19255611E+03</pdfrwt>
<pdfrwt beam="2">  1       -2 0.40551641E-02 0.19255611E+03</pdfrwt>
<totfact> 0.37749917E+03</totfact>
</mgrwt>
</event>
<event>
 7    1  0.1020736E-005  0.2331137E+03  0.7546771E-02  0.1159238E+00
          1   -1    0    0  501    0  0.00000000000E+00  0.00000000000E+00  0.52432992441E+03  0.52432992441E+03  0.00000000000E+00 0. -1.
         -1   -1    0    0    0  501 -0.00000000000E+00 -0.00000000000E+00 -0.57992741382E+02  0.57992741382E+02  0.00000000000E+00 0.  1.
         23    2    1    2    0    0 -0.12261043400E+02 -0.20775235420E+02  0.71377079909E+02  0.12369919448E+03  0.98106368741E+02 0.  0.
          5    1    1    2  502    0  0.10135187029E+03  0.75044576762E+02  0.24901758796E+03  0.27916973193E+03  0.47000000000E+01 0. -1.
         -5    1    1    2    0  502 -0.89090826892E+02 -0.54269341341E+02  0.14594251516E+03  0.17945373938E+03  0.47000000000E+01 0.  1.
        -11    1    3    3    0    0  0.14590749077E+02 -0.53145333232E+02  0.56913333106E+02  0.79224010806E+02  0.00000000000E+00 0.  1.
         11    1    3    3    0    0 -0.26851792477E+02  0.32370097812E+02  0.14463746803E+02  0.44475183678E+02  0.00000000000E+00 0. -1.
<mgrwt>
<rscale>  0 0.18914161E+03</rscale>
<asrwt>0</asrwt>
<pdfrwt beam="1">  1        1 0.80666139E-01 0.23311372E+03</pdfrwt>
<pdfrwt beam="2">  1       -1 0.89219606E-02 0.23311372E+03</pdfrwt>
<totfact> 0.30584719E+03</totfact>
</mgrwt>
</event>
<event>
 7    1  0.1020736E-005  0.1509207E+03  0.7546771E-02  0.1209102E+00
          2   -1    0    0  501    0  0.00000000000E+00  0.00000000000E+00  0.23971813582E+03  0.23971813582E+03  0.00000000000E+00 0. -1.
         -2   -1    0    0    0  501 -0.00000000000E+00 -0.00000000000E+00 -0.92727357636E+02  0.92727357636E+02  0.00000000000E+00 0.  1.
         23    2    1    2    0    0 -0.47168458968E+02 -0.70196821620E+02  0.74297450519E+00  0.12228964500E+03  0.88327504072E+02 0.  0.
          5    1    1    2  502    0  0.22001616414E+02  0.38839663092E+02  0.16094687320E+03  0.16708852907E+03  0.47000000000E+01 0.  1.
         -5    1    1    2    0  502  0.25166842554E+02  0.31357158528E+02 -0.14699069517E+02  0.43067319394E+02  0.47000000000E+01 0.  1.
        -11    1    3    3    0    0 -0.70821369556E+02 -0.62696636888E+02 -0.10269783408E+02  0.95142015504E+02  0.00000000000E+00 0. -1.
         11    1    3    3    0    0  0.23652910588E+02 -0.75001847317E+01  0.11012757913E+02  0.27147629494E+02  0.00000000000E+00 0.  1.
<mgrwt>
<rscale>  0 0.14318814E+03</rscale>
<asrwt>0</asrwt>
<pdfrwt beam="1">  1        2 0.36879713E-01 0.15092071E+03</pdfrwt>
<pdfrwt beam="2">  1       -2 0.14265747E-01 0.15092071E+03</pdfrwt>
<totfact> 0.50056707E+03</totfact>
</mgrwt>
</event>
<event>
 7    1  0.1020736E-005  0.2357673E+03  0.7546771E-02  0.1163350E+00
         -1   -1    0    0    0  501 -0.00000000000E+00  0.00000000000E+00  0.47188814309E+03  0.47188814309E+03  0.00000000000E+00 0.  1.
          1   -1    0    0  501    0  0.00000000000E+00 -0.00000000000E+00 -0.82227175937E+02  0.82227175937E+02  0.00000000000E+00 0. -1.
         23    2    1    2    0    0  0.23258902721E+01 -0.48440900838E+01  0.28067758432E+03  0.29437778038E+03  0.88597382937E+02 0.  0.
          5    1    1    2  502    0 -0.44655152468E+02 -0.55210120864E+02 -0.48346765153E+02  0.86033364392E+02  0.47000000000E+01 0. -1.
         -5    1    1    2    0  502  0.42329262196E+02  0.60054210948E+02  0.15733014798E+03  0.17370417426E+03  0.47000000000E+01 0.  1.
        -11    1    3    3    0    0  0.36810512470E+02  0.20277545991E+02  0.18343002357E+03  0.18818280008E+03  0.00000000000E+00 0. -1.
         11    1    3    3    0    0 -0.34484622198E+02 -0.25121636074E+02  0.97247560753E+02  0.10619498029E+03  0.00000000000E+00 0.  1.
<mgrwt>
<rscale>  0 0.18467887E+03</rscale>
<asrwt>0</asrwt>
<pdfrwt beam="2">  1        1 0.12650335E-01 0.23576728E+03</pdfrwt>
<pdfrwt beam="1">  1       -1 0.72598175E-01 0.23576728E+03</pdfrwt>
<totfact> 0.92926522E+02</totfact>
</mgrwt>
</event>
<event>
 7    1  0.1020736E-005  0.2278809E+03  0.7546771E-02  0.1128140E+00
         -1   -1    0    0    0  501 -0.00000000000E+00  0.00000000000E+00  0.42707690036E+02  0.42707690036E+02  0.00000000000E+00 0.  1.
          1   -1    0    0  501    0  0.00000000000E+00 -0.00000000000E+00 -0.30398325165E+03  0.30398325165E+03  0.00000000000E+00 0. -1.
         23    2    1    2    0    0 -0.15179159144E+02  0.35479398351E+02 -0.11071180458E+03  0.14722837662E+03  0.89049967035E+02 0.  0.
          5    1    1    2  502    0  0.41389737927E+02 -0.72967299942E+02 -0.10772690313E+03  0.13661812810E+03  0.47000000000E+01 0. -1.
         -5    1    1    2    0  502 -0.26210578784E+02  0.37487901591E+02 -0.42836853907E+02  0.62844436973E+02  0.47000000000E+01 0. -1.
        -11    1    3    3    0    0  0.34007387263E+02  0.33634601695E+02 -0.54498366844E+02  0.72511108172E+02  0.00000000000E+00 0.  1.
         11    1    3    3    0    0 -0.49186546407E+02  0.18447966555E+01 -0.56213437737E+02  0.74717268448E+02  0.00000000000E+00 0. -1.
<mgrwt>
<rscale>  0 0.22788087E+03</rscale>
<asrwt>0</asrwt>
<pdfrwt beam="2">  1        1 0.46766655E-01 0.22788087E+03</pdfrwt>
<pdfrwt beam="1">  1       -1 0.65704137E-02 0.22788087E+03</pdfrwt>
<totfact> 0.98349449E+03</totfact>
</mgrwt>
</event>
<event>
 7    1  0.1020736E-005  0.1374523E+03  0.7546771E-02  0.1228097E+00
         -1   -1    0    0    0  501 -0.00000000000E+00  0.00000000000E+00  0.53106713968E+03  0.53106713968E+03  0.00000000000E+00 0.  1.
          1   -1    0    0  501    0  0.00000000000E+00 -0.00000000000E+00 -0.29116227528E+02  0.29116227528E+02  0.00000000000E+00 0. -1.
         23    2    1    2    0    0 -0.56551398858E+02  0.86226985088E+01  0.26311738692E+03  0.28462106913E+03  0.92227881106E+02 0.  0.
          5    1    1    2  502    0 -0.30935038036E+02 -0.35659565006E+01  0.14492449676E+02  0.34667185084E+02  0.47000000000E+01 0. -1.
         -5    1    1    2    0  502  0.87486436894E+02 -0.50567420082E+01  0.22434107556E+03  0.24089511299E+03  0.47000000000E+01 0. -1.
        -11    1    3    3    0    0 -0.31515753248E+02  0.38533775750E+02  0.60807512622E+02  0.78585292311E+02  0.00000000000E+00 0. -1.
         11    1    3    3    0    0 -0.25035645610E+02 -0.29911077241E+02  0.20230987430E+03  0.20603577682E+03  0.00000000000E+00 0.  1.
<mgrwt>
<rscale>  0 0.12956858E+03</rscale>
<asrwt>0</asrwt>
<pdfrwt beam="2">  1        1 0.44794200E-02 0.13745227E+03</pdfrwt>
<pdfrwt beam="1">  1       -1 0.81702630E-01 0.13745227E+03</pdfrwt>
<totfact> 0.29230101E+03</totfact>
</mgrwt>
</event>
<event>
 7    1  0.1020736E-005  0.5291175E+03  0.7546771E-02  0.1019480E+00
         -2   -1    0    0    0  501 -0.00000000000E+00  0.00000000000E+00  0.18253807432E+03  0.18253807432E+03  0.00000000000E+00 0.  1.
          2   -1    0    0  501    0  0.00000000000E+00 -0.00000000000E+00 -0.23752578084E+04  0.23752578084E+04  0.00000000000E+00 0. -1.
         23    2    1    2    0    0 -0.33956485136E+03  0.46799568461E+02 -0.59065649312E+02  0.35951356930E+03  0.90921766919E+02 0.  0.
          5    1    1    2  502    0  0.40433458263E+03  0.55259665002E+02 -0.16360815330E+04  0.16862161658E+04  0.47000000000E+01 0. -1.
         -5    1    1    2    0  502 -0.64769731268E+02 -0.10205923346E+03 -0.49757255173E+03  0.51206614754E+03  0.47000000000E+01 0.  1.
        -11    1    3    3    0    0 -0.21709881281E+03  0.53485722853E+02 -0.47927383853E+00  0.22359080208E+03  0.00000000000E+00 0.  1.
         11    1    3    3    0    0 -0.12246603855E+03 -0.66861543913E+01 -0.58586375474E+02  0.13592276722E+03  0.00000000000E+00 0. -1.
<mgrwt>
<rscale>  0 0.47874856E+03</rscale>
<asrwt>0</asrwt>
<pdfrwt beam="2">  1        2 0.36542428E+00 0.52911754E+03</pdfrwt>
<pdfrwt beam="1">  1       -2 0.28082781E-01 0.52911754E+03</pdfrwt>
<totfact> 0.51117962E+01</totfact>
</mgrwt>
</event>
<event>
 7    1  0.1020736E-005  0.1323006E+03  0.7546771E-02  0.1243023E+00
          2   -1    0    0  501    0  0.00000000000E+00  0.00000000000E+00  0.12570275927E+04  0.12570275927E+04  0.00000000000E+00 0. -1.
         -2   -1    0    0    0  501 -0.00000000000E+00 -0.00000000000E+00 -0.11048149319E+02  0.11048149319E+02  0.00000000000E+00 0.  1.
         23    2    1    2    0    0  0.17465830589E+00  0.25713983118E+01  0.30727376167E+03  0.32009272503E+03  0.89641203749E+02 0.  0.
          5    1    1    2  502    0  0.32621760925E+02 -0.19955400748E+02  0.85972840824E+03  0.86059132184E+03  0.47000000000E+01 0. -1.
         -5    1    1    2    0  502 -0.32796419231E+02  0.17384002436E+02  0.78977273460E+02  0.87391695133E+02  0.47000000000E+01 0.  1.
        -11    1    3    3    0    0  0.19470850203E+02 -0.33870383286E+02  0.79089979736E+02  0.88213047596E+02  0.00000000000E+00 0. -1.
         11    1    3    3    0    0 -0.19296191897E+02  0.36441781597E+02  0.22818378194E+03  0.23187967743E+03  0.00000000000E+00 0.  1.
<mgrwt>
<rscale>  0 0.12004473E+03</rscale>
<asrwt>0</asrwt>
<pdfrwt beam="1">  1        2 0.19338875E+00 0.13230058E+03</pdfrwt>
<pdfrwt beam="2">  1       -2 0.16997163E-02 0.13230058E+03</pdfrwt>
<totfact> 0.17488059E+04</totfact>
</mgrwt>
</event>
<event>
 7    1  0.1020736E-005  0.1492073E+03  0.7546771E-02  0.1211001E+00
          1   -1    0    0  501    0  0.00000000000E+00  0.00000000000E+00  0.21906446429E+03  0.21906446429E+03  0.00000000000E+00 0. -1.
         -1   -1    0    0    0  501 -0.00000000000E+00 -0.00000000000E+00 -0.11566378682E+03  0.11566378682E+03  0.00000000000E+00 0.  1.
         23    2    1    2    0    0 -0.18126969171E+02 -0.79426405964E+02 -0.39848055983E+02  0.12788768101E+03  0.90167901230E+02 0.  0.
          5    1    1    2  502    0  0.42292572914E+02 -0.10766477501E+02  0.87751440605E+02  0.98117195688E+02  0.47000000000E+01 0.  1.
         -5    1    1    2    0  502 -0.24165603743E+02  0.90192883464E+02  0.55497292849E+02  0.10872337442E+03  0.47000000000E+01 0.  1.
        -11    1    3    3    0    0 -0.22840464647E+02 -0.25219538322E+02  0.25742546854E+02  0.42666036340E+02  0.00000000000E+00 0. -1.
         11    1    3    3    0    0  0.47134954763E+01 -0.54206867642E+02 -0.65590602837E+02  0.85221644667E+02  0.00000000000E+00 0.  1.
<mgrwt>
<rscale>  0 0.14174428E+03</rscale>
<asrwt>0</asrwt>
<pdfrwt beam="1">  1        1 0.33702225E-01 0.14920731E+03</pdfrwt>
<pdfrwt beam="2">  1       -1 0.17794429E-01 0.14920731E+03</pdfrwt>
<totfact> 0.30957740E+03</totfact>
</mgrwt>
</event>
<event>
 7    1  0.1020736E-005  0.1387658E+03  0.7546771E-02  0.1226395E+00
          1   -1    0    0  501    0  0.00000000000E+00  0.00000000000E+00  0.32455946031E+03  0.32455946031E+03  0.00000000000E+00 0. -1.
         -1   -1    0    0    0  501 -0.00000000000E+00 -0.00000000000E+00 -0.47710308682E+02  0.47710308682E+02  0.00000000000E+00 0.  1.
         23    2    1    2    0    0 -0.27947343566E+02  0.53384481213E+02  0.13728549219E+03  0.17546029919E+03  0.91148523734E+02 0.  0.
          5    1    1    2  502    0  0.15274793549E+02 -0.38499800883E+02  0.16165243471E+03  0.16694056917E+03  0.47000000000E+01 0. -1.
         -5    1    1    2    0  502  0.12672550017E+02 -0.14884680330E+02 -0.22088775270E+02  0.29868900639E+02  0.47000000000E+01 0. -1.
        -11    1    3    3    0    0 -0.13591135429E+02  0.28665951033E+02 -0.33942928325E+01  0.31905750809E+02  0.00000000000E+00 0.  1.
         11    1    3    3    0    0 -0.14356208137E+02  0.24718530180E+02  0.14067978502E+03  0.14355454838E+03  0.00000000000E+00 0. -1.
<mgrwt>
<rscale>  0 0.13071725E+03</rscale>
<asrwt>0</asrwt>
<pdfrwt beam="1">  1        1 0.49932223E-01 0.13876582E+03</pdfrwt>
<pdfrwt beam="2">  1       -1 0.73400477E-02 0.13876582E+03</pdfrwt>
<totfact> 0.74261593E+03</totfact>
</mgrwt>
</event>
<event>
 7    1  0.1020736E-005  0.1469476E+03  0.7546771E-02  0.1213601E+00
          1   -1    0    0  501    0  0.00000000000E+00  0.00000000000E+00  0.10691185556E+03  0.10691185556E+03  0.00000000000E+00 0. -1.
         -1   -1    0    0    0  501 -0.00000000000E+00 -0.00000000000E+00 -0.18690219727E+03  0.18690219727E+03  0.00000000000E+00 0.  1.
         23    2    1    2    0    0 -0.56746845789E+02 -0.52426894625E+02 -0.84051624538E+02  0.14681035401E+03  0.92302874649E+02 0.  0.
          5    1    1    2  502    0 -0.10871914173E+02  0.33702388334E+02 -0.47766747489E+02  0.59647310609E+02  0.47000000000E+01 0. -1.
         -5    1    1    2    0  502  0.67618759963E+02  0.18724506291E+02  0.51828030325E+02  0.87356388216E+02  0.47000000000E+01 0. -1.
        -11    1    3    3    0    0  0.61586922726E+01 -0.56109475421E+02 -0.30759966521E+02  0.64283576930E+02  0.00000000000E+00 0. -1.
         11    1    3    3    0    0 -0.62905538062E+02  0.36825807962E+01 -0.53291658017E+02  0.82526777075E+02  0.00000000000E+00 0.  1.
<mgrwt>
<rscale>  0 0.13979774E+03</rscale>
<asrwt>0</asrwt>
<pdfrwt beam="1">  1        1 0.16447978E-01 0.14694759E+03</pdfrwt>
<pdfrwt beam="2">  1       -1 0.28754184E-01 0.14694759E+03</pdfrwt>
<totfact> 0.35020942E+03</totfact>
</mgrwt>
</event>
<event>
 7    1  0.1020736E-005  0.1411578E+03  0.7546771E-02  0.1226551E+00
         -4   -1    0    0    0  501 -0.00000000000E+00  0.00000000000E+00  0.31012509807E+02  0.31012509807E+02  0.00000000000E+00 0.  1.
          4   -1    0    0  501    0  0.00000000000E+00 -0.00000000000E+00 -0.48571662944E+03  0.48571662944E+03  0.00000000000E+00 0. -1.
         23    2    1    2    0    0  0.26366614137E+02  0.60032856248E+02 -0.17149328449E+03  0.20028970922E+03  0.80042981102E+02 0.  0.
          5    1    1    2  502    0  0.17968573292E+02  0.29674689630E+02 -0.11939769132E+03  0.12442409543E+03  0.47000000000E+01 0. -1.
         -5    1    1    2    0  502 -0.44335187429E+02 -0.89707545878E+02 -0.16381314383E+03  0.19201533460E+03  0.47000000000E+01 0. -1.
        -11    1    3    3    0    0 -0.24854579221E+02  0.46383495344E+00 -0.38644291750E+02  0.45949391029E+02  0.00000000000E+00 0.  1.
         11    1    3    3    0    0  0.51221193357E+02  0.59569021294E+02 -0.13284899274E+03  0.15434031819E+03  0.00000000000E+00 0. -1.
<mgrwt>
<rscale>  0 0.13061175E+03</rscale>
<asrwt>0</asrwt>
<pdfrwt beam="2">  1        4 0.74725635E-01 0.14115784E+03</pdfrwt>
<pdfrwt beam="1">  1       -4 0.47711554E-02 0.14115784E+03</pdfrwt>
<totfact> 0.71110401E+02</totfact>
</mgrwt>
</event>
<event>
 7    1  0.1020736E-005  0.1230211E+03  0.7546771E-02  0.1248294E+00
         -2   -1    0    0    0  501 -0.00000000000E+00  0.00000000000E+00  0.13773468831E+03  0.13773468831E+03  0.00000000000E+00 0. -1.
          2   -1    0    0  501    0  0.00000000000E+00 -0.00000000000E+00 -0.18372499586E+03  0.18372499586E+03  0.00000000000E+00 0.  1.
         23    2    1    2    0    0 -0.14655816990E+02 -0.22875481109E+02  0.92335031214E+02  0.13634324710E+03  0.96569365917E+02 0.  0.
          5    1    1    2  502    0 -0.49056740528E+02  0.10080661880E+02 -0.29603079294E+02  0.58366221728E+02  0.47000000000E+01 0. -1.
         -5    1    1    2    0  502  0.63712557517E+02  0.12794819229E+02 -0.10872225947E+03  0.12675021534E+03  0.47000000000E+01 0.  1.
        -11    1    3    3    0    0 -0.18593779512E+02 -0.57070107763E+02  0.35034656500E+02  0.69499302102E+02  0.00000000000E+00 0. -1.
         11    1    3    3    0    0  0.39379625220E+01  0.34194626654E+02  0.57300374714E+02  0.66843945001E+02  0.00000000000E+00 0.  1.
<mgrwt>
<rscale>  0 0.11690406E+03</rscale>
<asrwt>0</asrwt>
<pdfrwt beam="2">  1        2 0.28265384E-01 0.12302112E+03</pdfrwt>
<pdfrwt beam="1">  1       -2 0.21189952E-01 0.12302112E+03</pdfrwt>
<totfact> 0.34131873E+03</totfact>
</mgrwt>
</event>
<event>
 7    1  0.1020736E-005  0.1702296E+03  0.7546771E-02  0.1183966E+00
          1   -1    0    0  501    0  0.00000000000E+00  0.00000000000E+00  0.16441793150E+03  0.16441793150E+03  0.00000000000E+00 0. -1.
         -1   -1    0    0    0  501 -0.00000000000E+00 -0.00000000000E+00 -0.15391830841E+03  0.15391830841E+03  0.00000000000E+00 0.  1.
         23    2    1    2    0    0 -0.11358063166E+03  0.21267371526E+02 -0.25153142366E+01  0.14760979925E+03  0.91812118214E+02 0.  0.
          5    1    1    2  502    0  0.84318365196E+02  0.26282229417E+02  0.51879218057E+02  0.10253723986E+03  0.47000000000E+01 0. -1.
         -5    1    1    2    0  502  0.29262266460E+02 -0.47549600943E+02 -0.38864280732E+02  0.68189200794E+02  0.47000000000E+01 0. -1.
        -11    1    3    3    0    0 -0.12234323741E+03  0.11235094378E+02 -0.21189296491E+02  0.12467189487E+03  0.00000000000E+00 0.  1.
         11    1    3    3    0    0  0.87626057495E+01  0.10032277148E+02  0.18673982254E+02  0.22937904384E+02  0.00000000000E+00 0. -1.
<mgrwt>
<rscale>  0 0.16426287E+03</rscale>
<asrwt>0</asrwt>
<pdfrwt beam="1">  1        1 0.25295066E-01 0.17022964E+03</pdfrwt>
<pdfrwt beam="2">  1       -1 0.23679740E-01 0.17022964E+03</pdfrwt>
<totfact> 0.28098095E+03</totfact>
</mgrwt>
</event>
<event>
 7    1  0.1020736E-005  0.2529365E+03  0.7546771E-02  0.1113641E+00
         -2   -1    0    0    0  501 -0.00000000000E+00  0.00000000000E+00  0.37743964216E+02  0.37743964216E+02  0.00000000000E+00 0. -1.
          2   -1    0    0  501    0  0.00000000000E+00 -0.00000000000E+00 -0.16086069436E+04  0.16086069436E+04  0.00000000000E+00 0.  1.
         23    2    1    2    0    0 -0.12615111740E+02  0.21953635829E+03 -0.80175559702E+03  0.83671947260E+03  0.94509707516E+02 0.  0.
          5    1    1    2  502    0 -0.18331927813E+02 -0.24542279337E+02 -0.28661501402E+03  0.28828569044E+03  0.47000000000E+01 0. -1.
         -5    1    1    2    0  502  0.30947039553E+02 -0.19499407895E+03 -0.48249236831E+03  0.52134574474E+03  0.47000000000E+01 0. -1.
        -11    1    3    3    0    0  0.26124038771E+02  0.14193728313E+03 -0.59996902117E+03  0.61708304475E+03  0.00000000000E+00 0.  1.
         11    1    3    3    0    0 -0.38739150511E+02  0.77599075155E+02 -0.20178657585E+03  0.21963642785E+03  0.00000000000E+00 0. -1.
<mgrwt>
<rscale>  0 0.24946873E+03</rscale>
<asrwt>0</asrwt>
<pdfrwt beam="2">  1        2 0.24747800E+00 0.25293654E+03</pdfrwt>
<pdfrwt beam="1">  1       -2 0.58067635E-02 0.25293654E+03</pdfrwt>
<totfact> 0.18603213E+03</totfact>
</mgrwt>
</event>
<event>
 7    1  0.1020736E-005  0.1285905E+03  0.7546771E-02  0.1248661E+00
         -1   -1    0    0    0  501 -0.00000000000E+00  0.00000000000E+00  0.78859551224E+02  0.78859551224E+02  0.00000000000E+00 0.  1.
          1   -1    0    0  501    0  0.00000000000E+00 -0.00000000000E+00 -0.28649896115E+03  0.28649896115E+03  0.00000000000E+00 0. -1.
         23    2    1    2    0    0 -0.18533745911E+02  0.23837195592E+02  0.32419790926E+02  0.93027938147E+02  0.81801239605E+02 0.  0.
          5    1    1    2  502    0 -0.18506692028E+02 -0.33461681053E+02 -0.22899974469E+03  0.23221790374E+03  0.47000000000E+01 0. -1.
         -5    1    1    2    0  502  0.37040437939E+02  0.96244854612E+01 -0.11059456162E+02  0.40112670488E+02  0.47000000000E+01 0. -1.
        -11    1    3    3    0    0 -0.20703436094E+02 -0.11040999563E+02  0.49015370090E+02  0.54341903192E+02  0.00000000000E+00 0.  1.
         11    1    3    3    0    0  0.21696901829E+01  0.34878195155E+02 -0.16595579164E+02  0.38686034955E+02  0.00000000000E+00 0. -1.
<mgrwt>
<rscale>  0 0.11668927E+03</rscale>
<asrwt>0</asrwt>
<pdfrwt beam="2">  1        1 0.44076762E-01 0.12859052E+03</pdfrwt>
<pdfrwt beam="1">  1       -1 0.12132239E-01 0.12859052E+03</pdfrwt>
<totfact> 0.40164621E+03</totfact>
</mgrwt>
</event>
<event>
 7    1  0.1020736E-005  0.1355618E+03  0.7546771E-02  0.1232176E+00
          1   -1    0    0  501    0  0.00000000000E+00  0.00000000000E+00  0.18584402196E+03  0.18584402196E+03  0.00000000000E+00 0. -1.
         -1   -1    0    0    0  501 -0.00000000000E+00 -0.00000000000E+00 -0.80222650078E+02  0.80222650078E+02  0.00000000000E+00 0.  1.
         23    2    1    2    0    0 -0.39359335732E+02  0.34676806534E+02  0.20502987607E+02  0.10599745620E+03  0.89796714857E+02 0.  0.
          5    1    1    2  502    0  0.66049599133E+02  0.20766641498E+02  0.65203779441E+02  0.95223031868E+02  0.47000000000E+01 0. -1.
         -5    1    1    2    0  502 -0.26690263401E+02 -0.55443448032E+02  0.19914604836E+02  0.64846183973E+02  0.47000000000E+01 0. -1.
        -11    1    3    3    0    0 -0.12897545929E+02  0.34975364604E+02 -0.30744721883E+02  0.48320396768E+02  0.00000000000E+00 0.  1.
         11    1    3    3    0    0 -0.26461789803E+02 -0.29855806990E+00  0.51247709490E+02  0.57677059430E+02  0.00000000000E+00 0. -1.
<mgrwt>
<rscale>  0 0.12686939E+03</rscale>
<asrwt>0</asrwt>
<pdfrwt beam="1">  1        1 0.28591388E-01 0.13556185E+03</pdfrwt>
<pdfrwt beam="2">  1       -1 0.12341946E-01 0.13556185E+03</pdfrwt>
<totfact> 0.67056358E+03</totfact>
</mgrwt>
</event>
<event>
 7    1  0.1020736E-005  0.1347834E+03  0.7546771E-02  0.1232391E+00
          1   -1    0    0  501    0  0.00000000000E+00  0.00000000000E+00  0.68373581581E+03  0.68373581581E+03  0.00000000000E+00 0.  1.
         -1   -1    0    0    0  501 -0.00000000000E+00 -0.00000000000E+00 -0.22820243958E+02  0.22820243958E+02  0.00000000000E+00 0. -1.
         23    2    1    2    0    0  0.11688902052E+02  0.49048571875E+02  0.19622236176E+03  0.22271067970E+03  0.92490209026E+02 0.  0.
          5    1    1    2  502    0  0.47480253074E+02 -0.57106568499E+02  0.23725170456E+03  0.24864833785E+03  0.47000000000E+01 0.  1.
         -5    1    1    2    0  502 -0.59169155126E+02  0.80579966239E+01  0.22744150553E+03  0.23519704221E+03  0.47000000000E+01 0.  1.
        -11    1    3    3    0    0  0.25480972131E+02  0.17730166565E+02  0.89070554433E+01  0.32295113932E+02  0.00000000000E+00 0. -1.
         11    1    3    3    0    0 -0.13792070080E+02  0.31318405310E+02  0.18731530632E+03  0.19041556577E+03  0.00000000000E+00 0.  1.
<mgrwt>
<rscale>  0 0.12672936E+03</rscale>
<asrwt>0</asrwt>
<pdfrwt beam="1">  1        1 0.10519011E+00 0.13478343E+03</pdfrwt>
<pdfrwt beam="2">  1       -1 0.35108073E-02 0.13478343E+03</pdfrwt>
<totfact> 0.83673457E+03</totfact>
</mgrwt>
</event>
<event>
 7    1  0.1020736E-005  0.1450453E+03  0.7546771E-02  0.1244678E+00
         -1   -1    0    0    0  501 -0.00000000000E+00  0.00000000000E+00  0.20803362812E+03  0.20803362812E+03  0.00000000000E+00 0.  1.
          1   -1    0    0  501    0  0.00000000000E+00 -0.00000000000E+00 -0.88314268946E+02  0.88314268946E+02  0.00000000000E+00 0. -1.
         23    2    1    2    0    0  0.17562098536E+02 -0.27807994759E+02  0.13530782375E+03  0.15046734561E+03  0.57013183104E+02 0.  0.
          5    1    1    2  502    0 -0.15344427192E+02  0.62160353172E+02 -0.61097829440E+02  0.88625028714E+02  0.47000000000E+01 0. -1.
         -5    1    1    2    0  502 -0.22176713435E+01 -0.34352358413E+02  0.45509364863E+02  0.57255522746E+02  0.47000000000E+01 0.  1.
        -11    1    3    3    0    0 -0.12277530204E+02 -0.33288357537E+02  0.72636668221E+02  0.80838963784E+02  0.00000000000E+00 0. -1.
         11    1    3    3    0    0  0.29839628740E+02  0.54803627782E+01  0.62671155533E+02  0.69628381824E+02  0.00000000000E+00 0.  1.
<mgrwt>
<rscale>  0 0.11904645E+03</rscale>
<asrwt>0</asrwt>
<pdfrwt beam="2">  1        1 0.13586811E-01 0.14504529E+03</pdfrwt>
<pdfrwt beam="1">  1       -1 0.32005173E-01 0.14504529E+03</pdfrwt>
<totfact> 0.37435856E+03</totfact>
</mgrwt>
</event>
<event>
 7    1  0.1020736E-005  0.1287106E+03  0.7546771E-02  0.1243400E+00
          2   -1    0    0  501    0  0.00000000000E+00  0.00000000000E+00  0.46540822817E+03  0.46540822817E+03  0.00000000000E+00 0. -1.
         -2   -1    0    0    0  501 -0.00000000000E+00 -0.00000000000E+00 -0.32915338966E+02  0.32915338966E+02  0.00000000000E+00 0.  1.
         23    2    1    2    0    0 -0.30661709561E+02  0.13161974856E+01  0.88545725558E+02  0.13108241699E+03  0.91653596334E+02 0.  0.
          5    1    1    2  502    0  0.41789561239E+02  0.18184629351E+02  0.34105708930E+03  0.34412072930E+03  0.47000000000E+01 0.  1.
         -5    1    1    2    0  502 -0.11127851678E+02 -0.19500826837E+02  0.28900743485E+01  0.23120420844E+02  0.47000000000E+01 0.  1.
        -11    1    3    3    0    0 -0.50859954689E+02  0.22570507165E+02  0.24805931649E+02  0.60922057004E+02  0.00000000000E+00 0.  1.
         11    1    3    3    0    0  0.20198245127E+02 -0.21254309680E+02  0.63739793909E+02  0.70160359989E+02  0.00000000000E+00 0. -1.
<mgrwt>
<rscale>  0 0.11981664E+03</rscale>
<asrwt>0</asrwt>
<pdfrwt beam="1">  1        2 0.71601261E-01 0.12871057E+03</pdfrwt>
<pdfrwt beam="2">  1       -2 0.50638986E-02 0.12871057E+03</pdfrwt>
<totfact> 0.12234108E+04</totfact>
</mgrwt>
</event>
<event>
 7    1  0.1020736E-005  0.1298739E+03  0.7546771E-02  0.1241710E+00
         -1   -1    0    0    0  501 -0.00000000000E+00  0.00000000000E+00  0.46818874760E+02  0.46818874760E+02  0.00000000000E+00 0.  1.
          1   -1    0    0  501    0  0.00000000000E+00 -0.00000000000E+00 -0.29183886648E+03  0.29183886648E+03  0.00000000000E+00 0. -1.
         23    2    1    2    0    0 -0.50963803742E+01 -0.34882203056E+02 -0.66512769115E+02  0.11790434742E+03  0.90745498523E+02 0.  0.
          5    1    1    2  502    0  0.35319832860E+02 -0.30454015392E+02 -0.29999537721E+02  0.55650695505E+02  0.47000000000E+01 0. -1.
         -5    1    1    2    0  502 -0.30223452486E+02  0.65336218447E+02 -0.14850768489E+03  0.16510269832E+03  0.47000000000E+01 0. -1.
        -11    1    3    3    0    0 -0.34234559152E+02 -0.22605846476E+02 -0.74716779278E+02  0.85238644058E+02  0.00000000000E+00 0. -1.
         11    1    3    3    0    0  0.29138178778E+02 -0.12276356580E+02  0.82040101624E+01  0.32665703362E+02  0.00000000000E+00 0.  1.
<mgrwt>
<rscale>  0 0.12084483E+03</rscale>
<asrwt>0</asrwt>
<pdfrwt beam="2">  1        1 0.44898288E-01 0.12987391E+03</pdfrwt>
<pdfrwt beam="1">  1       -1 0.72029037E-02 0.12987391E+03</pdfrwt>
<totfact> 0.86742822E+03</totfact>
</mgrwt>
</event>
<event>
 7    1  0.1020736E-005  0.1897142E+03  0.7546771E-02  0.1164036E+00
         -1   -1    0    0    0  501 -0.00000000000E+00  0.00000000000E+00  0.56311692064E+02  0.56311692064E+02  0.00000000000E+00 0.  1.
          1   -1    0    0  501    0  0.00000000000E+00 -0.00000000000E+00 -0.56723875219E+03  0.56723875219E+03  0.00000000000E+00 0. -1.
         23    2    1    2    0    0  0.14108757577E+03 -0.21538971000E+02 -0.23423531282E+03  0.28806601470E+03  0.88012588555E+02 0.  0.
          5    1    1    2  502    0  0.43535516991E+01  0.66450194561E+01  0.10014060484E+02  0.13619144736E+02  0.47000000000E+01 0. -1.
         -5    1    1    2    0  502 -0.14544112747E+03  0.14893951544E+02 -0.28670580779E+03  0.32186528482E+03  0.47000000000E+01 0. -1.
        -11    1    3    3    0    0  0.70768546598E+02 -0.12832890068E+02 -0.42230569778E+02  0.83404384051E+02  0.00000000000E+00 0.  1.
         11    1    3    3    0    0  0.70319029171E+02 -0.87060809325E+01 -0.19200474304E+03  0.20466163065E+03  0.00000000000E+00 0. -1.
<mgrwt>
<rscale>  0 0.18394746E+03</rscale>
<asrwt>0</asrwt>
<pdfrwt beam="2">  1        1 0.87267497E-01 0.18971420E+03</pdfrwt>
<pdfrwt beam="1">  1       -1 0.86633376E-02 0.18971420E+03</pdfrwt>
<totfact> 0.28597952E+03</totfact>
</mgrwt>
</event>
<event>
 7    1  0.1020736E-005  0.2317894E+03  0.7546771E-02  0.1127933E+00
          1   -1    0    0  501    0  0.00000000000E+00  0.00000000000E+00  0.17959012895E+03  0.17959012895E+03  0.00000000000E+00 0. -1.
         -1   -1    0    0    0  501 -0.00000000000E+00 -0.00000000000E+00 -0.28661923727E+03  0.28661923727E+03  0.00000000000E+00 0.  1.
         23    2    1    2    0    0 -0.49286010132E+02 -0.18887072694E+03 -0.83906755849E+02  0.23326954521E+03  0.96296805544E+02 0.  0.
          5    1    1    2  502    0 -0.15923992585E+02 -0.11373719111E+02 -0.83067857282E+01  0.21772177553E+02  0.47000000000E+01 0.  1.
         -5    1    1    2    0  502  0.65210002717E+02  0.20024444605E+03 -0.14815566740E+02  0.21116764346E+03  0.47000000000E+01 0.  1.
        -11    1    3    3    0    0 -0.32899356246E+01 -0.15598544381E+03 -0.38367215838E+02  0.16066837152E+03  0.00000000000E+00 0. -1.
         11    1    3    3    0    0 -0.45996074507E+02 -0.32885283126E+02 -0.45539540011E+02  0.72601173687E+02  0.00000000000E+00 0.  1.
<mgrwt>
<rscale>  0 0.22817237E+03</rscale>
<asrwt>0</asrwt>
<pdfrwt beam="1">  1        1 0.27629251E-01 0.23178938E+03</pdfrwt>
<pdfrwt beam="2">  1       -1 0.44095267E-01 0.23178938E+03</pdfrwt>
<totfact> 0.87135794E+02</totfact>
</mgrwt>
</event>
<event>
 7    1  0.1020736E-005  0.1610407E+03  0.7546771E-02  0.1209102E+00
         -1   -1    0    0    0  501 -0.00000000000E+00  0.00000000000E+00  0.26110787457E+03  0.26110787457E+03  0.00000000000E+00 0.  1.
          1   -1    0    0  501    0  0.00000000000E+00 -0.00000000000E+00 -0.95833998317E+02  0.95833998317E+02  0.00000000000E+00 0. -1.
         23    2    1    2    0    0  0.20248154202E+02  0.15344960454E+02  0.16803837461E+03  0.19587749332E+03  0.97394257983E+02 0.  0.
          5    1    1    2  502    0  0.19550190962E+02  0.15858658145E+01 -0.74492194315E+02  0.77174490287E+02  0.47000000000E+01 0. -1.
         -5    1    1    2    0  502 -0.39798345164E+02 -0.16930826269E+02  0.71727695955E+02  0.83889889278E+02  0.47000000000E+01 0.  1.
        -11    1    3    3    0    0 -0.34284394173E+02 -0.13224940253E+02  0.84147901061E+02  0.91821500649E+02  0.00000000000E+00 0. -1.
         11    1    3    3    0    0  0.54532548375E+02  0.28569900707E+02  0.83890473554E+02  0.10405599268E+03  0.00000000000E+00 0.  1.
<mgrwt>
<rscale>  0 0.14318869E+03</rscale>
<asrwt>0</asrwt>
<pdfrwt beam="2">  1        1 0.14743692E-01 0.16104065E+03</pdfrwt>
<pdfrwt beam="1">  1       -1 0.40170442E-01 0.16104065E+03</pdfrwt>
<totfact> 0.22841339E+03</totfact>
</mgrwt>
</event>
<event>
 7    1  0.1020736E-005  0.1411525E+03  0.7546771E-02  0.1221196E+00
         -2   -1    0    0    0  501 -0.00000000000E+00  0.00000000000E+00  0.72079383270E+02  0.72079383270E+02  0.00000000000E+00 0.  1.
          2   -1    0    0  501    0  0.00000000000E+00 -0.00000000000E+00 -0.23139953791E+03  0.23139953791E+03  0.00000000000E+00 0. -1.
         23    2    1    2    0    0  0.33749889759E+02  0.56334829711E+02 -0.55983529756E+02  0.12854329760E+03  0.95270959150E+02 0.  0.
          5    1    1    2  502    0  0.11169674888E+02 -0.73997478812E+02 -0.10177544030E+03  0.12641486762E+03  0.47000000000E+01 0.  1.
         -5    1    1    2    0  502 -0.44919564647E+02  0.17662649100E+02 -0.15611845873E+01  0.48520755957E+02  0.47000000000E+01 0.  1.
        -11    1    3    3    0    0 -0.23731551444E+02  0.27863228232E+02 -0.52894805752E+02  0.64322674828E+02  0.00000000000E+00 0. -1.
         11    1    3    3    0    0  0.57481441204E+02  0.28471601479E+02 -0.30887240043E+01  0.64220622775E+02  0.00000000000E+00 0.  1.
<mgrwt>
<rscale>  0 0.13431074E+03</rscale>
<asrwt>0</asrwt>
<pdfrwt beam="2">  1        2 0.35599928E-01 0.14115245E+03</pdfrwt>
<pdfrwt beam="1">  1       -2 0.11089136E-01 0.14115245E+03</pdfrwt>
<totfact> 0.77602816E+03</totfact>
</mgrwt>
</event>
<event>
 7    1  0.1020736E-005  0.1403138E+03  0.7546771E-02  0.1224195E+00
          1   -1    0    0  501    0  0.00000000000E+00  0.00000000000E+00  0.84240229769E+03  0.84240229769E+03  0.00000000000E+00 0. -1.
         -1   -1    0    0    0  501 -0.00000000000E+00 -0.00000000000E+00 -0.23158045768E+02  0.23158045768E+02  0.00000000000E+00 0.  1.
         23    2    1    2    0    0  0.20458966110E+02 -0.60375122314E+02  0.18151920758E+03  0.21258164332E+03  0.90432337496E+02 0.  0.
          5    1    1    2  502    0  0.15506690439E+01  0.36668212037E+02  0.40489872131E+02  0.54849631664E+02  0.47000000000E+01 0. -1.
         -5    1    1    2    0  502 -0.22009635154E+02  0.23706910277E+02  0.59723517221E+03  0.59812906848E+03  0.47000000000E+01 0. -1.
        -11    1    3    3    0    0  0.35628331078E+02 -0.39810620071E+02  0.35042088795E+02  0.63892186009E+02  0.00000000000E+00 0.  1.
         11    1    3    3    0    0 -0.15169364968E+02 -0.20564502242E+02  0.14647711879E+03  0.14868945731E+03  0.00000000000E+00 0. -1.
<mgrwt>
<rscale>  0 0.13222256E+03</rscale>
<asrwt>0</asrwt>
<pdfrwt beam="1">  1        1 0.12960033E+00 0.14031376E+03</pdfrwt>
<pdfrwt beam="2">  1       -1 0.35627769E-02 0.14031376E+03</pdfrwt>
<totfact> 0.60307866E+03</totfact>
</mgrwt>
</event>
<event>
 7    1  0.1020736E-005  0.1260740E+03  0.7546771E-02  0.1248868E+00
          2   -1    0    0  501    0  0.00000000000E+00  0.00000000000E+00  0.11249643326E+03  0.11249643326E+03  0.00000000000E+00 0. -1.
         -2   -1    0    0    0  501 -0.00000000000E+00 -0.00000000000E+00 -0.15204752934E+03  0.15204752934E+03  0.00000000000E+00 0.  1.
         23    2    1    2    0    0  0.16337181423E+02 -0.16943811787E+01 -0.89953479082E+02  0.12876822164E+03  0.90663399898E+02 0.  0.
          5    1    1    2  502    0 -0.52159089373E+02  0.45257283436E+02  0.32075461259E+02  0.76287073107E+02  0.47000000000E+01 0.  1.
         -5    1    1    2    0  502  0.35821907950E+02 -0.43562902257E+02  0.18326921748E+02  0.59488667854E+02  0.47000000000E+01 0.  1.
        -11    1    3    3    0    0  0.41876066234E+02  0.23591604651E+00 -0.76473491526E+01  0.42569267420E+02  0.00000000000E+00 0. -1.
         11    1    3    3    0    0 -0.25538884811E+02 -0.19302972252E+01 -0.82306129929E+02  0.86198954220E+02  0.00000000000E+00 0.  1.
<mgrwt>
<rscale>  0 0.11656823E+03</rscale>
<asrwt>0</asrwt>
<pdfrwt beam="1">  1        2 0.17307144E-01 0.12607399E+03</pdfrwt>
<pdfrwt beam="2">  1       -2 0.23391927E-01 0.12607399E+03</pdfrwt>
<totfact> 0.49875415E+03</totfact>
</mgrwt>
</event>
<event>
 7    1  0.1020736E-005  0.1863583E+03  0.7546771E-02  0.1167468E+00
          1   -1    0    0  501    0  0.00000000000E+00  0.00000000000E+00  0.97624186700E+02  0.97624186700E+02  0.00000000000E+00 0. -1.
         -1   -1    0    0    0  501 -0.00000000000E+00 -0.00000000000E+00 -0.31405909158E+03  0.31405909158E+03  0.00000000000E+00 0.  1.
         23    2    1    2    0    0  0.93777706011E+02  0.10152507841E+03 -0.11085407281E+03  0.19749473128E+03  0.87257915014E+02 0.  0.
          5    1    1    2  502    0 -0.22926532447E+02 -0.92141573205E+02 -0.10623534778E+03  0.14256133600E+03  0.47000000000E+01 0. -1.
         -5    1    1    2    0  502 -0.70851173564E+02 -0.93835052060E+01  0.65451571767E+00  0.71627211004E+02  0.47000000000E+01 0. -1.
        -11    1    3    3    0    0  0.63982347895E+02  0.47883379007E+02 -0.11020365014E+03  0.13613009708E+03  0.00000000000E+00 0.  1.
         11    1    3    3    0    0  0.29795358116E+02  0.53641699404E+02 -0.65042267015E+00  0.61364634195E+02  0.00000000000E+00 0. -1.
<mgrwt>
<rscale>  0 0.18034624E+03</rscale>
<asrwt>0</asrwt>
<pdfrwt beam="1">  1        1 0.15019106E-01 0.18635831E+03</pdfrwt>
<pdfrwt beam="2">  1       -1 0.48316782E-01 0.18635831E+03</pdfrwt>
<totfact> 0.16091913E+03</totfact>
</mgrwt>
</event>
<event>
 7    1  0.1020736E-005  0.2197141E+03  0.7546771E-02  0.1134096E+00
         -1   -1    0    0    0  501 -0.00000000000E+00  0.00000000000E+00  0.28742385967E+03  0.28742385967E+03  0.00000000000E+00 0.  1.
          1   -1    0    0  501    0  0.00000000000E+00 -0.00000000000E+00 -0.41988746125E+02  0.41988746125E+02  0.00000000000E+00 0. -1.
         23    2    1    2    0    0  0.19508050868E+02 -0.11283102413E+02  0.10023190690E+03  0.13649541364E+03  0.89870408559E+02 0.  0.
          5    1    1    2  502    0  0.52578768217E+02 -0.10964487743E+01  0.72430264255E+02  0.89632372763E+02  0.47000000000E+01 0.  1.
         -5    1    1    2    0  502 -0.72086819085E+02  0.12379551188E+02  0.72772942390E+02  0.10328481939E+03  0.47000000000E+01 0.  1.
        -11    1    3    3    0    0 -0.32315825858E+02 -0.16765044548E+02  0.22131877659E+02  0.42605156124E+02  0.00000000000E+00 0. -1.
         11    1    3    3    0    0  0.51823876726E+02  0.54819421345E+01  0.78100029244E+02  0.93890257516E+02  0.00000000000E+00 0.  1.
<mgrwt>
<rscale>  0 0.21971406E+03</rscale>
<asrwt>0</asrwt>
<pdfrwt beam="2">  1        1 0.64598073E-02 0.21971406E+03</pdfrwt>
<pdfrwt beam="1">  1       -1 0.44219054E-01 0.21971406E+03</pdfrwt>
<totfact> 0.59011696E+03</totfact>
</mgrwt>
</event>
<event>
 7    1  0.1020736E-005  0.1614525E+03  0.7546771E-02  0.1195721E+00
          3   -1    0    0  501    0  0.00000000000E+00  0.00000000000E+00  0.72616825403E+03  0.72616825403E+03  0.00000000000E+00 0. -1.
         -3   -1    0    0    0  501 -0.00000000000E+00 -0.00000000000E+00 -0.30962570789E+02  0.30962570789E+02  0.00000000000E+00 0.  1.
         23    2    1    2    0    0 -0.79345736429E+02  0.64394151620E+02  0.24691976804E+03  0.28065712768E+03  0.85771200392E+02 0.  0.
          5    1    1    2  502    0  0.78409871122E+02 -0.95853434691E+02  0.29595178113E+03  0.32085126708E+03  0.47000000000E+01 0.  1.
         -5    1    1    2    0  502  0.93586530676E+00  0.31459283071E+02  0.15233413406E+03  0.15562243005E+03  0.47000000000E+01 0.  1.
        -11    1    3    3    0    0 -0.61653375731E+02 -0.49444535663E+01  0.11379772286E+03  0.12952029991E+03  0.00000000000E+00 0.  1.
         11    1    3    3    0    0 -0.17692360698E+02  0.69338605186E+02  0.13312204518E+03  0.15113682777E+03  0.00000000000E+00 0. -1.
<mgrwt>
<rscale>  0 0.15393354E+03</rscale>
<asrwt>0</asrwt>
<pdfrwt beam="1">  1        3 0.11171818E+00 0.16145254E+03</pdfrwt>
<pdfrwt beam="2">  1       -3 0.47634730E-02 0.16145254E+03</pdfrwt>
<totfact> 0.41120860E+02</totfact>
</mgrwt>
</event>
<event>
 7    1  0.1020736E-005  0.1277260E+03  0.7546771E-02  0.1243174E+00
          3   -1    0    0  501    0  0.00000000000E+00  0.00000000000E+00  0.24236259319E+03  0.24236259319E+03  0.00000000000E+00 0. -1.
         -3   -1    0    0    0  501 -0.00000000000E+00 -0.00000000000E+00 -0.53307786916E+02  0.53307786916E+02  0.00000000000E+00 0.  1.
         23    2    1    2    0    0 -0.20309203900E+02 -0.16660841127E+02  0.89539387893E+02  0.13375295227E+03  0.95825376944E+02 0.  0.
          5    1    1    2  502    0 -0.40725772175E+01 -0.45908246619E+02  0.60309354676E+01  0.46718467177E+02  0.47000000000E+01 0.  1.
         -5    1    1    2    0  502  0.24381781117E+02  0.62569087745E+02  0.93484482916E+02  0.11519896066E+03  0.47000000000E+01 0.  1.
        -11    1    3    3    0    0 -0.30013288365E+02  0.11114856479E+02  0.98036446106E+02  0.10312847462E+03  0.00000000000E+00 0. -1.
         11    1    3    3    0    0  0.97040844648E+01 -0.27775697606E+02 -0.84970582135E+01  0.30624477646E+02  0.00000000000E+00 0.  1.
<mgrwt>
<rscale>  0 0.11995357E+03</rscale>
<asrwt>0</asrwt>
<pdfrwt beam="1">  1        3 0.37286552E-01 0.12772602E+03</pdfrwt>
<pdfrwt beam="2">  1       -3 0.82011981E-02 0.12772602E+03</pdfrwt>
<totfact> 0.16559955E+03</totfact>
</mgrwt>
</event>
<event>
 7    1  0.1020736E-005  0.1742605E+03  0.7546771E-02  0.1179800E+00
         -2   -1    0    0    0  501 -0.00000000000E+00  0.00000000000E+00  0.24465661638E+02  0.24465661638E+02  0.00000000000E+00 0. -1.
          2   -1    0    0  501    0  0.00000000000E+00 -0.00000000000E+00 -0.10963181054E+04  0.10963181054E+04  0.00000000000E+00 0.  1.
         23    2    1    2    0    0 -0.10477877049E+03 -0.61357986896E+02 -0.43286984758E+03  0.45846551387E+03  0.89838350162E+02 0.  0.
          5    1    1    2  502    0  0.10707931981E+03  0.58159050325E+02 -0.30776052212E+03  0.33103940074E+03  0.47000000000E+01 0. -1.
         -5    1    1    2    0  502 -0.23005493193E+01  0.31989365701E+01 -0.33122207402E+03  0.33127885239E+03  0.47000000000E+01 0. -1.
        -11    1    3    3    0    0 -0.54808664803E+02 -0.80229701907E+02 -0.26171940277E+03  0.27917349550E+03  0.00000000000E+00 0. -1.
         11    1    3    3    0    0 -0.49970105690E+02  0.18871715012E+02 -0.17115044481E+03  0.17929201837E+03  0.00000000000E+00 0.  1.
<mgrwt>
<rscale>  0 0.16814157E+03</rscale>
<asrwt>0</asrwt>
<pdfrwt beam="2">  1        2 0.16866433E+00 0.17426047E+03</pdfrwt>
<pdfrwt beam="1">  1       -2 0.37639479E-02 0.17426047E+03</pdfrwt>
<totfact> 0.68002681E+03</totfact>
</mgrwt>
</event>
<event>
 7    1  0.1020736E-005  0.1734637E+03  0.7546771E-02  0.1196234E+00
         -3   -1    0    0    0  501 -0.00000000000E+00  0.00000000000E+00  0.81975092365E+02  0.81975092365E+02  0.00000000000E+00 0.  1.
          3   -1    0    0  501    0  0.00000000000E+00 -0.00000000000E+00 -0.25652002743E+03  0.25652002743E+03  0.00000000000E+00 0. -1.
         23    2    1    2    0    0  0.42086215531E+02 -0.46433172963E+02 -0.24540878626E+02  0.10916814013E+03  0.85954284399E+02 0.  0.
          5    1    1    2  502    0  0.16443731565E+02 -0.47924821689E+02 -0.89074669965E+02  0.10258446116E+03  0.47000000000E+01 0. -1.
         -5    1    1    2    0  502 -0.58529947096E+02  0.94357994651E+02 -0.60929386475E+02  0.12674251851E+03  0.47000000000E+01 0.  1.
        -11    1    3    3    0    0  0.39476495997E+02  0.12913958017E+02  0.66642503513E+01  0.42066331912E+02  0.00000000000E+00 0.  1.
         11    1    3    3    0    0  0.26097195344E+01 -0.59347130980E+02 -0.31205128977E+02  0.67101808218E+02  0.00000000000E+00 0. -1.
<mgrwt>
<rscale>  0 0.15350244E+03</rscale>
<asrwt>0</asrwt>
<pdfrwt beam="2">  1        3 0.39464620E-01 0.17346368E+03</pdfrwt>
<pdfrwt beam="1">  1       -3 0.12611553E-01 0.17346368E+03</pdfrwt>
<totfact> 0.76282776E+02</totfact>
</mgrwt>
</event>
<event>
 7    1  0.1020736E-005  0.1337671E+03  0.7546771E-02  0.1236365E+00
          1   -1    0    0  501    0  0.00000000000E+00  0.00000000000E+00  0.51597919195E+02  0.51597919195E+02  0.00000000000E+00 0. -1.
         -1   -1    0    0    0  501 -0.00000000000E+00 -0.00000000000E+00 -0.28205260981E+03  0.28205260981E+03  0.00000000000E+00 0.  1.
         23    2    1    2    0    0 -0.19634450838E+02  0.43420523217E+02 -0.14196026146E+03  0.17326068034E+03  0.87153278896E+02 0.  0.
          5    1    1    2  502    0  0.59883384726E+02 -0.24324514233E+02 -0.95128022179E+02  0.11510487549E+03  0.47000000000E+01 0. -1.
         -5    1    1    2    0  502 -0.40248933888E+02 -0.19096008984E+02  0.66335930277E+01  0.45284973166E+02  0.47000000000E+01 0. -1.
        -11    1    3    3    0    0  0.23386687815E+02 -0.93093485286E+01 -0.15246865343E+02  0.29429033959E+02  0.00000000000E+00 0.  1.
         11    1    3    3    0    0 -0.43021138653E+02  0.52729871746E+02 -0.12671339612E+03  0.14383164638E+03  0.00000000000E+00 0. -1.
<mgrwt>
<rscale>  0 0.12417457E+03</rscale>
<asrwt>0</asrwt>
<pdfrwt beam="1">  1        1 0.79381413E-02 0.13376711E+03</pdfrwt>
<pdfrwt beam="2">  1       -1 0.43392710E-01 0.13376711E+03</pdfrwt>
<totfact> 0.44751405E+03</totfact>
</mgrwt>
</event>
<event>
 7    1  0.2324190E-005  0.1724845E+03  0.7546771E-02  0.1181925E+00
         -1   -1    0    0    0  501 -0.00000000000E+00  0.00000000000E+00  0.28024864531E+02  0.28024864531E+02  0.00000000000E+00 0.  1.
          1   -1    0    0  501    0  0.00000000000E+00 -0.00000000000E+00 -0.91915779162E+03  0.91915779162E+03  0.00000000000E+00 0. -1.
         23    2    1    2    0    0 -0.13165572431E+02 -0.11812457726E+03 -0.41502548991E+03  0.44079425902E+03  0.89031867683E+02 0.  0.
          5    1    1    2  502    0  0.23775642417E+02  0.10907167684E+03 -0.19383112366E+03  0.22372864448E+03  0.47000000000E+01 0. -1.
         -5    1    1    2    0  502 -0.10610069986E+02  0.90529004197E+01 -0.28227631353E+03  0.28265975265E+03  0.47000000000E+01 0. -1.
        -11    1    3    3    0    0  0.29812233406E+02 -0.68117498281E+02 -0.14647294526E+03  0.16426529313E+03  0.00000000000E+00 0.  1.
         11    1    3    3    0    0 -0.42977805837E+02 -0.50007078983E+02 -0.26855254465E+03  0.27652896590E+03  0.00000000000E+00 0. -1.
<mgrwt>
<rscale>  0 0.16614877E+03</rscale>
<asrwt>0</asrwt>
<pdfrwt beam="2">  1        1 0.14140886E+00 0.17248454E+03</pdfrwt>
<pdfrwt beam="1">  1       -1 0.43115185E-02 0.17248454E+03</pdfrwt>
<totfact> 0.39990366E+03</totfact>
</mgrwt>
</event>
<event>
 7    1  0.1020736E-005  0.1345695E+03  0.7546771E-02  0.1233565E+00
         -2   -1    0    0    0  501 -0.00000000000E+00  0.00000000000E+00  0.22250530087E+02  0.22250530087E+02  0.00000000000E+00 0. -1.
          2   -1    0    0  501    0  0.00000000000E+00 -0.00000000000E+00 -0.94674416451E+03  0.94674416451E+03  0.00000000000E+00 0.  1.
         23    2    1    2    0    0 -0.18934088769E+02 -0.46092187380E+02 -0.14544116428E+03  0.17840522764E+03  0.90511344748E+02 0.  0.
          5    1    1    2  502    0  0.61448398451E+02  0.19574743157E+01 -0.23049244898E+03  0.23859714251E+03  0.47000000000E+01 0.  1.
         -5    1    1    2    0  502 -0.42514309682E+02  0.44134713064E+02 -0.54856002116E+03  0.55199232444E+03  0.47000000000E+01 0.  1.
        -11    1    3    3    0    0  0.26794874216E+02 -0.42109153940E+02 -0.10869470950E+03  0.11960637944E+03  0.00000000000E+00 0.  1.
         11    1    3    3    0    0 -0.45728962985E+02 -0.39830334399E+01 -0.36746454785E+02  0.58798848206E+02  0.00000000000E+00 0. -1.
<mgrwt>
<rscale>  0 0.12596720E+03</rscale>
<asrwt>0</asrwt>
<pdfrwt beam="2">  1        2 0.14565293E+00 0.13456951E+03</pdfrwt>
<pdfrwt beam="1">  1       -2 0.34231590E-02 0.13456951E+03</pdfrwt>
<totfact> 0.94954909E+03</totfact>
</mgrwt>
</event>
<event>
 7    1  0.1020736E-005  0.2124505E+03  0.7546771E-02  0.1143190E+00
          1   -1    0    0  501    0  0.00000000000E+00  0.00000000000E+00  0.36933745950E+03  0.36933745950E+03  0.00000000000E+00 0. -1.
         -1   -1    0    0    0  501 -0.00000000000E+00 -0.00000000000E+00 -0.12117985561E+03  0.12117985561E+03  0.00000000000E+00 0.  1.
         23    2    1    2    0    0  0.13909258085E+02  0.17122230881E+03  0.53227637785E+02  0.20218957288E+03  0.92395321660E+02 0.  0.
          5    1    1    2  502    0  0.22335232162E+02 -0.16896681846E+03  0.13242566006E+03  0.21588722468E+03  0.47000000000E+01 0.  1.
         -5    1    1    2    0  502 -0.36244490246E+02 -0.22554903422E+01  0.62504306042E+02  0.72440517556E+02  0.47000000000E+01 0.  1.
        -11    1    3    3    0    0  0.30740152635E+02  0.14328780081E+03  0.73338153425E+02  0.16387445070E+03  0.00000000000E+00 0. -1.
         11    1    3    3    0    0 -0.16830894551E+02  0.27934507996E+02 -0.20110515640E+02  0.38315122180E+02  0.00000000000E+00 0.  1.
<mgrwt>
<rscale>  0 0.20796197E+03</rscale>
<asrwt>0</asrwt>
<pdfrwt beam="1">  1        1 0.56821147E-01 0.21245045E+03</pdfrwt>
<pdfrwt beam="2">  1       -1 0.18643055E-01 0.21245045E+03</pdfrwt>
<totfact> 0.15120529E+03</totfact>
</mgrwt>
</event>
<event>
 7    1  0.1020736E-005  0.1373181E+03  0.7546771E-02  0.1228545E+00
          1   -1    0    0  501    0  0.00000000000E+00  0.00000000000E+00  0.12309499443E+03  0.12309499443E+03  0.00000000000E+00 0. -1.
         -1   -1    0    0    0  501 -0.00000000000E+00 -0.00000000000E+00 -0.19276407847E+03  0.19276407847E+03  0.00000000000E+00 0.  1.
         23    2    1    2    0    0 -0.51974017484E+02 -0.23055747149E+02 -0.12738593646E+03  0.16690440207E+03  0.91635346090E+02 0.  0.
          5    1    1    2  502    0  0.60795099499E+02 -0.12255044871E+02  0.83490261528E+02  0.10411024934E+03  0.47000000000E+01 0.  1.
         -5    1    1    2    0  502 -0.88210820151E+01  0.35310792019E+02 -0.25773409114E+02  0.44844421485E+02  0.47000000000E+01 0.  1.
        -11    1    3    3    0    0 -0.72234985208E+02  0.23621610631E+01 -0.68156102438E+02  0.99341467638E+02  0.00000000000E+00 0. -1.
         11    1    3    3    0    0  0.20260967724E+02 -0.25417908212E+02 -0.59229834025E+02  0.67562934436E+02  0.00000000000E+00 0.  1.
<mgrwt>
<rscale>  0 0.12926854E+03</rscale>
<asrwt>0</asrwt>
<pdfrwt beam="1">  1        1 0.18937691E-01 0.13731809E+03</pdfrwt>
<pdfrwt beam="2">  1       -1 0.29656012E-01 0.13731809E+03</pdfrwt>
<totfact> 0.27660116E+03</totfact>
</mgrwt>
</event>
<event>
 7    1  0.1020736E-005  0.1447757E+03  0.7546771E-02  0.1217275E+00
         -3   -1    0    0    0  501 -0.00000000000E+00  0.00000000000E+00  0.70004898765E+02  0.70004898765E+02  0.00000000000E+00 0.  1.
          3   -1    0    0  501    0  0.00000000000E+00 -0.00000000000E+00 -0.26344684760E+03  0.26344684760E+03  0.00000000000E+00 0. -1.
         23    2    1    2    0    0  0.40263523146E+02  0.60936347963E+02 -0.41623360859E+02  0.12366881122E+03  0.90703257390E+02 0.  0.
          5    1    1    2  502    0  0.34795646753E+02 -0.52209602768E+02 -0.99607847454E+02  0.11781507938E+03  0.47000000000E+01 0. -1.
         -5    1    1    2    0  502 -0.75059169899E+02 -0.87267451951E+01 -0.52210740517E+02  0.91967855760E+02  0.47000000000E+01 0. -1.
        -11    1    3    3    0    0 -0.15233211728E+02  0.20202777274E+02 -0.48278128196E+02  0.54506702443E+02  0.00000000000E+00 0. -1.
         11    1    3    3    0    0  0.55496734874E+02  0.40733570689E+02  0.66547673367E+01  0.69162108781E+02  0.00000000000E+00 0.  1.
<mgrwt>
<rscale>  0 0.13710713E+03</rscale>
<asrwt>0</asrwt>
<pdfrwt beam="2">  1        3 0.40530285E-01 0.14477568E+03</pdfrwt>
<pdfrwt beam="1">  1       -3 0.10769984E-01 0.14477568E+03</pdfrwt>
<totfact> 0.91986642E+02</totfact>
</mgrwt>
</event>
<event>
 7    1  0.1020736E-005  0.1519340E+03  0.7546771E-02  0.1215074E+00
          1   -1    0    0  501    0  0.00000000000E+00  0.00000000000E+00  0.80401362698E+02  0.80401362698E+02  0.00000000000E+00 0. -1.
         -1   -1    0    0    0  501 -0.00000000000E+00 -0.00000000000E+00 -0.20695491206E+03  0.20695491206E+03  0.00000000000E+00 0.  1.
         23    2    1    2    0    0 -0.59019309725E+02  0.63088669530E+02 -0.43142933952E+02  0.11403206752E+03  0.60650973025E+02 0.  0.
          5    1    1    2  502    0  0.86397850862E+02 -0.58308193059E+02 -0.96612116460E+02  0.14219854098E+03  0.47000000000E+01 0. -1.
         -5    1    1    2    0  502 -0.27378541138E+02 -0.47804764704E+01  0.13201501048E+02  0.31125666258E+02  0.47000000000E+01 0. -1.
        -11    1    3    3    0    0 -0.36334686875E+00  0.30021388125E+02  0.60688689699E+01  0.30630816778E+02  0.00000000000E+00 0.  1.
         11    1    3    3    0    0 -0.58655962856E+02  0.33067281404E+02 -0.49211802922E+02  0.83401250739E+02  0.00000000000E+00 0. -1.
<mgrwt>
<rscale>  0 0.13871125E+03</rscale>
<asrwt>0</asrwt>
<pdfrwt beam="1">  1        1 0.12369440E-01 0.15193403E+03</pdfrwt>
<pdfrwt beam="2">  1       -1 0.31839217E-01 0.15193403E+03</pdfrwt>
<totfact> 0.42820588E+03</totfact>
</mgrwt>
</event>
<event>
 7    1  0.1020736E-005  0.1401369E+03  0.7546771E-02  0.1224052E+00
          1   -1    0    0  501    0  0.00000000000E+00  0.00000000000E+00  0.11063438991E+04  0.11063438991E+04  0.00000000000E+00 0. -1.
         -1   -1    0    0    0  501 -0.00000000000E+00 -0.00000000000E+00 -0.49013582171E+02  0.49013582171E+02  0.00000000000E+00 0.  1.
         23    2    1    2    0    0  0.33393120829E+02 -0.53826398454E+02  0.25787537394E+02  0.11433929367E+03  0.91630209559E+02 0.  0.
          5    1    1    2  502    0  0.33478363710E+02  0.53231989395E+02  0.30880110291E+03  0.31517401018E+03  0.47000000000E+01 0.  1.
         -5    1    1    2    0  502 -0.66871484538E+02  0.59440905918E+00  0.72274167660E+03  0.72584417740E+03  0.47000000000E+01 0.  1.
        -11    1    3    3    0    0  0.18290223257E+02 -0.41813658379E+02 -0.30462230732E+02  0.54871320332E+02  0.00000000000E+00 0.  1.
         11    1    3    3    0    0  0.15102897572E+02 -0.12012740075E+02  0.56249768126E+02  0.59467973342E+02  0.00000000000E+00 0. -1.
<mgrwt>
<rscale>  0 0.13232115E+03</rscale>
<asrwt>0</asrwt>
<pdfrwt beam="1">  1        1 0.17020674E+00 0.14013694E+03</pdfrwt>
<pdfrwt beam="2">  1       -1 0.75405519E-02 0.14013694E+03</pdfrwt>
<totfact> 0.12617842E+03</totfact>
</mgrwt>
</event>
<event>
 7    1  0.1020736E-005  0.1376094E+03  0.7546771E-02  0.1228133E+00
         -3   -1    0    0    0  501 -0.00000000000E+00  0.00000000000E+00  0.37165662678E+03  0.37165662678E+03  0.00000000000E+00 0.  1.
          3   -1    0    0  501    0  0.00000000000E+00 -0.00000000000E+00 -0.43928337379E+02  0.43928337379E+02  0.00000000000E+00 0. -1.
         23    2    1    2    0    0  0.40542850366E+02  0.40830591056E+02  0.20244332961E+03  0.22948641867E+03  0.91486910369E+02 0.  0.
          5    1    1    2  502    0  0.31712978260E+02 -0.50130345678E+02  0.31746837611E+02  0.67444171329E+02  0.47000000000E+01 0. -1.
         -5    1    1    2    0  502 -0.72255828626E+02  0.92997546219E+01  0.93538122180E+02  0.11865437416E+03  0.47000000000E+01 0. -1.
        -11    1    3    3    0    0  0.32314022850E+02 -0.25228285910E+02  0.88223098218E+02  0.97282976630E+02  0.00000000000E+00 0. -1.
         11    1    3    3    0    0  0.82288275167E+01  0.66058876966E+02  0.11422023140E+03  0.13220344204E+03  0.00000000000E+00 0.  1.
<mgrwt>
<rscale>  0 0.12954473E+03</rscale>
<asrwt>0</asrwt>
<pdfrwt beam="2">  1        3 0.67582060E-02 0.13760940E+03</pdfrwt>
<pdfrwt beam="1">  1       -3 0.57177940E-01 0.13760940E+03</pdfrwt>
<totfact> 0.98729447E+02</totfact>
</mgrwt>
</event>
<event>
 7    1  0.1020736E-005  0.1173263E+03  0.7546771E-02  0.1258928E+00
         -2   -1    0    0    0  501 -0.00000000000E+00  0.00000000000E+00  0.33404923892E+03  0.33404923892E+03  0.00000000000E+00 0.  1.
          2   -1    0    0  501    0  0.00000000000E+00 -0.00000000000E+00 -0.27243540977E+03  0.27243540977E+03  0.00000000000E+00 0. -1.
         23    2    1    2    0    0  0.12088921226E+02  0.13949212178E+02  0.31426738293E+03  0.32791817601E+03  0.91791174112E+02 0.  0.
          5    1    1    2  502    0 -0.23576718190E+02 -0.31317727482E+02 -0.25411979185E+03  0.25716846678E+03  0.47000000000E+01 0. -1.
         -5    1    1    2    0  502  0.11487796964E+02  0.17368515304E+02  0.14662380689E+01  0.21398005912E+02  0.47000000000E+01 0.  1.
        -11    1    3    3    0    0  0.32261386213E+02  0.43517867426E+02  0.23129553628E+03  0.23755468197E+03  0.00000000000E+00 0.  1.
         11    1    3    3    0    0 -0.20172464987E+02 -0.29568655248E+02  0.82971846652E+02  0.90363494032E+02  0.00000000000E+00 0. -1.
<mgrwt>
<rscale>  0 0.11089165E+03</rscale>
<asrwt>0</asrwt>
<pdfrwt beam="2">  1        2 0.41913140E-01 0.11732630E+03</pdfrwt>
<pdfrwt beam="1">  1       -2 0.51392191E-01 0.11732630E+03</pdfrwt>
<totfact> 0.44241938E+02</totfact>
</mgrwt>
</event>
<event>
 7    1  0.1020736E-005  0.1565751E+03  0.7546771E-02  0.1222887E+00
          1   -1    0    0  501    0  0.00000000000E+00  0.00000000000E+00  0.20491534202E+03  0.20491534202E+03  0.00000000000E+00 0. -1.
         -1   -1    0    0    0  501 -0.00000000000E+00 -0.00000000000E+00 -0.12563895178E+03  0.12563895178E+03  0.00000000000E+00 0.  1.
         23    2    1    2    0    0  0.59121370318E+01 -0.20074163091E+02 -0.74813244161E+02  0.11087412683E+03  0.79108312521E+02 0.  0.
          5    1    1    2  502    0  0.79736802219E+01  0.52938756305E+02  0.17148604867E+03  0.17970989506E+03  0.47000000000E+01 0. -1.
         -5    1    1    2    0  502 -0.13885817254E+02 -0.32864593213E+02 -0.17396414260E+02  0.39970271915E+02  0.47000000000E+01 0.  1.
        -11    1    3    3    0    0 -0.16672038508E+02  0.25371774958E+02 -0.35284564539E+02  0.46547656517E+02  0.00000000000E+00 0. -1.
         11    1    3    3    0    0  0.22584175540E+02 -0.45445938050E+02 -0.39528679623E+02  0.64326470312E+02  0.00000000000E+00 0.  1.
<mgrwt>
<rscale>  0 0.13312798E+03</rscale>
<asrwt>0</asrwt>
<pdfrwt beam="1">  1        1 0.31525437E-01 0.15657509E+03</pdfrwt>
<pdfrwt beam="2">  1       -1 0.19329070E-01 0.15657509E+03</pdfrwt>
<totfact> 0.29536784E+03</totfact>
</mgrwt>
</event>
<event>
 7    1  0.1020736E-005  0.2927541E+03  0.7546771E-02  0.1090630E+00
          1   -1    0    0  501    0  0.00000000000E+00  0.00000000000E+00  0.83073714300E+03  0.83073714300E+03  0.00000000000E+00 0. -1.
         -1   -1    0    0    0  501 -0.00000000000E+00 -0.00000000000E+00 -0.13265173587E+03  0.13265173587E+03  0.00000000000E+00 0.  1.
         23    2    1    2    0    0  0.26199562587E+03  0.37931082501E+02  0.99369390364E+02  0.29693121596E+03  0.90627789743E+02 0.  0.
          5    1    1    2  502    0 -0.97453925628E+02 -0.17312655953E+02  0.99610915333E+02  0.14050416410E+03  0.47000000000E+01 0. -1.
         -5    1    1    2    0  502 -0.16454170024E+03 -0.20618426548E+02  0.49910510143E+03  0.52595349881E+03  0.47000000000E+01 0. -1.
        -11    1    3    3    0    0  0.17054650032E+03 -0.65590715664E+01  0.28646074451E+02  0.17305989649E+03  0.00000000000E+00 0. -1.
         11    1    3    3    0    0  0.91449125547E+02  0.44490154068E+02  0.70723315914E+02  0.12387131947E+03  0.00000000000E+00 0.  1.
<mgrwt>
<rscale>  0 0.28946308E+03</rscale>
<asrwt>0</asrwt>
<pdfrwt beam="1">  1        1 0.12780571E+00 0.29275407E+03</pdfrwt>
<pdfrwt beam="2">  1       -1 0.20407960E-01 0.29275407E+03</pdfrwt>
<totfact> 0.42546640E+02</totfact>
</mgrwt>
</event>
<event>
 7    1  0.1020736E-005  0.1333838E+03  0.7546771E-02  0.1243135E+00
          2   -1    0    0  501    0  0.00000000000E+00  0.00000000000E+00  0.13437575299E+04  0.13437575299E+04  0.00000000000E+00 0. -1.
         -2   -1    0    0    0  501 -0.00000000000E+00 -0.00000000000E+00 -0.11843123684E+02  0.11843123684E+02  0.00000000000E+00 0.  1.
         23    2    1    2    0    0  0.42028057514E+02  0.19971431587E+02  0.23663664483E+03  0.25223098916E+03  0.73880677551E+02 0.  0.
          5    1    1    2  502    0 -0.54857374240E+02  0.42420762346E+02  0.57685379914E+03  0.58102603055E+03  0.47000000000E+01 0.  1.
         -5    1    1    2    0  502  0.12829316725E+02 -0.62392193933E+02  0.51842396223E+03  0.52234363388E+03  0.47000000000E+01 0.  1.
        -11    1    3    3    0    0 -0.15695658699E+02  0.15185695068E+02  0.12037252099E+03  0.12233765915E+03  0.00000000000E+00 0. -1.
         11    1    3    3    0    0  0.57723716214E+02  0.47857365185E+01  0.11626412384E+03  0.12989333001E+03  0.00000000000E+00 0.  1.
<mgrwt>
<rscale>  0 0.11997677E+03</rscale>
<asrwt>0</asrwt>
<pdfrwt beam="1">  1        2 0.20673181E+00 0.13338381E+03</pdfrwt>
<pdfrwt beam="2">  1       -2 0.18220201E-02 0.13338381E+03</pdfrwt>
<totfact> 0.14209806E+04</totfact>
</mgrwt>
</event>
<event>
 7    1  0.1020736E-005  0.1273191E+03  0.7546771E-02  0.1246949E+00
         -2   -1    0    0    0  501 -0.00000000000E+00  0.00000000000E+00  0.29950612489E+02  0.29950612489E+02  0.00000000000E+00 0.  1.
          2   -1    0    0  501    0  0.00000000000E+00 -0.00000000000E+00 -0.46069803920E+03  0.46069803920E+03  0.00000000000E+00 0. -1.
         23    2    1    2    0    0  0.24124044788E+02 -0.16133968757E+01 -0.10151224246E+03  0.13765296042E+03  0.89772097880E+02 0.  0.
          5    1    1    2  502    0 -0.19840303184E+01 -0.23322812367E+01 -0.32996178792E+03  0.33000946562E+03  0.47000000000E+01 0. -1.
         -5    1    1    2    0  502 -0.22140014470E+02  0.39456781124E+01  0.72660366805E+00  0.22986225645E+02  0.47000000000E+01 0. -1.
        -11    1    3    3    0    0  0.52975487355E+02 -0.20553261566E+02 -0.50244619057E+02  0.75850910118E+02  0.00000000000E+00 0.  1.
         11    1    3    3    0    0 -0.28851442567E+02  0.18939864690E+02 -0.51267623401E+02  0.61802050304E+02  0.00000000000E+00 0. -1.
<mgrwt>
<rscale>  0 0.11769473E+03</rscale>
<asrwt>0</asrwt>
<pdfrwt beam="2">  1        2 0.70876622E-01 0.12731909E+03</pdfrwt>
<pdfrwt beam="1">  1       -2 0.46077865E-02 0.12731909E+03</pdfrwt>
<totfact> 0.14234349E+04</totfact>
</mgrwt>
</event>
<event>
 7    1  0.1020736E-005  0.1282017E+03  0.7546771E-02  0.1244696E+00
         -1   -1    0    0    0  501 -0.00000000000E+00  0.00000000000E+00  0.10208493977E+03  0.10208493977E+03  0.00000000000E+00 0.  1.
          1   -1    0    0  501    0  0.00000000000E+00 -0.00000000000E+00 -0.15689461210E+03  0.15689461210E+03  0.00000000000E+00 0. -1.
         23    2    1    2    0    0  0.14018778143E+02 -0.24749927891E+02  0.36015544123E+02  0.10186527274E+03  0.90941350886E+02 0.  0.
          5    1    1    2  502    0 -0.37203188526E+02  0.66170097185E+02 -0.75108701064E+02  0.10689231017E+03  0.47000000000E+01 0.  1.
         -5    1    1    2    0  502  0.23184410383E+02 -0.41420169294E+02 -0.15716515389E+02  0.50221968949E+02  0.47000000000E+01 0.  1.
        -11    1    3    3    0    0  0.25778620875E+01 -0.33204481962E+02  0.63056096120E+02  0.71310968674E+02  0.00000000000E+00 0.  1.
         11    1    3    3    0    0  0.11440916055E+02  0.84545540701E+01 -0.27040551998E+02  0.30554304067E+02  0.00000000000E+00 0. -1.
<mgrwt>
<rscale>  0 0.11903579E+03</rscale>
<asrwt>0</asrwt>
<pdfrwt beam="2">  1        1 0.24137633E-01 0.12820170E+03</pdfrwt>
<pdfrwt beam="1">  1       -1 0.15705375E-01 0.12820170E+03</pdfrwt>
<totfact> 0.56723420E+03</totfact>
</mgrwt>
</event>
<event>
 7    1  0.1020736E-005  0.1524256E+03  0.7546771E-02  0.1205594E+00
          1   -1    0    0  501    0  0.00000000000E+00  0.00000000000E+00  0.12007406203E+03  0.12007406203E+03  0.00000000000E+00 0. -1.
         -1   -1    0    0    0  501 -0.00000000000E+00 -0.00000000000E+00 -0.17315878792E+03  0.17315878792E+03  0.00000000000E+00 0.  1.
         23    2    1    2    0    0 -0.87115698160E+02 -0.14517747388E+00 -0.58494036243E+02  0.14071130023E+03  0.93749409560E+02 0.  0.
          5    1    1    2  502    0  0.23510908404E+02 -0.55215049985E+02  0.26036381382E+02  0.65585423032E+02  0.47000000000E+01 0. -1.
         -5    1    1    2    0  502  0.63604789755E+02  0.55360227459E+02 -0.20627071029E+02  0.86936126687E+02  0.47000000000E+01 0. -1.
        -11    1    3    3    0    0 -0.63654459387E+02 -0.43541082544E+02 -0.24956173333E+02  0.81058785189E+02  0.00000000000E+00 0. -1.
         11    1    3    3    0    0 -0.23461238773E+02  0.43395905070E+02 -0.33537862909E+02  0.59652515036E+02  0.00000000000E+00 0.  1.
<mgrwt>
<rscale>  0 0.14590710E+03</rscale>
<asrwt>0</asrwt>
<pdfrwt beam="1">  1        1 0.18472932E-01 0.15242560E+03</pdfrwt>
<pdfrwt beam="2">  1       -1 0.26639814E-01 0.15242560E+03</pdfrwt>
<totfact> 0.34324489E+03</totfact>
</mgrwt>
</event>
<event>
 7    1  0.1020736E-005  0.1561013E+03  0.7546771E-02  0.1200843E+00
         -1   -1    0    0    0  501 -0.00000000000E+00  0.00000000000E+00  0.34580563890E+02  0.34580563890E+02  0.00000000000E+00 0.  1.
          1   -1    0    0  501    0  0.00000000000E+00 -0.00000000000E+00 -0.68960331498E+03  0.68960331498E+03  0.00000000000E+00 0. -1.
         23    2    1    2    0    0  0.90704061666E+02  0.22713111147E+02 -0.17370088935E+03  0.21818156346E+03  0.93209889234E+02 0.  0.
          5    1    1    2  502    0 -0.96726171007E+02 -0.34251372227E+01 -0.47430479050E+03  0.48410206364E+03  0.47000000000E+01 0. -1.
         -5    1    1    2    0  502  0.60221093416E+01 -0.19287973924E+02 -0.70170712321E+01  0.21900251773E+02  0.47000000000E+01 0. -1.
        -11    1    3    3    0    0  0.66117196674E+02  0.50297259776E+02 -0.71850297614E+02  0.10983516424E+03  0.00000000000E+00 0.  1.
         11    1    3    3    0    0  0.24586864992E+02 -0.27584148629E+02 -0.10185059174E+03  0.10834639921E+03  0.00000000000E+00 0. -1.
<mgrwt>
<rscale>  0 0.14969963E+03</rscale>
<asrwt>0</asrwt>
<pdfrwt beam="2">  1        1 0.10609280E+00 0.15610128E+03</pdfrwt>
<pdfrwt beam="1">  1       -1 0.53200874E-02 0.15610128E+03</pdfrwt>
<totfact> 0.45119817E+03</totfact>
</mgrwt>
</event>
<event>
 7    1  0.1020736E-005  0.1402210E+03  0.7546771E-02  0.1224099E+00
         -2   -1    0    0    0  501 -0.00000000000E+00  0.00000000000E+00  0.11001355515E+03  0.11001355515E+03  0.00000000000E+00 0.  1.
          2   -1    0    0  501    0  0.00000000000E+00 -0.00000000000E+00 -0.16240532685E+03  0.16240532685E+03  0.00000000000E+00 0. -1.
         23    2    1    2    0    0  0.38250747027E+02 -0.50753190500E+02  0.22666808814E+02  0.11337260515E+03  0.91107394781E+02 0.  0.
          5    1    1    2  502    0 -0.64363871557E+02  0.38954872061E+02  0.33278314123E+01  0.75454320493E+02  0.47000000000E+01 0. -1.
         -5    1    1    2    0  502  0.26113124531E+02  0.11798318439E+02 -0.78386411933E+02  0.83591956350E+02  0.47000000000E+01 0. -1.
        -11    1    3    3    0    0 -0.14779704093E+02  0.13950666885E+02 -0.11098352080E+02  0.23156730739E+02  0.00000000000E+00 0.  1.
         11    1    3    3    0    0  0.53030451120E+02 -0.64703857385E+02  0.33765160894E+02  0.90215874416E+02  0.00000000000E+00 0. -1.
<mgrwt>
<rscale>  0 0.13228855E+03</rscale>
<asrwt>0</asrwt>
<pdfrwt beam="2">  1        2 0.24985435E-01 0.14022100E+03</pdfrwt>
<pdfrwt beam="1">  1       -2 0.16925162E-01 0.14022100E+03</pdfrwt>
<totfact> 0.57424937E+03</totfact>
</mgrwt>
</event>
<event>
 7    1  0.1020736E-005  0.1309605E+03  0.7546771E-02  0.1239073E+00
          3   -1    0    0  501    0  0.00000000000E+00  0.00000000000E+00  0.42046087733E+03  0.42046087733E+03  0.00000000000E+00 0. -1.
         -3   -1    0    0    0  501 -0.00000000000E+00 -0.00000000000E+00 -0.33662922822E+02  0.33662922822E+02  0.00000000000E+00 0.  1.
         23    2    1    2    0    0 -0.28750177013E+02 -0.26444147491E+02  0.11560546511E+03  0.15296600476E+03  0.92239413676E+02 0.  0.
          5    1    1    2  502    0  0.77337590340E+02  0.11687264928E+02  0.14057474790E+03  0.16093801536E+03  0.47000000000E+01 0. -1.
         -5    1    1    2    0  502 -0.48587413327E+02  0.14756882562E+02  0.13061774149E+03  0.14021978002E+03  0.47000000000E+01 0. -1.
        -11    1    3    3    0    0 -0.44976059780E+02 -0.25778670278E+02  0.19323867818E+02  0.55324476158E+02  0.00000000000E+00 0.  1.
         11    1    3    3    0    0  0.16225882767E+02 -0.66547721218E+00  0.96281597293E+02  0.97641528607E+02  0.00000000000E+00 0. -1.
<mgrwt>
<rscale>  0 0.12247272E+03</rscale>
<asrwt>0</asrwt>
<pdfrwt beam="1">  1        3 0.64686285E-01 0.13096050E+03</pdfrwt>
<pdfrwt beam="2">  1       -3 0.51789115E-02 0.13096050E+03</pdfrwt>
<totfact> 0.11623680E+03</totfact>
</mgrwt>
</event>
<event>
 7    1  0.1020736E-005  0.1749520E+03  0.7546771E-02  0.1179060E+00
         -2   -1    0    0    0  501 -0.00000000000E+00  0.00000000000E+00  0.24018627062E+02  0.24018627062E+02  0.00000000000E+00 0.  1.
          2   -1    0    0  501    0  0.00000000000E+00 -0.00000000000E+00 -0.11245247098E+04  0.11245247098E+04  0.00000000000E+00 0. -1.
         23    2    1    2    0    0  0.11921949022E+03  0.27739677894E+02 -0.44901257997E+03  0.47396792496E+03  0.89724691940E+02 0.  0.
          5    1    1    2  502    0 -0.15149544079E+02 -0.96513678272E+01 -0.41622788943E+03  0.41664181682E+03  0.47000000000E+01 0. -1.
         -5    1    1    2    0  502 -0.10406994614E+03 -0.18088310067E+02 -0.23526561336E+03  0.25793359510E+03  0.47000000000E+01 0. -1.
        -11    1    3    3    0    0  0.73684179610E+02  0.24842358555E+02 -0.39800915283E+03  0.40553395276E+03  0.00000000000E+00 0.  1.
         11    1    3    3    0    0  0.45535310609E+02  0.28973193387E+01 -0.51003427141E+02  0.68433972205E+02  0.00000000000E+00 0. -1.
<mgrwt>
<rscale>  0 0.16884325E+03</rscale>
<asrwt>0</asrwt>
<pdfrwt beam="2">  1        2 0.17300381E+00 0.17495200E+03</pdfrwt>
<pdfrwt beam="1">  1       -2 0.36951733E-02 0.17495200E+03</pdfrwt>
<totfact> 0.67339385E+03</totfact>
</mgrwt>
</event>
<event>
 7    1  0.1020736E-005  0.1529287E+03  0.7546771E-02  0.1205976E+00
          2   -1    0    0  501    0  0.00000000000E+00  0.00000000000E+00  0.70377422577E+03  0.70377422577E+03  0.00000000000E+00 0. -1.
         -2   -1    0    0    0  501 -0.00000000000E+00 -0.00000000000E+00 -0.50203429047E+02  0.50203429047E+02  0.00000000000E+00 0.  1.
         23    2    1    2    0    0  0.59575783739E+02  0.64906116293E+02  0.56794417424E+02  0.13791820947E+03  0.89631181593E+02 0.  0.
          5    1    1    2  502    0 -0.94856802960E+02 -0.35636612838E+02  0.47826282436E+03  0.48890203559E+03  0.47000000000E+01 0. -1.
         -5    1    1    2    0  502  0.35281019221E+02 -0.29269503455E+02  0.11851355494E+03  0.12715740975E+03  0.47000000000E+01 0. -1.
        -11    1    3    3    0    0 -0.16111894779E+02  0.27918230819E+02  0.41090363440E+02  0.52224886147E+02  0.00000000000E+00 0. -1.
         11    1    3    3    0    0  0.75687678519E+02  0.36987885474E+02  0.15704053985E+02  0.85693323328E+02  0.00000000000E+00 0.  1.
<mgrwt>
<rscale>  0 0.14560778E+03</rscale>
<asrwt>0</asrwt>
<pdfrwt beam="1">  1        2 0.10827295E+00 0.15292872E+03</pdfrwt>
<pdfrwt beam="2">  1       -2 0.77236049E-02 0.15292872E+03</pdfrwt>
<totfact> 0.40707529E+03</totfact>
</mgrwt>
</event>
<event>
 7    1  0.1020736E-005  0.1673293E+03  0.7546771E-02  0.1186250E+00
          1   -1    0    0  501    0  0.00000000000E+00  0.00000000000E+00  0.25676199285E+03  0.25676199285E+03  0.00000000000E+00 0. -1.
         -1   -1    0    0    0  501 -0.00000000000E+00 -0.00000000000E+00 -0.99926950464E+02  0.99926950464E+02  0.00000000000E+00 0.  1.
         23    2    1    2    0    0  0.76385484533E+02  0.80848815996E+02  0.41313965637E+02  0.15335619680E+03  0.97159693521E+02 0.  0.
          5    1    1    2  502    0 -0.58036480138E+02 -0.83914291273E+02  0.13932869910E+03  0.17275536953E+03  0.47000000000E+01 0.  1.
         -5    1    1    2    0  502 -0.18349004395E+02  0.30654752772E+01 -0.23807622357E+02  0.30577376985E+02  0.47000000000E+01 0.  1.
        -11    1    3    3    0    0  0.27780047860E+02  0.91831415622E+02  0.38713548336E+02  0.10345761827E+03  0.00000000000E+00 0.  1.
         11    1    3    3    0    0  0.48605436673E+02 -0.10982599626E+02  0.26004173010E+01  0.49898578526E+02  0.00000000000E+00 0. -1.
<mgrwt>
<rscale>  0 0.16218627E+03</rscale>
<asrwt>0</asrwt>
<pdfrwt beam="1">  1        1 0.39501845E-01 0.16732928E+03</pdfrwt>
<pdfrwt beam="2">  1       -1 0.15373377E-01 0.16732928E+03</pdfrwt>
<totfact> 0.32204220E+03</totfact>
</mgrwt>
</event>
<event>
 7    1  0.1020736E-005  0.2085029E+03  0.7546771E-02  0.1146551E+00
         -1   -1    0    0    0  501 -0.00000000000E+00  0.00000000000E+00  0.16226939451E+03  0.16226939451E+03  0.00000000000E+00 0.  1.
          1   -1    0    0  501    0  0.00000000000E+00 -0.00000000000E+00 -0.26517845597E+03  0.26517845597E+03  0.00000000000E+00 0. -1.
         23    2    1    2    0    0  0.97463387454E+02  0.13545463895E+03  0.93553317256E+01  0.19064254630E+03  0.91705981915E+02 0.  0.
          5    1    1    2  502    0  0.18192837618E+02 -0.44193611701E+02 -0.67342265432E+02  0.82711095805E+02  0.47000000000E+01 0. -1.
         -5    1    1    2    0  502 -0.11565622507E+03 -0.91261027252E+02 -0.44922127752E+02  0.15409420837E+03  0.47000000000E+01 0. -1.
        -11    1    3    3    0    0 -0.41828372027E+01  0.68282624405E+02 -0.45484891304E+00  0.68412132040E+02  0.00000000000E+00 0.  1.
         11    1    3    3    0    0  0.10164622466E+03  0.67172014549E+02  0.98101806386E+01  0.12223041426E+03  0.00000000000E+00 0. -1.
<mgrwt>
<rscale>  0 0.20382532E+03</rscale>
<asrwt>0</asrwt>
<pdfrwt beam="2">  1        1 0.40796685E-01 0.20850290E+03</pdfrwt>
<pdfrwt beam="1">  1       -1 0.24964523E-01 0.20850290E+03</pdfrwt>
<totfact> 0.14226014E+03</totfact>
</mgrwt>
</event>
<event>
 7    1  0.1020736E-005  0.1648173E+03  0.7546771E-02  0.1189492E+00
          1   -1    0    0  501    0  0.00000000000E+00  0.00000000000E+00  0.10174747641E+04  0.10174747641E+04  0.00000000000E+00 0. -1.
         -1   -1    0    0    0  501 -0.00000000000E+00 -0.00000000000E+00 -0.24246743955E+02  0.24246743955E+02  0.00000000000E+00 0.  1.
         23    2    1    2    0    0 -0.97309615584E+02  0.45719651801E+02  0.36722124434E+03  0.39438139116E+03  0.95529008967E+02 0.  0.
          5    1    1    2  502    0 -0.32419514297E+01 -0.38734884244E+02  0.55155647545E+02  0.67639758742E+02  0.47000000000E+01 0. -1.
         -5    1    1    2    0  502  0.10055156701E+03 -0.69847675565E+01  0.57085112830E+03  0.57970035819E+03  0.47000000000E+01 0. -1.
        -11    1    3    3    0    0 -0.30004628306E+02  0.54302466789E+02  0.92312082365E+02  0.11122300198E+03  0.00000000000E+00 0.  1.
         11    1    3    3    0    0 -0.67304987278E+02 -0.85828149882E+01  0.27490916197E+03  0.28315838918E+03  0.00000000000E+00 0. -1.
<mgrwt>
<rscale>  0 0.15929776E+03</rscale>
<asrwt>0</asrwt>
<pdfrwt beam="1">  1        1 0.15653455E+00 0.16481730E+03</pdfrwt>
<pdfrwt beam="2">  1       -1 0.37302691E-02 0.16481730E+03</pdfrwt>
<totfact> 0.41741675E+03</totfact>
</mgrwt>
</event>
<event>
 7    1  0.1020736E-005  0.1405668E+03  0.7546771E-02  0.1223516E+00
          2   -1    0    0  501    0  0.00000000000E+00  0.00000000000E+00  0.10504993342E+03  0.10504993342E+03  0.00000000000E+00 0. -1.
         -2   -1    0    0    0  501 -0.00000000000E+00 -0.00000000000E+00 -0.17871164401E+03  0.17871164401E+03  0.00000000000E+00 0.  1.
         23    2    1    2    0    0 -0.18619711815E+02  0.61543251360E+02 -0.88457830806E+02  0.14241822601E+03  0.91235397808E+02 0.  0.
          5    1    1    2  502    0  0.39348025240E+02 -0.63088639021E+02  0.57172172219E+02  0.93910546480E+02  0.47000000000E+01 0.  1.
         -5    1    1    2    0  502 -0.20728313425E+02  0.15453876608E+01 -0.42376052009E+02  0.47432804939E+02  0.47000000000E+01 0.  1.
        -11    1    3    3    0    0 -0.23316862085E+01  0.46199179146E+02 -0.10490221846E+03  0.11464849041E+03  0.00000000000E+00 0.  1.
         11    1    3    3    0    0 -0.16288025607E+02  0.15344072214E+02  0.16444387654E+02  0.27769735605E+02  0.00000000000E+00 0. -1.
<mgrwt>
<rscale>  0 0.13269170E+03</rscale>
<asrwt>0</asrwt>
<pdfrwt beam="1">  1        2 0.16161528E-01 0.14056677E+03</pdfrwt>
<pdfrwt beam="2">  1       -2 0.27494099E-01 0.14056677E+03</pdfrwt>
<totfact> 0.40972190E+03</totfact>
</mgrwt>
</event>
<event>
 7    1  0.1020736E-005  0.1495243E+03  0.7546771E-02  0.1210777E+00
          1   -1    0    0  501    0  0.00000000000E+00  0.00000000000E+00  0.12239702007E+03  0.12239702007E+03  0.00000000000E+00 0. -1.
         -1   -1    0    0    0  501 -0.00000000000E+00 -0.00000000000E+00 -0.21975690000E+03  0.21975690000E+03  0.00000000000E+00 0.  1.
         23    2    1    2    0    0  0.64644436832E+02  0.50538497876E+02 -0.14136204459E+03  0.18628950403E+03  0.89372863206E+02 0.  0.
          5    1    1    2  502    0  0.28614963539E+02 -0.46892768890E+02  0.79623077299E+01  0.55706698493E+02  0.47000000000E+01 0.  1.
         -5    1    1    2    0  502 -0.93259400371E+02 -0.36457289855E+01  0.36039856928E+02  0.10015771755E+03  0.47000000000E+01 0.  1.
        -11    1    3    3    0    0  0.16759513757E+02  0.35470789708E+02 -0.32825401949E+01  0.39367922145E+02  0.00000000000E+00 0.  1.
         11    1    3    3    0    0  0.47884923075E+02  0.15067708168E+02 -0.13807950440E+03  0.14692158188E+03  0.00000000000E+00 0. -1.
<mgrwt>
<rscale>  0 0.14191373E+03</rscale>
<asrwt>0</asrwt>
<pdfrwt beam="1">  1        1 0.18830311E-01 0.14952433E+03</pdfrwt>
<pdfrwt beam="2">  1       -1 0.33808754E-01 0.14952433E+03</pdfrwt>
<totfact> 0.22396743E+03</totfact>
</mgrwt>
</event>
<event>
 7    1  0.1020736E-005  0.1675744E+03  0.7546771E-02  0.1187466E+00
          3   -1    0    0  501    0  0.00000000000E+00  0.00000000000E+00  0.39666857605E+03  0.39666857605E+03  0.00000000000E+00 0. -1.
         -3   -1    0    0    0  501 -0.00000000000E+00 -0.00000000000E+00 -0.86818620474E+02  0.86818620474E+02  0.00000000000E+00 0.  1.
         23    2    1    2    0    0  0.10370492935E+03  0.41268439122E+02  0.14427424032E+02  0.14384673933E+03  0.89587596306E+02 0.  0.
          5    1    1    2  502    0 -0.38112724947E+02  0.10252627513E+02  0.82896683257E+01  0.40601782901E+02  0.47000000000E+01 0.  1.
         -5    1    1    2    0  502 -0.65592204400E+02 -0.51521066635E+02  0.28713286322E+03  0.29903867430E+03  0.47000000000E+01 0.  1.
        -11    1    3    3    0    0  0.38205628382E+02  0.62438111525E+02 -0.14087287898E+01  0.73213197769E+02  0.00000000000E+00 0.  1.
         11    1    3    3    0    0  0.65499300965E+02 -0.21169672403E+02  0.15836152822E+02  0.70633541556E+02  0.00000000000E+00 0. -1.
<mgrwt>
<rscale>  0 0.16109491E+03</rscale>
<asrwt>0</asrwt>
<pdfrwt beam="1">  1        3 0.61025934E-01 0.16757437E+03</pdfrwt>
<pdfrwt beam="2">  1       -3 0.13356711E-01 0.16757437E+03</pdfrwt>
<totfact> 0.28819673E+02</totfact>
</mgrwt>
</event>
<event>
 7    1  0.1020736E-005  0.2310131E+03  0.7546771E-02  0.1125929E+00
         -1   -1    0    0    0  501 -0.00000000000E+00  0.00000000000E+00  0.69504239764E+02  0.69504239764E+02  0.00000000000E+00 0.  1.
          1   -1    0    0  501    0  0.00000000000E+00 -0.00000000000E+00 -0.19195604003E+03  0.19195604003E+03  0.00000000000E+00 0. -1.
         23    2    1    2    0    0  0.33544698019E+02 -0.17176908205E+02 -0.31225977148E+02  0.10218033951E+03  0.89696528326E+02 0.  0.
          5    1    1    2  502    0 -0.70394291737E+02  0.34419386334E+02 -0.88407059172E+02  0.11822837467E+03  0.47000000000E+01 0.  1.
         -5    1    1    2    0  502  0.36849593718E+02 -0.17242478129E+02 -0.28187639476E+01  0.41051565614E+02  0.47000000000E+01 0.  1.
        -11    1    3    3    0    0  0.46661516540E+02 -0.25745551918E+01 -0.54461750684E+02  0.71763554454E+02  0.00000000000E+00 0. -1.
         11    1    3    3    0    0 -0.13116818521E+02 -0.14602353013E+02  0.23235773536E+02  0.30416785061E+02  0.00000000000E+00 0.  1.
<mgrwt>
<rscale>  0 0.23101306E+03</rscale>
<asrwt>0</asrwt>
<pdfrwt beam="2">  1        1 0.29531698E-01 0.23101306E+03</pdfrwt>
<pdfrwt beam="1">  1       -1 0.10692960E-01 0.23101306E+03</pdfrwt>
<totfact> 0.83213271E+03</totfact>
</mgrwt>
</event>
<event>
 7    1  0.1020736E-005  0.1266336E+03  0.7546771E-02  0.1247050E+00
          2   -1    0    0  501    0  0.00000000000E+00  0.00000000000E+00  0.32850104384E+03  0.32850104384E+03  0.00000000000E+00 0. -1.
         -2   -1    0    0    0  501 -0.00000000000E+00 -0.00000000000E+00 -0.39463797397E+02  0.39463797397E+02  0.00000000000E+00 0.  1.
         23    2    1    2    0    0 -0.12077167715E+01  0.20229891477E+02  0.80480056024E+02  0.12397266336E+03  0.92094922520E+02 0.  0.
          5    1    1    2  502    0 -0.53080360886E+02  0.18825879126E+02  0.12245342406E+03  0.13486611694E+03  0.47000000000E+01 0.  1.
         -5    1    1    2    0  502  0.54288077658E+02 -0.39055770603E+02  0.86103766367E+02  0.10912606094E+03  0.47000000000E+01 0.  1.
        -11    1    3    3    0    0  0.40401494995E+02 -0.83761152614E+01  0.22174237662E+02  0.46841615265E+02  0.00000000000E+00 0. -1.
         11    1    3    3    0    0 -0.41609211767E+02  0.28606006738E+02  0.58305818362E+02  0.77131048095E+02  0.00000000000E+00 0.  1.
<mgrwt>
<rscale>  0 0.11763536E+03</rscale>
<asrwt>0</asrwt>
<pdfrwt beam="1">  1        2 0.50538620E-01 0.12663365E+03</pdfrwt>
<pdfrwt beam="2">  1       -2 0.60713537E-02 0.12663365E+03</pdfrwt>
<totfact> 0.13479918E+04</totfact>
</mgrwt>
</event>
<event>
 7    1  0.1090914E-005  0.1256908E+03  0.7546771E-02  0.1249746E+00
         -2   -1    0    0    0  501 -0.00000000000E+00  0.00000000000E+00  0.36751695283E+02  0.36751695283E+02  0.00000000000E+00 0.  1.
          2   -1    0    0  501    0  0.00000000000E+00 -0.00000000000E+00 -0.36113325574E+03  0.36113325574E+03  0.00000000000E+00 0. -1.
         23    2    1    2    0    0  0.86169783816E+01 -0.99633332585E+01 -0.73431289436E+02  0.11721749216E+03  0.90411646777E+02 0.  0.
          5    1    1    2  502    0 -0.41808414660E+02 -0.38255226247E+02 -0.17887711416E+03  0.18769794309E+03  0.47000000000E+01 0. -1.
         -5    1    1    2    0  502  0.33191436278E+02  0.48218559505E+02 -0.72073156856E+02  0.92969515768E+02  0.47000000000E+01 0. -1.
        -11    1    3    3    0    0 -0.11140027799E+02  0.15536507751E+02  0.14215077787E+02  0.23823344201E+02  0.00000000000E+00 0.  1.
         11    1    3    3    0    0  0.19757006180E+02 -0.25499841009E+02 -0.87646367223E+02  0.93394147954E+02  0.00000000000E+00 0. -1.
<mgrwt>
<rscale>  0 0.11605774E+03</rscale>
<asrwt>0</asrwt>
<pdfrwt beam="2">  1        2 0.55558964E-01 0.12569083E+03</pdfrwt>
<pdfrwt beam="1">  1       -2 0.56541068E-02 0.12569083E+03</pdfrwt>
<totfact> 0.13569928E+04</totfact>
</mgrwt>
</event>
<event>
 7    1  0.1020736E-005  0.1468037E+03  0.7546771E-02  0.1219768E+00
         -1   -1    0    0    0  501 -0.00000000000E+00  0.00000000000E+00  0.66663322727E+02  0.66663322727E+02  0.00000000000E+00 0.  1.
          1   -1    0    0  501    0  0.00000000000E+00 -0.00000000000E+00 -0.25448489280E+03  0.25448489280E+03  0.00000000000E+00 0. -1.
         23    2    1    2    0    0 -0.12841027950E+01  0.55495599395E+02 -0.41335826061E+02  0.11376114602E+03  0.90285864653E+02 0.  0.
          5    1    1    2  502    0 -0.36394513481E+02 -0.82251265046E+02 -0.57067591016E+02  0.10662378326E+03  0.47000000000E+01 0. -1.
         -5    1    1    2    0  502  0.37678616276E+02  0.26755665651E+02 -0.89418153001E+02  0.10076328625E+03  0.47000000000E+01 0.  1.
        -11    1    3    3    0    0  0.18045457601E+02  0.23273640975E+02  0.24266607869E+02  0.38159784613E+02  0.00000000000E+00 0.  1.
         11    1    3    3    0    0 -0.19329560396E+02  0.32221958420E+02 -0.65602433930E+02  0.75601361410E+02  0.00000000000E+00 0. -1.
<mgrwt>
<rscale>  0 0.13532077E+03</rscale>
<asrwt>0</asrwt>
<pdfrwt beam="2">  1        1 0.39151521E-01 0.14680369E+03</pdfrwt>
<pdfrwt beam="1">  1       -1 0.10255896E-01 0.14680369E+03</pdfrwt>
<totfact> 0.60653864E+03</totfact>
</mgrwt>
</event>
<event>
 7    1  0.1020736E-005  0.1414007E+03  0.7546771E-02  0.1221915E+00
         -1   -1    0    0    0  501 -0.00000000000E+00  0.00000000000E+00  0.38521632619E+03  0.38521632619E+03  0.00000000000E+00 0.  1.
          1   -1    0    0  501    0  0.00000000000E+00 -0.00000000000E+00 -0.42313262184E+02  0.42313262184E+02  0.00000000000E+00 0. -1.
         23    2    1    2    0    0 -0.91859855251E+00 -0.66087686599E+02  0.16672147869E+03  0.20162226646E+03  0.92125244802E+02 0.  0.
          5    1    1    2  502    0 -0.36101846328E+02  0.41582252556E+02  0.13064157021E+02  0.56790749552E+02  0.47000000000E+01 0. -1.
         -5    1    1    2    0  502  0.37020444881E+02  0.24505434042E+02  0.16311742829E+03  0.16911657237E+03  0.47000000000E+01 0. -1.
        -11    1    3    3    0    0  0.28954676949E+02 -0.51824670116E+02  0.15585928601E+03  0.16678215368E+03  0.00000000000E+00 0.  1.
         11    1    3    3    0    0 -0.29873275501E+02 -0.14263016482E+02  0.10862192680E+02  0.34840112775E+02  0.00000000000E+00 0. -1.
<mgrwt>
<rscale>  0 0.13380576E+03</rscale>
<asrwt>0</asrwt>
<pdfrwt beam="2">  1        1 0.65097329E-02 0.14140073E+03</pdfrwt>
<pdfrwt beam="1">  1       -1 0.59264048E-01 0.14140073E+03</pdfrwt>
<totfact> 0.33133562E+03</totfact>
</mgrwt>
</event>
<event>
 7    1  0.1020736E-005  0.1350647E+03  0.7546771E-02  0.1231681E+00
         -2   -1    0    0    0  501 -0.00000000000E+00  0.00000000000E+00  0.10285674494E+02  0.10285674494E+02  0.00000000000E+00 0. -1.
          2   -1    0    0  501    0  0.00000000000E+00 -0.00000000000E+00 -0.14733680174E+04  0.14733680174E+04  0.00000000000E+00 0.  1.
         23    2    1    2    0    0  0.30068437792E+02  0.41400772649E+02 -0.50106531745E+03  0.51220156757E+03  0.93090593193E+02 0.  0.
          5    1    1    2  502    0  0.35277007503E+01 -0.43907133418E+02 -0.10765121017E+03  0.11640942439E+03  0.47000000000E+01 0. -1.
         -5    1    1    2    0  502 -0.33596138542E+02  0.25063607692E+01 -0.85436581526E+03  0.85504269990E+03  0.47000000000E+01 0. -1.
        -11    1    3    3    0    0  0.47730063677E+02 -0.12612888947E+02 -0.23899604512E+03  0.24404170449E+03  0.00000000000E+00 0.  1.
         11    1    3    3    0    0 -0.17661625885E+02  0.54013661596E+02 -0.26206927233E+03  0.26815986308E+03  0.00000000000E+00 0. -1.
<mgrwt>
<rscale>  0 0.12719330E+03</rscale>
<asrwt>0</asrwt>
<pdfrwt beam="2">  1        2 0.22667200E+00 0.13506470E+03</pdfrwt>
<pdfrwt beam="1">  1       -2 0.15824115E-02 0.13506470E+03</pdfrwt>
<totfact> 0.14893854E+04</totfact>
</mgrwt>
</event>
<event>
 7    1  0.1099722E-005  0.1262455E+03  0.7546771E-02  0.1247878E+00
         -3   -1    0    0    0  501 -0.00000000000E+00  0.00000000000E+00  0.71255279658E+02  0.71255279658E+02  0.00000000000E+00 0.  1.
          3   -1    0    0  501    0  0.00000000000E+00 -0.00000000000E+00 -0.19581432604E+03  0.19581432604E+03  0.00000000000E+00 0. -1.
         23    2    1    2    0    0 -0.16887992853E+02  0.52873666638E+01 -0.58616871956E+01  0.93786658609E+02  0.91915272982E+02 0.  0.
          5    1    1    2  502    0  0.46434369909E+02  0.46356043426E+02 -0.52585597642E+02  0.84216201234E+02  0.47000000000E+01 0. -1.
         -5    1    1    2    0  502 -0.29546377055E+02 -0.51643410090E+02 -0.66111761547E+02  0.89066745857E+02  0.47000000000E+01 0. -1.
        -11    1    3    3    0    0  0.36456451690E+02  0.25374658861E+01  0.10320475745E+02  0.37973988763E+02  0.00000000000E+00 0.  1.
         11    1    3    3    0    0 -0.53344444543E+02  0.27499007777E+01 -0.16182162941E+02  0.55812669846E+02  0.00000000000E+00 0. -1.
<mgrwt>
<rscale>  0 0.11714793E+03</rscale>
<asrwt>0</asrwt>
<pdfrwt beam="2">  1        3 0.30125281E-01 0.12624546E+03</pdfrwt>
<pdfrwt beam="1">  1       -3 0.10962351E-01 0.12624546E+03</pdfrwt>
<totfact> 0.15297295E+03</totfact>
</mgrwt>
</event>
<event>
 7    1  0.1020736E-005  0.2233741E+03  0.7546771E-02  0.1134651E+00
         -2   -1    0    0    0  501 -0.00000000000E+00  0.00000000000E+00  0.23824253954E+03  0.23824253954E+03  0.00000000000E+00 0.  1.
          2   -1    0    0  501    0  0.00000000000E+00 -0.00000000000E+00 -0.19751028903E+03  0.19751028903E+03  0.00000000000E+00 0. -1.
         23    2    1    2    0    0  0.33416680037E+02  0.18208282264E+03  0.49745191307E+02  0.21219701375E+03  0.91006372202E+02 0.  0.
          5    1    1    2  502    0  0.22688389240E+02  0.11777198201E+01 -0.21237067257E+02  0.31452393485E+02  0.47000000000E+01 0. -1.
         -5    1    1    2    0  502 -0.56105069277E+02 -0.18326054246E+03  0.12224126460E+02  0.19210342133E+03  0.47000000000E+01 0. -1.
        -11    1    3    3    0    0  0.43977908322E+02  0.12769415533E+03  0.71332246876E+02  0.15273553343E+03  0.00000000000E+00 0.  1.
         11    1    3    3    0    0 -0.10561228284E+02  0.54388667305E+02 -0.21587055569E+02  0.59461480323E+02  0.00000000000E+00 0. -1.
<mgrwt>
<rscale>  0 0.21897312E+03</rscale>
<asrwt>0</asrwt>
<pdfrwt beam="2">  1        2 0.30386198E-01 0.22337406E+03</pdfrwt>
<pdfrwt beam="1">  1       -2 0.36652698E-01 0.22337406E+03</pdfrwt>
<totfact> 0.12122725E+03</totfact>
</mgrwt>
</event>
<event>
 7    1  0.1020736E-005  0.1272321E+03  0.7546771E-02  0.1246045E+00
          1   -1    0    0  501    0  0.00000000000E+00  0.00000000000E+00  0.21709975855E+03  0.21709975855E+03  0.00000000000E+00 0. -1.
         -1   -1    0    0    0  501 -0.00000000000E+00 -0.00000000000E+00 -0.62749843295E+02  0.62749843295E+02  0.00000000000E+00 0.  1.
         23    2    1    2    0    0  0.23648524587E+02 -0.19178605853E+01  0.24340869733E+02  0.97942069022E+02  0.91854450303E+02 0.  0.
          5    1    1    2  502    0  0.46622250421E+02  0.23945434861E+02  0.44107161617E+02  0.68662579262E+02  0.47000000000E+01 0.  1.
         -5    1    1    2    0  502 -0.70270775008E+02 -0.22027574276E+02  0.85901883909E+02  0.11324495356E+03  0.47000000000E+01 0.  1.
        -11    1    3    3    0    0  0.45230404888E+02  0.79570355965E+01  0.46583306226E+02  0.65414894029E+02  0.00000000000E+00 0.  1.
         11    1    3    3    0    0 -0.21581880301E+02 -0.98748961819E+01 -0.22242436493E+02  0.32527174993E+02  0.00000000000E+00 0. -1.
<mgrwt>
<rscale>  0 0.11823030E+03</rscale>
<asrwt>0</asrwt>
<pdfrwt beam="1">  1        1 0.33399963E-01 0.12723207E+03</pdfrwt>
<pdfrwt beam="2">  1       -1 0.96538221E-02 0.12723207E+03</pdfrwt>
<totfact> 0.80203707E+03</totfact>
</mgrwt>
</event>
<event>
 7    1  0.1020736E-005  0.1736398E+03  0.7546771E-02  0.1177780E+00
          2   -1    0    0  501    0  0.00000000000E+00  0.00000000000E+00  0.97302584985E+03  0.97302584985E+03  0.00000000000E+00 0. -1.
         -2   -1    0    0    0  501 -0.00000000000E+00 -0.00000000000E+00 -0.28563665978E+02  0.28563665978E+02  0.00000000000E+00 0.  1.
         23    2    1    2    0    0  0.27078364603E+01 -0.12046820682E+03  0.45604888661E+03  0.48322832736E+03  0.10492429724E+03 0.  0.
          5    1    1    2  502    0  0.35418955950E+02 -0.96128784012E+01  0.12920426569E+03  0.13439770141E+03  0.47000000000E+01 0. -1.
         -5    1    1    2    0  502 -0.38126792410E+02  0.13008108522E+03  0.35920903157E+03  0.38396348705E+03  0.47000000000E+01 0. -1.
        -11    1    3    3    0    0 -0.49783737961E+02 -0.59252809211E+02  0.18780333091E+03  0.20312411739E+03  0.00000000000E+00 0. -1.
         11    1    3    3    0    0  0.52491574421E+02 -0.61215397609E+02  0.26824555570E+03  0.28010420997E+03  0.00000000000E+00 0.  1.
<mgrwt>
<rscale>  0 0.17006549E+03</rscale>
<asrwt>0</asrwt>
<pdfrwt beam="1">  1        2 0.14969626E+00 0.17363978E+03</pdfrwt>
<pdfrwt beam="2">  1       -2 0.43944109E-02 0.17363978E+03</pdfrwt>
<totfact> 0.63849745E+03</totfact>
</mgrwt>
</event>
<event>
 7    1  0.1020736E-005  0.1624280E+03  0.7546771E-02  0.1194147E+00
          2   -1    0    0  501    0  0.00000000000E+00  0.00000000000E+00  0.66367367788E+03  0.66367367788E+03  0.00000000000E+00 0. -1.
         -2   -1    0    0    0  501 -0.00000000000E+00 -0.00000000000E+00 -0.33472526839E+02  0.33472526839E+02  0.00000000000E+00 0.  1.
         23    2    1    2    0    0  0.54324429275E+02  0.88347642707E+02  0.29264895213E+03  0.32254727941E+03  0.87389293879E+02 0.  0.
          5    1    1    2  502    0  0.26618451910E+02 -0.46538396849E+02  0.52027257432E+02  0.74855125938E+02  0.47000000000E+01 0.  1.
         -5    1    1    2    0  502 -0.80942881185E+02 -0.41809245858E+02  0.28552494148E+03  0.29974379937E+03  0.47000000000E+01 0.  1.
        -11    1    3    3    0    0  0.66041067370E+02  0.40588493307E+02  0.11860674272E+03  0.14169124104E+03  0.00000000000E+00 0.  1.
         11    1    3    3    0    0 -0.11716638095E+02  0.47759149399E+02  0.17404220941E+03  0.18085603837E+03  0.00000000000E+00 0. -1.
<mgrwt>
<rscale>  0 0.15526670E+03</rscale>
<asrwt>0</asrwt>
<pdfrwt beam="1">  1        2 0.10210363E+00 0.16242804E+03</pdfrwt>
<pdfrwt beam="2">  1       -2 0.51496200E-02 0.16242804E+03</pdfrwt>
<totfact> 0.81263992E+03</totfact>
</mgrwt>
</event>
<event>
 7    1  0.1020736E-005  0.1301388E+03  0.7546771E-02  0.1234755E+00
          1   -1    0    0  501    0  0.00000000000E+00  0.00000000000E+00  0.16385971246E+03  0.16385971246E+03  0.00000000000E+00 0. -1.
         -1   -1    0    0    0  501 -0.00000000000E+00 -0.00000000000E+00 -0.90446883416E+02  0.90446883416E+02  0.00000000000E+00 0.  1.
         23    2    1    2    0    0 -0.35068923688E+02  0.91541606585E+01  0.18286381377E+02  0.11297354963E+03  0.10542771507E+03 0.  0.
          5    1    1    2  502    0  0.94265709351E+01 -0.65520927732E+02  0.17164416733E+02  0.68546038633E+02  0.47000000000E+01 0. -1.
         -5    1    1    2    0  502  0.25642352753E+02  0.56366767074E+02  0.37962030934E+02  0.72787007616E+02  0.47000000000E+01 0. -1.
        -11    1    3    3    0    0  0.35243488694E+02  0.17015039561E+02 -0.25494802884E+01  0.39218808196E+02  0.00000000000E+00 0.  1.
         11    1    3    3    0    0 -0.70312412382E+02 -0.78608789023E+01  0.20835861665E+02  0.73754741430E+02  0.00000000000E+00 0. -1.
<mgrwt>
<rscale>  0 0.12520105E+03</rscale>
<asrwt>0</asrwt>
<pdfrwt beam="1">  1        1 0.25209187E-01 0.13013879E+03</pdfrwt>
<pdfrwt beam="2">  1       -1 0.13914905E-01 0.13013879E+03</pdfrwt>
<totfact> 0.64973822E+03</totfact>
</mgrwt>
</event>
<event>
 7    1  0.1020736E-005  0.1398356E+03  0.7546771E-02  0.1224324E+00
          1   -1    0    0  501    0  0.00000000000E+00  0.00000000000E+00  0.17995068953E+03  0.17995068953E+03  0.00000000000E+00 0. -1.
         -1   -1    0    0    0  501 -0.00000000000E+00 -0.00000000000E+00 -0.15056338468E+03  0.15056338468E+03  0.00000000000E+00 0.  1.
         23    2    1    2    0    0 -0.42983504243E+00  0.62679968740E+02 -0.92618973876E+02  0.14493516254E+03  0.92189824700E+02 0.  0.
          5    1    1    2  502    0  0.17346049936E+02 -0.36884438655E+02 -0.16037319412E+02  0.44052614874E+02  0.47000000000E+01 0.  1.
         -5    1    1    2    0  502 -0.16916214894E+02 -0.25795530085E+02  0.13804359814E+03  0.14152629680E+03  0.47000000000E+01 0.  1.
        -11    1    3    3    0    0  0.41079840212E+02  0.15480145857E+02 -0.18198863432E+02  0.47522487497E+02  0.00000000000E+00 0.  1.
         11    1    3    3    0    0 -0.41509675255E+02  0.47199822883E+02 -0.74420110444E+02  0.97412675040E+02  0.00000000000E+00 0. -1.
<mgrwt>
<rscale>  0 0.13213358E+03</rscale>
<asrwt>0</asrwt>
<pdfrwt beam="1">  1        1 0.27684721E-01 0.13983562E+03</pdfrwt>
<pdfrwt beam="2">  1       -1 0.23163598E-01 0.13983562E+03</pdfrwt>
<totfact> 0.25789857E+03</totfact>
</mgrwt>
</event>
<event>
 7    1  0.1020736E-005  0.1258986E+03  0.7546771E-02  0.1246936E+00
          2   -1    0    0  501    0  0.00000000000E+00  0.00000000000E+00  0.22393651953E+03  0.22393651953E+03  0.00000000000E+00 0.  1.
         -2   -1    0    0    0  501 -0.00000000000E+00 -0.00000000000E+00 -0.55475184439E+02  0.55475184439E+02  0.00000000000E+00 0. -1.
         23    2    1    2    0    0 -0.11324138017E+02 -0.99152420147E+01  0.61046697428E+02  0.11391743200E+03  0.94994388886E+02 0.  0.
          5    1    1    2  502    0 -0.73216062604E+01 -0.29241201341E+02  0.11693083685E+03  0.12084520835E+03  0.47000000000E+01 0. -1.
         -5    1    1    2    0  502  0.18645744278E+02  0.39156443356E+02 -0.95161991841E+01  0.44649063628E+02  0.47000000000E+01 0. -1.
        -11    1    3    3    0    0 -0.26907877423E+02 -0.35201112996E+02 -0.18648166399E+01  0.44346699591E+02  0.00000000000E+00 0. -1.
         11    1    3    3    0    0  0.15583739406E+02  0.25285870981E+02  0.62911514068E+02  0.69570732406E+02  0.00000000000E+00 0.  1.
<mgrwt>
<rscale>  0 0.11770262E+03</rscale>
<asrwt>0</asrwt>
<pdfrwt beam="1">  1        2 0.34451772E-01 0.12589857E+03</pdfrwt>
<pdfrwt beam="2">  1       -2 0.85346439E-02 0.12589857E+03</pdfrwt>
<totfact> 0.12009808E+04</totfact>
</mgrwt>
</event>
<event>
 7    1  0.1020736E-005  0.1340319E+03  0.7546771E-02  0.1231270E+00
         -3   -1    0    0    0  501 -0.00000000000E+00  0.00000000000E+00  0.27705484536E+03  0.27705484536E+03  0.00000000000E+00 0.  1.
          3   -1    0    0  501    0  0.00000000000E+00 -0.00000000000E+00 -0.21542921953E+03  0.21542921953E+03  0.00000000000E+00 0. -1.
         23    2    1    2    0    0  0.47994625752E+02 -0.61040187674E+01  0.24321944604E+03  0.26678326144E+03  0.98371065396E+02 0.  0.
          5    1    1    2  502    0  0.40549335321E+02 -0.13564063901E+02 -0.64108197384E+02  0.77202224038E+02  0.47000000000E+01 0. -1.
         -5    1    1    2    0  502 -0.88543961073E+02  0.19668082669E+02 -0.11748562283E+03  0.14849857942E+03  0.47000000000E+01 0. -1.
        -11    1    3    3    0    0 -0.51552830750E+00 -0.20260406399E+02  0.20431414047E+01  0.20369689828E+02  0.00000000000E+00 0. -1.
         11    1    3    3    0    0  0.48510154060E+02  0.14156387632E+02  0.24117630463E+03  0.24641357161E+03  0.00000000000E+00 0.  1.
<mgrwt>
<rscale>  0 0.12746275E+03</rscale>
<asrwt>0</asrwt>
<pdfrwt beam="2">  1        3 0.33142957E-01 0.13403185E+03</pdfrwt>
<pdfrwt beam="1">  1       -3 0.42623822E-01 0.13403185E+03</pdfrwt>
<totfact> 0.11459109E+02</totfact>
</mgrwt>
</event>
<event>
 7    1  0.1020736E-005  0.5451178E+03  0.7546771E-02  0.1002630E+00
          3   -1    0    0  501    0  0.00000000000E+00  0.00000000000E+00  0.51946262802E+02  0.51946262802E+02  0.00000000000E+00 0. -1.
         -3   -1    0    0    0  501 -0.00000000000E+00 -0.00000000000E+00 -0.14301003043E+04  0.14301003043E+04  0.00000000000E+00 0.  1.
         23    2    1    2    0    0  0.80975201334E+02 -0.49027547454E+02 -0.44175536371E+03  0.46098114180E+03  0.91624931567E+02 0.  0.
          5    1    1    2  502    0 -0.22910600766E+03 -0.27576828589E+02 -0.43199378780E+03  0.48978645032E+03  0.47000000000E+01 0. -1.
         -5    1    1    2    0  502  0.14813080633E+03  0.76604376043E+02 -0.50440488995E+03  0.53127897494E+03  0.47000000000E+01 0.  1.
        -11    1    3    3    0    0 -0.35976343741E+01 -0.30195247765E+02 -0.41461229002E+02  0.51417209872E+02  0.00000000000E+00 0.  1.
         11    1    3    3    0    0  0.84572835708E+02 -0.18832299689E+02 -0.40029413471E+03  0.40956393193E+03  0.00000000000E+00 0. -1.
<mgrwt>
<rscale>  0 0.54511785E+03</rscale>
<asrwt>0</asrwt>
<pdfrwt beam="1">  1        3 0.79917334E-02 0.54511785E+03</pdfrwt>
<pdfrwt beam="2">  1       -3 0.22001541E+00 0.54511785E+03</pdfrwt>
<totfact> 0.32989189E+01</totfact>
</mgrwt>
</event>
<event>
 7    1  0.1588090E-005  0.1933414E+03  0.7546771E-02  0.1160168E+00
          1   -1    0    0  501    0  0.00000000000E+00  0.00000000000E+00  0.70884168074E+02  0.70884168074E+02  0.00000000000E+00 0. -1.
         -1   -1    0    0    0  501 -0.00000000000E+00 -0.00000000000E+00 -0.47500819894E+03  0.47500819894E+03  0.00000000000E+00 0.  1.
         23    2    1    2    0    0 -0.13516784696E+03 -0.59038909335E+02 -0.20315880438E+03  0.26702339173E+03  0.90950823338E+02 0.  0.
          5    1    1    2  502    0  0.38611730708E+02 -0.16316552515E+02  0.14835798795E+01  0.42206476322E+02  0.47000000000E+01 0. -1.
         -5    1    1    2    0  502  0.96556116255E+02  0.75355461850E+02 -0.20244880637E+03  0.23666249896E+03  0.47000000000E+01 0. -1.
        -11    1    3    3    0    0 -0.96183660385E+02 -0.19599538016E+02 -0.18364974893E+03  0.20823704929E+03  0.00000000000E+00 0.  1.
         11    1    3    3    0    0 -0.38984186579E+02 -0.39439371319E+02 -0.19509055457E+02  0.58786342445E+02  0.00000000000E+00 0. -1.
<mgrwt>
<rscale>  0 0.18811974E+03</rscale>
<asrwt>0</asrwt>
<pdfrwt beam="1">  1        1 0.10905257E-01 0.19334136E+03</pdfrwt>
<pdfrwt beam="2">  1       -1 0.73078184E-01 0.19334136E+03</pdfrwt>
<totfact> 0.11132727E+03</totfact>
</mgrwt>
</event>
<event>
 7    1  0.1020736E-005  0.1302775E+03  0.7546771E-02  0.1240740E+00
         -1   -1    0    0    0  501 -0.00000000000E+00  0.00000000000E+00  0.98366942598E+02  0.98366942598E+02  0.00000000000E+00 0.  1.
          1   -1    0    0  501    0  0.00000000000E+00 -0.00000000000E+00 -0.13402817632E+03  0.13402817632E+03  0.00000000000E+00 0. -1.
         23    2    1    2    0    0  0.12687741544E+01 -0.36677523287E+02 -0.46354879852E+01  0.98474161036E+02  0.91262380752E+02 0.  0.
          5    1    1    2  502    0  0.42811002172E+02  0.64682500234E+02 -0.21495260363E+02  0.80627191205E+02  0.47000000000E+01 0. -1.
         -5    1    1    2    0  502 -0.44079776326E+02 -0.28004976947E+02 -0.95304853694E+01  0.53293766673E+02  0.47000000000E+01 0. -1.
        -11    1    3    3    0    0 -0.91103767965E+01 -0.35881169365E+02  0.38906875946E+02  0.53704769586E+02  0.00000000000E+00 0.  1.
         11    1    3    3    0    0  0.10379150951E+02 -0.79635392152E+00 -0.43542363932E+02  0.44769391450E+02  0.00000000000E+00 0. -1.
<mgrwt>
<rscale>  0 0.12144012E+03</rscale>
<asrwt>0</asrwt>
<pdfrwt beam="2">  1        1 0.20619719E-01 0.13027750E+03</pdfrwt>
<pdfrwt beam="1">  1       -1 0.15133376E-01 0.13027750E+03</pdfrwt>
<totfact> 0.73418255E+03</totfact>
</mgrwt>
</event>
<event>
 7    1  0.1020736E-005  0.1456513E+03  0.7546771E-02  0.1215822E+00
          1   -1    0    0  501    0  0.00000000000E+00  0.00000000000E+00  0.93960795091E+03  0.93960795091E+03  0.00000000000E+00 0. -1.
         -1   -1    0    0    0  501 -0.00000000000E+00 -0.00000000000E+00 -0.23182956662E+02  0.23182956662E+02  0.00000000000E+00 0.  1.
         23    2    1    2    0    0 -0.69182313170E+02  0.28344328392E+02  0.20403899069E+03  0.23566771861E+03  0.91201811757E+02 0.  0.
          5    1    1    2  502    0  0.17174203849E+02  0.40156565328E+02  0.10739766887E+03  0.11603384117E+03  0.47000000000E+01 0. -1.
         -5    1    1    2    0  502  0.52008109320E+02 -0.68500893720E+02  0.60498833469E+03  0.61108934779E+03  0.47000000000E+01 0. -1.
        -11    1    3    3    0    0 -0.28091938897E+02  0.45194730207E+02  0.42404918373E+02  0.68043352149E+02  0.00000000000E+00 0.  1.
         11    1    3    3    0    0 -0.41090374273E+02 -0.16850401815E+02  0.16163407231E+03  0.16762436646E+03  0.00000000000E+00 0. -1.
<mgrwt>
<rscale>  0 0.13816291E+03</rscale>
<asrwt>0</asrwt>
<pdfrwt beam="1">  1        1 0.14455504E+00 0.14565134E+03</pdfrwt>
<pdfrwt beam="2">  1       -1 0.35666095E-02 0.14565134E+03</pdfrwt>
<totfact> 0.50714305E+03</totfact>
</mgrwt>
</event>
<event>
 7    1  0.1020736E-005  0.1480444E+03  0.7546771E-02  0.1212100E+00
          1   -1    0    0  501    0  0.00000000000E+00  0.00000000000E+00  0.13601757796E+03  0.13601757796E+03  0.00000000000E+00 0. -1.
         -1   -1    0    0    0  501 -0.00000000000E+00 -0.00000000000E+00 -0.15646584909E+03  0.15646584909E+03  0.00000000000E+00 0.  1.
         23    2    1    2    0    0  0.10352659690E+02 -0.78644672226E+02 -0.65080478660E+02  0.13785754258E+03  0.92071012326E+02 0.  0.
          5    1    1    2  502    0  0.30072022577E+02  0.78252665753E+02 -0.12072830640E+02  0.84827174178E+02  0.47000000000E+01 0.  1.
         -5    1    1    2    0  502 -0.40424682267E+02  0.39200647306E+00  0.56705038164E+02  0.69798710294E+02  0.47000000000E+01 0.  1.
        -11    1    3    3    0    0  0.59747000356E+01  0.16342279059E+02 -0.33348130935E+02  0.37614690776E+02  0.00000000000E+00 0.  1.
         11    1    3    3    0    0  0.43779596546E+01 -0.94986951285E+02 -0.31732347725E+02  0.10024285180E+03  0.00000000000E+00 0. -1.
<mgrwt>
<rscale>  0 0.14091708E+03</rscale>
<asrwt>0</asrwt>
<pdfrwt beam="1">  1        1 0.20925781E-01 0.14804435E+03</pdfrwt>
<pdfrwt beam="2">  1       -1 0.24071669E-01 0.14804435E+03</pdfrwt>
<totfact> 0.34551358E+03</totfact>
</mgrwt>
</event>
<event>
 7    1  0.1020736E-005  0.1351334E+03  0.7546771E-02  0.1232665E+00
         -1   -1    0    0    0  501 -0.00000000000E+00  0.00000000000E+00  0.28829903228E+02  0.28829903228E+02  0.00000000000E+00 0.  1.
          1   -1    0    0  501    0  0.00000000000E+00 -0.00000000000E+00 -0.52446364520E+03  0.52446364520E+03  0.00000000000E+00 0. -1.
         23    2    1    2    0    0  0.30400065244E+02  0.41361620543E+02 -0.15290563958E+03  0.18488673687E+03  0.90377116764E+02 0.  0.
          5    1    1    2  502    0  0.16717672454E+02  0.60470413800E+01  0.79906073439E+00  0.18405862647E+02  0.47000000000E+01 0.  1.
         -5    1    1    2    0  502 -0.47117737699E+02 -0.47408661923E+02 -0.34352716313E+03  0.35000094891E+03  0.47000000000E+01 0.  1.
        -11    1    3    3    0    0  0.17258458981E+02 -0.28234804295E+02 -0.47038546308E+02  0.57512463160E+02  0.00000000000E+00 0.  1.
         11    1    3    3    0    0  0.13141606263E+02  0.69596424838E+02 -0.10586709327E+03  0.12737427371E+03  0.00000000000E+00 0. -1.
<mgrwt>
<rscale>  0 0.12655079E+03</rscale>
<asrwt>0</asrwt>
<pdfrwt beam="2">  1        1 0.80686718E-01 0.13513337E+03</pdfrwt>
<pdfrwt beam="1">  1       -1 0.44353696E-02 0.13513337E+03</pdfrwt>
<totfact> 0.85232127E+03</totfact>
</mgrwt>
</event>
<event>
 7    1  0.1020736E-005  0.1719303E+03  0.7546771E-02  0.1182078E+00
         -3   -1    0    0    0  501 -0.00000000000E+00  0.00000000000E+00  0.14005407537E+03  0.14005407537E+03  0.00000000000E+00 0.  1.
          3   -1    0    0  501    0  0.00000000000E+00 -0.00000000000E+00 -0.19556723494E+03  0.19556723494E+03  0.00000000000E+00 0. -1.
         23    2    1    2    0    0  0.11624922776E+03  0.20541726664E+02  0.14179862025E+02  0.15010275226E+03  0.91618351103E+02 0.  0.
          5    1    1    2  502    0 -0.13934317981E+03  0.18178905999E+01 -0.57284445921E+02  0.15074290773E+03  0.47000000000E+01 0. -1.
         -5    1    1    2    0  502  0.23093952052E+02 -0.22359617264E+02 -0.12408575670E+02  0.34775650328E+02  0.47000000000E+01 0. -1.
        -11    1    3    3    0    0  0.51280389434E+02 -0.43374720634E+01 -0.37298396395E+02  0.63558338383E+02  0.00000000000E+00 0. -1.
         11    1    3    3    0    0  0.64968838326E+02  0.24879198728E+02  0.51478258420E+02  0.86544413873E+02  0.00000000000E+00 0.  1.
<mgrwt>
<rscale>  0 0.16600638E+03</rscale>
<asrwt>0</asrwt>
<pdfrwt beam="2">  1        3 0.30087267E-01 0.17193027E+03</pdfrwt>
<pdfrwt beam="1">  1       -3 0.21546781E-01 0.17193027E+03</pdfrwt>
<totfact> 0.50264332E+02</totfact>
</mgrwt>
</event>
<event>
 7    1  0.1020736E-005  0.1661185E+03  0.7546771E-02  0.1188494E+00
          2   -1    0    0  501    0  0.00000000000E+00  0.00000000000E+00  0.18934526516E+04  0.18934526516E+04  0.00000000000E+00 0. -1.
         -2   -1    0    0    0  501 -0.00000000000E+00 -0.00000000000E+00 -0.25117109166E+02  0.25117109166E+02  0.00000000000E+00 0.  1.
         23    2    1    2    0    0 -0.36460183142E+02 -0.10315390398E+03  0.22542282513E+03  0.26728010137E+03  0.93022199705E+02 0.  0.
          5    1    1    2  502    0  0.28850287081E+02  0.75085050822E+01  0.10665094240E+04  0.10669363422E+04  0.47000000000E+01 0.  1.
         -5    1    1    2    0  502  0.76098960616E+01  0.95645398898E+02  0.57640329331E+03  0.58435331726E+03  0.47000000000E+01 0.  1.
        -11    1    3    3    0    0  0.31519076431E+02 -0.26819933996E+02  0.63813177101E+02  0.76058415776E+02  0.00000000000E+00 0.  1.
         11    1    3    3    0    0 -0.67979259573E+02 -0.76333969984E+02  0.16160964803E+03  0.19122168560E+03  0.00000000000E+00 0. -1.
<mgrwt>
<rscale>  0 0.16017987E+03</rscale>
<asrwt>0</asrwt>
<pdfrwt beam="1">  1        2 0.29130030E+00 0.16611846E+03</pdfrwt>
<pdfrwt beam="2">  1       -2 0.38641721E-02 0.16611846E+03</pdfrwt>
<totfact> 0.24557026E+03</totfact>
</mgrwt>
</event>
<event>
 7    1  0.1020736E-005  0.1278240E+03  0.7546771E-02  0.1250898E+00
          2   -1    0    0  501    0  0.00000000000E+00  0.00000000000E+00  0.16518637753E+04  0.16518637753E+04  0.00000000000E+00 0. -1.
         -2   -1    0    0    0  501 -0.00000000000E+00 -0.00000000000E+00 -0.24403725187E+02  0.24403725187E+02  0.00000000000E+00 0.  1.
         23    2    1    2    0    0  0.26627985257E+02 -0.27390625398E+01  0.60843048463E+02  0.10444441435E+03  0.80561821485E+02 0.  0.
          5    1    1    2  502    0  0.10550400868E+02 -0.55858422876E+02  0.81552004119E+03  0.81751238641E+03  0.47000000000E+01 0.  1.
         -5    1    1    2    0  502 -0.37178386125E+02  0.58597485416E+02  0.75109696051E+03  0.75431069977E+03  0.47000000000E+01 0.  1.
        -11    1    3    3    0    0 -0.27185578244E+02 -0.26284576814E+01  0.35960215180E+02  0.45156411838E+02  0.00000000000E+00 0.  1.
         11    1    3    3    0    0  0.53813563501E+02 -0.11060485837E+00  0.24882833283E+02  0.59288002516E+02  0.00000000000E+00 0. -1.
<mgrwt>
<rscale>  0 0.11539232E+03</rscale>
<asrwt>0</asrwt>
<pdfrwt beam="1">  1        2 0.25413280E+00 0.12782404E+03</pdfrwt>
<pdfrwt beam="2">  1       -2 0.37544206E-02 0.12782404E+03</pdfrwt>
<totfact> 0.34062625E+03</totfact>
</mgrwt>
</event>
<event>
 7    1  0.1020736E-005  0.1595043E+03  0.7546771E-02  0.1198572E+00
         -1   -1    0    0    0  501 -0.00000000000E+00  0.00000000000E+00  0.58194815418E+02  0.58194815418E+02  0.00000000000E+00 0.  1.
          1   -1    0    0  501    0  0.00000000000E+00 -0.00000000000E+00 -0.50484113644E+03  0.50484113644E+03  0.00000000000E+00 0. -1.
         23    2    1    2    0    0  0.17246494029E+02  0.97566648970E+02 -0.56911118912E+02  0.14192414634E+03  0.84183699800E+02 0.  0.
          5    1    1    2  502    0  0.47420034513E+02 -0.58036465276E+02 -0.26160566443E+03  0.27216999217E+03  0.47000000000E+01 0.  1.
         -5    1    1    2    0  502 -0.64666528543E+02 -0.39530183695E+02 -0.12812953768E+03  0.14894181335E+03  0.47000000000E+01 0.  1.
        -11    1    3    3    0    0  0.45958595825E+02  0.27215526065E+02 -0.16739359622E+02  0.55973954209E+02  0.00000000000E+00 0.  1.
         11    1    3    3    0    0 -0.28712101796E+02  0.70351122905E+02 -0.40171759290E+02  0.85950192135E+02  0.00000000000E+00 0. -1.
<mgrwt>
<rscale>  0 0.15155724E+03</rscale>
<asrwt>0</asrwt>
<pdfrwt beam="2">  1        1 0.77667866E-01 0.15950431E+03</pdfrwt>
<pdfrwt beam="1">  1       -1 0.89530486E-02 0.15950431E+03</pdfrwt>
<totfact> 0.31593751E+03</totfact>
</mgrwt>
</event>
<event>
 7    1  0.1020736E-005  0.1505576E+03  0.7546771E-02  0.1208745E+00
         -1   -1    0    0    0  501 -0.00000000000E+00  0.00000000000E+00  0.44484508082E+02  0.44484508082E+02  0.00000000000E+00 0.  1.
          1   -1    0    0  501    0  0.00000000000E+00 -0.00000000000E+00 -0.43312373312E+03  0.43312373312E+03  0.00000000000E+00 0. -1.
         23    2    1    2    0    0 -0.15372083719E+02  0.82507650347E+02 -0.14152733718E+03  0.18824361239E+03  0.91443190635E+02 0.  0.
          5    1    1    2  502    0  0.40821627905E+02 -0.95491725602E+02 -0.23682483302E+03  0.25863713287E+03  0.47000000000E+01 0. -1.
         -5    1    1    2    0  502 -0.25449544185E+02  0.12984075256E+02 -0.10287054833E+02  0.30727495938E+02  0.47000000000E+01 0. -1.
        -11    1    3    3    0    0 -0.28555590361E+01  0.50406601198E+02 -0.14507261944E+03  0.15360678557E+03  0.00000000000E+00 0. -1.
         11    1    3    3    0    0 -0.12516524683E+02  0.32101049148E+02  0.35452822517E+01  0.34636826830E+02  0.00000000000E+00 0.  1.
<mgrwt>
<rscale>  0 0.14346210E+03</rscale>
<asrwt>0</asrwt>
<pdfrwt beam="2">  1        1 0.66634418E-01 0.15055764E+03</pdfrwt>
<pdfrwt beam="1">  1       -1 0.68437708E-02 0.15055764E+03</pdfrwt>
<totfact> 0.57679470E+03</totfact>
</mgrwt>
</event>
<event>
 7    1  0.1020736E-005  0.1608342E+03  0.7546771E-02  0.1195264E+00
         -1   -1    0    0    0  501 -0.00000000000E+00  0.00000000000E+00  0.12866110533E+02  0.12866110533E+02  0.00000000000E+00 0.  1.
          1   -1    0    0  501    0  0.00000000000E+00 -0.00000000000E+00 -0.20051894276E+04  0.20051894276E+04  0.00000000000E+00 0. -1.
         23    2    1    2    0    0  0.94182016208E+02 -0.36887371793E+02 -0.54354914364E+03  0.56038127879E+03  0.91381484450E+02 0.  0.
          5    1    1    2  502    0 -0.30342064889E+02 -0.34614318565E+02 -0.84996660454E+03  0.85122506470E+03  0.47000000000E+01 0.  1.
         -5    1    1    2    0  502 -0.63839951318E+02  0.71501690358E+02 -0.59880756888E+03  0.60644919462E+03  0.47000000000E+01 0.  1.
        -11    1    3    3    0    0  0.66628611826E+02  0.19095041710E+02 -0.21295672064E+03  0.22395213193E+03  0.00000000000E+00 0.  1.
         11    1    3    3    0    0  0.27553404382E+02 -0.55982413504E+02 -0.33059242300E+03  0.33642914686E+03  0.00000000000E+00 0. -1.
<mgrwt>
<rscale>  0 0.15431883E+03</rscale>
<asrwt>0</asrwt>
<pdfrwt beam="2">  1        1 0.30849034E+00 0.16083420E+03</pdfrwt>
<pdfrwt beam="1">  1       -1 0.19794038E-02 0.16083420E+03</pdfrwt>
<totfact> 0.23321759E+03</totfact>
</mgrwt>
</event>
<event>
 7    1  0.1020736E-005  0.4086653E+03  0.7546771E-02  0.1094110E+00
         -2   -1    0    0    0  501 -0.00000000000E+00  0.00000000000E+00  0.36539122140E+02  0.36539122140E+02  0.00000000000E+00 0.  1.
          2   -1    0    0  501    0  0.00000000000E+00 -0.00000000000E+00 -0.30611918003E+04  0.30611918003E+04  0.00000000000E+00 0. -1.
         23    2    1    2    0    0 -0.20890575390E+02 -0.19005124106E+02 -0.75666466974E+02  0.12056331401E+03  0.89512499559E+02 0.  0.
          5    1    1    2  502    0  0.55124470161E+02  0.20863140959E+03 -0.15295101381E+04  0.15446647289E+04  0.47000000000E+01 0. -1.
         -5    1    1    2    0  502 -0.34233894770E+02 -0.18962628548E+03 -0.14194760731E+04  0.14325028795E+04  0.47000000000E+01 0.  1.
        -11    1    3    3    0    0 -0.55073606588E+02 -0.16960179871E+02 -0.59021748645E+02  0.82488281937E+02  0.00000000000E+00 0.  1.
         11    1    3    3    0    0  0.34183031198E+02 -0.20449442348E+01 -0.16644718329E+02  0.38075032069E+02  0.00000000000E+00 0. -1.
<mgrwt>
<rscale>  0 0.28291006E+03</rscale>
<asrwt>0</asrwt>
<pdfrwt beam="2">  1        2 0.47095275E+00 0.40866526E+03</pdfrwt>
<pdfrwt beam="1">  1       -2 0.56214015E-02 0.40866526E+03</pdfrwt>
<totfact> 0.30382291E+02</totfact>
</mgrwt>
</event>
<event>
 7    1  0.1020736E-005  0.1987570E+03  0.7546771E-02  0.1154835E+00
          2   -1    0    0  501    0  0.00000000000E+00  0.00000000000E+00  0.86258253347E+03  0.86258253347E+03  0.00000000000E+00 0. -1.
         -2   -1    0    0    0  501 -0.00000000000E+00 -0.00000000000E+00 -0.66176644142E+02  0.66176644142E+02  0.00000000000E+00 0.  1.
         23    2    1    2    0    0  0.14849749727E+03 -0.42757735566E+02  0.10419370985E+03  0.20857723257E+03  0.93639746521E+02 0.  0.
          5    1    1    2  502    0  0.11072035792E+02 -0.20332093126E+02  0.48078085259E+02  0.53568426051E+02  0.47000000000E+01 0.  1.
         -5    1    1    2    0  502 -0.15956953306E+03  0.63089828691E+02  0.64413409421E+03  0.66661351899E+03  0.47000000000E+01 0.  1.
        -11    1    3    3    0    0  0.59733132330E+02 -0.47515603827E+02  0.90902498858E+02  0.11869727884E+03  0.00000000000E+00 0. -1.
         11    1    3    3    0    0  0.88764364942E+02  0.47578682615E+01  0.13291210997E+02  0.89879953736E+02  0.00000000000E+00 0.  1.
<mgrwt>
<rscale>  0 0.19407700E+03</rscale>
<asrwt>0</asrwt>
<pdfrwt beam="1">  1        2 0.13270500E+00 0.19875697E+03</pdfrwt>
<pdfrwt beam="2">  1       -2 0.10181023E-01 0.19875697E+03</pdfrwt>
<totfact> 0.20637943E+03</totfact>
</mgrwt>
</event>
<event>
 7    1  0.1020736E-005  0.1340280E+03  0.7546771E-02  0.1234362E+00
          4   -1    0    0  501    0  0.00000000000E+00  0.00000000000E+00  0.34316174458E+02  0.34316174458E+02  0.00000000000E+00 0. -1.
         -4   -1    0    0    0  501 -0.00000000000E+00 -0.00000000000E+00 -0.43859730371E+03  0.43859730371E+03  0.00000000000E+00 0.  1.
         23    2    1    2    0    0 -0.39710005022E+02  0.27455916342E+02 -0.23840276232E+03  0.25965510516E+03  0.90852543768E+02 0.  0.
          5    1    1    2  502    0  0.36529109435E+02 -0.61160017924E+02 -0.16418768806E+03  0.17903801423E+03  0.47000000000E+01 0. -1.
         -5    1    1    2    0  502  0.31808955865E+01  0.33704101582E+02 -0.16906788676E+01  0.34220358783E+02  0.47000000000E+01 0. -1.
        -11    1    3    3    0    0 -0.43731491216E+01 -0.23025247216E+02 -0.14803716676E+02  0.27720686681E+02  0.00000000000E+00 0. -1.
         11    1    3    3    0    0 -0.35336855900E+02  0.50481163558E+02 -0.22359904565E+03  0.23193441847E+03  0.00000000000E+00 0.  1.
<mgrwt>
<rscale>  0 0.12545340E+03</rscale>
<asrwt>0</asrwt>
<pdfrwt beam="1">  1        4 0.52794113E-02 0.13402799E+03</pdfrwt>
<pdfrwt beam="2">  1       -4 0.67476510E-01 0.13402799E+03</pdfrwt>
<totfact> 0.74584842E+02</totfact>
</mgrwt>
</event>
<event>
 6    1  0.1746645E-005  0.4466750E+03  0.7546771E-02  0.1028718E+00
          2   -1    0    0  501    0  0.00000000000E+00  0.00000000000E+00  0.64365682598E+03  0.64365682598E+03  0.00000000000E+00 0.  1.
         -2   -1    0    0    0  501 -0.00000000000E+00 -0.00000000000E+00 -0.77494148634E+02  0.77494148634E+02  0.00000000000E+00 0. -1.
          5    1    1    2  502    0  0.13813003557E+02 -0.72457043692E+02  0.89341384122E+02  0.11595169324E+03  0.47000000000E+01 0. -1.
         -5    1    1    2    0  502 -0.99792579411E+02 -0.31502237862E+02  0.22615719996E+03  0.24923907998E+03  0.47000000000E+01 0. -1.
        -11    1    1    2    0    0  0.14759817768E+03  0.92003533063E+02  0.12091488095E+03  0.21182606211E+03  0.00000000000E+00 0. -1.
         11    1    1    2    0    0 -0.61618601830E+02  0.11955748490E+02  0.12974921232E+03  0.14413413929E+03  0.00000000000E+00 0.  1.
<mgrwt>
<rscale>  0 0.44667499E+03</rscale>
<asrwt>0</asrwt>
<pdfrwt beam="1">  1        2 0.99024123E-01 0.44667499E+03</pdfrwt>
<pdfrwt beam="2">  1       -2 0.11922177E-01 0.44667499E+03</pdfrwt>
<totfact> 0.23320102E+03</totfact>
</mgrwt>
</event>
<event>
 7    1  0.1020736E-005  0.1830297E+03  0.7546771E-02  0.1170276E+00
          2   -1    0    0  501    0  0.00000000000E+00  0.00000000000E+00  0.88857012141E+02  0.88857012141E+02  0.00000000000E+00 0. -1.
         -2   -1    0    0    0  501 -0.00000000000E+00 -0.00000000000E+00 -0.42568394054E+03  0.42568394054E+03  0.00000000000E+00 0.  1.
         23    2    1    2    0    0 -0.13349836802E+03  0.73412058155E+01 -0.27914700630E+03  0.32263770039E+03  0.91084175457E+02 0.  0.
          5    1    1    2  502    0  0.10145177654E+03 -0.16442100176E+02  0.22179321906E+02  0.10524646285E+03  0.47000000000E+01 0.  1.
         -5    1    1    2    0  502  0.32046591483E+02  0.91008943607E+01 -0.79859244007E+02  0.86656789447E+02  0.47000000000E+01 0.  1.
        -11    1    3    3    0    0 -0.85213547060E+02 -0.39926598329E+02 -0.16816756188E+03  0.19270654043E+03  0.00000000000E+00 0. -1.
         11    1    3    3    0    0 -0.48284820963E+02  0.47267804145E+02 -0.11097944442E+03  0.12993115996E+03  0.00000000000E+00 0.  1.
<mgrwt>
<rscale>  0 0.17746836E+03</rscale>
<asrwt>0</asrwt>
<pdfrwt beam="1">  1        2 0.13670310E-01 0.18302974E+03</pdfrwt>
<pdfrwt beam="2">  1       -2 0.65489835E-01 0.18302974E+03</pdfrwt>
<totfact> 0.94846160E+02</totfact>
</mgrwt>
</event>
<event>
 7    1  0.1020736E-005  0.1524172E+03  0.7546771E-02  0.1206600E+00
          1   -1    0    0  501    0  0.00000000000E+00  0.00000000000E+00  0.35365459581E+03  0.35365459581E+03  0.00000000000E+00 0. -1.
         -1   -1    0    0    0  501 -0.00000000000E+00 -0.00000000000E+00 -0.57740501234E+02  0.57740501234E+02  0.00000000000E+00 0.  1.
         23    2    1    2    0    0 -0.84018940965E+02 -0.23940978863E+02  0.85838325878E+02  0.15185161634E+03  0.89768269926E+02 0.  0.
          5    1    1    2  502    0  0.10161111618E+03 -0.10082898881E+01  0.20415342578E+03  0.22809328539E+03  0.47000000000E+01 0. -1.
         -5    1    1    2    0  502 -0.17592175215E+02  0.24949268751E+02  0.59223429186E+01  0.31450195320E+02  0.47000000000E+01 0. -1.
        -11    1    3    3    0    0 -0.23125436548E+02  0.63728815609E+01  0.80069866479E+02  0.83585782002E+02  0.00000000000E+00 0. -1.
         11    1    3    3    0    0 -0.60893504416E+02 -0.30313860424E+02  0.57684593990E+01  0.68265834337E+02  0.00000000000E+00 0.  1.
<mgrwt>
<rscale>  0 0.14512113E+03</rscale>
<asrwt>0</asrwt>
<pdfrwt beam="1">  1        1 0.54408398E-01 0.15241716E+03</pdfrwt>
<pdfrwt beam="2">  1       -1 0.88831542E-02 0.15241716E+03</pdfrwt>
<totfact> 0.50280015E+03</totfact>
</mgrwt>
</event>
<event>
 7    1  0.1020736E-005  0.1996321E+03  0.7546771E-02  0.1154330E+00
          1   -1    0    0  501    0  0.00000000000E+00  0.00000000000E+00  0.30227903082E+03  0.30227903082E+03  0.00000000000E+00 0. -1.
         -1   -1    0    0    0  501 -0.00000000000E+00 -0.00000000000E+00 -0.12092354185E+03  0.12092354185E+03  0.00000000000E+00 0.  1.
         23    2    1    2    0    0  0.80789304601E+02 -0.13305838944E+03  0.10927242691E+03  0.21095520116E+03  0.91269857428E+02 0.  0.
          5    1    1    2  502    0 -0.63888989727E+02  0.15626452997E+03  0.51333191634E+02  0.17651513504E+03  0.47000000000E+01 0.  1.
         -5    1    1    2    0  502 -0.16900314874E+02 -0.23206140524E+02  0.20749870426E+02  0.35732236476E+02  0.47000000000E+01 0.  1.
        -11    1    3    3    0    0  0.69426615137E+02 -0.12056699677E+03  0.47650216312E+02  0.14706120737E+03  0.00000000000E+00 0.  1.
         11    1    3    3    0    0  0.11362689464E+02 -0.12491392670E+02  0.61622210602E+02  0.63893993788E+02  0.00000000000E+00 0. -1.
<mgrwt>
<rscale>  0 0.19465299E+03</rscale>
<asrwt>0</asrwt>
<pdfrwt beam="1">  1        1 0.46504466E-01 0.19963211E+03</pdfrwt>
<pdfrwt beam="2">  1       -1 0.18603622E-01 0.19963211E+03</pdfrwt>
<totfact> 0.19505789E+03</totfact>
</mgrwt>
</event>
<event>
 7    1  0.1020736E-005  0.1436427E+03  0.7546771E-02  0.1218810E+00
         -2   -1    0    0    0  501 -0.00000000000E+00  0.00000000000E+00  0.34801662049E+03  0.34801662049E+03  0.00000000000E+00 0.  1.
          2   -1    0    0  501    0  0.00000000000E+00 -0.00000000000E+00 -0.48800000564E+02  0.48800000564E+02  0.00000000000E+00 0. -1.
         23    2    1    2    0    0 -0.62627361298E+02 -0.32956340854E+02  0.15505123397E+03  0.19330527130E+03  0.91201622632E+02 0.  0.
          5    1    1    2  502    0  0.54957503588E+02  0.76241065731E+02  0.12194578780E+03  0.15403211505E+03  0.47000000000E+01 0.  1.
         -5    1    1    2    0  502  0.76698577107E+01 -0.43284724877E+02  0.22219598159E+02  0.49479234708E+02  0.47000000000E+01 0.  1.
        -11    1    3    3    0    0 -0.47976763788E+02  0.13127606332E+02  0.27369355864E+02  0.56773105886E+02  0.00000000000E+00 0. -1.
         11    1    3    3    0    0 -0.14650597511E+02 -0.46083947185E+02  0.12768187811E+03  0.13653216541E+03  0.00000000000E+00 0.  1.
<mgrwt>
<rscale>  0 0.13600354E+03</rscale>
<asrwt>0</asrwt>
<pdfrwt beam="2">  1        2 0.75076926E-02 0.14364265E+03</pdfrwt>
<pdfrwt beam="1">  1       -2 0.53541017E-01 0.14364265E+03</pdfrwt>
<totfact> 0.29674680E+03</totfact>
</mgrwt>
</event>
<event>
 7    1  0.1020736E-005  0.1377143E+03  0.7546771E-02  0.1227155E+00
         -1   -1    0    0    0  501 -0.00000000000E+00  0.00000000000E+00  0.98008148710E+02  0.98008148710E+02  0.00000000000E+00 0.  1.
          1   -1    0    0  501    0  0.00000000000E+00 -0.00000000000E+00 -0.15741161162E+03  0.15741161162E+03  0.00000000000E+00 0. -1.
         23    2    1    2    0    0 -0.51487242825E+02 -0.26259960843E+02 -0.17137444292E+02  0.11136548967E+03  0.93637912065E+02 0.  0.
          5    1    1    2  502    0  0.23543731066E+02  0.27981103958E+02 -0.85056385045E+02  0.92703441620E+02  0.47000000000E+01 0. -1.
         -5    1    1    2    0  502  0.27943511759E+02 -0.17211431147E+01  0.42790366432E+02  0.51350829033E+02  0.47000000000E+01 0. -1.
        -11    1    3    3    0    0 -0.48571334503E+02 -0.40721566016E+02 -0.46428797805E+02  0.78568783495E+02  0.00000000000E+00 0. -1.
         11    1    3    3    0    0 -0.29159083217E+01  0.14461605172E+02  0.29291353513E+02  0.32796706178E+02  0.00000000000E+00 0.  1.
<mgrwt>
<rscale>  0 0.13020295E+03</rscale>
<asrwt>0</asrwt>
<pdfrwt beam="2">  1        1 0.24217171E-01 0.13771426E+03</pdfrwt>
<pdfrwt beam="1">  1       -1 0.15078177E-01 0.13771426E+03</pdfrwt>
<totfact> 0.60505647E+03</totfact>
</mgrwt>
</event>
<event>
 7    1  0.1020736E-005  0.1446956E+03  0.7546771E-02  0.1217115E+00
         -2   -1    0    0    0  501 -0.00000000000E+00  0.00000000000E+00  0.23897839172E+03  0.23897839172E+03  0.00000000000E+00 0.  1.
          2   -1    0    0  501    0  0.00000000000E+00 -0.00000000000E+00 -0.97388293626E+02  0.97388293626E+02  0.00000000000E+00 0. -1.
         23    2    1    2    0    0  0.72866423620E+02  0.17967786924E+01  0.15136788761E+03  0.19134114197E+03  0.91577568800E+02 0.  0.
          5    1    1    2  502    0 -0.22862727605E+02 -0.59272342560E+02  0.13719341349E+02  0.65163066481E+02  0.47000000000E+01 0. -1.
         -5    1    1    2    0  502 -0.50003696015E+02  0.57475563868E+02 -0.23497130862E+02  0.79862476895E+02  0.47000000000E+01 0. -1.
        -11    1    3    3    0    0  0.39089083074E+02 -0.38599154164E+02  0.39381232572E+02  0.67592400435E+02  0.00000000000E+00 0. -1.
         11    1    3    3    0    0  0.33777340546E+02  0.40395932856E+02  0.11198665503E+03  0.12374874153E+03  0.00000000000E+00 0.  1.
<mgrwt>
<rscale>  0 0.13722343E+03</rscale>
<asrwt>0</asrwt>
<pdfrwt beam="2">  1        2 0.14982814E-01 0.14469555E+03</pdfrwt>
<pdfrwt beam="1">  1       -2 0.36765906E-01 0.14469555E+03</pdfrwt>
<totfact> 0.26429543E+03</totfact>
</mgrwt>
</event>
<event>
 7    1  0.1020736E-005  0.1286924E+03  0.7546771E-02  0.1243497E+00
          1   -1    0    0  501    0  0.00000000000E+00  0.00000000000E+00  0.76167926329E+02  0.76167926329E+02  0.00000000000E+00 0. -1.
         -1   -1    0    0    0  501 -0.00000000000E+00 -0.00000000000E+00 -0.17381524786E+03  0.17381524786E+03  0.00000000000E+00 0.  1.
         23    2    1    2    0    0  0.28025552544E+02 -0.12358989309E+02 -0.67604285026E+02  0.11783054289E+03  0.91517874053E+02 0.  0.
          5    1    1    2  502    0 -0.35441097712E+02 -0.52301028358E+02 -0.17220486741E+02  0.65651383367E+02  0.47000000000E+01 0.  1.
         -5    1    1    2    0  502  0.74155451684E+01  0.64660017668E+02 -0.12822549769E+02  0.66501247940E+02  0.47000000000E+01 0.  1.
        -11    1    3    3    0    0 -0.75402780673E+01 -0.15588852045E+02 -0.78583428290E+02  0.80468772224E+02  0.00000000000E+00 0.  1.
         11    1    3    3    0    0  0.35565830611E+02  0.32298627354E+01  0.10979143264E+02  0.37361770664E+02  0.00000000000E+00 0. -1.
<mgrwt>
<rscale>  0 0.11975811E+03</rscale>
<asrwt>0</asrwt>
<pdfrwt beam="1">  1        1 0.11718143E-01 0.12869240E+03</pdfrwt>
<pdfrwt beam="2">  1       -1 0.26740807E-01 0.12869240E+03</pdfrwt>
<totfact> 0.60926341E+03</totfact>
</mgrwt>
</event>
<event>
 7    1  0.1020736E-005  0.1586948E+03  0.7546771E-02  0.1198282E+00
         -2   -1    0    0    0  501 -0.00000000000E+00  0.00000000000E+00  0.15547127965E+03  0.15547127965E+03  0.00000000000E+00 0.  1.
          2   -1    0    0  501    0  0.00000000000E+00 -0.00000000000E+00 -0.16127842887E+03  0.16127842887E+03  0.00000000000E+00 0. -1.
         23    2    1    2    0    0 -0.10239626046E+02  0.97225917915E+02  0.58960729183E+02  0.14534695283E+03  0.89953543878E+02 0.  0.
          5    1    1    2  502    0  0.39825172112E+02  0.74706003423E+01 -0.44979553709E+02  0.60721532055E+02  0.47000000000E+01 0. -1.
         -5    1    1    2    0  502 -0.29585546066E+02 -0.10469651826E+03 -0.19788324688E+02  0.11068122363E+03  0.47000000000E+01 0. -1.
        -11    1    3    3    0    0  0.20435173892E+02  0.53638421348E+02 -0.99228698825E+01  0.58250664575E+02  0.00000000000E+00 0.  1.
         11    1    3    3    0    0 -0.30674799938E+02  0.43587496567E+02  0.68883599066E+02  0.87096288259E+02  0.00000000000E+00 0. -1.
<mgrwt>
<rscale>  0 0.15179696E+03</rscale>
<asrwt>0</asrwt>
<pdfrwt beam="2">  1        2 0.24812066E-01 0.15869476E+03</pdfrwt>
<pdfrwt beam="1">  1       -2 0.23918658E-01 0.15869476E+03</pdfrwt>
<totfact> 0.32398918E+03</totfact>
</mgrwt>
</event>
<event>
 7    1  0.1020736E-005  0.1380707E+03  0.7546771E-02  0.1227930E+00
         -1   -1    0    0    0  501 -0.00000000000E+00  0.00000000000E+00  0.42946587246E+02  0.42946587246E+02  0.00000000000E+00 0.  1.
          1   -1    0    0  501    0  0.00000000000E+00 -0.00000000000E+00 -0.35572117905E+03  0.35572117905E+03  0.00000000000E+00 0. -1.
         23    2    1    2    0    0 -0.28268914911E+02  0.51375906351E+02 -0.11411726327E+03  0.15674164624E+03  0.90036540282E+02 0.  0.
          5    1    1    2  502    0  0.40281270915E+02 -0.64342845857E+02 -0.47510659833E+02  0.89676838690E+02  0.47000000000E+01 0.  1.
         -5    1    1    2    0  502 -0.12012356004E+02  0.12966939506E+02 -0.15114666871E+03  0.15224928137E+03  0.47000000000E+01 0.  1.
        -11    1    3    3    0    0  0.21801825494E+02 -0.10952055835E+02 -0.12409381855E+02  0.27372611858E+02  0.00000000000E+00 0.  1.
         11    1    3    3    0    0 -0.50070740405E+02  0.62327962186E+02 -0.10170788141E+03  0.12936903438E+03  0.00000000000E+00 0. -1.
<mgrwt>
<rscale>  0 0.12968097E+03</rscale>
<asrwt>0</asrwt>
<pdfrwt beam="2">  1        1 0.54726333E-01 0.13807068E+03</pdfrwt>
<pdfrwt beam="1">  1       -1 0.66071675E-02 0.13807068E+03</pdfrwt>
<totfact> 0.77540577E+03</totfact>
</mgrwt>
</event>
<event>
 7    1  0.1020736E-005  0.1635053E+03  0.7546771E-02  0.1192488E+00
          1   -1    0    0  501    0  0.00000000000E+00  0.00000000000E+00  0.23336849832E+03  0.23336849832E+03  0.00000000000E+00 0. -1.
         -1   -1    0    0    0  501 -0.00000000000E+00 -0.00000000000E+00 -0.10641624899E+03  0.10641624899E+03  0.00000000000E+00 0.  1.
         23    2    1    2    0    0  0.97771513858E+02  0.39296881195E+02  0.90236338913E+01  0.13818823277E+03  0.88944071829E+02 0.  0.
          5    1    1    2  502    0  0.13300703053E+02 -0.31499015836E+01  0.76064949314E+02  0.77426075038E+02  0.47000000000E+01 0. -1.
         -5    1    1    2    0  502 -0.11107221691E+03 -0.36146979611E+02  0.41863666133E+02  0.12417043950E+03  0.47000000000E+01 0. -1.
        -11    1    3    3    0    0  0.59322543194E+02  0.54884781974E+02 -0.24931750707E+02  0.84575975411E+02  0.00000000000E+00 0.  1.
         11    1    3    3    0    0  0.38448970664E+02 -0.15587900780E+02  0.33955384598E+02  0.53612257358E+02  0.00000000000E+00 0. -1.
<mgrwt>
<rscale>  0 0.15668764E+03</rscale>
<asrwt>0</asrwt>
<pdfrwt beam="1">  1        1 0.35902846E-01 0.16350534E+03</pdfrwt>
<pdfrwt beam="2">  1       -1 0.16371731E-01 0.16350534E+03</pdfrwt>
<totfact> 0.32802070E+03</totfact>
</mgrwt>
</event>
<event>
 7    1  0.1020736E-005  0.1461769E+03  0.7546771E-02  0.1213486E+00
          1   -1    0    0  501    0  0.00000000000E+00  0.00000000000E+00  0.59594074999E+03  0.59594074999E+03  0.00000000000E+00 0. -1.
         -1   -1    0    0    0  501 -0.00000000000E+00 -0.00000000000E+00 -0.30714782935E+02  0.30714782935E+02  0.00000000000E+00 0.  1.
         23    2    1    2    0    0 -0.67817952933E+02  0.33873836394E+02  0.29434179766E+03  0.31884729910E+03  0.96331691354E+02 0.  0.
          5    1    1    2  502    0  0.69573657007E+02  0.30226721105E+02  0.10278294678E+03  0.12783024903E+03  0.47000000000E+01 0. -1.
         -5    1    1    2    0  502 -0.17557040737E+01 -0.64100557499E+02  0.16810122261E+03  0.17997798480E+03  0.47000000000E+01 0. -1.
        -11    1    3    3    0    0 -0.26985192714E+02  0.47625712335E+02  0.62701467551E+02  0.83233906157E+02  0.00000000000E+00 0.  1.
         11    1    3    3    0    0 -0.40832760219E+02 -0.13751875940E+02  0.23164033011E+03  0.23561339294E+03  0.00000000000E+00 0. -1.
<mgrwt>
<rscale>  0 0.13988342E+03</rscale>
<asrwt>0</asrwt>
<pdfrwt beam="1">  1        1 0.91683183E-01 0.14617686E+03</pdfrwt>
<pdfrwt beam="2">  1       -1 0.47253517E-02 0.14617686E+03</pdfrwt>
<totfact> 0.65729298E+03</totfact>
</mgrwt>
</event>
<event>
 7    1  0.1020736E-005  0.1574464E+03  0.7546771E-02  0.1199289E+00
         -2   -1    0    0    0  501 -0.00000000000E+00  0.00000000000E+00  0.14069331513E+03  0.14069331513E+03  0.00000000000E+00 0. -1.
          2   -1    0    0  501    0  0.00000000000E+00 -0.00000000000E+00 -0.16455909187E+03  0.16455909187E+03  0.00000000000E+00 0.  1.
         23    2    1    2    0    0  0.51305410181E+02 -0.80413364746E+02 -0.56288478603E+02  0.14450228356E+03  0.92811436724E+02 0.  0.
          5    1    1    2  502    0 -0.65762941554E+02 -0.74720164437E+01  0.26215700505E+02  0.71343874751E+02  0.47000000000E+01 0. -1.
         -5    1    1    2    0  502  0.14457531373E+02  0.87885381190E+02  0.62070013590E+01  0.89406248698E+02  0.47000000000E+01 0. -1.
        -11    1    3    3    0    0  0.65039598929E+01 -0.12808742853E+02 -0.61574538914E+02  0.63228073119E+02  0.00000000000E+00 0.  1.
         11    1    3    3    0    0  0.44801450288E+02 -0.67604621893E+02  0.52860603109E+01  0.81274210441E+02  0.00000000000E+00 0. -1.
<mgrwt>
<rscale>  0 0.15096789E+03</rscale>
<asrwt>0</asrwt>
<pdfrwt beam="2">  1        2 0.25316783E-01 0.15744641E+03</pdfrwt>
<pdfrwt beam="1">  1       -2 0.21645125E-01 0.15744641E+03</pdfrwt>
<totfact> 0.37638256E+03</totfact>
</mgrwt>
</event>
<event>
 7    1  0.1020736E-005  0.1623629E+03  0.7546771E-02  0.1193586E+00
          2   -1    0    0  501    0  0.00000000000E+00  0.00000000000E+00  0.57644512190E+02  0.57644512190E+02  0.00000000000E+00 0. -1.
         -2   -1    0    0    0  501 -0.00000000000E+00 -0.00000000000E+00 -0.39001486893E+03  0.39001486893E+03  0.00000000000E+00 0.  1.
         23    2    1    2    0    0  0.86776451532E+02 -0.56609612080E+02 -0.14826728490E+03  0.20218911978E+03  0.90346287500E+02 0.  0.
          5    1    1    2  502    0 -0.10253186747E+03  0.15325263471E+01 -0.97824368107E+02  0.14179855246E+03  0.47000000000E+01 0.  1.
         -5    1    1    2    0  502  0.15755415942E+02  0.55077085732E+02 -0.86278703729E+02  0.10367170888E+03  0.47000000000E+01 0.  1.
        -11    1    3    3    0    0  0.29386780662E+02 -0.65910314881E+02 -0.11334543698E+03  0.13436867406E+03  0.00000000000E+00 0.  1.
         11    1    3    3    0    0  0.57389670870E+02  0.93007028015E+01 -0.34921847928E+02  0.67820445721E+02  0.00000000000E+00 0. -1.
<mgrwt>
<rscale>  0 0.15574529E+03</rscale>
<asrwt>0</asrwt>
<pdfrwt beam="1">  1        2 0.88683867E-02 0.16236289E+03</pdfrwt>
<pdfrwt beam="2">  1       -2 0.60002286E-01 0.16236289E+03</pdfrwt>
<totfact> 0.19220904E+03</totfact>
</mgrwt>
</event>
<event>
 7    1  0.1020736E-005  0.2149332E+03  0.7546771E-02  0.1141516E+00
          2   -1    0    0  501    0  0.00000000000E+00  0.00000000000E+00  0.86730095443E+03  0.86730095443E+03  0.00000000000E+00 0. -1.
         -2   -1    0    0    0  501 -0.00000000000E+00 -0.00000000000E+00 -0.58094819344E+02  0.58094819344E+02  0.00000000000E+00 0.  1.
         23    2    1    2    0    0 -0.16215088202E+03  0.65416826843E+02  0.20316813343E+03  0.28237296900E+03  0.88797147507E+02 0.  0.
          5    1    1    2  502    0  0.27356890419E+02  0.24505153622E+02  0.23805202380E+03  0.24091442058E+03  0.47000000000E+01 0. -1.
         -5    1    1    2    0  502  0.13479399160E+03 -0.89921980466E+02  0.36798597786E+03  0.40210838420E+03  0.47000000000E+01 0. -1.
        -11    1    3    3    0    0 -0.49902773709E+01 -0.15206925997E+02  0.46871749750E+01  0.16677022389E+02  0.00000000000E+00 0.  1.
         11    1    3    3    0    0 -0.15716060465E+03  0.80623752840E+02  0.19848095845E+03  0.26569594661E+03  0.00000000000E+00 0. -1.
<mgrwt>
<rscale>  0 0.21006311E+03</rscale>
<asrwt>0</asrwt>
<pdfrwt beam="1">  1        2 0.13343091E+00 0.21493317E+03</pdfrwt>
<pdfrwt beam="2">  1       -2 0.89376651E-02 0.21493317E+03</pdfrwt>
<totfact> 0.25206109E+03</totfact>
</mgrwt>
</event>
<event>
 7    1  0.1020736E-005  0.2307519E+03  0.7546771E-02  0.1146251E+00
          2   -1    0    0  501    0  0.00000000000E+00  0.00000000000E+00  0.82753654181E+02  0.82753654181E+02  0.00000000000E+00 0. -1.
         -2   -1    0    0    0  501 -0.00000000000E+00 -0.00000000000E+00 -0.60157894769E+03  0.60157894769E+03  0.00000000000E+00 0.  1.
         23    2    1    2    0    0  0.64361691650E+02 -0.88862899834E+02 -0.40102465203E+03  0.42525073559E+03  0.89321745801E+02 0.  0.
          5    1    1    2  502    0  0.63508122266E+02 -0.47092989861E+01 -0.40725180611E+01  0.63985424075E+02  0.47000000000E+01 0. -1.
         -5    1    1    2    0  502 -0.12786981392E+03  0.93572198821E+02 -0.11372812343E+03  0.19509644221E+03  0.47000000000E+01 0.  1.
        -11    1    3    3    0    0  0.66884807742E+02 -0.10427886834E+03 -0.32900554750E+03  0.35155697998E+03  0.00000000000E+00 0.  1.
         11    1    3    3    0    0 -0.25231160916E+01  0.15415968503E+02 -0.72019104524E+02  0.73693755612E+02  0.00000000000E+00 0. -1.
<mgrwt>
<rscale>  0 0.20419021E+03</rscale>
<asrwt>0</asrwt>
<pdfrwt beam="1">  1        2 0.12731331E-01 0.23075186E+03</pdfrwt>
<pdfrwt beam="2">  1       -2 0.92550609E-01 0.23075186E+03</pdfrwt>
<totfact> 0.48680089E+02</totfact>
</mgrwt>
</event>
<event>
 7    1  0.1020736E-005  0.1252575E+03  0.7546771E-02  0.1250786E+00
         -1   -1    0    0    0  501 -0.00000000000E+00  0.00000000000E+00  0.87830744491E+02  0.87830744491E+02  0.00000000000E+00 0.  1.
          1   -1    0    0  501    0  0.00000000000E+00 -0.00000000000E+00 -0.13601328361E+03  0.13601328361E+03  0.00000000000E+00 0. -1.
         23    2    1    2    0    0  0.41070565890E+01  0.75553669485E+01 -0.23040412664E+01  0.90448791686E+02  0.90009576312E+02 0.  0.
          5    1    1    2  502    0 -0.47157656495E+02 -0.56688747017E+00 -0.69076448178E+02  0.83772379818E+02  0.47000000000E+01 0.  1.
         -5    1    1    2    0  502  0.43050599906E+02 -0.69884794783E+01  0.23197950325E+02  0.49622856598E+02  0.47000000000E+01 0.  1.
        -11    1    3    3    0    0  0.20944552901E+02  0.89519655673E+01  0.39367769961E+02  0.45482230546E+02  0.00000000000E+00 0.  1.
         11    1    3    3    0    0 -0.16837496312E+02 -0.13965986188E+01 -0.41671811228E+02  0.44966561140E+02  0.00000000000E+00 0. -1.
<mgrwt>
<rscale>  0 0.11545650E+03</rscale>
<asrwt>0</asrwt>
<pdfrwt beam="2">  1        1 0.20925120E-01 0.12525754E+03</pdfrwt>
<pdfrwt beam="1">  1       -1 0.13512422E-01 0.12525754E+03</pdfrwt>
<totfact> 0.85727401E+03</totfact>
</mgrwt>
</event>
<event>
 7    1  0.1020736E-005  0.1515537E+03  0.7546771E-02  0.1222426E+00
         -2   -1    0    0    0  501 -0.00000000000E+00  0.00000000000E+00  0.24726205250E+03  0.24726205250E+03  0.00000000000E+00 0.  1.
          2   -1    0    0  501    0  0.00000000000E+00 -0.00000000000E+00 -0.14213077779E+03  0.14213077779E+03  0.00000000000E+00 0. -1.
         23    2    1    2    0    0  0.79959416962E-01  0.11953353641E+02  0.19355765206E+03  0.21392845058E+03  0.90321250224E+02 0.  0.
          5    1    1    2  502    0  0.62622845845E+02 -0.14382221681E+02 -0.92140036239E+02  0.11242929067E+03  0.47000000000E+01 0. -1.
         -5    1    1    2    0  502 -0.62702805262E+02  0.24288680407E+01  0.37136588953E+01  0.63035089038E+02  0.47000000000E+01 0.  1.
        -11    1    3    3    0    0  0.13217969222E+02  0.48559951925E+02  0.87174053026E+02  0.10065832883E+03  0.00000000000E+00 0. -1.
         11    1    3    3    0    0 -0.13138009805E+02 -0.36606598284E+02  0.10638359903E+03  0.11327012176E+03  0.00000000000E+00 0.  1.
<mgrwt>
<rscale>  0 0.13344891E+03</rscale>
<asrwt>0</asrwt>
<pdfrwt beam="2">  1        2 0.21866274E-01 0.15155370E+03</pdfrwt>
<pdfrwt beam="1">  1       -2 0.38040316E-01 0.15155370E+03</pdfrwt>
<totfact> 0.16102448E+03</totfact>
</mgrwt>
</event>
<event>
 7    1  0.1020736E-005  0.1622482E+03  0.7546771E-02  0.1193724E+00
         -2   -1    0    0    0  501 -0.00000000000E+00  0.00000000000E+00  0.13567305884E+03  0.13567305884E+03  0.00000000000E+00 0.  1.
          2   -1    0    0  501    0  0.00000000000E+00 -0.00000000000E+00 -0.17038657323E+03  0.17038657323E+03  0.00000000000E+00 0. -1.
         23    2    1    2    0    0 -0.90625257380E+00 -0.10343123500E+03  0.10168572999E+02  0.13771806390E+03  0.90354986461E+02 0.  0.
          5    1    1    2  502    0 -0.37157347039E+02  0.93577139538E+02  0.93106285096E+01  0.10122315588E+03  0.47000000000E+01 0.  1.
         -5    1    1    2    0  502  0.38063599613E+02  0.98540954641E+01 -0.54192715898E+02  0.67118412297E+02  0.47000000000E+01 0.  1.
        -11    1    3    3    0    0 -0.68290208776E+00 -0.32230919527E+02 -0.39440037690E+02  0.50939327653E+02  0.00000000000E+00 0. -1.
         11    1    3    3    0    0 -0.22335048604E+00 -0.71200315475E+02  0.49608610689E+02  0.86778736242E+02  0.00000000000E+00 0.  1.
<mgrwt>
<rscale>  0 0.15562734E+03</rscale>
<asrwt>0</asrwt>
<pdfrwt beam="2">  1        2 0.26213319E-01 0.16224821E+03</pdfrwt>
<pdfrwt beam="1">  1       -2 0.20872778E-01 0.16224821E+03</pdfrwt>
<totfact> 0.38604393E+03</totfact>
</mgrwt>
</event>
<event>
 7    1  0.1020736E-005  0.1394715E+03  0.7546771E-02  0.1231846E+00
          2   -1    0    0  501    0  0.00000000000E+00  0.00000000000E+00  0.84731200509E+03  0.84731200509E+03  0.00000000000E+00 0. -1.
         -2   -1    0    0    0  501 -0.00000000000E+00 -0.00000000000E+00 -0.20539873027E+02  0.20539873027E+02  0.00000000000E+00 0.  1.
         23    2    1    2    0    0 -0.25099295267E+00 -0.29773948050E+02  0.16012726791E+03  0.18677355259E+03  0.91416995348E+02 0.  0.
          5    1    1    2  502    0 -0.25355879799E+02 -0.20789288714E+01  0.61265559687E+03  0.61320160874E+03  0.47000000000E+01 0. -1.
         -5    1    1    2    0  502  0.25606872752E+02  0.31852876922E+02  0.53989267291E+02  0.67876716795E+02  0.47000000000E+01 0.  1.
        -11    1    3    3    0    0 -0.15692971772E+02 -0.59911691221E+02  0.11093937385E+03  0.12705599073E+03  0.00000000000E+00 0.  1.
         11    1    3    3    0    0  0.15441978820E+02  0.30137743171E+02  0.49187894054E+02  0.59717561862E+02  0.00000000000E+00 0. -1.
<mgrwt>
<rscale>  0 0.12708505E+03</rscale>
<asrwt>0</asrwt>
<pdfrwt beam="1">  1        2 0.13035567E+00 0.13947154E+03</pdfrwt>
<pdfrwt beam="2">  1       -2 0.31599811E-02 0.13947154E+03</pdfrwt>
<totfact> 0.12375358E+04</totfact>
</mgrwt>
</event>
<event>
 7    1  0.1020736E-005  0.1517504E+03  0.7546771E-02  0.1213327E+00
          2   -1    0    0  501    0  0.00000000000E+00  0.00000000000E+00  0.23881784425E+02  0.23881784425E+02  0.00000000000E+00 0. -1.
         -2   -1    0    0    0  501 -0.00000000000E+00 -0.00000000000E+00 -0.73365114281E+03  0.73365114281E+03  0.00000000000E+00 0.  1.
         23    2    1    2    0    0  0.61987665637E+02  0.15043695847E+00 -0.35605171497E+03  0.37263769350E+03  0.90793907070E+02 0.  0.
          5    1    1    2  502    0  0.47061510735E+01 -0.54929315462E+01  0.11046629849E+02  0.14015640760E+02  0.47000000000E+01 0. -1.
         -5    1    1    2    0  502 -0.66693816710E+02  0.53424945878E+01 -0.36476427326E+03  0.37087959297E+03  0.47000000000E+01 0.  1.
        -11    1    3    3    0    0  0.28260059759E+02  0.44320181936E+02 -0.20678237002E+03  0.21335852000E+03  0.00000000000E+00 0. -1.
         11    1    3    3    0    0  0.33727605878E+02 -0.44169744978E+02 -0.14926934496E+03  0.15927917351E+03  0.00000000000E+00 0.  1.
<mgrwt>
<rscale>  0 0.14000151E+03</rscale>
<asrwt>0</asrwt>
<pdfrwt beam="1">  1        2 0.36741203E-02 0.15175035E+03</pdfrwt>
<pdfrwt beam="2">  1       -2 0.11286942E+00 0.15175035E+03</pdfrwt>
<totfact> 0.14846947E+03</totfact>
</mgrwt>
</event>
<event>
 7    1  0.1020736E-005  0.2075380E+03  0.7546771E-02  0.1148017E+00
          2   -1    0    0  501    0  0.00000000000E+00  0.00000000000E+00  0.14653023374E+04  0.14653023374E+04  0.00000000000E+00 0. -1.
         -2   -1    0    0    0  501 -0.00000000000E+00 -0.00000000000E+00 -0.27038152455E+02  0.27038152455E+02  0.00000000000E+00 0.  1.
         23    2    1    2    0    0 -0.83078765897E+02 -0.14334032670E+03  0.57486629865E+03  0.60434954435E+03  0.85548698548E+02 0.  0.
          5    1    1    2  502    0  0.21500259538E+02  0.11685338925E+03  0.33784805988E+03  0.35816250126E+03  0.47000000000E+01 0. -1.
         -5    1    1    2    0  502  0.61578506359E+02  0.26486937452E+02  0.52554982643E+03  0.52982844428E+03  0.47000000000E+01 0. -1.
        -11    1    3    3    0    0 -0.45831998979E+02 -0.14197147307E+03  0.45899257757E+03  0.48262890253E+03  0.00000000000E+00 0.  1.
         11    1    3    3    0    0 -0.37246766918E+02 -0.13688536354E+01  0.11587372109E+03  0.12172064182E+03  0.00000000000E+00 0. -1.
<mgrwt>
<rscale>  0 0.20205484E+03</rscale>
<asrwt>0</asrwt>
<pdfrwt beam="1">  1        2 0.22543107E+00 0.20753797E+03</pdfrwt>
<pdfrwt beam="2">  1       -2 0.41597169E-02 0.20753797E+03</pdfrwt>
<totfact> 0.36788867E+03</totfact>
</mgrwt>
</event>
<event>
 7    1  0.1020736E-005  0.1527330E+03  0.7546771E-02  0.1206389E+00
          1   -1    0    0  501    0  0.00000000000E+00  0.00000000000E+00  0.88453437822E+03  0.88453437822E+03  0.00000000000E+00 0. -1.
         -1   -1    0    0    0  501 -0.00000000000E+00 -0.00000000000E+00 -0.22160017432E+02  0.22160017432E+02  0.00000000000E+00 0.  1.
         23    2    1    2    0    0  0.21951288878E+02 -0.84968580810E+02  0.33214613025E+03  0.35490698212E+03  0.89086448522E+02 0.  0.
          5    1    1    2  502    0  0.19699338738E+00 -0.16198282341E+02  0.67917853794E+01  0.18183550419E+02  0.47000000000E+01 0. -1.
         -5    1    1    2    0  502 -0.22148282266E+02  0.10116686315E+03  0.52343644516E+03  0.53360386311E+03  0.47000000000E+01 0. -1.
        -11    1    3    3    0    0 -0.20708486692E+02  0.33118797657E+01  0.11153003253E+03  0.11348461625E+03  0.00000000000E+00 0. -1.
         11    1    3    3    0    0  0.42659775570E+02 -0.88280460575E+02  0.22061609772E+03  0.24142236587E+03  0.00000000000E+00 0.  1.
<mgrwt>
<rscale>  0 0.14528542E+03</rscale>
<asrwt>0</asrwt>
<pdfrwt beam="1">  1        1 0.13608218E+00 0.15273301E+03</pdfrwt>
<pdfrwt beam="2">  1       -1 0.34092341E-02 0.15273301E+03</pdfrwt>
<totfact> 0.59832590E+03</totfact>
</mgrwt>
</event>
<event>
 7    1  0.1020736E-005  0.2329084E+03  0.7546771E-02  0.1127555E+00
         -1   -1    0    0    0  501 -0.00000000000E+00  0.00000000000E+00  0.40204718381E+03  0.40204718381E+03  0.00000000000E+00 0.  1.
          1   -1    0    0  501    0  0.00000000000E+00 -0.00000000000E+00 -0.12844075945E+03  0.12844075945E+03  0.00000000000E+00 0. -1.
         23    2    1    2    0    0 -0.16511741160E+03 -0.10655656724E+03  0.17128231572E+03  0.27609343716E+03  0.90949946262E+02 0.  0.
          5    1    1    2  502    0  0.92465240026E+02  0.21436589314E+02  0.10595141311E+03  0.14232757960E+03  0.47000000000E+01 0.  1.
         -5    1    1    2    0  502  0.72652171578E+02  0.85119977925E+02 -0.36273044743E+01  0.11206692650E+03  0.47000000000E+01 0.  1.
        -11    1    3    3    0    0 -0.41298235767E+02 -0.32639552244E+02  0.10485174621E+03  0.11732337078E+03  0.00000000000E+00 0.  1.
         11    1    3    3    0    0 -0.12381917584E+03 -0.73917014995E+02  0.66430569511E+02  0.15877006637E+03  0.00000000000E+00 0. -1.
<mgrwt>
<rscale>  0 0.22870407E+03</rscale>
<asrwt>0</asrwt>
<pdfrwt beam="2">  1        1 0.19760117E-01 0.23290844E+03</pdfrwt>
<pdfrwt beam="1">  1       -1 0.61853412E-01 0.23290844E+03</pdfrwt>
<totfact> 0.71112298E+02</totfact>
</mgrwt>
</event>
<event>
 7    1  0.1020736E-005  0.1256712E+03  0.7546771E-02  0.1249334E+00
          1   -1    0    0  501    0  0.00000000000E+00  0.00000000000E+00  0.69411798589E+03  0.69411798589E+03  0.00000000000E+00 0. -1.
         -1   -1    0    0    0  501 -0.00000000000E+00 -0.00000000000E+00 -0.18088458168E+02  0.18088458168E+02  0.00000000000E+00 0.  1.
         23    2    1    2    0    0 -0.11793796302E+02 -0.54811120682E+01  0.20621151969E+03  0.22587095796E+03  0.91243424839E+02 0.  0.
          5    1    1    2  502    0  0.24882393307E+02  0.45655125519E+02  0.40790091853E+03  0.41122837125E+03  0.47000000000E+01 0. -1.
         -5    1    1    2    0  502 -0.13088597005E+02 -0.40174013451E+02  0.61917089496E+02  0.75107114842E+02  0.47000000000E+01 0. -1.
        -11    1    3    3    0    0  0.17668666417E+02  0.19831713878E+02  0.14494032633E+02  0.30258149816E+02  0.00000000000E+00 0.  1.
         11    1    3    3    0    0 -0.29462462719E+02 -0.25312825946E+02  0.19171748706E+03  0.19561280815E+03  0.00000000000E+00 0. -1.
<mgrwt>
<rscale>  0 0.11629712E+03</rscale>
<asrwt>0</asrwt>
<pdfrwt beam="1">  1        1 0.10678736E+00 0.12567118E+03</pdfrwt>
<pdfrwt beam="2">  1       -1 0.27828403E-02 0.12567118E+03</pdfrwt>
<totfact> 0.11435492E+04</totfact>
</mgrwt>
</event>
<event>
 7    1  0.1020736E-005  0.1474878E+03  0.7546771E-02  0.1212248E+00
          1   -1    0    0  501    0  0.00000000000E+00  0.00000000000E+00  0.40318075669E+03  0.40318075669E+03  0.00000000000E+00 0. -1.
         -1   -1    0    0    0  501 -0.00000000000E+00 -0.00000000000E+00 -0.45206967192E+02  0.45206967192E+02  0.00000000000E+00 0.  1.
         23    2    1    2    0    0  0.27224708707E+02 -0.73425658073E+02  0.16308871270E+03  0.20398468902E+03  0.94230107280E+02 0.  0.
          5    1    1    2  502    0 -0.60364096759E+02  0.91055133263E+02  0.13766851701E+03  0.17581118294E+03  0.47000000000E+01 0.  1.
         -5    1    1    2    0  502  0.33139388051E+02 -0.17629475191E+02  0.57216559789E+02  0.68591851921E+02  0.47000000000E+01 0.  1.
        -11    1    3    3    0    0  0.57489772027E+02 -0.27463943398E+02  0.62073765886E+02  0.88952203379E+02  0.00000000000E+00 0.  1.
         11    1    3    3    0    0 -0.30265063320E+02 -0.45961714675E+02  0.10101494681E+03  0.11503248564E+03  0.00000000000E+00 0. -1.
<mgrwt>
<rscale>  0 0.14080603E+03</rscale>
<asrwt>0</asrwt>
<pdfrwt beam="1">  1        1 0.62027806E-01 0.14748780E+03</pdfrwt>
<pdfrwt beam="2">  1       -1 0.69549183E-02 0.14748780E+03</pdfrwt>
<totfact> 0.61596914E+03</totfact>
</mgrwt>
</event>
<event>
 7    1  0.1020736E-005  0.2627190E+03  0.7546771E-02  0.1144948E+00
          2   -1    0    0  501    0  0.00000000000E+00  0.00000000000E+00  0.19527705163E+04  0.19527705163E+04  0.00000000000E+00 0. -1.
         -2   -1    0    0    0  501 -0.00000000000E+00 -0.00000000000E+00 -0.21575752376E+02  0.21575752376E+02  0.00000000000E+00 0.  1.
         23    2    1    2    0    0 -0.22696036322E+02  0.48491227776E+01  0.19769782835E+03  0.22105425534E+03  0.96134948962E+02 0.  0.
          5    1    1    2  502    0 -0.19694230900E+02  0.52668901972E+02  0.16065658739E+04  0.16075564914E+04  0.47000000000E+01 0. -1.
         -5    1    1    2    0  502  0.42390267222E+02 -0.57518024749E+02  0.12693106163E+03  0.14573552186E+03  0.47000000000E+01 0.  1.
        -11    1    3    3    0    0 -0.11684853092E+02  0.50017435849E+02  0.87690270991E+02  0.10162609560E+03  0.00000000000E+00 0.  1.
         11    1    3    3    0    0 -0.11011183230E+02 -0.45168313071E+02  0.11000755736E+03  0.11942815974E+03  0.00000000000E+00 0. -1.
<mgrwt>
<rscale>  0 0.20578514E+03</rscale>
<asrwt>0</asrwt>
<pdfrwt beam="1">  1        2 0.30042609E+00 0.26271897E+03</pdfrwt>
<pdfrwt beam="2">  1       -2 0.33193481E-02 0.26271897E+03</pdfrwt>
<totfact> 0.28622294E+03</totfact>
</mgrwt>
</event>
<event>
 7    1  0.1020736E-005  0.1656311E+03  0.7546771E-02  0.1189032E+00
         -2   -1    0    0    0  501 -0.00000000000E+00  0.00000000000E+00  0.24895415387E+02  0.24895415387E+02  0.00000000000E+00 0.  1.
          2   -1    0    0  501    0  0.00000000000E+00 -0.00000000000E+00 -0.10849141798E+04  0.10849141798E+04  0.00000000000E+00 0. -1.
         23    2    1    2    0    0  0.14454200885E+02 -0.10770989116E+03 -0.30628041164E+03  0.33808738738E+03  0.93193596218E+02 0.  0.
          5    1    1    2  502    0  0.21018111096E+02  0.70681281891E+02 -0.16563418808E+03  0.18136807565E+03  0.47000000000E+01 0.  1.
         -5    1    1    2    0  502 -0.35472311981E+02  0.37028609268E+02 -0.58810416466E+03  0.59035413212E+03  0.47000000000E+01 0.  1.
        -11    1    3    3    0    0 -0.35121632368E+02 -0.50084020736E+02 -0.89859599610E+02  0.10870458056E+03  0.00000000000E+00 0.  1.
         11    1    3    3    0    0  0.49575833253E+02 -0.57625870424E+02 -0.21642081203E+03  0.22938280682E+03  0.00000000000E+00 0. -1.
<mgrwt>
<rscale>  0 0.15970314E+03</rscale>
<asrwt>0</asrwt>
<pdfrwt beam="2">  1        2 0.16690986E+00 0.16563110E+03</pdfrwt>
<pdfrwt beam="1">  1       -2 0.38300643E-02 0.16563110E+03</pdfrwt>
<totfact> 0.67147326E+03</totfact>
</mgrwt>
</event>
<event>
 7    1  0.1020736E-005  0.1558871E+03  0.7546771E-02  0.1201551E+00
         -2   -1    0    0    0  501 -0.00000000000E+00  0.00000000000E+00  0.85764247481E+02  0.85764247481E+02  0.00000000000E+00 0.  1.
          2   -1    0    0  501    0  0.00000000000E+00 -0.00000000000E+00 -0.27123760348E+03  0.27123760348E+03  0.00000000000E+00 0. -1.
         23    2    1    2    0    0 -0.88951149694E+02 -0.27695981080E+02 -0.24337939643E+02  0.13280234875E+03  0.91459029771E+02 0.  0.
          5    1    1    2  502    0  0.75775227688E+02  0.74818775053E+02 -0.10581252455E+03  0.15019359036E+03  0.47000000000E+01 0. -1.
         -5    1    1    2    0  502  0.13175922006E+02 -0.47122793973E+02 -0.55322891801E+02  0.74005911857E+02  0.47000000000E+01 0. -1.
        -11    1    3    3    0    0 -0.10679792213E+03 -0.20020258713E+02 -0.10949729151E+02  0.10920853217E+03  0.00000000000E+00 0.  1.
         11    1    3    3    0    0  0.17846772439E+02 -0.76757223665E+01 -0.13388210492E+02  0.23593816574E+02  0.00000000000E+00 0. -1.
<mgrwt>
<rscale>  0 0.14912640E+03</rscale>
<asrwt>0</asrwt>
<pdfrwt beam="2">  1        2 0.41728861E-01 0.15588712E+03</pdfrwt>
<pdfrwt beam="1">  1       -2 0.13194500E-01 0.15588712E+03</pdfrwt>
<totfact> 0.49886142E+03</totfact>
</mgrwt>
</event>
<event>
 7    1  0.1020736E-005  0.1269174E+03  0.7546771E-02  0.1249133E+00
          1   -1    0    0  501    0  0.00000000000E+00  0.00000000000E+00  0.51648271667E+03  0.51648271667E+03  0.00000000000E+00 0. -1.
         -1   -1    0    0    0  501 -0.00000000000E+00 -0.00000000000E+00 -0.26367121000E+02  0.26367121000E+02  0.00000000000E+00 0.  1.
         23    2    1    2    0    0 -0.20783299585E+02 -0.72100512977E+01  0.10953259691E+03  0.14166230902E+03  0.87102753291E+02 0.  0.
          5    1    1    2  502    0 -0.30258523883E+02 -0.44198694358E+02  0.18065643345E+03  0.18848856675E+03  0.47000000000E+01 0.  1.
         -5    1    1    2    0  502  0.51041823468E+02  0.51408745656E+02  0.19992656532E+03  0.21269896190E+03  0.47000000000E+01 0.  1.
        -11    1    3    3    0    0  0.22092303426E+02  0.10915988382E+01 -0.16793248986E+01  0.22182912136E+02  0.00000000000E+00 0.  1.
         11    1    3    3    0    0 -0.42875603011E+02 -0.83016501359E+01  0.11121192181E+03  0.11947939689E+03  0.00000000000E+00 0. -1.
<mgrwt>
<rscale>  0 0.11641407E+03</rscale>
<asrwt>0</asrwt>
<pdfrwt beam="1">  1        1 0.79458872E-01 0.12691735E+03</pdfrwt>
<pdfrwt beam="2">  1       -1 0.40564806E-02 0.12691735E+03</pdfrwt>
<totfact> 0.98735682E+03</totfact>
</mgrwt>
</event>
<event>
 7    1  0.1020736E-005  0.1814439E+03  0.7546771E-02  0.1171633E+00
          2   -1    0    0  501    0  0.00000000000E+00  0.00000000000E+00  0.48127338703E+03  0.48127338703E+03  0.00000000000E+00 0. -1.
         -2   -1    0    0    0  501 -0.00000000000E+00 -0.00000000000E+00 -0.61077466053E+02  0.61077466053E+02  0.00000000000E+00 0.  1.
         23    2    1    2    0    0  0.41618366346E+02  0.12476154813E+03  0.18347589765E+03  0.24409216684E+03  0.92844216741E+02 0.  0.
          5    1    1    2  502    0  0.36517299559E+02 -0.70506607370E+02  0.14838257364E+03  0.16835727786E+03  0.47000000000E+01 0.  1.
         -5    1    1    2    0  502 -0.78135665905E+02 -0.54254940758E+02  0.88337449684E+02  0.12990140838E+03  0.47000000000E+01 0.  1.
        -11    1    3    3    0    0  0.77618682592E+01  0.45599993341E+02  0.57527714061E+01  0.46612234129E+02  0.00000000000E+00 0.  1.
         11    1    3    3    0    0  0.33856498087E+02  0.79161554786E+02  0.17772312625E+03  0.19747993271E+03  0.00000000000E+00 0. -1.
<mgrwt>
<rscale>  0 0.17609865E+03</rscale>
<asrwt>0</asrwt>
<pdfrwt beam="1">  1        2 0.74042057E-01 0.18144386E+03</pdfrwt>
<pdfrwt beam="2">  1       -2 0.93965336E-02 0.18144386E+03</pdfrwt>
<totfact> 0.46616554E+03</totfact>
</mgrwt>
</event>
