<event>
 8    1  0.5165644E-010  0.1148614E+03  0.7561462E-02  0.1251823E+00
          1   -1    0    0  501    0  0.00000000000E+00  0.00000000000E+00  0.45715118769E+03  0.45715118769E+03  0.00000000000E+00 0. -1.
         -1   -1    0    0    0  501 -0.00000000000E+00 -0.00000000000E+00 -0.35483010243E+02  0.35483010243E+02  0.00000000000E+00 0.  1.
         25    2    1    2    0    0  0.63234493583E+01 -0.35875515893E+02  0.15127653848E+03  0.19964615858E+03  0.12508780471E+03 0.  0.
         23    2    1    2    0    0 -0.63234493583E+01  0.35875515893E+02  0.27039163897E+03  0.29298803936E+03  0.10678630124E+03 0.  0.
          5    1    3    3  502    0  0.47062316494E+02 -0.59998841270E+02  0.12166383455E+03  0.14364638396E+03  0.41800000000E+01 0. -1.
         -5    1    3    3    0  502 -0.40738867136E+02  0.24123325377E+02  0.29612703929E+02  0.55999774613E+02  0.41800000000E+01 0. -1.
        -11    1    4    4    0    0 -0.47871755784E+02 -0.42543768217E+01  0.73666750544E+02  0.87957915276E+02  0.00000000000E+00 0.  1.
         11    1    4    4    0    0  0.41548306426E+02  0.40129892715E+02  0.19672488842E+03  0.20503012408E+03  0.00000000000E+00 0. -1.
</event>
<event>
 8    1  0.4205029E-010  0.1211960E+03  0.7561462E-02  0.1241137E+00
         -2   -1    0    0    0  501 -0.00000000000E+00  0.00000000000E+00  0.79369191797E+02  0.79369191797E+02  0.00000000000E+00 0.  1.
          2   -1    0    0  501    0  0.00000000000E+00 -0.00000000000E+00 -0.35008438093E+03  0.35008438093E+03  0.00000000000E+00 0. -1.
         25    2    1    2    0    0 -0.81641424260E+02  0.50554081893E+01 -0.28033116525E+03  0.31768582892E+03  0.12509134413E+03 0.  0.
         23    2    1    2    0    0  0.81641424260E+02 -0.50554081893E+01  0.96159761181E+01  0.11176774381E+03  0.75555822096E+02 0.  0.
          5    1    3    3  502    0  0.27021396313E+02  0.19339126713E+01 -0.15753268185E+02  0.31615403452E+02  0.41800000000E+01 0. -1.
         -5    1    3    3    0  502 -0.10866282057E+03  0.31214955180E+01 -0.26457789707E+03  0.28607042546E+03  0.41800000000E+01 0. -1.
        -11    1    4    4    0    0  0.82898213127E+02  0.16564104462E+02  0.21274780059E+02  0.87172814356E+02  0.00000000000E+00 0.  1.
         11    1    4    4    0    0 -0.12567888664E+01 -0.21619512651E+02 -0.11658803941E+02  0.24594929455E+02  0.00000000000E+00 0. -1.
</event>
<event>
 8    1  0.4205029E-010  0.2538014E+03  0.7561462E-02  0.1110926E+00
         -2   -1    0    0    0  501 -0.00000000000E+00  0.00000000000E+00  0.12572032718E+03  0.12572032718E+03  0.00000000000E+00 0.  1.
          2   -1    0    0  501    0  0.00000000000E+00 -0.00000000000E+00 -0.56416255297E+03  0.56416255297E+03  0.00000000000E+00 0. -1.
         25    2    1    2    0    0 -0.23628277077E+03  0.29198380964E+02 -0.20328177821E+03  0.33712074904E+03  0.12507927434E+03 0.  0.
         23    2    1    2    0    0  0.23628277077E+03 -0.29198380964E+02 -0.23516044759E+03  0.35276213111E+03  0.11161806225E+03 0.  0.
          5    1    3    3  502    0 -0.22163700286E+03 -0.14963433326E+02 -0.16570560174E+03  0.27716905351E+03  0.41800000000E+01 0.  1.
         -5    1    3    3    0  502 -0.14645767904E+02  0.44161814290E+02 -0.37576176475E+02  0.59951695533E+02  0.41800000000E+01 0.  1.
        -11    1    4    4    0    0  0.15317684371E+03 -0.27230081857E+02 -0.21809496096E+03  0.26789929974E+03  0.00000000000E+00 0. -1.
         11    1    4    4    0    0  0.83105927057E+02 -0.19682991068E+01 -0.17065486629E+02  0.84862831365E+02  0.00000000000E+00 0.  1.
</event>
<event>
 7    1  0.4205029E-010  0.1069923E+03  0.7561462E-02  0.1266243E+00
          3   -1    0    0  501    0  0.00000000000E+00  0.00000000000E+00  0.34358201802E+03  0.34358201802E+03  0.00000000000E+00 0. -1.
         -3   -1    0    0    0  501 -0.00000000000E+00 -0.00000000000E+00 -0.36896541610E+02  0.36896541610E+02  0.00000000000E+00 0.  1.
         25    2    1    2    0    0 -0.27637895896E+02  0.68884367157E+02  0.18140480900E+03  0.23251995296E+03  0.12509562130E+03 0.  0.
          5    1    3    3  502    0  0.52114183257E+01  0.95730821287E+02  0.89555850319E+02  0.13126032055E+03  0.41800000000E+01 0. -1.
         -5    1    3    3    0  502 -0.32849314221E+02 -0.26846454130E+02  0.91848958683E+02  0.10125963241E+03  0.41800000000E+01 0. -1.
        -11    1    1    2    0    0  0.16502487958E+01 -0.19650856340E+02  0.54170695438E+02  0.57648449417E+02  0.00000000000E+00 0. -1.
         11    1    1    2    0    0  0.25987647100E+02 -0.49233510817E+02  0.71109971969E+02  0.90310157251E+02  0.00000000000E+00 0.  1.
</event>
<event>
 8    1  0.4205029E-010  0.1424695E+03  0.7561462E-02  0.1210044E+00
         -1   -1    0    0    0  501 -0.00000000000E+00  0.00000000000E+00  0.57789929141E+02  0.57789929141E+02  0.00000000000E+00 0.  1.
          1   -1    0    0  501    0  0.00000000000E+00 -0.00000000000E+00 -0.48740160855E+03  0.48740160855E+03  0.00000000000E+00 0. -1.
         25    2    1    2    0    0  0.13135848219E+03 -0.18523716801E+02 -0.30344240641E+03  0.35401016728E+03  0.12509086938E+03 0.  0.
         23    2    1    2    0    0 -0.13135848219E+03  0.18523716801E+02 -0.12616927300E+03  0.19118137041E+03  0.55076782914E+02 0.  0.
          5    1    3    3  502    0  0.46520150738E+02 -0.30168687580E+02 -0.24257254904E+03  0.24886379424E+03  0.41800000000E+01 0.  1.
         -5    1    3    3    0  502  0.84838331450E+02  0.11644970779E+02 -0.60869857372E+02  0.10514637304E+03  0.41800000000E+01 0.  1.
        -11    1    4    4    0    0 -0.79338718556E+02 -0.16305258456E+02 -0.68996260883E+02  0.10640008332E+03  0.00000000000E+00 0. -1.
         11    1    4    4    0    0 -0.52019763632E+02  0.34828975257E+02 -0.57173012115E+02  0.84781287087E+02  0.00000000000E+00 0.  1.
</event>
<event>
 8    1  0.4205029E-010  0.1091561E+03  0.7561462E-02  0.1262141E+00
          2   -1    0    0  501    0  0.00000000000E+00  0.00000000000E+00  0.22258378171E+03  0.22258378171E+03  0.00000000000E+00 0. -1.
         -2   -1    0    0    0  501 -0.00000000000E+00 -0.00000000000E+00 -0.67509904528E+02  0.67509904528E+02  0.00000000000E+00 0.  1.
         25    2    1    2    0    0 -0.28368703731E+02  0.13021076440E+02  0.79145179567E+02  0.15128055785E+03  0.12509003138E+03 0.  0.
         23    2    1    2    0    0  0.28368703731E+02 -0.13021076440E+02  0.75928697615E+02  0.13881312839E+03  0.11193563199E+03 0.  0.
          5    1    3    3  502    0 -0.40602237505E+02 -0.35706383499E+02 -0.36407736203E+01  0.54352692165E+02  0.41800000000E+01 0.  1.
         -5    1    3    3    0  502  0.12233533774E+02  0.48727459939E+02  0.82785953187E+02  0.96927865683E+02  0.41800000000E+01 0.  1.
        -11    1    4    4    0    0 -0.11803248261E+01  0.46869779366E+02  0.45818925151E+02  0.65555650302E+02  0.00000000000E+00 0.  1.
         11    1    4    4    0    0  0.29549028557E+02 -0.59890855806E+02  0.30109772463E+02  0.73257478087E+02  0.00000000000E+00 0. -1.
</event>
<event>
 8    1  0.4205029E-010  0.9861457E+02  0.7561462E-02  0.1283237E+00
          2   -1    0    0  501    0  0.00000000000E+00  0.00000000000E+00  0.29111642485E+03  0.29111642485E+03  0.00000000000E+00 0. -1.
         -2   -1    0    0    0  501 -0.00000000000E+00 -0.00000000000E+00 -0.46970863029E+02  0.46970863029E+02  0.00000000000E+00 0.  1.
         25    2    1    2    0    0  0.31462875205E+02 -0.45061526956E+02  0.91911061683E+02  0.16466948756E+03  0.12509173892E+03 0.  0.
         23    2    1    2    0    0 -0.31462875205E+02  0.45061526956E+02  0.15223450014E+03  0.17341780031E+03  0.62273081714E+02 0.  0.
          5    1    3    3  502    0 -0.31603063824E+02  0.71140421645E+01 -0.97494134879E+01  0.34086459223E+02  0.41800000000E+01 0.  1.
         -5    1    3    3    0  502  0.63065939030E+02 -0.52175569121E+02  0.10166047517E+03  0.13058302834E+03  0.41800000000E+01 0.  1.
        -11    1    4    4    0    0 -0.50019353900E+02  0.37742410142E+02  0.12276111740E+03  0.13782857916E+03  0.00000000000E+00 0. -1.
         11    1    4    4    0    0  0.18556478694E+02  0.73191168143E+01  0.29473382741E+02  0.35589221159E+02  0.00000000000E+00 0.  1.
</event>
<event>
 7    1  0.4205029E-010  0.1175673E+03  0.7561462E-02  0.1247165E+00
         -3   -1    0    0    0  501 -0.00000000000E+00  0.00000000000E+00  0.16436383504E+03  0.16436383504E+03  0.00000000000E+00 0.  1.
          3   -1    0    0  501    0  0.00000000000E+00 -0.00000000000E+00 -0.18546852107E+03  0.18546852107E+03  0.00000000000E+00 0. -1.
         25    2    1    2    0    0  0.40391981864E+01 -0.66103048759E+02  0.40681475702E+02  0.14726557696E+03  0.12508492921E+03 0.  0.
          5    1    3    3  502    0  0.44844812313E+02  0.12594802901E+02 -0.57285730404E+01  0.47116612788E+02  0.41800000000E+01 0. -1.
         -5    1    3    3    0  502 -0.40805614127E+02 -0.78697851660E+02  0.46410048743E+02  0.10014896417E+03  0.41800000000E+01 0. -1.
        -11    1    1    2    0    0  0.34546810916E+02  0.40880098913E+02  0.55162387683E+02  0.76860611802E+02  0.00000000000E+00 0.  1.
         11    1    1    2    0    0 -0.38586009102E+02  0.25222949846E+02 -0.11694854942E+03  0.12570616735E+03  0.00000000000E+00 0. -1.
</event>
<event>
 8    1  0.4205029E-010  0.9815450E+02  0.7561462E-02  0.1284225E+00
         -2   -1    0    0    0  501 -0.00000000000E+00  0.00000000000E+00  0.49006299989E+02  0.49006299989E+02  0.00000000000E+00 0.  1.
          2   -1    0    0  501    0  0.00000000000E+00 -0.00000000000E+00 -0.56643857460E+03  0.56643857460E+03  0.00000000000E+00 0. -1.
         25    2    1    2    0    0 -0.34027034499E+02  0.68019893028E+02 -0.48766747306E+03  0.50916838309E+03  0.12509329772E+03 0.  0.
         23    2    1    2    0    0  0.34027034499E+02 -0.68019893028E+02 -0.29764801559E+02  0.10627649151E+03  0.68001502268E+02 0.  0.
          5    1    3    3  502    0 -0.56040269362E+02  0.72056000617E+02 -0.19210975133E+03  0.21273506521E+03  0.41800000000E+01 0.  1.
         -5    1    3    3    0  502  0.22013234862E+02 -0.40361075894E+01 -0.29555772173E+03  0.29643331788E+03  0.41800000000E+01 0.  1.
        -11    1    4    4    0    0  0.22917483370E+02 -0.13660053043E+02  0.18721078231E+02  0.32592742494E+02  0.00000000000E+00 0.  1.
         11    1    4    4    0    0  0.11109551130E+02 -0.54359839985E+02 -0.48485879790E+02  0.73683749013E+02  0.00000000000E+00 0. -1.
</event>
<event>
 8    1  0.4205029E-010  0.9056509E+02  0.7561462E-02  0.1301489E+00
          2   -1    0    0  501    0  0.00000000000E+00  0.00000000000E+00  0.60772946029E+03  0.60772946029E+03  0.00000000000E+00 0. -1.
         -2   -1    0    0    0  501 -0.00000000000E+00 -0.00000000000E+00 -0.20540010878E+02  0.20540010878E+02  0.00000000000E+00 0.  1.
         25    2    1    2    0    0 -0.42413387439E+02  0.61378297209E+01  0.29175715099E+03  0.32032385195E+03  0.12509423083E+03 0.  0.
         23    2    1    2    0    0  0.42413387439E+02 -0.61378297209E+01  0.29543229843E+03  0.30794561922E+03  0.75588974439E+02 0.  0.
          5    1    3    3  502    0 -0.30197821180E+02 -0.40162737582E+02  0.40961728192E+02  0.64963755053E+02  0.41800000000E+01 0. -1.
         -5    1    3    3    0  502 -0.12215566259E+02  0.46300567303E+02  0.25079542279E+03  0.25536009690E+03  0.41800000000E+01 0. -1.
        -11    1    4    4    0    0  0.43129803563E+02 -0.33907045577E+02  0.14630240000E+03  0.15625063181E+03  0.00000000000E+00 0.  1.
         11    1    4    4    0    0 -0.71641612363E+00  0.27769215856E+02  0.14912989843E+03  0.15169498742E+03  0.00000000000E+00 0. -1.
</event>
<event>
 8    1  0.4205029E-010  0.7340715E+02  0.7561462E-02  0.1348876E+00
          1   -1    0    0  501    0  0.00000000000E+00  0.00000000000E+00  0.58291165884E+02  0.58291165884E+02  0.00000000000E+00 0. -1.
         -1   -1    0    0    0  501 -0.00000000000E+00 -0.00000000000E+00 -0.34580156429E+03  0.34580156429E+03  0.00000000000E+00 0.  1.
         25    2    1    2    0    0  0.48296496005E+02 -0.18323146973E+02 -0.39113982379E+02  0.14087397335E+03  0.12508910228E+03 0.  0.
         23    2    1    2    0    0 -0.48296496005E+02  0.18323146973E+02 -0.24839641602E+03  0.26321875682E+03  0.70107383389E+02 0.  0.
          5    1    3    3  502    0  0.14449233887E+01  0.12792301764E+02 -0.73555990527E+02  0.74790954870E+02  0.41800000000E+01 0. -1.
         -5    1    3    3    0  502  0.46851572616E+02 -0.31115448737E+02  0.34442008147E+02  0.66083018484E+02  0.41800000000E+01 0. -1.
        -11    1    4    4    0    0 -0.45549485807E+02 -0.11462152872E+02 -0.20628840934E+03  0.21156806100E+03  0.00000000000E+00 0.  1.
         11    1    4    4    0    0 -0.27470101975E+01  0.29785299845E+02 -0.42108006683E+02  0.51650695820E+02  0.00000000000E+00 0. -1.
</event>
<event>
 8    1  0.4205029E-010  0.9178452E+02  0.7561462E-02  0.1298587E+00
         -2   -1    0    0    0  501 -0.00000000000E+00  0.00000000000E+00  0.11011224308E+02  0.11011224308E+02  0.00000000000E+00 0.  1.
          2   -1    0    0  501    0  0.00000000000E+00 -0.00000000000E+00 -0.14514423288E+04  0.14514423288E+04  0.00000000000E+00 0. -1.
         25    2    1    2    0    0  0.79110697363E+01  0.27807511435E+02 -0.10033556452E+04  0.10115368175E+04  0.12509332356E+03 0.  0.
         23    2    1    2    0    0 -0.79110697363E+01 -0.27807511435E+02 -0.43707545923E+03  0.45091673558E+03  0.10702851329E+03 0.  0.
          5    1    3    3  502    0 -0.44841444796E+01  0.48855962691E+02 -0.96245761891E+03  0.96371632405E+03  0.41800000000E+01 0.  1.
         -5    1    3    3    0  502  0.12395214216E+02 -0.21048451255E+02 -0.40898026323E+02  0.47820493440E+02  0.41800000000E+01 0.  1.
        -11    1    4    4    0    0  0.38026722976E+02 -0.46398836863E+02 -0.27334983263E+03  0.27985534607E+03  0.00000000000E+00 0.  1.
         11    1    4    4    0    0 -0.45937792712E+02  0.18591325427E+02 -0.16372562659E+03  0.17106138952E+03  0.00000000000E+00 0. -1.
</event>
<event>
 8    1  0.4205029E-010  0.1082598E+03  0.7561462E-02  0.1263827E+00
         -3   -1    0    0    0  501 -0.00000000000E+00  0.00000000000E+00  0.75709246566E+02  0.75709246566E+02  0.00000000000E+00 0.  1.
          3   -1    0    0  501    0  0.00000000000E+00 -0.00000000000E+00 -0.26253066301E+03  0.26253066301E+03  0.00000000000E+00 0. -1.
         25    2    1    2    0    0  0.78039704609E+02 -0.81956107550E+01 -0.26259851696E+02  0.14997997155E+03  0.12508816301E+03 0.  0.
         23    2    1    2    0    0 -0.78039704609E+02  0.81956107550E+01 -0.16056156475E+03  0.18825993802E+03  0.59198181209E+02 0.  0.
          5    1    3    3  502    0  0.72333794443E+02  0.39717584763E+02 -0.49437680629E+02  0.96287179956E+02  0.41800000000E+01 0. -1.
         -5    1    3    3    0  502  0.57059101655E+01 -0.47913195518E+02  0.23177828933E+02  0.53692791598E+02  0.41800000000E+01 0. -1.
        -11    1    4    4    0    0 -0.57618920054E+01  0.11759278864E+02 -0.75291609377E+02  0.76421897919E+02  0.00000000000E+00 0. -1.
         11    1    4    4    0    0 -0.72277812603E+02 -0.35636681086E+01 -0.85269955371E+02  0.11183804010E+03  0.00000000000E+00 0.  1.
</event>
<event>
 8    1  0.4205029E-010  0.1058862E+03  0.7561462E-02  0.1268383E+00
          1   -1    0    0  501    0  0.00000000000E+00  0.00000000000E+00  0.93495053668E+02  0.93495053668E+02  0.00000000000E+00 0. -1.
         -1   -1    0    0    0  501 -0.00000000000E+00 -0.00000000000E+00 -0.15243332720E+03  0.15243332720E+03  0.00000000000E+00 0.  1.
         25    2    1    2    0    0 -0.23947771823E+02  0.46099475225E+02  0.86367011674E+01  0.13571433774E+03  0.12508049996E+03 0.  0.
         23    2    1    2    0    0  0.23947771823E+02 -0.46099475225E+02 -0.67574974702E+02  0.11021404313E+03  0.69872030928E+02 0.  0.
          5    1    3    3  502    0 -0.15999969397E+02  0.89025507074E+02  0.13657547708E+02  0.91572599285E+02  0.41800000000E+01 0. -1.
         -5    1    3    3    0  502 -0.79478024254E+01 -0.42926031849E+02 -0.50208465403E+01  0.44141738454E+02  0.41800000000E+01 0. -1.
        -11    1    4    4    0    0  0.29092449501E+02  0.18431887024E+01 -0.51875060915E+02  0.59504536864E+02  0.00000000000E+00 0.  1.
         11    1    4    4    0    0 -0.51446776784E+01 -0.47942663927E+02 -0.15699913787E+02  0.50709506266E+02  0.00000000000E+00 0. -1.
</event>
<event>
 8    1  0.4205029E-010  0.1077288E+03  0.7561462E-02  0.1264834E+00
         -2   -1    0    0    0  501 -0.00000000000E+00  0.00000000000E+00  0.81916739042E+01  0.81916739042E+01  0.00000000000E+00 0.  1.
          2   -1    0    0  501    0  0.00000000000E+00 -0.00000000000E+00 -0.23720333750E+04  0.23720333750E+04  0.00000000000E+00 0. -1.
         25    2    1    2    0    0 -0.30687755479E+02 -0.27056472490E+01 -0.17369923603E+04  0.17417635847E+04  0.12509542991E+03 0.  0.
         23    2    1    2    0    0  0.30687755479E+02  0.27056472490E+01 -0.62684934083E+03  0.63846146418E+03  0.11723432211E+03 0.  0.
          5    1    3    3  502    0 -0.14715868033E+02 -0.45785217386E+02 -0.14715694216E+04  0.14723609876E+04  0.41800000000E+01 0.  1.
         -5    1    3    3    0  502 -0.15971887446E+02  0.43079570137E+02 -0.26542293871E+03  0.26940259714E+03  0.41800000000E+01 0.  1.
        -11    1    4    4    0    0 -0.37783430278E+02  0.29075760465E+02 -0.23079625428E+03  0.23566904430E+03  0.00000000000E+00 0.  1.
         11    1    4    4    0    0  0.68471185757E+02 -0.26370113216E+02 -0.39605308654E+03  0.40279241988E+03  0.00000000000E+00 0. -1.
</event>
<event>
 8    1  0.4205029E-010  0.8419550E+02  0.7561462E-02  0.1317550E+00
         -2   -1    0    0    0  501 -0.00000000000E+00  0.00000000000E+00  0.34238184863E+02  0.34238184863E+02  0.00000000000E+00 0. -1.
          2   -1    0    0  501    0  0.00000000000E+00 -0.00000000000E+00 -0.49999079193E+03  0.49999079193E+03  0.00000000000E+00 0.  1.
         25    2    1    2    0    0 -0.43694920253E+02  0.48747647103E+02 -0.38017047547E+03  0.40554041846E+03  0.12509141231E+03 0.  0.
         23    2    1    2    0    0  0.43694920253E+02 -0.48747647103E+02 -0.85582131601E+02  0.12868855833E+03  0.70362380877E+02 0.  0.
          5    1    3    3  502    0 -0.11384833070E+02  0.58848678674E+02 -0.64951507519E+02  0.88481366031E+02  0.41800000000E+01 0.  1.
         -5    1    3    3    0  502 -0.32310087183E+02 -0.10101031572E+02 -0.31521896795E+03  0.31705905243E+03  0.41800000000E+01 0.  1.
        -11    1    4    4    0    0  0.40091562600E+02 -0.19239573574E+02 -0.74454589301E+01  0.45088018827E+02  0.00000000000E+00 0. -1.
         11    1    4    4    0    0  0.36033576527E+01 -0.29508073529E+02 -0.78136672671E+02  0.83600539507E+02  0.00000000000E+00 0.  1.
</event>
<event>
 8    1  0.4205029E-010  0.1292692E+03  0.7561462E-02  0.1228544E+00
          2   -1    0    0  501    0  0.00000000000E+00  0.00000000000E+00  0.48954120986E+03  0.48954120986E+03  0.00000000000E+00 0. -1.
         -2   -1    0    0    0  501 -0.00000000000E+00 -0.00000000000E+00 -0.35538054698E+02  0.35538054698E+02  0.00000000000E+00 0.  1.
         25    2    1    2    0    0 -0.29338225266E+02 -0.41046751452E+02  0.26659102780E+03  0.29877116157E+03  0.12509142102E+03 0.  0.
         23    2    1    2    0    0  0.29338225266E+02  0.41046751452E+02  0.18741212736E+03  0.22630810300E+03  0.11638936692E+03 0.  0.
          5    1    3    3  502    0 -0.65639387320E+02 -0.63473623699E+02  0.19421078833E+03  0.21464559809E+03  0.41800000000E+01 0.  1.
         -5    1    3    3    0  502  0.36301162054E+02  0.22426872247E+02  0.72380239467E+02  0.84125563479E+02  0.41800000000E+01 0.  1.
        -11    1    4    4    0    0  0.70703749285E+02  0.43165983633E+02  0.10215154568E+03  0.13151905029E+03  0.00000000000E+00 0.  1.
         11    1    4    4    0    0 -0.41365524020E+02 -0.21192321804E+01  0.85260581689E+02  0.94789052703E+02  0.00000000000E+00 0. -1.
</event>
<event>
 8    1  0.4205029E-010  0.5636872E+02  0.7561462E-02  0.1413735E+00
          2   -1    0    0  501    0  0.00000000000E+00  0.00000000000E+00  0.11552436058E+03  0.11552436058E+03  0.00000000000E+00 0.  1.
         -2   -1    0    0    0  501 -0.00000000000E+00 -0.00000000000E+00 -0.15991056700E+03  0.15991056700E+03  0.00000000000E+00 0. -1.
         25    2    1    2    0    0  0.76581307476E+01  0.52841747619E+02  0.49701318969E+02  0.14480722071E+03  0.12509201735E+03 0.  0.
         23    2    1    2    0    0 -0.76581307476E+01 -0.52841747619E+02 -0.94087525395E+02  0.13062770687E+03  0.73213647017E+02 0.  0.
          5    1    3    3  502    0  0.14240307037E+01  0.20435497197E+02  0.90089763322E+02  0.92483918951E+02  0.41800000000E+01 0.  1.
         -5    1    3    3    0  502  0.62341000439E+01  0.32406250422E+02 -0.40388444353E+02  0.52323301760E+02  0.41800000000E+01 0.  1.
        -11    1    4    4    0    0 -0.16389756417E+02 -0.37242502650E+02 -0.64645648085E+01  0.41199741713E+02  0.00000000000E+00 0.  1.
         11    1    4    4    0    0  0.87316256697E+01 -0.15599244970E+02 -0.87622960587E+02  0.89427965159E+02  0.00000000000E+00 0. -1.
</event>
<event>
 8    1  0.4205029E-010  0.6898938E+02  0.7561462E-02  0.1363564E+00
         -4   -1    0    0    0  501 -0.00000000000E+00  0.00000000000E+00  0.26067487767E+03  0.26067487767E+03  0.00000000000E+00 0.  1.
          4   -1    0    0  501    0  0.00000000000E+00 -0.00000000000E+00 -0.35112035857E+02  0.35112035857E+02  0.00000000000E+00 0. -1.
         25    2    1    2    0    0 -0.64786817087E+00  0.10703592567E+02  0.15587221867E+03  0.20014559041E+03  0.12508845743E+03 0.  0.
         23    2    1    2    0    0  0.64786817087E+00 -0.10703592567E+02  0.69690623151E+02  0.95641323121E+02  0.64618055573E+02 0.  0.
          5    1    3    3  502    0  0.49982956485E+01 -0.43673657501E+02  0.13404616659E+03  0.14113191877E+03  0.41800000000E+01 0.  1.
         -5    1    3    3    0  502 -0.56461638193E+01  0.54377250068E+02  0.21826052076E+02  0.59013671637E+02  0.41800000000E+01 0.  1.
        -11    1    4    4    0    0 -0.18419365329E+02 -0.56645440940E+01 -0.37210606995E+01  0.19626675002E+02  0.00000000000E+00 0. -1.
         11    1    4    4    0    0  0.19067233500E+02 -0.50390484735E+01  0.73411683850E+02  0.76014648118E+02  0.00000000000E+00 0.  1.
</event>
<event>
 8    1  0.4205029E-010  0.1514409E+03  0.7561462E-02  0.1198714E+00
          2   -1    0    0  501    0  0.00000000000E+00  0.00000000000E+00  0.10353136715E+04  0.10353136715E+04  0.00000000000E+00 0. -1.
         -2   -1    0    0    0  501 -0.00000000000E+00 -0.00000000000E+00 -0.26681349861E+02  0.26681349861E+02  0.00000000000E+00 0.  1.
         25    2    1    2    0    0 -0.10216172778E+03  0.59740473866E+02  0.53944984671E+03  0.56626774354E+03  0.12508827851E+03 0.  0.
         23    2    1    2    0    0  0.10216172778E+03 -0.59740473866E+02  0.46918247489E+03  0.49572727778E+03  0.10773762737E+03 0.  0.
          5    1    3    3  502    0 -0.11048157449E+03  0.68921856995E+02  0.30765027348E+03  0.33409963162E+03  0.41800000000E+01 0.  1.
         -5    1    3    3    0  502  0.83198467135E+01 -0.91813831289E+01  0.23179957323E+03  0.23216811192E+03  0.41800000000E+01 0.  1.
        -11    1    4    4    0    0  0.25689953165E+02 -0.76960508283E+02  0.21864463657E+03  0.23321314421E+03  0.00000000000E+00 0. -1.
         11    1    4    4    0    0  0.76471774611E+02  0.17220034417E+02  0.25053783831E+03  0.26251413357E+03  0.00000000000E+00 0.  1.
</event>
<event>
 8    1  0.4835273E-010  0.1233544E+03  0.7561462E-02  0.1237664E+00
          2   -1    0    0  501    0  0.00000000000E+00  0.00000000000E+00  0.18890489449E+04  0.18890489449E+04  0.00000000000E+00 0. -1.
         -2   -1    0    0    0  501 -0.00000000000E+00 -0.00000000000E+00 -0.12611569826E+02  0.12611569826E+02  0.00000000000E+00 0.  1.
         25    2    1    2    0    0 -0.24523388539E+02 -0.91049899269E+02  0.14375281570E+04  0.14460384819E+04  0.12509439660E+03 0.  0.
         23    2    1    2    0    0  0.24523388539E+02  0.91049899269E+02  0.43890921805E+03  0.45562203285E+03  0.77837358608E+02 0.  0.
          5    1    3    3  502    0 -0.51100619806E+02 -0.91491383463E+01  0.91207095619E+03  0.91355672052E+03  0.41800000000E+01 0.  1.
         -5    1    3    3    0  502  0.26577231267E+02 -0.81900760923E+02  0.52545720086E+03  0.53248176137E+03  0.41800000000E+01 0.  1.
        -11    1    4    4    0    0 -0.14482743777E+02  0.48866983003E+02  0.10396733426E+03  0.11578833485E+03  0.00000000000E+00 0.  1.
         11    1    4    4    0    0  0.39006132316E+02  0.42182916266E+02  0.33494188379E+03  0.33983369800E+03  0.00000000000E+00 0. -1.
</event>
<event>
 8    1  0.4205029E-010  0.6982522E+02  0.7561462E-02  0.1360688E+00
          2   -1    0    0  501    0  0.00000000000E+00  0.00000000000E+00  0.34303477747E+03  0.34303477747E+03  0.00000000000E+00 0. -1.
         -2   -1    0    0    0  501 -0.00000000000E+00 -0.00000000000E+00 -0.80555878319E+02  0.80555878319E+02  0.00000000000E+00 0.  1.
         25    2    1    2    0    0  0.20065356477E+02  0.33544693910E+02 -0.16838843024E+02  0.13212896585E+03  0.12508657786E+03 0.  0.
         23    2    1    2    0    0 -0.20065356477E+02 -0.33544693910E+02  0.27931774217E+03  0.29146168994E+03  0.73509527207E+02 0.  0.
          5    1    3    3  502    0 -0.36395153232E+01  0.37391628814E+02 -0.66678416952E+02  0.76647659223E+02  0.41800000000E+01 0.  1.
         -5    1    3    3    0  502  0.23704871800E+02 -0.38469349039E+01  0.49839573928E+02  0.55481306623E+02  0.41800000000E+01 0.  1.
        -11    1    4    4    0    0 -0.44890609760E+02 -0.23754857870E+02  0.12620862373E+03  0.13604439283E+03  0.00000000000E+00 0.  1.
         11    1    4    4    0    0  0.24825253283E+02 -0.97898360396E+01  0.15310911844E+03  0.15541729711E+03  0.00000000000E+00 0. -1.
</event>
<event>
 8    1  0.4205029E-010  0.8303157E+02  0.7561462E-02  0.1320662E+00
          2   -1    0    0  501    0  0.00000000000E+00  0.00000000000E+00  0.67953200320E+03  0.67953200320E+03  0.00000000000E+00 0. -1.
         -2   -1    0    0    0  501 -0.00000000000E+00 -0.00000000000E+00 -0.21683075115E+02  0.21683075115E+02  0.00000000000E+00 0.  1.
         25    2    1    2    0    0 -0.47666510403E+02  0.44674938410E+02  0.38357610581E+03  0.40871304596E+03  0.12509108143E+03 0.  0.
         23    2    1    2    0    0  0.47666510403E+02 -0.44674938410E+02  0.27427282228E+03  0.29250203236E+03  0.77871121457E+02 0.  0.
          5    1    3    3  502    0 -0.17953185397E+02  0.52530327467E+02  0.37114593980E+03  0.37529792592E+03  0.41800000000E+01 0.  1.
         -5    1    3    3    0  502 -0.29713325006E+02 -0.78553890574E+01  0.12430166008E+02  0.33415120038E+02  0.41800000000E+01 0.  1.
        -11    1    4    4    0    0  0.55376767580E+02 -0.30453080555E+02  0.26766923663E+03  0.27502871985E+03  0.00000000000E+00 0. -1.
         11    1    4    4    0    0 -0.77102571769E+01 -0.14221857854E+02  0.66035856434E+01  0.17473312505E+02  0.00000000000E+00 0.  1.
</event>
<event>
 7    1  0.4205029E-010  0.1809163E+03  0.7561462E-02  0.1166919E+00
          1   -1    0    0  501    0  0.00000000000E+00  0.00000000000E+00  0.25691773555E+03  0.25691773555E+03  0.00000000000E+00 0. -1.
         -1   -1    0    0    0  501 -0.00000000000E+00 -0.00000000000E+00 -0.16485010156E+03  0.16485010156E+03  0.00000000000E+00 0.  1.
         25    2    1    2    0    0  0.11458889969E+03 -0.11011438781E+03  0.17669591715E+02  0.20301632891E+03  0.12509045126E+03 0.  0.
          5    1    3    3  502    0  0.94556842423E+02 -0.14080215072E+02  0.37619426146E+02  0.10281995200E+03  0.41800000000E+01 0.  1.
         -5    1    3    3    0  502  0.20032057264E+02 -0.96034172738E+02 -0.19949834431E+02  0.10019637691E+03  0.41800000000E+01 0.  1.
        -11    1    1    2    0    0 -0.73934029580E+02  0.10282880322E+03 -0.76648439114E+01  0.12688086276E+03  0.00000000000E+00 0.  1.
         11    1    1    2    0    0 -0.40654870107E+02  0.72855845851E+01  0.82062886183E+02  0.91870645447E+02  0.00000000000E+00 0. -1.
</event>
<event>
 8    1  0.4205029E-010  0.2530035E+03  0.7561462E-02  0.1111421E+00
         -1   -1    0    0    0  501 -0.00000000000E+00  0.00000000000E+00  0.25882639427E+03  0.25882639427E+03  0.00000000000E+00 0.  1.
          1   -1    0    0  501    0  0.00000000000E+00 -0.00000000000E+00 -0.27925203915E+03  0.27925203915E+03  0.00000000000E+00 0. -1.
         25    2    1    2    0    0 -0.21622966605E+03 -0.10726068147E+03 -0.17006324351E+02  0.27238950893E+03  0.12508679882E+03 0.  0.
         23    2    1    2    0    0  0.21622966605E+03  0.10726068147E+03 -0.34193205254E+01  0.26568892449E+03  0.11099004718E+03 0.  0.
          5    1    3    3  502    0 -0.33707421981E+02 -0.40104375424E+02 -0.52908673823E+02  0.74574468757E+02  0.41800000000E+01 0.  1.
         -5    1    3    3    0  502 -0.18252224407E+03 -0.67156306050E+02  0.35902349472E+02  0.19781504017E+03  0.41800000000E+01 0.  1.
        -11    1    4    4    0    0  0.18145914514E+03  0.12454930424E+03 -0.24591861520E+02  0.22146040322E+03  0.00000000000E+00 0. -1.
         11    1    4    4    0    0  0.34770520906E+02 -0.17288622766E+02  0.21172540994E+02  0.44228521266E+02  0.00000000000E+00 0.  1.
</event>
<event>
 8    1  0.4205029E-010  0.3440597E+03  0.7561462E-02  0.1065080E+00
          1   -1    0    0  501    0  0.00000000000E+00  0.00000000000E+00  0.55784561271E+03  0.55784561271E+03  0.00000000000E+00 0. -1.
         -1   -1    0    0    0  501 -0.00000000000E+00 -0.00000000000E+00 -0.34045943580E+03  0.34045943580E+03  0.00000000000E+00 0.  1.
         25    2    1    2    0    0 -0.31849896181E+03 -0.11743380905E+03  0.37135655289E+03  0.51844555869E+03  0.12509124578E+03 0.  0.
         23    2    1    2    0    0  0.31849896181E+03  0.11743380905E+03 -0.15397037598E+03  0.37985948981E+03  0.73171491323E+02 0.  0.
          5    1    3    3  502    0 -0.23406391133E+03 -0.70355019649E+02  0.17851705880E+03  0.30269052853E+03  0.41800000000E+01 0.  1.
         -5    1    3    3    0  502 -0.84435050474E+02 -0.47078789398E+02  0.19283949409E+03  0.21575503016E+03  0.41800000000E+01 0.  1.
        -11    1    4    4    0    0  0.29487992690E+03  0.85183818556E+02 -0.13070419067E+03  0.33360761336E+03  0.00000000000E+00 0. -1.
         11    1    4    4    0    0  0.23619034905E+02  0.32249990492E+02 -0.23266185307E+02  0.46251876452E+02  0.00000000000E+00 0.  1.
</event>
<event>
 7    1  0.4205029E-010  0.1385619E+03  0.7561462E-02  0.1215277E+00
          1   -1    0    0  501    0  0.00000000000E+00  0.00000000000E+00  0.27976110041E+03  0.27976110041E+03  0.00000000000E+00 0. -1.
         -1   -1    0    0    0  501 -0.00000000000E+00 -0.00000000000E+00 -0.86731367332E+02  0.86731367332E+02  0.00000000000E+00 0.  1.
         25    2    1    2    0    0 -0.72247292091E+02 -0.89263063942E+02  0.17823177684E+03  0.24618042081E+03  0.12510262793E+03 0.  0.
          5    1    3    3  502    0 -0.41364403482E+02 -0.11182900017E+03  0.88501871452E+02  0.14854895760E+03  0.41800000000E+01 0.  1.
         -5    1    3    3    0  502 -0.30882888609E+02  0.22565936229E+02  0.89729905388E+02  0.97631463205E+02  0.41800000000E+01 0.  1.
        -11    1    1    2    0    0  0.32576355020E+02  0.65349545728E+02  0.10886687157E+02  0.73826160610E+02  0.00000000000E+00 0.  1.
         11    1    1    2    0    0  0.39670937071E+02  0.23913518214E+02  0.39112690828E+01  0.46485886324E+02  0.00000000000E+00 0. -1.
</event>
<event>
 8    1  0.4205029E-010  0.1537164E+03  0.7561462E-02  0.1195979E+00
         -1   -1    0    0    0  501 -0.00000000000E+00  0.00000000000E+00  0.77840075954E+02  0.77840075954E+02  0.00000000000E+00 0.  1.
          1   -1    0    0  501    0  0.00000000000E+00 -0.00000000000E+00 -0.33301195821E+03  0.33301195821E+03  0.00000000000E+00 0. -1.
         25    2    1    2    0    0  0.67725679380E+02 -0.10639546861E+03 -0.16158296774E+03  0.24013184611E+03  0.12508990634E+03 0.  0.
         23    2    1    2    0    0 -0.67725679380E+02  0.10639546861E+03 -0.93588914517E+02  0.17072018805E+03  0.66930817263E+02 0.  0.
          5    1    3    3  502    0  0.34507539765E+02  0.21875230284E+02 -0.61821129182E+02  0.74220080935E+02  0.41800000000E+01 0.  1.
         -5    1    3    3    0  502  0.33218139615E+02 -0.12827069889E+03 -0.99761838556E+02  0.16591176518E+03  0.41800000000E+01 0.  1.
        -11    1    4    4    0    0 -0.42038587041E+02  0.26080189474E+02 -0.64995147182E+02  0.81681015179E+02  0.00000000000E+00 0. -1.
         11    1    4    4    0    0 -0.25687092339E+02  0.80315279132E+02 -0.28593767334E+02  0.89039172869E+02  0.00000000000E+00 0.  1.
</event>
<event>
 8    1  0.4205029E-010  0.9425649E+02  0.7561462E-02  0.1292859E+00
         -2   -1    0    0    0  501 -0.00000000000E+00  0.00000000000E+00  0.11227060157E+04  0.11227060157E+04  0.00000000000E+00 0.  1.
          2   -1    0    0  501    0  0.00000000000E+00 -0.00000000000E+00 -0.10759237357E+02  0.10759237357E+02  0.00000000000E+00 0. -1.
         25    2    1    2    0    0  0.18434712616E+01  0.76302395486E-01  0.92965722667E+03  0.93803706363E+03  0.12509024513E+03 0.  0.
         23    2    1    2    0    0 -0.18434712616E+01 -0.76302395486E-01  0.18228955170E+03  0.19542818946E+03  0.70422243418E+02 0.  0.
          5    1    3    3  502    0  0.34059392555E+02  0.50959470396E+02  0.57567799965E+03  0.57894692462E+03  0.41800000000E+01 0. -1.
         -5    1    3    3    0  502 -0.32215921294E+02 -0.50883168000E+02  0.35397922703E+03  0.35909013901E+03  0.41800000000E+01 0. -1.
        -11    1    4    4    0    0 -0.23879476911E+02  0.24147436335E+02  0.61227033162E+02  0.70014839062E+02  0.00000000000E+00 0.  1.
         11    1    4    4    0    0  0.22036005649E+02 -0.24223738731E+02  0.12106251854E+03  0.12541335040E+03  0.00000000000E+00 0. -1.
</event>
<event>
 8    1  0.4205029E-010  0.1116323E+03  0.7561462E-02  0.1257577E+00
          1   -1    0    0  501    0  0.00000000000E+00  0.00000000000E+00  0.25827955765E+03  0.25827955765E+03  0.00000000000E+00 0. -1.
         -1   -1    0    0    0  501 -0.00000000000E+00 -0.00000000000E+00 -0.67265263034E+02  0.67265263034E+02  0.00000000000E+00 0.  1.
         25    2    1    2    0    0  0.42756456284E+02  0.12748119092E+02  0.92639664965E+02  0.16192612854E+03  0.12508930604E+03 0.  0.
         23    2    1    2    0    0 -0.42756456284E+02 -0.12748119092E+02  0.98374629649E+02  0.16361869214E+03  0.12289377350E+03 0.  0.
          5    1    3    3  502    0  0.32727769937E+02  0.68484149647E+02  0.53747708341E+02  0.93099270834E+02  0.41800000000E+01 0. -1.
         -5    1    3    3    0  502  0.10028686348E+02 -0.55736030555E+02  0.38891956624E+02  0.68826857708E+02  0.41800000000E+01 0. -1.
        -11    1    4    4    0    0  0.15562551452E+02 -0.26327288869E+02 -0.16001664567E+02  0.34516263062E+02  0.00000000000E+00 0.  1.
         11    1    4    4    0    0 -0.58319007736E+02  0.13579169777E+02  0.11437629422E+03  0.12910242908E+03  0.00000000000E+00 0. -1.
</event>
<event>
 8    1  0.4205029E-010  0.7839542E+02  0.7561462E-02  0.1333668E+00
         -4   -1    0    0    0  501 -0.00000000000E+00  0.00000000000E+00  0.17724419862E+03  0.17724419862E+03  0.00000000000E+00 0.  1.
          4   -1    0    0  501    0  0.00000000000E+00 -0.00000000000E+00 -0.57849335190E+02  0.57849335190E+02  0.00000000000E+00 0. -1.
         25    2    1    2    0    0 -0.75875934290E+01  0.24271976306E+02  0.82157074996E+02  0.15180087669E+03  0.12508805212E+03 0.  0.
         23    2    1    2    0    0  0.75875934290E+01 -0.24271976306E+02  0.37237788434E+02  0.83292657121E+02  0.70030803472E+02 0.  0.
          5    1    3    3  502    0 -0.39922728277E+02 -0.25227988451E+01 -0.17282965893E+02  0.43776272765E+02  0.41800000000E+01 0.  1.
         -5    1    3    3    0  502  0.32335134848E+02  0.26794775151E+02  0.99440040889E+02  0.10802460392E+03  0.41800000000E+01 0.  1.
        -11    1    4    4    0    0 -0.10847749264E+02  0.22016761818E+02  0.99444668691E+01  0.26482142783E+02  0.00000000000E+00 0.  1.
         11    1    4    4    0    0  0.18435342693E+02 -0.46288738124E+02  0.27293321565E+02  0.56810514339E+02  0.00000000000E+00 0. -1.
</event>
<event>
 8    1  0.4205029E-010  0.9734833E+02  0.7561462E-02  0.1285973E+00
         -3   -1    0    0    0  501 -0.00000000000E+00  0.00000000000E+00  0.23421668814E+02  0.23421668814E+02  0.00000000000E+00 0.  1.
          3   -1    0    0  501    0  0.00000000000E+00 -0.00000000000E+00 -0.74232830701E+03  0.74232830701E+03  0.00000000000E+00 0. -1.
         25    2    1    2    0    0 -0.53429182882E+02 -0.85948392001E+01 -0.44744943271E+03  0.46774690841E+03  0.12509047388E+03 0.  0.
         23    2    1    2    0    0  0.53429182882E+02  0.85948392001E+01 -0.27145720549E+03  0.29800306741E+03  0.11040047523E+03 0.  0.
          5    1    3    3  502    0 -0.53531733966E+02  0.33307117864E+02 -0.39716103679E+03  0.40215590532E+03  0.41800000000E+01 0.  1.
         -5    1    3    3    0  502  0.10255108360E+00 -0.41901957064E+02 -0.50288395919E+02  0.65591003092E+02  0.41800000000E+01 0.  1.
        -11    1    4    4    0    0 -0.12248529869E+02 -0.15221733507E+02 -0.20040480536E+01  0.19640363121E+02  0.00000000000E+00 0.  1.
         11    1    4    4    0    0  0.65677712751E+02  0.23816572707E+02 -0.26945315744E+03  0.27836270429E+03  0.00000000000E+00 0. -1.
</event>
<event>
 7    1  0.4205029E-010  0.1830777E+03  0.7561462E-02  0.1164857E+00
         -2   -1    0    0    0  501 -0.00000000000E+00  0.00000000000E+00  0.66502284377E+03  0.66502284377E+03  0.00000000000E+00 0.  1.
          2   -1    0    0  501    0  0.00000000000E+00 -0.00000000000E+00 -0.81384916246E+02  0.81384916246E+02  0.00000000000E+00 0. -1.
         25    2    1    2    0    0  0.14099976920E+03  0.14292849754E+02  0.87760148120E+02  0.20841128636E+03  0.12509276645E+03 0.  0.
          5    1    3    3  502    0  0.25617165153E+02 -0.28058465859E+02 -0.21544265524E+02  0.43876467882E+02  0.41800000000E+01 0.  1.
         -5    1    3    3    0  502  0.11538260404E+03  0.42351315613E+02  0.10930441364E+03  0.16453481848E+03  0.41800000000E+01 0.  1.
        -11    1    1    2    0    0 -0.14021907964E+03 -0.64779161752E+02  0.32539983759E+03  0.36019825707E+03  0.00000000000E+00 0. -1.
         11    1    1    2    0    0 -0.78068955793E+00  0.50486311998E+02  0.17047794181E+03  0.17779821658E+03  0.00000000000E+00 0.  1.
</event>
<event>
 8    1  0.4205029E-010  0.1053879E+03  0.7561462E-02  0.1269357E+00
         -1   -1    0    0    0  501 -0.00000000000E+00  0.00000000000E+00  0.20706288622E+03  0.20706288622E+03  0.00000000000E+00 0.  1.
          1   -1    0    0  501    0  0.00000000000E+00 -0.00000000000E+00 -0.72736938769E+02  0.72736938769E+02  0.00000000000E+00 0. -1.
         25    2    1    2    0    0  0.46898517551E+02 -0.52844294754E+02  0.66360584603E+02  0.15825270198E+03  0.12509276581E+03 0.  0.
         23    2    1    2    0    0 -0.46898517551E+02  0.52844294754E+02  0.67965362848E+02  0.12154712301E+03  0.71849997409E+02 0.  0.
          5    1    3    3  502    0  0.50106539053E+02  0.29023069585E+02  0.45073960002E+02  0.73499238733E+02  0.41800000000E+01 0. -1.
         -5    1    3    3    0  502 -0.32080215026E+01 -0.81867364339E+02  0.21286624601E+02  0.84753463249E+02  0.41800000000E+01 0. -1.
        -11    1    4    4    0    0 -0.81892203263E+01  0.10422791859E+02  0.62465306920E+02  0.63856185983E+02  0.00000000000E+00 0.  1.
         11    1    4    4    0    0 -0.38709297225E+02  0.42421502894E+02  0.55000559277E+01  0.57690937023E+02  0.00000000000E+00 0. -1.
</event>
<event>
 8    1  0.4205029E-010  0.1285693E+03  0.7561462E-02  0.1229594E+00
         -2   -1    0    0    0  501 -0.00000000000E+00  0.00000000000E+00  0.48670553553E+02  0.48670553553E+02  0.00000000000E+00 0.  1.
          2   -1    0    0  501    0  0.00000000000E+00 -0.00000000000E+00 -0.47549781447E+03  0.47549781447E+03  0.00000000000E+00 0. -1.
         25    2    1    2    0    0 -0.30422431148E+02 -0.83212639215E+02 -0.15916401510E+03  0.22097494154E+03  0.12508746318E+03 0.  0.
         23    2    1    2    0    0  0.30422431148E+02  0.83212639215E+02 -0.26766324582E+03  0.30319342648E+03  0.11150234553E+03 0.  0.
          5    1    3    3  502    0 -0.55557957572E+01 -0.11234002211E+03 -0.10110878848E+03  0.15129972552E+03  0.41800000000E+01 0. -1.
         -5    1    3    3    0  502 -0.24866635391E+02  0.29127382896E+02 -0.58055226620E+02  0.69675216024E+02  0.41800000000E+01 0. -1.
        -11    1    4    4    0    0  0.47077877166E+02  0.48690620923E+02 -0.25340134846E+03  0.26229629522E+03  0.00000000000E+00 0. -1.
         11    1    4    4    0    0 -0.16655446018E+02  0.34522018292E+02 -0.14261897352E+02  0.40897131258E+02  0.00000000000E+00 0.  1.
</event>
<event>
 8    1  0.4205029E-010  0.1163820E+03  0.7561462E-02  0.1249188E+00
         -2   -1    0    0    0  501 -0.00000000000E+00  0.00000000000E+00  0.24658149065E+02  0.24658149065E+02  0.00000000000E+00 0.  1.
          2   -1    0    0  501    0  0.00000000000E+00 -0.00000000000E+00 -0.89565084192E+03  0.89565084192E+03  0.00000000000E+00 0. -1.
         25    2    1    2    0    0 -0.46103518143E+01  0.10495728194E+03 -0.54446578356E+03  0.56844299005E+03  0.12508859698E+03 0.  0.
         23    2    1    2    0    0  0.46103518143E+01 -0.10495728194E+03 -0.32652690929E+03  0.35186600093E+03  0.78438343566E+02 0.  0.
          5    1    3    3  502    0  0.19198481622E+02  0.33551719328E+02 -0.31703112417E+02  0.50168309752E+02  0.41800000000E+01 0. -1.
         -5    1    3    3    0  502 -0.23808833436E+02  0.71405562617E+02 -0.51276267114E+03  0.51827468030E+03  0.41800000000E+01 0. -1.
        -11    1    4    4    0    0  0.21427864464E+02 -0.13106059915E+02 -0.15072603364E+03  0.15280464456E+03  0.00000000000E+00 0. -1.
         11    1    4    4    0    0 -0.16817512650E+02 -0.91851222030E+02 -0.17580087566E+03  0.19906135637E+03  0.00000000000E+00 0.  1.
</event>
<event>
 8    1  0.4205029E-010  0.3296096E+03  0.7561462E-02  0.1071310E+00
          2   -1    0    0  501    0  0.00000000000E+00  0.00000000000E+00  0.29283700493E+03  0.29283700493E+03  0.00000000000E+00 0. -1.
         -2   -1    0    0    0  501 -0.00000000000E+00 -0.00000000000E+00 -0.38087536453E+03  0.38087536453E+03  0.00000000000E+00 0.  1.
         25    2    1    2    0    0  0.19793875082E+03  0.24667573144E+03 -0.79374860862E+01  0.34020469074E+03  0.12509021688E+03 0.  0.
         23    2    1    2    0    0 -0.19793875082E+03 -0.24667573144E+03 -0.80100873509E+02  0.33350767871E+03  0.69156028396E+02 0.  0.
          5    1    3    3  502    0  0.20891215430E+03  0.20644182685E+03  0.11597140897E+02  0.29396340276E+03  0.41800000000E+01 0.  1.
         -5    1    3    3    0  502 -0.10973403480E+02  0.40233904599E+02 -0.19534626983E+02  0.46241287986E+02  0.41800000000E+01 0.  1.
        -11    1    4    4    0    0 -0.10477273424E+03 -0.18251806230E+03 -0.57289652084E+02  0.21811069011E+03  0.00000000000E+00 0.  1.
         11    1    4    4    0    0 -0.93166016575E+02 -0.64157669149E+02 -0.22811221426E+02  0.11539698860E+03  0.00000000000E+00 0. -1.
</event>
<event>
 8    1  0.4358339E-010  0.1290224E+03  0.7561462E-02  0.1228914E+00
         -1   -1    0    0    0  501 -0.00000000000E+00  0.00000000000E+00  0.57417145169E+02  0.57417145169E+02  0.00000000000E+00 0.  1.
          1   -1    0    0  501    0  0.00000000000E+00 -0.00000000000E+00 -0.37668236034E+03  0.37668236034E+03  0.00000000000E+00 0. -1.
         25    2    1    2    0    0 -0.29826131949E+02  0.74706301206E+02 -0.10658406515E+03  0.18297060841E+03  0.12508977181E+03 0.  0.
         23    2    1    2    0    0  0.29826131949E+02 -0.74706301206E+02 -0.21268115002E+03  0.25112889710E+03  0.10659184677E+03 0.  0.
          5    1    3    3  502    0 -0.34760682630E+02  0.97791277620E+02 -0.11732790713E+03  0.15669955082E+03  0.41800000000E+01 0.  1.
         -5    1    3    3    0  502  0.49345506805E+01 -0.23084976414E+02  0.10743841979E+02  0.26271057590E+02  0.41800000000E+01 0.  1.
        -11    1    4    4    0    0 -0.23415286856E+02 -0.73291719340E+02 -0.15217926192E+03  0.17052413184E+03  0.00000000000E+00 0. -1.
         11    1    4    4    0    0  0.53241418806E+02 -0.14145818658E+01 -0.60501888098E+02  0.80604765254E+02  0.00000000000E+00 0.  1.
</event>
<event>
 8    1  0.4205029E-010  0.2378204E+03  0.7561462E-02  0.1121253E+00
          2   -1    0    0  501    0  0.00000000000E+00  0.00000000000E+00  0.42216296820E+03  0.42216296820E+03  0.00000000000E+00 0. -1.
         -2   -1    0    0    0  501 -0.00000000000E+00 -0.00000000000E+00 -0.13690796144E+03  0.13690796144E+03  0.00000000000E+00 0.  1.
         25    2    1    2    0    0  0.18181601893E+03 -0.12271523349E+03  0.17831462056E+03  0.30912766886E+03  0.12509084089E+03 0.  0.
         23    2    1    2    0    0 -0.18181601893E+03  0.12271523349E+03  0.10694038620E+03  0.24994326079E+03  0.54030492710E+02 0.  0.
          5    1    3    3  502    0  0.15837843284E+03 -0.38638878807E+02  0.96888733933E+02  0.18968813908E+03  0.41800000000E+01 0. -1.
         -5    1    3    3    0  502  0.23437586090E+02 -0.84076354687E+02  0.81425886630E+02  0.11943952977E+03  0.41800000000E+01 0. -1.
        -11    1    4    4    0    0 -0.13612005987E+03  0.63010392993E+02  0.61657713773E+02  0.16217476373E+03  0.00000000000E+00 0.  1.
         11    1    4    4    0    0 -0.45695959064E+02  0.59704840501E+02  0.45282672426E+02  0.87768497060E+02  0.00000000000E+00 0. -1.
</event>
<event>
 8    1  0.4205029E-010  0.2075060E+03  0.7561462E-02  0.1143556E+00
         -2   -1    0    0    0  501 -0.00000000000E+00  0.00000000000E+00  0.51818263163E+02  0.51818263163E+02  0.00000000000E+00 0.  1.
          2   -1    0    0  501    0  0.00000000000E+00 -0.00000000000E+00 -0.98950460575E+03  0.98950460575E+03  0.00000000000E+00 0. -1.
         25    2    1    2    0    0 -0.43285736564E+01 -0.20287695378E+03 -0.51825662803E+03  0.57045157185E+03  0.12508904193E+03 0.  0.
         23    2    1    2    0    0  0.43285736564E+01  0.20287695378E+03 -0.41942971456E+03  0.47087129707E+03  0.67975716379E+02 0.  0.
          5    1    3    3  502    0 -0.89663109082E+01 -0.53630925343E+02 -0.35401198464E+02  0.65018367691E+02  0.41800000000E+01 0.  1.
         -5    1    3    3    0  502  0.46377372518E+01 -0.14924602843E+03 -0.48285542956E+03  0.50543320416E+03  0.41800000000E+01 0.  1.
        -11    1    4    4    0    0  0.30169302911E+02  0.13813932225E+03 -0.31544753747E+03  0.34568744276E+03  0.00000000000E+00 0. -1.
         11    1    4    4    0    0 -0.25840729255E+02  0.64737631530E+02 -0.10398217709E+03  0.12518385430E+03  0.00000000000E+00 0.  1.
</event>
<event>
 7    1  0.4205029E-010  0.1414424E+03  0.7561462E-02  0.1211401E+00
          2   -1    0    0  501    0  0.00000000000E+00  0.00000000000E+00  0.50328027852E+03  0.50328027852E+03  0.00000000000E+00 0. -1.
         -2   -1    0    0    0  501 -0.00000000000E+00 -0.00000000000E+00 -0.53751068166E+02  0.53751068166E+02  0.00000000000E+00 0.  1.
         25    2    1    2    0    0 -0.33966985858E+02  0.64168343850E+02  0.22596624654E+03  0.26829100997E+03  0.12509192210E+03 0.  0.
          5    1    3    3  502    0 -0.57704204283E+01 -0.22250673101E+02 -0.13848789255E+01  0.23404710957E+02  0.41800000000E+01 0. -1.
         -5    1    3    3    0  502 -0.28196565429E+02  0.86419016951E+02  0.22735112547E+03  0.24488629901E+03  0.41800000000E+01 0. -1.
        -11    1    1    2    0    0  0.47854207986E+02  0.40649551073E+02  0.33302023555E+02  0.71073454941E+02  0.00000000000E+00 0.  1.
         11    1    1    2    0    0 -0.13887222129E+02 -0.10481789492E+03  0.19026094026E+03  0.21766688178E+03  0.00000000000E+00 0. -1.
</event>
<event>
 8    1  0.4205029E-010  0.8759814E+02  0.7561462E-02  0.1308775E+00
          1   -1    0    0  501    0  0.00000000000E+00  0.00000000000E+00  0.30822831553E+02  0.30822831553E+02  0.00000000000E+00 0. -1.
         -1   -1    0    0    0  501 -0.00000000000E+00 -0.00000000000E+00 -0.27457968207E+03  0.27457968207E+03  0.00000000000E+00 0.  1.
         25    2    1    2    0    0 -0.11119772985E+02 -0.48938706997E+01 -0.15504442250E+03  0.19958222811E+03  0.12508674393E+03 0.  0.
         23    2    1    2    0    0  0.11119772985E+02  0.48938706997E+01 -0.88712428013E+02  0.10582028551E+03  0.56395377644E+02 0.  0.
          5    1    3    3  502    0  0.17218329246E+02  0.53847360196E+02 -0.48562711929E+02  0.74644614354E+02  0.41800000000E+01 0. -1.
         -5    1    3    3    0  502 -0.28338102230E+02 -0.58741230896E+02 -0.10648171057E+03  0.12493761376E+03  0.41800000000E+01 0. -1.
        -11    1    4    4    0    0  0.53198945422E+01  0.28425773943E+02 -0.27181575995E+02  0.39688335513E+02  0.00000000000E+00 0.  1.
         11    1    4    4    0    0  0.57998784424E+01 -0.23531903244E+02 -0.61530852019E+02  0.66131949997E+02  0.00000000000E+00 0. -1.
</event>
<event>
 8    1  0.4205029E-010  0.8565590E+02  0.7561462E-02  0.1313726E+00
         -1   -1    0    0    0  501 -0.00000000000E+00  0.00000000000E+00  0.27738913973E+02  0.27738913973E+02  0.00000000000E+00 0.  1.
          1   -1    0    0  501    0  0.00000000000E+00 -0.00000000000E+00 -0.31936097330E+03  0.31936097330E+03  0.00000000000E+00 0. -1.
         25    2    1    2    0    0  0.96360978182E+01 -0.22581464564E+01 -0.17593240004E+03  0.21609759812E+03  0.12509200184E+03 0.  0.
         23    2    1    2    0    0 -0.96360978182E+01  0.22581464564E+01 -0.11568965929E+03  0.13100228915E+03  0.60659285273E+02 0.  0.
          5    1    3    3  502    0  0.55410286861E+02 -0.24764238590E+02 -0.14256362677E+03  0.15500137897E+03  0.41800000000E+01 0. -1.
         -5    1    3    3    0  502 -0.45774189043E+02  0.22506092134E+02 -0.33368773261E+02  0.61096219152E+02  0.41800000000E+01 0. -1.
        -11    1    4    4    0    0  0.15811535029E+02  0.21997745363E+02 -0.70370465609E+02  0.75404959194E+02  0.00000000000E+00 0. -1.
         11    1    4    4    0    0 -0.25447632847E+02 -0.19739598907E+02 -0.45319193679E+02  0.55597329956E+02  0.00000000000E+00 0.  1.
</event>
<event>
 8    1  0.4205029E-010  0.1234853E+03  0.7561462E-02  0.1237456E+00
          1   -1    0    0  501    0  0.00000000000E+00  0.00000000000E+00  0.54237300260E+03  0.54237300260E+03  0.00000000000E+00 0. -1.
         -1   -1    0    0    0  501 -0.00000000000E+00 -0.00000000000E+00 -0.45144250638E+02  0.45144250638E+02  0.00000000000E+00 0.  1.
         25    2    1    2    0    0  0.57867668981E+02  0.47573192887E+02  0.10088003066E+03  0.17730170721E+03  0.12508892437E+03 0.  0.
         23    2    1    2    0    0 -0.57867668981E+02 -0.47573192887E+02  0.39634872131E+03  0.41021554603E+03  0.74649913123E+02 0.  0.
          5    1    3    3  502    0  0.96462526955E+02  0.25303758424E+02  0.58656116001E+02  0.11577267226E+03  0.41800000000E+01 0. -1.
         -5    1    3    3    0  502 -0.38594857975E+02  0.22269434463E+02  0.42223914658E+02  0.61529034954E+02  0.41800000000E+01 0. -1.
        -11    1    4    4    0    0 -0.63744108197E+02 -0.10181860578E+02  0.29621020943E+03  0.30316244785E+03  0.00000000000E+00 0. -1.
         11    1    4    4    0    0  0.58764392167E+01 -0.37391332309E+02  0.10013851188E+03  0.10705309819E+03  0.00000000000E+00 0.  1.
</event>
<event>
 8    1  0.4205029E-010  0.1003819E+03  0.7561462E-02  0.1279495E+00
          2   -1    0    0  501    0  0.00000000000E+00  0.00000000000E+00  0.17999367653E+03  0.17999367653E+03  0.00000000000E+00 0.  1.
         -2   -1    0    0    0  501 -0.00000000000E+00 -0.00000000000E+00 -0.69884694327E+02  0.69884694327E+02  0.00000000000E+00 0. -1.
         25    2    1    2    0    0  0.22600286437E+02  0.47190404658E+02  0.48359576242E+02  0.14395921051E+03  0.12509156022E+03 0.  0.
         23    2    1    2    0    0 -0.22600286437E+02 -0.47190404658E+02  0.61749405959E+02  0.10591916035E+03  0.68324023253E+02 0.  0.
          5    1    3    3  502    0 -0.35903338468E+02 -0.21860780810E+02  0.29211085553E+02  0.51358576401E+02  0.41800000000E+01 0. -1.
         -5    1    3    3    0  502  0.58503624905E+02  0.69051185468E+02  0.19148490689E+02  0.92600634108E+02  0.41800000000E+01 0. -1.
        -11    1    4    4    0    0  0.64927489738E+01 -0.36270877493E+02  0.64955983095E+02  0.74679395305E+02  0.00000000000E+00 0.  1.
         11    1    4    4    0    0 -0.29093035411E+02 -0.10919527166E+02 -0.32065771362E+01  0.31239765042E+02  0.00000000000E+00 0. -1.
</event>
<event>
 8    1  0.4205029E-010  0.9548105E+02  0.7561462E-02  0.1290096E+00
          2   -1    0    0  501    0  0.00000000000E+00  0.00000000000E+00  0.63641202464E+02  0.63641202464E+02  0.00000000000E+00 0. -1.
         -2   -1    0    0    0  501 -0.00000000000E+00 -0.00000000000E+00 -0.23387765635E+03  0.23387765635E+03  0.00000000000E+00 0.  1.
         25    2    1    2    0    0 -0.28737786595E+02  0.38625619495E+02 -0.43465353581E+02  0.14090591365E+03  0.12508973052E+03 0.  0.
         23    2    1    2    0    0  0.28737786595E+02 -0.38625619495E+02 -0.12677110031E+03  0.15661294516E+03  0.78351157360E+02 0.  0.
          5    1    3    3  502    0 -0.25668565819E+02  0.66434532303E+02 -0.71552046296E+02  0.10104251621E+03  0.41800000000E+01 0.  1.
         -5    1    3    3    0  502 -0.30692207763E+01 -0.27808912808E+02  0.28086692716E+02  0.39863397440E+02  0.41800000000E+01 0.  1.
        -11    1    4    4    0    0  0.55729366861E+02 -0.24693430728E+02 -0.75689210575E+02  0.97182222908E+02  0.00000000000E+00 0.  1.
         11    1    4    4    0    0 -0.26991580266E+02 -0.13932188767E+02 -0.51081889733E+02  0.59430722255E+02  0.00000000000E+00 0. -1.
</event>
<event>
 8    1  0.4205029E-010  0.1718124E+03  0.7561462E-02  0.1175971E+00
         -2   -1    0    0    0  501 -0.00000000000E+00  0.00000000000E+00  0.18820841019E+03  0.18820841019E+03  0.00000000000E+00 0.  1.
          2   -1    0    0  501    0  0.00000000000E+00 -0.00000000000E+00 -0.19391230101E+03  0.19391230101E+03  0.00000000000E+00 0. -1.
         25    2    1    2    0    0  0.13924253796E+03  0.19459654507E+02  0.38173698846E+02  0.19200795215E+03  0.12507061955E+03 0.  0.
         23    2    1    2    0    0 -0.13924253796E+03 -0.19459654507E+02 -0.43877589672E+02  0.19011275905E+03  0.12021004844E+03 0.  0.
          5    1    3    3  502    0  0.11241182347E+03 -0.25716257378E+02 -0.15915539247E+02  0.11648399349E+03  0.41800000000E+01 0. -1.
         -5    1    3    3    0  502  0.26830714492E+02  0.45175911884E+02  0.54089238092E+02  0.75523958663E+02  0.41800000000E+01 0. -1.
        -11    1    4    4    0    0 -0.59909752177E+02  0.43671698783E+02 -0.48547487889E+02  0.88618588686E+02  0.00000000000E+00 0.  1.
         11    1    4    4    0    0 -0.79332785783E+02 -0.63131353289E+02  0.46698982169E+01  0.10149417036E+03  0.00000000000E+00 0. -1.
</event>
<event>
 8    1  0.4205029E-010  0.1323448E+03  0.7561462E-02  0.1224017E+00
         -1   -1    0    0    0  501 -0.00000000000E+00  0.00000000000E+00  0.82234982242E+02  0.82234982242E+02  0.00000000000E+00 0.  1.
          1   -1    0    0  501    0  0.00000000000E+00 -0.00000000000E+00 -0.22525092116E+03  0.22525092116E+03  0.00000000000E+00 0. -1.
         25    2    1    2    0    0 -0.22511551024E+02  0.88369982163E+02 -0.99683068273E+02  0.18412166337E+03  0.12509216261E+03 0.  0.
         23    2    1    2    0    0  0.22511551024E+02 -0.88369982163E+02 -0.43332870648E+02  0.12336424003E+03  0.70887053563E+02 0.  0.
          5    1    3    3  502    0 -0.21591863393E+02  0.12027781594E+03 -0.73837341685E+02  0.14283692449E+03  0.41800000000E+01 0. -1.
         -5    1    3    3    0  502 -0.91968763061E+00 -0.31907833775E+02 -0.25845726588E+02  0.41284738880E+02  0.41800000000E+01 0. -1.
        -11    1    4    4    0    0 -0.19685562100E+02 -0.47767934290E+02 -0.20302341551E+01  0.51705113405E+02  0.00000000000E+00 0.  1.
         11    1    4    4    0    0  0.42197113124E+02 -0.40602047874E+02 -0.41302636493E+02  0.71659126626E+02  0.00000000000E+00 0. -1.
</event>
<event>
 8    1  0.4205029E-010  0.7732597E+02  0.7561462E-02  0.1336816E+00
         -2   -1    0    0    0  501 -0.00000000000E+00  0.00000000000E+00  0.55210654786E+02  0.55210654786E+02  0.00000000000E+00 0.  1.
          2   -1    0    0  501    0  0.00000000000E+00 -0.00000000000E+00 -0.21651009030E+03  0.21651009030E+03  0.00000000000E+00 0. -1.
         25    2    1    2    0    0  0.15154033345E+02  0.30241992158E+02 -0.66875146335E+02  0.14582373670E+03  0.12509218269E+03 0.  0.
         23    2    1    2    0    0 -0.15154033345E+02 -0.30241992158E+02 -0.94424289178E+02  0.12589700839E+03  0.76091310394E+02 0.  0.
          5    1    3    3  502    0  0.34723029201E+02 -0.25678509450E+02  0.13902588772E+02  0.45561266214E+02  0.41800000000E+01 0.  1.
         -5    1    3    3    0  502 -0.19568995855E+02  0.55920501608E+02 -0.80777735107E+02  0.10026247049E+03  0.41800000000E+01 0.  1.
        -11    1    4    4    0    0  0.10671821509E+02 -0.22511015752E+02 -0.95718931176E+02  0.98907772142E+02  0.00000000000E+00 0. -1.
         11    1    4    4    0    0 -0.25825854855E+02 -0.77309764054E+01  0.12946419977E+01  0.26989236244E+02  0.00000000000E+00 0.  1.
</event>
<event>
 8    1  0.4205029E-010  0.1139695E+03  0.7561462E-02  0.1253391E+00
          2   -1    0    0  501    0  0.00000000000E+00  0.00000000000E+00  0.89993322702E+03  0.89993322702E+03  0.00000000000E+00 0. -1.
         -2   -1    0    0    0  501 -0.00000000000E+00 -0.00000000000E+00 -0.28943410125E+02  0.28943410125E+02  0.00000000000E+00 0.  1.
         25    2    1    2    0    0 -0.11749324335E+02 -0.55558792786E+02  0.71516755158E+03  0.72824135068E+03  0.12508401948E+03 0.  0.
         23    2    1    2    0    0  0.11749324335E+02  0.55558792786E+02  0.15582226531E+03  0.20063528646E+03  0.11291197336E+03 0.  0.
          5    1    3    3  502    0 -0.45351253949E+01  0.40469078407E+02  0.22187289558E+03  0.22561774722E+03  0.41800000000E+01 0.  1.
         -5    1    3    3    0  502 -0.72141989403E+01 -0.96027871193E+02  0.49329465600E+03  0.50262360346E+03  0.41800000000E+01 0.  1.
        -11    1    4    4    0    0  0.41320855515E+02  0.38485133803E+02  0.18940787001E+02  0.59558979479E+02  0.00000000000E+00 0.  1.
         11    1    4    4    0    0 -0.29571531180E+02  0.17073658983E+02  0.13688147831E+03  0.14107630699E+03  0.00000000000E+00 0. -1.
</event>
<event>
 8    1  0.4205029E-010  0.1269128E+03  0.7561462E-02  0.1232110E+00
         -2   -1    0    0    0  501 -0.00000000000E+00  0.00000000000E+00  0.28214969240E+02  0.28214969240E+02  0.00000000000E+00 0. -1.
          2   -1    0    0  501    0  0.00000000000E+00 -0.00000000000E+00 -0.71648794949E+03  0.71648794949E+03  0.00000000000E+00 0.  1.
         25    2    1    2    0    0 -0.58345345151E+02 -0.49844810119E+02 -0.22408530061E+03  0.26786189628E+03  0.12508832531E+03 0.  0.
         23    2    1    2    0    0  0.58345345151E+02  0.49844810119E+02 -0.46418767964E+03  0.47684102246E+03  0.77578826830E+02 0.  0.
          5    1    3    3  502    0  0.13283503924E+02  0.33638519169E+02 -0.48956256575E+02  0.61009744354E+02  0.41800000000E+01 0. -1.
         -5    1    3    3    0  502 -0.71628849075E+02 -0.83483329288E+02 -0.17512904404E+03  0.20685215192E+03  0.41800000000E+01 0. -1.
        -11    1    4    4    0    0  0.68779065436E+02  0.14241892453E+02 -0.34230639169E+03  0.34943820217E+03  0.00000000000E+00 0.  1.
         11    1    4    4    0    0 -0.10433720285E+02  0.35602917666E+02 -0.12188128795E+03  0.12740282029E+03  0.00000000000E+00 0. -1.
</event>
<event>
 8    1  0.4205029E-010  0.1886033E+03  0.7561462E-02  0.1159727E+00
          2   -1    0    0  501    0  0.00000000000E+00  0.00000000000E+00  0.43238082542E+03  0.43238082542E+03  0.00000000000E+00 0. -1.
         -2   -1    0    0    0  501 -0.00000000000E+00 -0.00000000000E+00 -0.94249219821E+02  0.94249219821E+02  0.00000000000E+00 0.  1.
         25    2    1    2    0    0  0.60707582658E+02  0.15384782137E+03  0.24576684995E+03  0.32156138248E+03  0.12508323405E+03 0.  0.
         23    2    1    2    0    0 -0.60707582658E+02 -0.15384782137E+03  0.92364755656E+02  0.20506866276E+03  0.78532449514E+02 0.  0.
          5    1    3    3  502    0 -0.26801954048E+02  0.16621579494E+02  0.70073252396E+01  0.32576013456E+02  0.41800000000E+01 0. -1.
         -5    1    3    3    0  502  0.87509536706E+02  0.13722624188E+03  0.23875952471E+03  0.28898536903E+03  0.41800000000E+01 0. -1.
        -11    1    4    4    0    0 -0.77752242503E+02 -0.10364224571E+03  0.58525280666E+02  0.14217009104E+03  0.00000000000E+00 0.  1.
         11    1    4    4    0    0  0.17044659845E+02 -0.50205575660E+02  0.33839474990E+02  0.62898571718E+02  0.00000000000E+00 0. -1.
</event>
<event>
 8    1  0.4205029E-010  0.8490650E+02  0.7561462E-02  0.1315677E+00
         -2   -1    0    0    0  501 -0.00000000000E+00  0.00000000000E+00  0.94200585735E+02  0.94200585735E+02  0.00000000000E+00 0.  1.
          2   -1    0    0  501    0  0.00000000000E+00 -0.00000000000E+00 -0.18117507568E+03  0.18117507568E+03  0.00000000000E+00 0. -1.
         25    2    1    2    0    0  0.44074032721E+02  0.66133753592E+02 -0.69083609261E+02  0.16351219815E+03  0.12508996822E+03 0.  0.
         23    2    1    2    0    0 -0.44074032721E+02 -0.66133753592E+02 -0.17890880679E+02  0.11186346326E+03  0.76662618513E+02 0.  0.
          5    1    3    3  502    0  0.24193503575E+01  0.21522437461E+01  0.34423247954E+02  0.34826969564E+02  0.41800000000E+01 0.  1.
         -5    1    3    3    0  502  0.41654682363E+02  0.63981509846E+02 -0.10350685721E+03  0.12868522858E+03  0.41800000000E+01 0.  1.
        -11    1    4    4    0    0 -0.34061780932E+02 -0.17277240384E+02 -0.41744868116E+02  0.56580402698E+02  0.00000000000E+00 0. -1.
         11    1    4    4    0    0 -0.10012251789E+02 -0.48856513209E+02  0.23853987437E+02  0.55283060565E+02  0.00000000000E+00 0.  1.
</event>
<event>
 8    1  0.4205029E-010  0.1279219E+03  0.7561462E-02  0.1230572E+00
         -2   -1    0    0    0  501 -0.00000000000E+00  0.00000000000E+00  0.16136200872E+02  0.16136200872E+02  0.00000000000E+00 0.  1.
          2   -1    0    0  501    0  0.00000000000E+00 -0.00000000000E+00 -0.11968848546E+04  0.11968848546E+04  0.00000000000E+00 0. -1.
         25    2    1    2    0    0 -0.81162146810E+02  0.30819910689E+00 -0.89160733674E+03  0.90399036291E+03  0.12509014448E+03 0.  0.
         23    2    1    2    0    0  0.81162146810E+02 -0.30819910689E+00 -0.28914131697E+03  0.30903069254E+03  0.72868914450E+02 0.  0.
          5    1    3    3  502    0 -0.89176988161E+02 -0.45554282937E+02 -0.67467578680E+03  0.68207962703E+03  0.41800000000E+01 0. -1.
         -5    1    3    3    0  502  0.80148413509E+01  0.45862482044E+02 -0.21693154994E+03  0.22191073589E+03  0.41800000000E+01 0. -1.
        -11    1    4    4    0    0  0.52031008643E+01  0.27497081357E+02 -0.66374785412E+02  0.72033144317E+02  0.00000000000E+00 0.  1.
         11    1    4    4    0    0  0.75959045945E+02 -0.27805280464E+02 -0.22276653155E+03  0.23699754822E+03  0.00000000000E+00 0. -1.
</event>
<event>
 8    1  0.4205029E-010  0.1362694E+03  0.7561462E-02  0.1218439E+00
         -1   -1    0    0    0  501 -0.00000000000E+00  0.00000000000E+00  0.73714372423E+02  0.73714372423E+02  0.00000000000E+00 0.  1.
          1   -1    0    0  501    0  0.00000000000E+00 -0.00000000000E+00 -0.31918545008E+03  0.31918545008E+03  0.00000000000E+00 0. -1.
         25    2    1    2    0    0  0.87310831458E+02 -0.77202484046E+02 -0.15613215982E+03  0.23152754030E+03  0.12507735908E+03 0.  0.
         23    2    1    2    0    0 -0.87310831458E+02  0.77202484046E+02 -0.89338917840E+02  0.16137228220E+03  0.66904158243E+02 0.  0.
          5    1    3    3  502    0  0.22463793312E+02 -0.72368384363E+02 -0.16823030328E+02  0.77732180046E+02  0.41800000000E+01 0.  1.
         -5    1    3    3    0  502  0.64847038147E+02 -0.48340996831E+01 -0.13930912949E+03  0.15379536025E+03  0.41800000000E+01 0.  1.
        -11    1    4    4    0    0 -0.70584122322E+02  0.22192052009E+02 -0.33493235503E+02  0.81218238843E+02  0.00000000000E+00 0.  1.
         11    1    4    4    0    0 -0.16726709136E+02  0.55010432037E+02 -0.55845682337E+02  0.80154043361E+02  0.00000000000E+00 0. -1.
</event>
<event>
 8    1  0.4205029E-010  0.1357632E+03  0.7561462E-02  0.1219146E+00
          1   -1    0    0  501    0  0.00000000000E+00  0.00000000000E+00  0.14646255966E+04  0.14646255966E+04  0.00000000000E+00 0.  1.
         -1   -1    0    0    0  501 -0.00000000000E+00 -0.00000000000E+00 -0.15293599946E+02  0.15293599946E+02  0.00000000000E+00 0. -1.
         25    2    1    2    0    0 -0.76602415145E+02  0.54051169502E+02  0.10793942695E+04  0.10906552979E+04  0.12509009181E+03 0.  0.
         23    2    1    2    0    0  0.76602415145E+02 -0.54051169502E+02  0.36993772715E+03  0.38926389856E+03  0.76700728934E+02 0.  0.
          5    1    3    3  502    0 -0.69548208025E+01 -0.36591127992E+02  0.16919353174E+03  0.17329513485E+03  0.41800000000E+01 0. -1.
         -5    1    3    3    0  502 -0.69647594342E+02  0.90642297493E+02  0.91020073772E+03  0.91736016309E+03  0.41800000000E+01 0. -1.
        -11    1    4    4    0    0 -0.30592097621E+01 -0.38342175702E+02  0.92220027326E+02  0.99920041242E+02  0.00000000000E+00 0. -1.
         11    1    4    4    0    0  0.79661624907E+02 -0.15708993800E+02  0.27771769983E+03  0.28934385732E+03  0.00000000000E+00 0.  1.
</event>
<event>
 8    1  0.4205029E-010  0.1188130E+03  0.7561462E-02  0.1245068E+00
         -2   -1    0    0    0  501 -0.00000000000E+00  0.00000000000E+00  0.77224213304E+02  0.77224213304E+02  0.00000000000E+00 0. -1.
          2   -1    0    0  501    0  0.00000000000E+00 -0.00000000000E+00 -0.38625615566E+03  0.38625615566E+03  0.00000000000E+00 0.  1.
         25    2    1    2    0    0 -0.51014756130E+02 -0.69768102854E+02 -0.18670388223E+02  0.15318359783E+03  0.12508612125E+03 0.  0.
         23    2    1    2    0    0  0.51014756130E+02  0.69768102854E+02 -0.29036155413E+03  0.31029677113E+03  0.67113042995E+02 0.  0.
          5    1    3    3  502    0 -0.24006671285E+02  0.31855451041E+02 -0.25831972145E+02  0.47705903326E+02  0.41800000000E+01 0. -1.
         -5    1    3    3    0  502 -0.27008084845E+02 -0.10162355390E+03  0.71615839222E+01  0.10547769450E+03  0.41800000000E+01 0. -1.
        -11    1    4    4    0    0  0.30563718714E+02  0.15455237507E+02 -0.37187484518E+02  0.50556050803E+02  0.00000000000E+00 0. -1.
         11    1    4    4    0    0  0.20451037416E+02  0.54312865347E+02 -0.25317406961E+03  0.25974072033E+03  0.00000000000E+00 0.  1.
</event>
<event>
 8    1  0.4205029E-010  0.5422690E+02  0.7561462E-02  0.1423791E+00
          1   -1    0    0  501    0  0.00000000000E+00  0.00000000000E+00  0.27976271636E+03  0.27976271636E+03  0.00000000000E+00 0. -1.
         -1   -1    0    0    0  501 -0.00000000000E+00 -0.00000000000E+00 -0.31796196763E+02  0.31796196763E+02  0.00000000000E+00 0.  1.
         25    2    1    2    0    0  0.10348666683E+02  0.19929601696E+02  0.16147356017E+03  0.20549202197E+03  0.12509586937E+03 0.  0.
         23    2    1    2    0    0 -0.10348666683E+02 -0.19929601696E+02  0.86492959429E+02  0.10606689116E+03  0.57139036066E+02 0.  0.
          5    1    3    3  502    0  0.56403715550E+01  0.34479060662E+02 -0.73331274572E+01  0.35942545454E+02  0.41800000000E+01 0.  1.
         -5    1    3    3    0  502  0.47082951282E+01 -0.14549458966E+02  0.16880668762E+03  0.16954947651E+03  0.41800000000E+01 0.  1.
        -11    1    4    4    0    0 -0.17833199427E+02  0.13997858212E+02  0.53709827980E+02  0.58298444731E+02  0.00000000000E+00 0. -1.
         11    1    4    4    0    0  0.74845327440E+01 -0.33927459908E+02  0.32783131449E+02  0.47768446425E+02  0.00000000000E+00 0.  1.
</event>
<event>
 7    1  0.4205029E-010  0.1252107E+03  0.7561462E-02  0.1234740E+00
          1   -1    0    0  501    0  0.00000000000E+00  0.00000000000E+00  0.51883723854E+03  0.51883723854E+03  0.00000000000E+00 0. -1.
         -1   -1    0    0    0  501 -0.00000000000E+00 -0.00000000000E+00 -0.50624607063E+02  0.50624607063E+02  0.00000000000E+00 0.  1.
         25    2    1    2    0    0 -0.19037986698E+02  0.32379920257E+02  0.25806251134E+03  0.28922610952E+03  0.12507828945E+03 0.  0.
          5    1    3    3  502    0  0.28192639325E+02  0.94833358139E+01  0.46425038740E+01  0.30393812075E+02  0.41800000000E+01 0. -1.
         -5    1    3    3    0  502 -0.47230626022E+02  0.22896584443E+02  0.25342000747E+03  0.25883229744E+03  0.41800000000E+01 0. -1.
        -11    1    1    2    0    0  0.91639587293E+02 -0.23362209314E+02  0.56771191742E+02  0.11030219851E+03  0.00000000000E+00 0.  1.
         11    1    1    2    0    0 -0.72601600596E+02 -0.90177109433E+01  0.15337892840E+03  0.16993353758E+03  0.00000000000E+00 0. -1.
</event>
<event>
 8    1  0.4205029E-010  0.4389428E+03  0.7561462E-02  0.1031072E+00
          2   -1    0    0  501    0  0.00000000000E+00  0.00000000000E+00  0.17722910758E+04  0.17722910758E+04  0.00000000000E+00 0. -1.
         -2   -1    0    0    0  501 -0.00000000000E+00 -0.00000000000E+00 -0.18484066659E+03  0.18484066659E+03  0.00000000000E+00 0.  1.
         25    2    1    2    0    0  0.39089366049E+03 -0.19573294929E+03  0.19859865822E+03  0.49618358589E+03  0.12508989811E+03 0.  0.
         23    2    1    2    0    0 -0.39089366049E+03  0.19573294929E+03  0.13888517510E+04  0.14609481565E+04  0.11979602878E+03 0.  0.
          5    1    3    3  502    0  0.73074369526E+02 -0.43354564461E+02  0.97690356109E+02  0.12953902816E+03  0.41800000000E+01 0. -1.
         -5    1    3    3    0  502  0.31781929097E+03 -0.15237838483E+03  0.10090830211E+03  0.36664455772E+03  0.41800000000E+01 0. -1.
        -11    1    4    4    0    0 -0.20654348129E+03  0.13271483599E+03  0.94210855676E+03  0.97357175908E+03  0.00000000000E+00 0. -1.
         11    1    4    4    0    0 -0.18435017920E+03  0.63018113299E+02  0.44674319421E+03  0.48737639740E+03  0.00000000000E+00 0.  1.
</event>
<event>
 8    1  0.4205029E-010  0.4310387E+03  0.7561462E-02  0.1033532E+00
         -2   -1    0    0    0  501 -0.00000000000E+00  0.00000000000E+00  0.16112695219E+03  0.16112695219E+03  0.00000000000E+00 0.  1.
          2   -1    0    0  501    0  0.00000000000E+00 -0.00000000000E+00 -0.13601866485E+04  0.13601866485E+04  0.00000000000E+00 0. -1.
         25    2    1    2    0    0  0.40586640019E+03 -0.13771065164E+03 -0.86105877901E+03  0.96992877783E+03  0.12509138571E+03 0.  0.
         23    2    1    2    0    0 -0.40586640019E+03  0.13771065164E+03 -0.33800091733E+03  0.55138482288E+03  0.78031047773E+02 0.  0.
          5    1    3    3  502    0  0.28279702564E+02 -0.22795563607E+02 -0.22011258066E+02  0.42677244275E+02  0.41800000000E+01 0. -1.
         -5    1    3    3    0  502  0.37758669762E+03 -0.11491508803E+03 -0.83904752094E+03  0.92725153355E+03  0.41800000000E+01 0. -1.
        -11    1    4    4    0    0 -0.97589148847E+02  0.13808678340E+02 -0.44792596201E+02  0.10826217366E+03  0.00000000000E+00 0. -1.
         11    1    4    4    0    0 -0.30827725134E+03  0.12390197330E+03 -0.29320832113E+03  0.44312264923E+03  0.00000000000E+00 0.  1.
</event>
<event>
 8    1  0.4205029E-010  0.1548690E+03  0.7561462E-02  0.1194615E+00
          1   -1    0    0  501    0  0.00000000000E+00  0.00000000000E+00  0.11961459142E+04  0.11961459142E+04  0.00000000000E+00 0. -1.
         -1   -1    0    0    0  501 -0.00000000000E+00 -0.00000000000E+00 -0.27947515043E+02  0.27947515043E+02  0.00000000000E+00 0.  1.
         25    2    1    2    0    0  0.13171892198E+03  0.62572686549E+02  0.48715001582E+03  0.52366728923E+03  0.12508827439E+03 0.  0.
         23    2    1    2    0    0 -0.13171892198E+03 -0.62572686549E+02  0.68104838331E+03  0.70042613998E+03  0.74193407073E+02 0.  0.
          5    1    3    3  502    0  0.10082069497E+03  0.50207722538E+02  0.47468807659E+03  0.48788509958E+03  0.41800000000E+01 0. -1.
         -5    1    3    3    0  502  0.30898227001E+02  0.12364964011E+02  0.12461939229E+02  0.35782189650E+02  0.41800000000E+01 0. -1.
        -11    1    4    4    0    0 -0.12706397658E+03 -0.29964757867E+02  0.53244137777E+03  0.54821251502E+03  0.00000000000E+00 0.  1.
         11    1    4    4    0    0 -0.46549453904E+01 -0.32607928682E+02  0.14860700554E+03  0.15221362496E+03  0.00000000000E+00 0. -1.
</event>
<event>
 8    1  0.4205029E-010  0.1337233E+03  0.7561462E-02  0.1222033E+00
          1   -1    0    0  501    0  0.00000000000E+00  0.00000000000E+00  0.21703644396E+03  0.21703644396E+03  0.00000000000E+00 0. -1.
         -1   -1    0    0    0  501 -0.00000000000E+00 -0.00000000000E+00 -0.12727938924E+03  0.12727938924E+03  0.00000000000E+00 0.  1.
         25    2    1    2    0    0 -0.87796656059E+02 -0.68443038155E+02  0.91030102843E+02  0.19059840964E+03  0.12509425185E+03 0.  0.
         23    2    1    2    0    0  0.87796656059E+02  0.68443038155E+02 -0.12730481221E+01  0.15371742356E+03  0.10599397798E+03 0.  0.
          5    1    3    3  502    0 -0.30131202284E+02 -0.47920297479E+02  0.11216510722E+03  0.12570890159E+03  0.41800000000E+01 0.  1.
         -5    1    3    3    0  502 -0.57665453774E+02 -0.20522740675E+02 -0.21135004380E+02  0.64889508042E+02  0.41800000000E+01 0.  1.
        -11    1    4    4    0    0 -0.16134522774E+02 -0.10125204418E+02  0.12378751468E+02  0.22717307886E+02  0.00000000000E+00 0.  1.
         11    1    4    4    0    0  0.10393117883E+03  0.78568242573E+02 -0.13651799590E+02  0.13100011567E+03  0.00000000000E+00 0. -1.
</event>
<event>
 8    1  0.4205029E-010  0.9450941E+02  0.7561462E-02  0.1292285E+00
          3   -1    0    0  501    0  0.00000000000E+00  0.00000000000E+00  0.18875636306E+03  0.18875636306E+03  0.00000000000E+00 0. -1.
         -3   -1    0    0    0  501 -0.00000000000E+00 -0.00000000000E+00 -0.59580772828E+02  0.59580772828E+02  0.00000000000E+00 0.  1.
         25    2    1    2    0    0  0.39567119968E+01  0.45617035013E+02  0.10183969950E+03  0.16767486636E+03  0.12508783698E+03 0.  0.
         23    2    1    2    0    0 -0.39567119968E+01 -0.45617035013E+02  0.27335890736E+02  0.80662269534E+02  0.60519264294E+02 0.  0.
          5    1    3    3  502    0 -0.18229217416E+02 -0.29409648556E+02 -0.49748329816E+01  0.35205868246E+02  0.41800000000E+01 0. -1.
         -5    1    3    3    0  502  0.22185929413E+02  0.75026683569E+02  0.10681453248E+03  0.13246899811E+03  0.41800000000E+01 0. -1.
        -11    1    4    4    0    0 -0.31580335322E+02 -0.16312352545E+02  0.11056471168E+02  0.37224400322E+02  0.00000000000E+00 0.  1.
         11    1    4    4    0    0  0.27623623325E+02 -0.29304682468E+02  0.16279419568E+02  0.43437869212E+02  0.00000000000E+00 0. -1.
</event>
<event>
 8    1  0.4205029E-010  0.1245160E+03  0.7561462E-02  0.1235828E+00
         -2   -1    0    0    0  501 -0.00000000000E+00  0.00000000000E+00  0.22945989803E+02  0.22945989803E+02  0.00000000000E+00 0. -1.
          2   -1    0    0  501    0  0.00000000000E+00 -0.00000000000E+00 -0.67885992923E+03  0.67885992923E+03  0.00000000000E+00 0.  1.
         25    2    1    2    0    0  0.78562557881E+02  0.17886859881E+02 -0.40001885876E+03  0.42680144096E+03  0.12510942162E+03 0.  0.
         23    2    1    2    0    0 -0.78562557881E+02 -0.17886859881E+02 -0.25589508066E+03  0.27500447808E+03  0.60441338479E+02 0.  0.
          5    1    3    3  502    0  0.93167388546E+02  0.54955568850E+02 -0.27580443922E+03  0.29628674950E+03  0.41800000000E+01 0.  1.
         -5    1    3    3    0  502 -0.14604830665E+02 -0.37068708969E+02 -0.12421441954E+03  0.13051469145E+03  0.41800000000E+01 0.  1.
        -11    1    4    4    0    0 -0.24667472184E+02  0.22489721804E+02 -0.85215496332E+02  0.91520230473E+02  0.00000000000E+00 0.  1.
         11    1    4    4    0    0 -0.53895085697E+02 -0.40376581686E+02 -0.17067958433E+03  0.18348424760E+03  0.00000000000E+00 0. -1.
</event>
<event>
 8    1  0.4205029E-010  0.7299718E+02  0.7561462E-02  0.1350188E+00
          4   -1    0    0  501    0  0.00000000000E+00  0.00000000000E+00  0.17417343626E+03  0.17417343626E+03  0.00000000000E+00 0.  1.
         -4   -1    0    0    0  501 -0.00000000000E+00 -0.00000000000E+00 -0.66722439068E+02  0.66722439068E+02  0.00000000000E+00 0. -1.
         25    2    1    2    0    0  0.18529386764E+02  0.51613666740E+02  0.67038115155E+02  0.15214606719E+03  0.12508800146E+03 0.  0.
         23    2    1    2    0    0 -0.18529386764E+02 -0.51613666740E+02  0.40412882035E+02  0.88749808141E+02  0.56886014472E+02 0.  0.
          5    1    3    3  502    0 -0.15686883855E+02  0.31945011122E+02  0.96356603801E+02  0.10280384018E+03  0.41800000000E+01 0. -1.
         -5    1    3    3    0  502  0.34216270620E+02  0.19668655617E+02 -0.29318488646E+02  0.49342227001E+02  0.41800000000E+01 0. -1.
        -11    1    4    4    0    0  0.10516269429E+02 -0.35985152639E+02  0.41269079580E+02  0.55755359048E+02  0.00000000000E+00 0. -1.
         11    1    4    4    0    0 -0.29045656194E+02 -0.15628514100E+02 -0.85619754509E+00  0.32994449093E+02  0.00000000000E+00 0.  1.
</event>
<event>
 8    1  0.4205029E-010  0.1180253E+03  0.7561462E-02  0.1246391E+00
          1   -1    0    0  501    0  0.00000000000E+00  0.00000000000E+00  0.14673420066E+03  0.14673420066E+03  0.00000000000E+00 0. -1.
         -1   -1    0    0    0  501 -0.00000000000E+00 -0.00000000000E+00 -0.12847781547E+03  0.12847781547E+03  0.00000000000E+00 0.  1.
         25    2    1    2    0    0 -0.39014367874E+02 -0.41323585751E+01  0.62075057800E+02  0.14504149410E+03  0.12507807531E+03 0.  0.
         23    2    1    2    0    0  0.39014367874E+02  0.41323585751E+01 -0.43818672609E+02  0.13017052203E+03  0.11612532647E+03 0.  0.
          5    1    3    3  502    0  0.10059913339E+02  0.53212128243E+02  0.16469652795E+02  0.56757856828E+02  0.41800000000E+01 0. -1.
         -5    1    3    3    0  502 -0.49074281212E+02 -0.57344486818E+02  0.45605405005E+02  0.88283637276E+02  0.41800000000E+01 0. -1.
        -11    1    4    4    0    0 -0.54061789356E+01 -0.41856486947E+02  0.13489887259E+02  0.44307666701E+02  0.00000000000E+00 0. -1.
         11    1    4    4    0    0  0.44420546809E+02  0.45988845522E+02 -0.57308559867E+02  0.85862855330E+02  0.00000000000E+00 0.  1.
</event>
<event>
 8    1  0.4205029E-010  0.1238920E+03  0.7561462E-02  0.1236811E+00
          2   -1    0    0  501    0  0.00000000000E+00  0.00000000000E+00  0.63225806727E+03  0.63225806727E+03  0.00000000000E+00 0. -1.
         -2   -1    0    0    0  501 -0.00000000000E+00 -0.00000000000E+00 -0.29663966953E+02  0.29663966953E+02  0.00000000000E+00 0.  1.
         25    2    1    2    0    0  0.37452822336E+02  0.10659504238E+02  0.19485603509E+03  0.23480256040E+03  0.12508808508E+03 0.  0.
         23    2    1    2    0    0 -0.37452822336E+02 -0.10659504238E+02  0.40773806523E+03  0.42711947383E+03  0.12109655714E+03 0.  0.
          5    1    3    3  502    0  0.76281484809E+02 -0.21970535215E+02  0.12978342883E+03  0.15219323290E+03  0.41800000000E+01 0. -1.
         -5    1    3    3    0  502 -0.38828662473E+02  0.32630039453E+02  0.65072606260E+02  0.82609327498E+02  0.41800000000E+01 0. -1.
        -11    1    4    4    0    0 -0.15699273481E+02 -0.60773830137E+02  0.13386372442E+03  0.14784932308E+03  0.00000000000E+00 0.  1.
         11    1    4    4    0    0 -0.21753548855E+02  0.50114325898E+02  0.27387434081E+03  0.27927015075E+03  0.00000000000E+00 0. -1.
</event>
<event>
 7    1  0.4205029E-010  0.1748112E+03  0.7561462E-02  0.1172921E+00
         -2   -1    0    0    0  501 -0.00000000000E+00  0.00000000000E+00  0.55189049172E+02  0.55189049172E+02  0.00000000000E+00 0.  1.
          2   -1    0    0  501    0  0.00000000000E+00 -0.00000000000E+00 -0.76890849745E+03  0.76890849745E+03  0.00000000000E+00 0. -1.
         25    2    1    2    0    0 -0.75428058907E+02 -0.63558394708E+02 -0.43445578998E+03  0.46273984473E+03  0.12508904368E+03 0.  0.
          5    1    3    3  502    0 -0.96927392488E+02 -0.79566663983E+02 -0.29346612129E+03  0.31916392367E+03  0.41800000000E+01 0. -1.
         -5    1    3    3    0  502  0.21499333581E+02  0.16008269275E+02 -0.14098966869E+03  0.14357592105E+03  0.41800000000E+01 0. -1.
        -11    1    1    2    0    0  0.87514446494E+02  0.11481188709E+03 -0.10285204627E+03  0.17725431217E+03  0.00000000000E+00 0.  1.
         11    1    1    2    0    0 -0.12086387587E+02 -0.51253492382E+02 -0.17641161203E+03  0.18410338972E+03  0.00000000000E+00 0. -1.
</event>
<event>
 8    1  0.4205029E-010  0.1228252E+03  0.7561462E-02  0.1238508E+00
         -3   -1    0    0    0  501 -0.00000000000E+00  0.00000000000E+00  0.23781427750E+02  0.23781427750E+02  0.00000000000E+00 0.  1.
          3   -1    0    0  501    0  0.00000000000E+00 -0.00000000000E+00 -0.71283905742E+03  0.71283905742E+03  0.00000000000E+00 0. -1.
         25    2    1    2    0    0  0.59399109451E+02  0.44549848488E+02 -0.48593595510E+03  0.50724005440E+03  0.12508308087E+03 0.  0.
         23    2    1    2    0    0 -0.59399109451E+02 -0.44549848488E+02 -0.20312167457E+03  0.22938043078E+03  0.76446217294E+02 0.  0.
          5    1    3    3  502    0  0.57410958130E+02  0.82716800175E+02 -0.27621819001E+03  0.29402729132E+03  0.41800000000E+01 0.  1.
         -5    1    3    3    0  502  0.19881513204E+01 -0.38166951686E+02 -0.20971776509E+03  0.21321276308E+03  0.41800000000E+01 0.  1.
        -11    1    4    4    0    0  0.14722559989E+00 -0.46838559454E+02 -0.83590317960E+02  0.95818649457E+02  0.00000000000E+00 0.  1.
         11    1    4    4    0    0 -0.59546335050E+02  0.22887109656E+01 -0.11953135661E+03  0.13356178132E+03  0.00000000000E+00 0. -1.
</event>
<event>
 8    1  0.4205029E-010  0.2578528E+03  0.7561462E-02  0.1108440E+00
         -2   -1    0    0    0  501 -0.00000000000E+00  0.00000000000E+00  0.64951840580E+02  0.64951840580E+02  0.00000000000E+00 0.  1.
          2   -1    0    0  501    0  0.00000000000E+00 -0.00000000000E+00 -0.10844325089E+04  0.10844325089E+04  0.00000000000E+00 0. -1.
         25    2    1    2    0    0 -0.21633464226E+03 -0.74858777305E+02 -0.41211423162E+03  0.48774007688E+03  0.12509088179E+03 0.  0.
         23    2    1    2    0    0  0.21633464226E+03  0.74858777305E+02 -0.60736643673E+03  0.66164427264E+03  0.12835357830E+03 0.  0.
          5    1    3    3  502    0 -0.13026334945E+03 -0.99294212618E+02 -0.31852960500E+03  0.35819891475E+03  0.41800000000E+01 0.  1.
         -5    1    3    3    0  502 -0.86071292807E+02  0.24435435313E+02 -0.93584626627E+02  0.12954116213E+03  0.41800000000E+01 0.  1.
        -11    1    4    4    0    0  0.90823455058E+02  0.99138354305E+02 -0.32282296645E+03  0.34970270366E+03  0.00000000000E+00 0.  1.
         11    1    4    4    0    0  0.12551118720E+03 -0.24279577000E+02 -0.28454347029E+03  0.31194156897E+03  0.00000000000E+00 0. -1.
</event>
<event>
 8    1  0.4205029E-010  0.1098778E+03  0.7561462E-02  0.1260796E+00
          2   -1    0    0  501    0  0.00000000000E+00  0.00000000000E+00  0.20500539873E+03  0.20500539873E+03  0.00000000000E+00 0. -1.
         -2   -1    0    0    0  501 -0.00000000000E+00 -0.00000000000E+00 -0.66673449627E+02  0.66673449627E+02  0.00000000000E+00 0.  1.
         25    2    1    2    0    0 -0.22274948464E+02  0.36670666166E+01  0.78792960146E+02  0.14955072046E+03  0.12508983458E+03 0.  0.
         23    2    1    2    0    0  0.22274948464E+02 -0.36670666166E+01  0.59538988955E+02  0.12212812789E+03  0.10421500712E+03 0.  0.
          5    1    3    3  502    0 -0.59555676905E+02  0.31745176136E+02  0.77255664136E+02  0.10266715590E+03  0.41800000000E+01 0. -1.
         -5    1    3    3    0  502  0.37280728441E+02 -0.28078109520E+02  0.15372960098E+01  0.46883564565E+02  0.41800000000E+01 0. -1.
        -11    1    4    4    0    0 -0.26798185698E+02  0.34090243912E+02  0.34200729545E+02  0.55226600367E+02  0.00000000000E+00 0. -1.
         11    1    4    4    0    0  0.49073134162E+02 -0.37757310529E+02  0.25338259410E+02  0.66901527522E+02  0.00000000000E+00 0.  1.
</event>
<event>
 8    1  0.4205029E-010  0.8441199E+02  0.7561462E-02  0.1316977E+00
          1   -1    0    0  501    0  0.00000000000E+00  0.00000000000E+00  0.40940733909E+03  0.40940733909E+03  0.00000000000E+00 0. -1.
         -1   -1    0    0    0  501 -0.00000000000E+00 -0.00000000000E+00 -0.36672248488E+02  0.36672248488E+02  0.00000000000E+00 0.  1.
         25    2    1    2    0    0 -0.42258481072E+02  0.31960531039E+01  0.20080090334E+03  0.24034261128E+03  0.12509026356E+03 0.  0.
         23    2    1    2    0    0  0.42258481072E+02 -0.31960531039E+01  0.17193418726E+03  0.20573697630E+03  0.10473941326E+03 0.  0.
          5    1    3    3  502    0  0.10902714649E+02 -0.45997137001E+02  0.13233695772E+03  0.14058857911E+03  0.41800000000E+01 0.  1.
         -5    1    3    3    0  502 -0.53161195721E+02  0.49193190105E+02  0.68463945622E+02  0.99754032166E+02  0.41800000000E+01 0.  1.
        -11    1    4    4    0    0  0.33626143494E+02  0.81124038597E+01  0.18391370282E+03  0.18713839453E+03  0.00000000000E+00 0. -1.
         11    1    4    4    0    0  0.86323375776E+01 -0.11308456964E+02 -0.11979515555E+02  0.18598581771E+02  0.00000000000E+00 0.  1.
</event>
<event>
 8    1  0.4205029E-010  0.1747273E+03  0.7561462E-02  0.1173006E+00
         -1   -1    0    0    0  501 -0.00000000000E+00  0.00000000000E+00  0.45448329792E+02  0.45448329792E+02  0.00000000000E+00 0.  1.
          1   -1    0    0  501    0  0.00000000000E+00 -0.00000000000E+00 -0.12109300172E+04  0.12109300172E+04  0.00000000000E+00 0. -1.
         25    2    1    2    0    0 -0.31251851715E+02 -0.14930330906E+03 -0.10056891567E+04  0.10248545811E+04  0.12509227039E+03 0.  0.
         23    2    1    2    0    0  0.31251851715E+02  0.14930330906E+03 -0.15979253066E+03  0.23152376587E+03  0.69292459738E+02 0.  0.
          5    1    3    3  502    0 -0.65867713440E+02 -0.38865190644E+02 -0.29447737640E+03  0.30427529694E+03  0.41800000000E+01 0.  1.
         -5    1    3    3    0  502  0.34615861725E+02 -0.11043811842E+03 -0.71121178030E+03  0.72057928413E+03  0.41800000000E+01 0.  1.
        -11    1    4    4    0    0 -0.13319081804E+01  0.84549918207E+02 -0.12550604067E+03  0.15133482379E+03  0.00000000000E+00 0. -1.
         11    1    4    4    0    0  0.32583759896E+02  0.64753390854E+02 -0.34286489996E+02  0.80188942082E+02  0.00000000000E+00 0.  1.
</event>
<event>
 8    1  0.4205029E-010  0.8775274E+02  0.7561462E-02  0.1308387E+00
         -2   -1    0    0    0  501 -0.00000000000E+00  0.00000000000E+00  0.21204103082E+02  0.21204103082E+02  0.00000000000E+00 0.  1.
          2   -1    0    0  501    0  0.00000000000E+00 -0.00000000000E+00 -0.52630942283E+03  0.52630942283E+03  0.00000000000E+00 0. -1.
         25    2    1    2    0    0 -0.13040920765E+02 -0.28886701888E+02 -0.28174705328E+03  0.30989329940E+03  0.12509175761E+03 0.  0.
         23    2    1    2    0    0  0.13040920765E+02  0.28886701888E+02 -0.22335826646E+03  0.23762022651E+03  0.74632095550E+02 0.  0.
          5    1    3    3  502    0  0.44434435663E+02  0.14892456839E+02 -0.17286742494E+03  0.17915586328E+03  0.41800000000E+01 0. -1.
         -5    1    3    3    0  502 -0.57475356429E+02 -0.43779158727E+02 -0.10887962834E+03  0.13073743612E+03  0.41800000000E+01 0. -1.
        -11    1    4    4    0    0  0.21279729496E+02  0.38152834634E+02 -0.22064434763E+03  0.22492753015E+03  0.00000000000E+00 0. -1.
         11    1    4    4    0    0 -0.82388087307E+01 -0.92661327462E+01 -0.27139188356E+01  0.12692696357E+02  0.00000000000E+00 0.  1.
</event>
<event>
 7    1  0.4205029E-010  0.7683992E+02  0.7561462E-02  0.1338266E+00
          2   -1    0    0  501    0  0.00000000000E+00  0.00000000000E+00  0.41412369392E+03  0.41412369392E+03  0.00000000000E+00 0. -1.
         -2   -1    0    0    0  501 -0.00000000000E+00 -0.00000000000E+00 -0.19206764242E+02  0.19206764242E+02  0.00000000000E+00 0.  1.
         25    2    1    2    0    0  0.14188790249E+02 -0.16813031273E+01  0.24338618864E+03  0.27402273290E+03  0.12508985880E+03 0.  0.
          5    1    3    3  502    0  0.82840212594E+01 -0.52457038075E+02  0.19959756483E+03  0.20658418656E+03  0.41800000000E+01 0.  1.
         -5    1    3    3    0  502  0.59047689901E+01  0.50775734948E+02  0.43788623810E+02  0.67438546333E+02  0.41800000000E+01 0.  1.
        -11    1    1    2    0    0 -0.24863438869E+01 -0.22298678866E+02  0.65760343512E+02  0.69482629224E+02  0.00000000000E+00 0.  1.
         11    1    1    2    0    0 -0.11702446362E+02  0.23979981993E+02  0.85770397526E+02  0.89825096043E+02  0.00000000000E+00 0. -1.
</event>
<event>
 8    1  0.4205029E-010  0.1130551E+03  0.7561462E-02  0.1255015E+00
          3   -1    0    0  501    0  0.00000000000E+00  0.00000000000E+00  0.16333660140E+02  0.16333660140E+02  0.00000000000E+00 0. -1.
         -3   -1    0    0    0  501 -0.00000000000E+00 -0.00000000000E+00 -0.10455177076E+04  0.10455177076E+04  0.00000000000E+00 0.  1.
         25    2    1    2    0    0  0.41532730358E+02 -0.38017494645E+02 -0.65344828064E+03  0.66769199435E+03  0.12509055224E+03 0.  0.
         23    2    1    2    0    0 -0.41532730358E+02  0.38017494645E+02 -0.37573576679E+03  0.39415937336E+03  0.10494735619E+03 0.  0.
          5    1    3    3  502    0  0.24005351527E+02 -0.73038048334E+02 -0.57268307410E+03  0.57783578045E+03  0.41800000000E+01 0.  1.
         -5    1    3    3    0  502  0.17527378831E+02  0.35020553689E+02 -0.80765206544E+02  0.89856213906E+02  0.41800000000E+01 0.  1.
        -11    1    4    4    0    0 -0.55392850412E+02 -0.12971434947E+02 -0.27032490844E+03  0.27624659658E+03  0.00000000000E+00 0.  1.
         11    1    4    4    0    0  0.13860120054E+02  0.50988929592E+02 -0.10541085835E+03  0.11791277678E+03  0.00000000000E+00 0. -1.
</event>
<event>
 8    1  0.4205029E-010  0.1270873E+03  0.7561462E-02  0.1231843E+00
          2   -1    0    0  501    0  0.00000000000E+00  0.00000000000E+00  0.20802496078E+03  0.20802496078E+03  0.00000000000E+00 0. -1.
         -2   -1    0    0    0  501 -0.00000000000E+00 -0.00000000000E+00 -0.14463183022E+03  0.14463183022E+03  0.00000000000E+00 0.  1.
         25    2    1    2    0    0 -0.56856908689E+02 -0.10038877279E+03  0.80778493630E+02  0.18836940780E+03  0.12508898830E+03 0.  0.
         23    2    1    2    0    0  0.56856908689E+02  0.10038877279E+03 -0.17385363074E+02  0.16428738320E+03  0.11566105507E+03 0.  0.
          5    1    3    3  502    0 -0.52422047037E+02 -0.11083805309E+03  0.17473559833E+02  0.12391909749E+03  0.41800000000E+01 0. -1.
         -5    1    3    3    0  502 -0.44348616516E+01  0.10449280302E+02  0.63304933798E+02  0.64450310316E+02  0.41800000000E+01 0. -1.
        -11    1    4    4    0    0  0.42233542056E+02  0.43383275429E+02 -0.64820848019E+02  0.88699058616E+02  0.00000000000E+00 0.  1.
         11    1    4    4    0    0  0.14623366633E+02  0.57005497360E+02  0.47435484945E+02  0.75588324581E+02  0.00000000000E+00 0. -1.
</event>
<event>
 8    1  0.4205029E-010  0.1067188E+03  0.7561462E-02  0.1266770E+00
          1   -1    0    0  501    0  0.00000000000E+00  0.00000000000E+00  0.86160927567E+02  0.86160927567E+02  0.00000000000E+00 0. -1.
         -1   -1    0    0    0  501 -0.00000000000E+00 -0.00000000000E+00 -0.25867691951E+03  0.25867691951E+03  0.00000000000E+00 0.  1.
         25    2    1    2    0    0  0.87933022437E+02 -0.29931943134E+02 -0.16087928750E+03  0.22395646642E+03  0.12508483540E+03 0.  0.
         23    2    1    2    0    0 -0.87933022437E+02  0.29931943134E+02 -0.11636704437E+02  0.12088138066E+03  0.76477170747E+02 0.  0.
          5    1    3    3  502    0  0.34997484330E+02 -0.23036423452E+02 -0.16496562475E+03  0.17025460482E+03  0.41800000000E+01 0.  1.
         -5    1    3    3    0  502  0.52935538108E+02 -0.68955196814E+01  0.40863372440E+01  0.53701861592E+02  0.41800000000E+01 0.  1.
        -11    1    4    4    0    0 -0.79359595255E+02  0.51479435088E+02  0.73517779741E+00  0.94597135699E+02  0.00000000000E+00 0.  1.
         11    1    4    4    0    0 -0.85734271821E+01 -0.21547491954E+02 -0.12371882235E+02  0.26284244961E+02  0.00000000000E+00 0. -1.
</event>
<event>
 8    1  0.4205029E-010  0.6152243E+02  0.7561462E-02  0.1391552E+00
         -1   -1    0    0    0  501 -0.00000000000E+00  0.00000000000E+00  0.33809632904E+02  0.33809632904E+02  0.00000000000E+00 0.  1.
          1   -1    0    0  501    0  0.00000000000E+00 -0.00000000000E+00 -0.31550765679E+03  0.31550765679E+03  0.00000000000E+00 0. -1.
         25    2    1    2    0    0  0.29487143239E+02 -0.66969789300E+01 -0.16302145597E+03  0.20769572536E+03  0.12508868087E+03 0.  0.
         23    2    1    2    0    0 -0.29487143239E+02  0.66969789300E+01 -0.11867656792E+03  0.14162156434E+03  0.71121013552E+02 0.  0.
          5    1    3    3  502    0  0.96727897986E+01 -0.20869039036E+02 -0.17751162562E+03  0.17904448967E+03  0.41800000000E+01 0.  1.
         -5    1    3    3    0  502  0.19814353440E+02  0.14172060106E+02  0.14490169649E+02  0.28651235686E+02  0.41800000000E+01 0.  1.
        -11    1    4    4    0    0  0.53096377223E+01 -0.26398564887E+02 -0.27019246807E+02  0.38145985095E+02  0.00000000000E+00 0.  1.
         11    1    4    4    0    0 -0.34796780961E+02  0.33095543817E+02 -0.91657321112E+02  0.10347557924E+03  0.00000000000E+00 0. -1.
</event>
<event>
 8    1  0.4205029E-010  0.9471137E+02  0.7561462E-02  0.1291827E+00
         -3   -1    0    0    0  501 -0.00000000000E+00  0.00000000000E+00  0.13247629031E+03  0.13247629031E+03  0.00000000000E+00 0.  1.
          3   -1    0    0  501    0  0.00000000000E+00 -0.00000000000E+00 -0.85345053351E+02  0.85345053351E+02  0.00000000000E+00 0. -1.
         25    2    1    2    0    0 -0.28867431955E+02 -0.26911197767E+02  0.27601298150E+02  0.13404057857E+03  0.12508998302E+03 0.  0.
         23    2    1    2    0    0  0.28867431955E+02  0.26911197767E+02  0.19529938808E+02  0.83780765088E+02  0.71275920871E+02 0.  0.
          5    1    3    3  502    0  0.25823586942E+02 -0.43697710729E+02 -0.24529928536E+02  0.56529084191E+02  0.41800000000E+01 0.  1.
         -5    1    3    3    0  502 -0.54691018897E+02  0.16786512961E+02  0.52131226686E+02  0.77511494381E+02  0.41800000000E+01 0.  1.
        -11    1    4    4    0    0  0.51149108596E+02  0.28921046057E+02  0.17534604644E+02  0.61319822042E+02  0.00000000000E+00 0. -1.
         11    1    4    4    0    0 -0.22281676642E+02 -0.20098482898E+01  0.19953341644E+01  0.22460943047E+02  0.00000000000E+00 0.  1.
</event>
<event>
 8    1  0.4205029E-010  0.1115966E+03  0.7561462E-02  0.1257641E+00
         -2   -1    0    0    0  501 -0.00000000000E+00  0.00000000000E+00  0.33212850127E+02  0.33212850127E+02  0.00000000000E+00 0.  1.
          2   -1    0    0  501    0  0.00000000000E+00 -0.00000000000E+00 -0.51899374238E+03  0.51899374238E+03  0.00000000000E+00 0. -1.
         25    2    1    2    0    0 -0.11924714249E+02 -0.38192294822E+02 -0.22646149522E+03  0.26178844378E+03  0.12509008868E+03 0.  0.
         23    2    1    2    0    0  0.11924714249E+02  0.38192294822E+02 -0.25931939703E+03  0.29041814873E+03  0.12448012387E+03 0.  0.
          5    1    3    3  502    0 -0.61311898848E+02 -0.42330455975E+02 -0.92221259158E+02  0.11863072740E+03  0.41800000000E+01 0. -1.
         -5    1    3    3    0  502  0.49387184599E+02  0.41381611532E+01 -0.13424023606E+03  0.14315771638E+03  0.41800000000E+01 0. -1.
        -11    1    4    4    0    0  0.17923172835E+02  0.67027379025E+02 -0.25011639667E+03  0.25956140227E+03  0.00000000000E+00 0. -1.
         11    1    4    4    0    0 -0.59984585864E+01 -0.28835084203E+02 -0.92030003626E+01  0.30856746460E+02  0.00000000000E+00 0.  1.
</event>
<event>
 8    1  0.4205029E-010  0.1158934E+03  0.7561462E-02  0.1250030E+00
         -2   -1    0    0    0  501 -0.00000000000E+00  0.00000000000E+00  0.59819919990E+03  0.59819919990E+03  0.00000000000E+00 0.  1.
          2   -1    0    0  501    0  0.00000000000E+00 -0.00000000000E+00 -0.30184403083E+02  0.30184403083E+02  0.00000000000E+00 0. -1.
         25    2    1    2    0    0 -0.28174611398E+02  0.67038575917E+02  0.20690335989E+03  0.25247645948E+03  0.12508949944E+03 0.  0.
         23    2    1    2    0    0  0.28174611398E+02 -0.67038575917E+02  0.36111143693E+03  0.37590714351E+03  0.74944854861E+02 0.  0.
          5    1    3    3  502    0  0.43193387298E+02  0.54755732988E+02  0.12392059686E+03  0.14225907959E+03  0.41800000000E+01 0. -1.
         -5    1    3    3    0  502 -0.71367998696E+02  0.12282842929E+02  0.82982763032E+02  0.11021737989E+03  0.41800000000E+01 0. -1.
        -11    1    4    4    0    0  0.25652968596E+02 -0.36122922918E+01  0.34276009801E+02  0.42964733228E+02  0.00000000000E+00 0. -1.
         11    1    4    4    0    0  0.25216428019E+01 -0.63426283625E+02  0.32683542713E+03  0.33294241028E+03  0.00000000000E+00 0.  1.
</event>
<event>
 7    1  0.4205029E-010  0.1182565E+03  0.7561462E-02  0.1246001E+00
         -1   -1    0    0    0  501 -0.00000000000E+00  0.00000000000E+00  0.40440954899E+03  0.40440954899E+03  0.00000000000E+00 0.  1.
          1   -1    0    0  501    0  0.00000000000E+00 -0.00000000000E+00 -0.47350750973E+02  0.47350750973E+02  0.00000000000E+00 0. -1.
         25    2    1    2    0    0  0.50547144280E+02 -0.79861818147E+02  0.13460715190E+03  0.20663603650E+03  0.12508574039E+03 0.  0.
          5    1    3    3  502    0 -0.26139510831E+02  0.55301114535E+01 -0.32156890576E+01  0.27233604522E+02  0.41800000000E+01 0. -1.
         -5    1    3    3    0  502  0.76686655111E+02 -0.85391929600E+02  0.13782284095E+03  0.17940243198E+03  0.41800000000E+01 0. -1.
        -11    1    1    2    0    0 -0.29409832407E+02  0.42264590452E+02  0.71361405002E+02  0.87998204369E+02  0.00000000000E+00 0. -1.
         11    1    1    2    0    0 -0.21137311873E+02  0.37597227694E+02  0.15109024112E+03  0.15712605909E+03  0.00000000000E+00 0.  1.
</event>
<event>
 7    1  0.4205029E-010  0.9205980E+02  0.7561462E-02  0.1297939E+00
          2   -1    0    0  501    0  0.00000000000E+00  0.00000000000E+00  0.18404768870E+03  0.18404768870E+03  0.00000000000E+00 0. -1.
         -2   -1    0    0    0  501 -0.00000000000E+00 -0.00000000000E+00 -0.80132023247E+02  0.80132023247E+02  0.00000000000E+00 0.  1.
         25    2    1    2    0    0  0.14579602726E+02  0.63061592265E+02  0.14725336311E+02  0.14161273433E+03  0.12509197321E+03 0.  0.
          5    1    3    3  502    0 -0.36339697559E+02  0.56704667688E+02  0.45728363954E+02  0.81514100782E+02  0.41800000000E+01 0.  1.
         -5    1    3    3    0  502  0.50919300285E+02  0.63569245769E+01 -0.31003027644E+02  0.60098633551E+02  0.41800000000E+01 0.  1.
        -11    1    1    2    0    0 -0.82466662693E+00 -0.18525972778E+02  0.69561944127E+02  0.71991359295E+02  0.00000000000E+00 0. -1.
         11    1    1    2    0    0 -0.13754936099E+02 -0.44535619487E+02  0.19628385016E+02  0.50575618321E+02  0.00000000000E+00 0.  1.
</event>
<event>
 8    1  0.4205029E-010  0.1248163E+03  0.7561462E-02  0.1235357E+00
          1   -1    0    0  501    0  0.00000000000E+00  0.00000000000E+00  0.83346576967E+02  0.83346576967E+02  0.00000000000E+00 0. -1.
         -1   -1    0    0    0  501 -0.00000000000E+00 -0.00000000000E+00 -0.23233617450E+03  0.23233617450E+03  0.00000000000E+00 0.  1.
         25    2    1    2    0    0  0.38319383320E+02 -0.85275746817E+02 -0.81364476377E+02  0.17608987304E+03  0.12508851760E+03 0.  0.
         23    2    1    2    0    0 -0.38319383320E+02  0.85275746817E+02 -0.67625121158E+02  0.13959287843E+03  0.78566446810E+02 0.  0.
          5    1    3    3  502    0  0.62912411874E+02 -0.80443824260E+02 -0.10121627850E+03  0.14384501334E+03  0.41800000000E+01 0. -1.
         -5    1    3    3    0  502 -0.24593028554E+02 -0.48319225565E+01  0.19851802126E+02  0.32244859694E+02  0.41800000000E+01 0. -1.
        -11    1    4    4    0    0  0.17229669420E+01  0.81803596182E+02 -0.42615029458E+02  0.92254201525E+02  0.00000000000E+00 0.  1.
         11    1    4    4    0    0 -0.40042350262E+02  0.34721506350E+01 -0.25010091700E+02  0.47338676908E+02  0.00000000000E+00 0. -1.
</event>
<event>
 8    1  0.4205029E-010  0.1051154E+03  0.7561462E-02  0.1269893E+00
         -1   -1    0    0    0  501 -0.00000000000E+00  0.00000000000E+00  0.48042154663E+02  0.48042154663E+02  0.00000000000E+00 0.  1.
          1   -1    0    0  501    0  0.00000000000E+00 -0.00000000000E+00 -0.36749146237E+03  0.36749146237E+03  0.00000000000E+00 0. -1.
         25    2    1    2    0    0  0.45176746446E+02  0.69461399947E+02 -0.21622065038E+03  0.26318125862E+03  0.12508869148E+03 0.  0.
         23    2    1    2    0    0 -0.45176746446E+02 -0.69461399947E+02 -0.10322865733E+03  0.15235235841E+03  0.75427189518E+02 0.  0.
          5    1    3    3  502    0 -0.22520571340E+02  0.48728211315E+01 -0.14134312455E+03  0.14326992628E+03  0.41800000000E+01 0.  1.
         -5    1    3    3    0  502  0.67697317785E+02  0.64588578815E+02 -0.74877525832E+02  0.11991133234E+03  0.41800000000E+01 0.  1.
        -11    1    4    4    0    0 -0.31420134335E+02 -0.11304690368E+02 -0.37125253860E+00  0.33393991891E+02  0.00000000000E+00 0.  1.
         11    1    4    4    0    0 -0.13756612110E+02 -0.58156709579E+02 -0.10285740479E+03  0.11895836652E+03  0.00000000000E+00 0. -1.
</event>
<event>
 8    1  0.4205029E-010  0.1800098E+03  0.7561462E-02  0.1167794E+00
         -1   -1    0    0    0  501 -0.00000000000E+00  0.00000000000E+00  0.27350941141E+03  0.27350941141E+03  0.00000000000E+00 0.  1.
          1   -1    0    0  501    0  0.00000000000E+00 -0.00000000000E+00 -0.13039535843E+03  0.13039535843E+03  0.00000000000E+00 0. -1.
         25    2    1    2    0    0  0.10813369504E+02 -0.15377791465E+03  0.12196041805E+03  0.23299537927E+03  0.12509167517E+03 0.  0.
         23    2    1    2    0    0 -0.10813369504E+02  0.15377791465E+03  0.21153634920E+02  0.17090939056E+03  0.70696304853E+02 0.  0.
          5    1    3    3  502    0  0.41020333323E+02 -0.15526331130E+03  0.12318698500E+03  0.20243979168E+03  0.41800000000E+01 0. -1.
         -5    1    3    3    0  502 -0.30206963819E+02  0.14853966583E+01 -0.12265669479E+01  0.30555587588E+02  0.41800000000E+01 0. -1.
        -11    1    4    4    0    0 -0.31285777117E+02  0.29868285973E+02 -0.15614204591E+01  0.43282241054E+02  0.00000000000E+00 0.  1.
         11    1    4    4    0    0  0.20472407613E+02  0.12390962867E+03  0.22715055380E+02  0.12762714951E+03  0.00000000000E+00 0. -1.
</event>
<event>
 8    1  0.4205029E-010  0.1962543E+03  0.7561462E-02  0.1152938E+00
         -3   -1    0    0    0  501 -0.00000000000E+00  0.00000000000E+00  0.12795935609E+04  0.12795935609E+04  0.00000000000E+00 0.  1.
          3   -1    0    0  501    0  0.00000000000E+00 -0.00000000000E+00 -0.37821214715E+02  0.37821214715E+02  0.00000000000E+00 0. -1.
         25    2    1    2    0    0  0.42856185842E+02  0.15709177380E+03  0.87897478355E+03  0.90263953942E+03  0.12508792881E+03 0.  0.
         23    2    1    2    0    0 -0.42856185842E+02 -0.15709177380E+03  0.36279756260E+03  0.41477523616E+03  0.11790651825E+03 0.  0.
          5    1    3    3  502    0  0.36161905121E+02  0.17856050354E+03  0.76685820429E+03  0.78821349563E+03  0.41800000000E+01 0.  1.
         -5    1    3    3    0  502  0.66942807212E+01 -0.21468729739E+02  0.11211657926E+03  0.11442604379E+03  0.41800000000E+01 0.  1.
        -11    1    4    4    0    0 -0.72048908444E+02 -0.12271134766E+03  0.19743070037E+03  0.24336803714E+03  0.00000000000E+00 0. -1.
         11    1    4    4    0    0  0.29192722602E+02 -0.34380426145E+02  0.16536686223E+03  0.17140719902E+03  0.00000000000E+00 0.  1.
</event>
<event>
 8    1  0.4205029E-010  0.1057384E+03  0.7561462E-02  0.1268672E+00
         -2   -1    0    0    0  501 -0.00000000000E+00  0.00000000000E+00  0.26984521346E+02  0.26984521346E+02  0.00000000000E+00 0.  1.
          2   -1    0    0  501    0  0.00000000000E+00 -0.00000000000E+00 -0.57267705643E+03  0.57267705643E+03  0.00000000000E+00 0. -1.
         25    2    1    2    0    0  0.68158685397E+02 -0.16555471798E+02 -0.27586824794E+03  0.31091892152E+03  0.12509034934E+03 0.  0.
         23    2    1    2    0    0 -0.68158685397E+02  0.16555471798E+02 -0.26982428715E+03  0.28874265626E+03  0.75149754260E+02 0.  0.
          5    1    3    3  502    0 -0.12481678177E+01 -0.54853771637E+02 -0.62551879353E+02  0.83310888822E+02  0.41800000000E+01 0.  1.
         -5    1    3    3    0  502  0.69406853214E+02  0.38298299839E+02 -0.21331636858E+03  0.22760803270E+03  0.41800000000E+01 0.  1.
        -11    1    4    4    0    0 -0.80948441246E+01  0.14928237329E+02 -0.57652115953E+01  0.17933667664E+02  0.00000000000E+00 0.  1.
         11    1    4    4    0    0 -0.60063841272E+02  0.16272344694E+01 -0.26405907556E+03  0.27080898859E+03  0.00000000000E+00 0. -1.
</event>
<event>
 8    1  0.4205029E-010  0.8183331E+02  0.7561462E-02  0.1323928E+00
          2   -1    0    0  501    0  0.00000000000E+00  0.00000000000E+00  0.74363659018E+02  0.74363659018E+02  0.00000000000E+00 0. -1.
         -2   -1    0    0    0  501 -0.00000000000E+00 -0.00000000000E+00 -0.32019246680E+03  0.32019246680E+03  0.00000000000E+00 0.  1.
         25    2    1    2    0    0 -0.11033001057E+02 -0.57499601510E+02 -0.21101405226E+02  0.13971490336E+03  0.12508818342E+03 0.  0.
         23    2    1    2    0    0  0.11033001057E+02  0.57499601510E+02 -0.22472740256E+03  0.25484122246E+03  0.10494623348E+03 0.  0.
          5    1    3    3  502    0 -0.22717628511E+02 -0.19324958581E+02  0.49823532085E+02  0.58218565928E+02  0.41800000000E+01 0.  1.
         -5    1    3    3    0  502  0.11684627454E+02 -0.38174642929E+02 -0.70924937311E+02  0.81496337427E+02  0.41800000000E+01 0.  1.
        -11    1    4    4    0    0  0.24348651582E+01  0.74403775704E+02 -0.22379650076E+03  0.23585318348E+03  0.00000000000E+00 0.  1.
         11    1    4    4    0    0  0.85981358986E+01 -0.16904174194E+02 -0.93090179708E+00  0.18988038979E+02  0.00000000000E+00 0. -1.
</event>
<event>
 7    1  0.4205029E-010  0.8836175E+02  0.7561462E-02  0.1306868E+00
          1   -1    0    0  501    0  0.00000000000E+00  0.00000000000E+00  0.17370775160E+03  0.17370775160E+03  0.00000000000E+00 0. -1.
         -1   -1    0    0    0  501 -0.00000000000E+00 -0.00000000000E+00 -0.76409900352E+02  0.76409900352E+02  0.00000000000E+00 0.  1.
         25    2    1    2    0    0  0.42468838479E+02  0.36560105472E+02  0.11097386795E+03  0.17635961710E+03  0.12508905476E+03 0.  0.
          5    1    3    3  502    0 -0.10881428388E+02 -0.22700818566E+02 -0.13198980932E+02  0.28730091281E+02  0.41800000000E+01 0.  1.
         -5    1    3    3    0  502  0.53350266867E+02  0.59260924039E+02  0.12417284888E+03  0.14762952582E+03  0.41800000000E+01 0.  1.
        -11    1    1    2    0    0  0.92797837799E+01 -0.79926886564E+01  0.24447948175E+01  0.12488974364E+02  0.00000000000E+00 0. -1.
         11    1    1    2    0    0 -0.51748622259E+02 -0.28567416816E+02 -0.16120811522E+02  0.61269060490E+02  0.00000000000E+00 0.  1.
</event>
<event>
 8    1  0.4205029E-010  0.1356600E+03  0.7561462E-02  0.1219291E+00
          4   -1    0    0  501    0  0.00000000000E+00  0.00000000000E+00  0.12710756812E+03  0.12710756812E+03  0.00000000000E+00 0. -1.
         -4   -1    0    0    0  501 -0.00000000000E+00 -0.00000000000E+00 -0.23078350903E+03  0.23078350903E+03  0.00000000000E+00 0.  1.
         25    2    1    2    0    0 -0.10326544657E+03  0.45128512107E+02  0.28950573169E+02  0.17084003310E+03  0.12509135126E+03 0.  0.
         23    2    1    2    0    0  0.10326544657E+03 -0.45128512107E+02 -0.13262651408E+03  0.18705104406E+03  0.68541708361E+02 0.  0.
          5    1    3    3  502    0  0.20879933999E+02 -0.44317719311E+01 -0.18884785934E+02  0.28804856987E+02  0.41800000000E+01 0.  1.
         -5    1    3    3    0  502 -0.12414538057E+03  0.49560284038E+02  0.47835359103E+02  0.14203517611E+03  0.41800000000E+01 0.  1.
        -11    1    4    4    0    0  0.63662109549E+02 -0.41649603383E+02 -0.12535798857E+03  0.14663621296E+03  0.00000000000E+00 0.  1.
         11    1    4    4    0    0  0.39603337026E+02 -0.34789087238E+01 -0.72685255140E+01  0.40414831098E+02  0.00000000000E+00 0. -1.
</event>
<event>
 8    1  0.4205029E-010  0.1043412E+03  0.7561462E-02  0.1271423E+00
         -3   -1    0    0    0  501 -0.00000000000E+00  0.00000000000E+00  0.93586919317E+02  0.93586919317E+02  0.00000000000E+00 0.  1.
          3   -1    0    0  501    0  0.00000000000E+00 -0.00000000000E+00 -0.15505731266E+03  0.15505731266E+03  0.00000000000E+00 0. -1.
         25    2    1    2    0    0 -0.57585811475E+01 -0.28855098637E+02 -0.17263935319E+02  0.12965276570E+03  0.12508404461E+03 0.  0.
         23    2    1    2    0    0  0.57585811475E+01  0.28855098637E+02 -0.44206458025E+02  0.11899146628E+03  0.10648464745E+03 0.  0.
          5    1    3    3  502    0 -0.37411110309E+02  0.23155740717E+02  0.29181763095E+02  0.52960619333E+02  0.41800000000E+01 0.  1.
         -5    1    3    3    0  502  0.31652529162E+02 -0.52010839355E+02 -0.46445698414E+02  0.76692146364E+02  0.41800000000E+01 0.  1.
        -11    1    4    4    0    0 -0.46136371464E+02  0.21997433411E+02 -0.42736440623E+02  0.66624734188E+02  0.00000000000E+00 0. -1.
         11    1    4    4    0    0  0.51894952612E+02  0.68576652263E+01 -0.14700174020E+01  0.52366732093E+02  0.00000000000E+00 0.  1.
</event>
<event>
 8    1  0.4205029E-010  0.1440433E+03  0.7561462E-02  0.1207990E+00
          1   -1    0    0  501    0  0.00000000000E+00  0.00000000000E+00  0.92080786147E+03  0.92080786147E+03  0.00000000000E+00 0.  1.
         -1   -1    0    0    0  501 -0.00000000000E+00 -0.00000000000E+00 -0.27170580105E+02  0.27170580105E+02  0.00000000000E+00 0. -1.
         25    2    1    2    0    0  0.99961921452E+02  0.12359539354E+02  0.36452194547E+03  0.39833457739E+03  0.12509613448E+03 0.  0.
         23    2    1    2    0    0 -0.99961921452E+02 -0.12359539354E+02  0.52911533590E+03  0.54964386418E+03  0.10954540064E+03 0.  0.
          5    1    3    3  502    0  0.76601736259E+01 -0.34570393164E+02  0.20519668472E+03  0.20827131863E+03  0.41800000000E+01 0.  1.
         -5    1    3    3    0  502  0.92301747826E+02  0.46929932518E+02  0.15932526075E+03  0.19006325876E+03  0.41800000000E+01 0.  1.
        -11    1    4    4    0    0 -0.42822397708E+02 -0.60474668443E+02  0.25988033046E+03  0.27023828268E+03  0.00000000000E+00 0. -1.
         11    1    4    4    0    0 -0.57139523744E+02  0.48115129089E+02  0.26923500544E+03  0.27940558150E+03  0.00000000000E+00 0.  1.
</event>
<event>
 7    1  0.4205029E-010  0.7676767E+02  0.7561462E-02  0.1338483E+00
          1   -1    0    0  501    0  0.00000000000E+00  0.00000000000E+00  0.19245897797E+03  0.19245897797E+03  0.00000000000E+00 0. -1.
         -1   -1    0    0    0  501 -0.00000000000E+00 -0.00000000000E+00 -0.43028781078E+02  0.43028781078E+02  0.00000000000E+00 0.  1.
         25    2    1    2    0    0 -0.10471355386E+02 -0.55836567174E+01  0.15754551813E+03  0.20150947781E+03  0.12507858673E+03 0.  0.
          5    1    3    3  502    0  0.35643046780E+02 -0.47701372774E+02  0.10012028377E+03  0.11656496631E+03  0.41800000000E+01 0.  1.
         -5    1    3    3    0  502 -0.46114402166E+02  0.42117716057E+02  0.57425234357E+02  0.84944511500E+02  0.41800000000E+01 0.  1.
        -11    1    1    2    0    0  0.26842970607E+01 -0.11852436446E+02  0.20827932333E+01  0.12329790268E+02  0.00000000000E+00 0. -1.
         11    1    1    2    0    0  0.77870583254E+01  0.17436093163E+02 -0.10198114476E+02  0.21648490964E+02  0.00000000000E+00 0.  1.
</event>
<event>
 7    1  0.4205029E-010  0.1959973E+03  0.7561462E-02  0.1153161E+00
         -1   -1    0    0    0  501 -0.00000000000E+00  0.00000000000E+00  0.16530274335E+03  0.16530274335E+03  0.00000000000E+00 0.  1.
          1   -1    0    0  501    0  0.00000000000E+00 -0.00000000000E+00 -0.31077978201E+03  0.31077978201E+03  0.00000000000E+00 0. -1.
         25    2    1    2    0    0 -0.37952387432E+02 -0.16484676697E+03 -0.68826190492E+02  0.22135742214E+03  0.12508886260E+03 0.  0.
          5    1    3    3  502    0  0.14399936085E+02 -0.14207932962E+03 -0.16526056543E+02  0.14382098946E+03  0.41800000000E+01 0.  1.
         -5    1    3    3    0  502 -0.52352323517E+02 -0.22767437348E+02 -0.52300133949E+02  0.77536432676E+02  0.41800000000E+01 0.  1.
        -11    1    1    2    0    0  0.55683331134E+02  0.47455251314E+02 -0.10936243820E+03  0.13157802678E+03  0.00000000000E+00 0.  1.
         11    1    1    2    0    0 -0.17730943703E+02  0.11739151566E+03  0.32711590024E+02  0.12314707643E+03  0.00000000000E+00 0. -1.
</event>
<event>
 8    1  0.4205029E-010  0.1059027E+03  0.7561462E-02  0.1268351E+00
         -1   -1    0    0    0  501 -0.00000000000E+00  0.00000000000E+00  0.44672016085E+02  0.44672016085E+02  0.00000000000E+00 0.  1.
          1   -1    0    0  501    0  0.00000000000E+00 -0.00000000000E+00 -0.37971500202E+03  0.37971500202E+03  0.00000000000E+00 0. -1.
         25    2    1    2    0    0  0.23269687842E+01  0.53194235673E+02 -0.30105714206E+03  0.33032547112E+03  0.12507786612E+03 0.  0.
         23    2    1    2    0    0 -0.23269687842E+01 -0.53194235673E+02 -0.33985843874E+02  0.94061546985E+02  0.69695735486E+02 0.  0.
          5    1    3    3  502    0 -0.47470337950E+01  0.94049029747E+02 -0.20744928685E+03  0.22786055679E+03  0.41800000000E+01 0.  1.
         -5    1    3    3    0  502  0.70740025791E+01 -0.40854794074E+02 -0.93607855213E+02  0.10246491433E+03  0.41800000000E+01 0.  1.
        -11    1    4    4    0    0 -0.18885285625E+02 -0.55980206237E+02 -0.34096062370E+01  0.59178230104E+02  0.00000000000E+00 0.  1.
         11    1    4    4    0    0  0.16558316841E+02  0.27859705649E+01 -0.30576237637E+02  0.34883316881E+02  0.00000000000E+00 0. -1.
</event>
<event>
 8    1  0.4205029E-010  0.2131383E+03  0.7561462E-02  0.1139105E+00
         -1   -1    0    0    0  501 -0.00000000000E+00  0.00000000000E+00  0.84625841181E+02  0.84625841181E+02  0.00000000000E+00 0.  1.
          1   -1    0    0  501    0  0.00000000000E+00 -0.00000000000E+00 -0.83569660801E+03  0.83569660801E+03  0.00000000000E+00 0. -1.
         25    2    1    2    0    0  0.70397226136E+02  0.18632896751E+03 -0.14117020378E+03  0.27431563441E+03  0.12508312142E+03 0.  0.
         23    2    1    2    0    0 -0.70397226136E+02 -0.18632896751E+03 -0.60990056304E+03  0.64600681478E+03  0.75311714653E+02 0.  0.
          5    1    3    3  502    0  0.81237070088E+02  0.18551728795E+03 -0.89691366976E+02  0.22153586480E+03  0.41800000000E+01 0. -1.
         -5    1    3    3    0  502 -0.10839843952E+02  0.81167956086E+00 -0.51478836807E+02  0.52779769606E+02  0.41800000000E+01 0. -1.
        -11    1    4    4    0    0  0.79884526345E+01 -0.77678765476E+02 -0.19689193214E+03  0.21181180072E+03  0.00000000000E+00 0.  1.
         11    1    4    4    0    0 -0.78385678771E+02 -0.10865020203E+03 -0.41300863090E+03  0.43419501406E+03  0.00000000000E+00 0. -1.
</event>
<event>
 8    1  0.4205029E-010  0.1327821E+03  0.7561462E-02  0.1223385E+00
          2   -1    0    0  501    0  0.00000000000E+00  0.00000000000E+00  0.11358220746E+03  0.11358220746E+03  0.00000000000E+00 0. -1.
         -2   -1    0    0    0  501 -0.00000000000E+00 -0.00000000000E+00 -0.23292296773E+03  0.23292296773E+03  0.00000000000E+00 0.  1.
         25    2    1    2    0    0 -0.80065309629E+02 -0.96606904561E+02 -0.86370622174E+02  0.19710687176E+03  0.12509151332E+03 0.  0.
         23    2    1    2    0    0  0.80065309629E+02  0.96606904561E+02 -0.32970138099E+02  0.14939830344E+03  0.74090993038E+02 0.  0.
          5    1    3    3  502    0 -0.69837369389E+01  0.85760361118E+01 -0.66361363464E+02  0.67406408730E+02  0.41800000000E+01 0. -1.
         -5    1    3    3    0  502 -0.73081572690E+02 -0.10518294067E+03 -0.20009258709E+02  0.12970046303E+03  0.41800000000E+01 0. -1.
        -11    1    4    4    0    0  0.29209137158E+02  0.31161604092E+02 -0.48977365539E+02  0.64984625861E+02  0.00000000000E+00 0. -1.
         11    1    4    4    0    0  0.50856172471E+02  0.65445300470E+02  0.16007227441E+02  0.84413677578E+02  0.00000000000E+00 0.  1.
</event>
<event>
 7    1  0.4205029E-010  0.1044737E+03  0.7561462E-02  0.1271160E+00
          2   -1    0    0  501    0  0.00000000000E+00  0.00000000000E+00  0.31706261550E+03  0.31706261550E+03  0.00000000000E+00 0. -1.
         -2   -1    0    0    0  501 -0.00000000000E+00 -0.00000000000E+00 -0.34459689912E+02  0.34459689912E+02  0.00000000000E+00 0.  1.
         25    2    1    2    0    0 -0.24118223929E+02 -0.53361244616E+02  0.19016147599E+03  0.23502885506E+03  0.12509222441E+03 0.  0.
          5    1    3    3  502    0 -0.35831361510E+02  0.34158021387E+02  0.71196967560E+02  0.86816688963E+02  0.41800000000E+01 0. -1.
         -5    1    3    3    0  502  0.11713137580E+02 -0.87519266002E+02  0.11896450843E+03  0.14821216610E+03  0.41800000000E+01 0. -1.
        -11    1    1    2    0    0  0.34783383774E+02  0.33325951653E+02  0.64137892982E+02  0.80213291645E+02  0.00000000000E+00 0.  1.
         11    1    1    2    0    0 -0.10665159845E+02  0.20035292962E+02  0.28303556615E+02  0.36280158705E+02  0.00000000000E+00 0. -1.
</event>
<event>
 8    1  0.4205029E-010  0.1983644E+03  0.7561462E-02  0.1151126E+00
         -1   -1    0    0    0  501 -0.00000000000E+00  0.00000000000E+00  0.63575944061E+02  0.63575944061E+02  0.00000000000E+00 0.  1.
          1   -1    0    0  501    0  0.00000000000E+00 -0.00000000000E+00 -0.85275436486E+03  0.85275436486E+03  0.00000000000E+00 0. -1.
         25    2    1    2    0    0 -0.14072047438E+03 -0.85793062617E+02 -0.61109510513E+03  0.64517219120E+03  0.12508887751E+03 0.  0.
         23    2    1    2    0    0  0.14072047438E+03  0.85793062617E+02 -0.17808331567E+03  0.27115811772E+03  0.12103865492E+03 0.  0.
          5    1    3    3  502    0 -0.13906246624E+03 -0.20217437915E+02 -0.39309433388E+03  0.41747783419E+03  0.41800000000E+01 0.  1.
         -5    1    3    3    0  502 -0.16580081376E+01 -0.65575624703E+02 -0.21800077126E+03  0.22769435701E+03  0.41800000000E+01 0.  1.
        -11    1    4    4    0    0  0.11593865293E+03  0.16857333527E+02 -0.15511329891E+03  0.19438641011E+03  0.00000000000E+00 0. -1.
         11    1    4    4    0    0  0.24781821447E+02  0.68935729091E+02 -0.22970016756E+02  0.76771707609E+02  0.00000000000E+00 0.  1.
</event>
<event>
 8    1  0.4205029E-010  0.8247338E+02  0.7561462E-02  0.1322175E+00
          3   -1    0    0  501    0  0.00000000000E+00  0.00000000000E+00  0.16985123294E+03  0.16985123294E+03  0.00000000000E+00 0. -1.
         -3   -1    0    0    0  501 -0.00000000000E+00 -0.00000000000E+00 -0.61972840843E+02  0.61972840843E+02  0.00000000000E+00 0.  1.
         25    2    1    2    0    0 -0.21203388493E+02 -0.17901251584E+02  0.39348197122E+02  0.13403677524E+03  0.12509011955E+03 0.  0.
         23    2    1    2    0    0  0.21203388493E+02  0.17901251584E+02  0.68530194975E+02  0.97787298542E+02  0.63999450317E+02 0.  0.
          5    1    3    3  502    0 -0.22281611762E+02  0.49827869568E+02  0.37105784981E+02  0.66133187489E+02  0.41800000000E+01 0.  1.
         -5    1    3    3    0  502  0.10782232691E+01 -0.67729121153E+02  0.22424121417E+01  0.67903587753E+02  0.41800000000E+01 0.  1.
        -11    1    4    4    0    0  0.17387694652E+02 -0.58012119369E+01  0.71301818112E+02  0.73620209530E+02  0.00000000000E+00 0. -1.
         11    1    4    4    0    0  0.38156938416E+01  0.23702463521E+02 -0.27716231373E+01  0.24167089011E+02  0.00000000000E+00 0.  1.
</event>
<event>
 8    1  0.4205029E-010  0.2182335E+03  0.7561462E-02  0.1135207E+00
          2   -1    0    0  501    0  0.00000000000E+00  0.00000000000E+00  0.30344964703E+03  0.30344964703E+03  0.00000000000E+00 0. -1.
         -2   -1    0    0    0  501 -0.00000000000E+00 -0.00000000000E+00 -0.19719733379E+03  0.19719733379E+03  0.00000000000E+00 0.  1.
         25    2    1    2    0    0 -0.92796095449E+02  0.17509915475E+03  0.12304542821E+03  0.26468961345E+03  0.12509830031E+03 0.  0.
         23    2    1    2    0    0  0.92796095449E+02 -0.17509915475E+03 -0.16793114976E+02  0.23595736738E+03  0.12697653793E+03 0.  0.
          5    1    3    3  502    0 -0.27822363701E+01  0.70003537609E+02 -0.12104791226E+02  0.71219621507E+02  0.41800000000E+01 0. -1.
         -5    1    3    3    0  502 -0.90013859078E+02  0.10509561714E+03  0.13515021944E+03  0.19346999194E+03  0.41800000000E+01 0. -1.
        -11    1    4    4    0    0  0.77525730015E+02 -0.19079689706E+03  0.36792169289E+01  0.20597871584E+03  0.00000000000E+00 0. -1.
         11    1    4    4    0    0  0.15270365433E+02  0.15697742314E+02 -0.20472331905E+02  0.29978651535E+02  0.00000000000E+00 0.  1.
</event>
<event>
 8    1  0.4205029E-010  0.9273221E+02  0.7561462E-02  0.1296367E+00
          1   -1    0    0  501    0  0.00000000000E+00  0.00000000000E+00  0.79522056075E+03  0.79522056075E+03  0.00000000000E+00 0. -1.
         -1   -1    0    0    0  501 -0.00000000000E+00 -0.00000000000E+00 -0.23835797277E+02  0.23835797277E+02  0.00000000000E+00 0.  1.
         25    2    1    2    0    0  0.40542063486E+02  0.40711360500E+02  0.48742507902E+03  0.50648974217E+03  0.12509027734E+03 0.  0.
         23    2    1    2    0    0 -0.40542063486E+02 -0.40711360500E+02  0.28395968446E+03  0.31256661586E+03  0.11731885256E+03 0.  0.
          5    1    3    3  502    0  0.68330105842E+01  0.51658289673E+02  0.45585415392E+03  0.45884174937E+03  0.41800000000E+01 0. -1.
         -5    1    3    3    0  502  0.33709052902E+02 -0.10946929173E+02  0.31570925100E+02  0.47647992796E+02  0.41800000000E+01 0. -1.
        -11    1    4    4    0    0 -0.60064830575E+02 -0.96806394286E+01  0.26380672659E+03  0.27073139390E+03  0.00000000000E+00 0. -1.
         11    1    4    4    0    0  0.19522767089E+02 -0.31030721071E+02  0.20152957868E+02  0.41835221953E+02  0.00000000000E+00 0.  1.
</event>
<event>
 8    1  0.4205029E-010  0.9997988E+02  0.7561462E-02  0.1280338E+00
          1   -1    0    0  501    0  0.00000000000E+00  0.00000000000E+00  0.11019354150E+03  0.11019354150E+03  0.00000000000E+00 0. -1.
         -1   -1    0    0    0  501 -0.00000000000E+00 -0.00000000000E+00 -0.18518149522E+03  0.18518149522E+03  0.00000000000E+00 0.  1.
         25    2    1    2    0    0 -0.74058840745E+02 -0.10955628303E+02 -0.67452257480E+02  0.16062334944E+03  0.12508123625E+03 0.  0.
         23    2    1    2    0    0  0.74058840745E+02  0.10955628303E+02 -0.75356962463E+01  0.13475168728E+03  0.11178771320E+03 0.  0.
          5    1    3    3  502    0 -0.15208300105E+02  0.41661351439E+02 -0.68326215005E+02  0.81565339776E+02  0.41800000000E+01 0.  1.
         -5    1    3    3    0  502 -0.58850540640E+02 -0.52616979742E+02  0.87395752497E+00  0.79058009667E+02  0.41800000000E+01 0.  1.
        -11    1    4    4    0    0  0.49489553792E+02  0.14419303160E+02 -0.58559345636E+02  0.78014929337E+02  0.00000000000E+00 0.  1.
         11    1    4    4    0    0  0.24569286953E+02 -0.34636748577E+01  0.51023649389E+02  0.56736757943E+02  0.00000000000E+00 0. -1.
</event>
<event>
 8    1  0.4205029E-010  0.1756461E+03  0.7561462E-02  0.1172085E+00
          2   -1    0    0  501    0  0.00000000000E+00  0.00000000000E+00  0.92078066317E+03  0.92078066317E+03  0.00000000000E+00 0. -1.
         -2   -1    0    0    0  501 -0.00000000000E+00 -0.00000000000E+00 -0.37975592565E+02  0.37975592565E+02  0.00000000000E+00 0.  1.
         25    2    1    2    0    0 -0.93142394699E+02 -0.10897675502E+03  0.49246777048E+03  0.52794368770E+03  0.12509433879E+03 0.  0.
         23    2    1    2    0    0  0.93142394699E+02  0.10897675502E+03  0.39033730013E+03  0.43081256804E+03  0.11262691545E+03 0.  0.
          5    1    3    3  502    0  0.13961516854E+02 -0.57768132080E+02  0.87084817259E+02  0.10551454323E+03  0.41800000000E+01 0. -1.
         -5    1    3    3    0  502 -0.10710391155E+03 -0.51208622939E+02  0.40538295322E+03  0.42242914446E+03  0.41800000000E+01 0. -1.
        -11    1    4    4    0    0  0.11353972210E+03  0.87852563558E+02  0.36430380800E+03  0.39156941395E+03  0.00000000000E+00 0. -1.
         11    1    4    4    0    0 -0.20397327405E+02  0.21124191461E+02  0.26033492127E+02  0.39243154085E+02  0.00000000000E+00 0.  1.
</event>
<event>
 8    1  0.4205029E-010  0.1616019E+03  0.7561462E-02  0.1186900E+00
         -3   -1    0    0    0  501 -0.00000000000E+00  0.00000000000E+00  0.63144468745E+03  0.63144468745E+03  0.00000000000E+00 0.  1.
          3   -1    0    0  501    0  0.00000000000E+00 -0.00000000000E+00 -0.58904185151E+02  0.58904185151E+02  0.00000000000E+00 0. -1.
         25    2    1    2    0    0 -0.13773100067E+03 -0.37974992733E+02  0.37266536686E+03  0.41825718251E+03  0.12509063291E+03 0.  0.
         23    2    1    2    0    0  0.13773100067E+03  0.37974992733E+02  0.19987513543E+03  0.27209169009E+03  0.11692685504E+03 0.  0.
          5    1    3    3  502    0  0.18752304872E+02 -0.61015056314E+01  0.10192690478E+03  0.10390112428E+03  0.41800000000E+01 0.  1.
         -5    1    3    3    0  502 -0.15648330555E+03 -0.31873487102E+02  0.27073846209E+03  0.31435605823E+03  0.41800000000E+01 0.  1.
        -11    1    4    4    0    0  0.10403987977E+03  0.23706780752E+02  0.20875107881E+03  0.23444257494E+03  0.00000000000E+00 0.  1.
         11    1    4    4    0    0  0.33691120901E+02  0.14268211981E+02 -0.88759433816E+01  0.37649115150E+02  0.00000000000E+00 0. -1.
</event>
<event>
 8    1  0.4205029E-010  0.1024081E+03  0.7561462E-02  0.1275312E+00
         -2   -1    0    0    0  501 -0.00000000000E+00  0.00000000000E+00  0.11071553395E+03  0.11071553395E+03  0.00000000000E+00 0.  1.
          2   -1    0    0  501    0  0.00000000000E+00 -0.00000000000E+00 -0.13391591119E+03  0.13391591119E+03  0.00000000000E+00 0. -1.
         25    2    1    2    0    0 -0.53895301790E+02  0.96155660752E+01 -0.62519574811E+02  0.15017227420E+03  0.12508338034E+03 0.  0.
         23    2    1    2    0    0  0.53895301790E+02 -0.96155660752E+01  0.39319197576E+02  0.94459170937E+02  0.66176831370E+02 0.  0.
          5    1    3    3  502    0 -0.27718009352E+02 -0.48508751057E+02 -0.65532911074E+02  0.86217294120E+02  0.41800000000E+01 0.  1.
         -5    1    3    3    0  502 -0.26177292438E+02  0.58124317132E+02  0.30133362626E+01  0.63954980078E+02  0.41800000000E+01 0.  1.
        -11    1    4    4    0    0  0.32734562228E+01  0.23946783779E+02  0.17822430368E+02  0.30030034852E+02  0.00000000000E+00 0.  1.
         11    1    4    4    0    0  0.50621845567E+02 -0.33562349854E+02  0.21496767208E+02  0.64429136086E+02  0.00000000000E+00 0. -1.
</event>
<event>
 7    1  0.4205029E-010  0.1444528E+03  0.7561462E-02  0.1207460E+00
          2   -1    0    0  501    0  0.00000000000E+00  0.00000000000E+00  0.15635240030E+03  0.15635240030E+03  0.00000000000E+00 0. -1.
         -2   -1    0    0    0  501 -0.00000000000E+00 -0.00000000000E+00 -0.17373458704E+03  0.17373458704E+03  0.00000000000E+00 0.  1.
         25    2    1    2    0    0 -0.55764183201E+02  0.15859363495E+02  0.37664069513E+02  0.14293914411E+03  0.12510736688E+03 0.  0.
          5    1    3    3  502    0 -0.46568617520E+02 -0.38016418975E+02 -0.19890525832E+02  0.63458566540E+02  0.41800000000E+01 0.  1.
         -5    1    3    3    0  502 -0.91955656812E+01  0.53875782470E+02  0.57554595345E+02  0.79480577566E+02  0.41800000000E+01 0.  1.
        -11    1    1    2    0    0 -0.54517832469E+02 -0.30679022194E+02  0.98209300131E+00  0.62564854084E+02  0.00000000000E+00 0. -1.
         11    1    1    2    0    0  0.11028201567E+03  0.14819658700E+02 -0.56028349262E+02  0.12458298915E+03  0.00000000000E+00 0.  1.
</event>
<event>
 8    1  0.4205029E-010  0.1885650E+03  0.7561462E-02  0.1159762E+00
         -2   -1    0    0    0  501 -0.00000000000E+00  0.00000000000E+00  0.73610339091E+02  0.73610339091E+02  0.00000000000E+00 0. -1.
          2   -1    0    0  501    0  0.00000000000E+00 -0.00000000000E+00 -0.49483394555E+03  0.49483394555E+03  0.00000000000E+00 0.  1.
         25    2    1    2    0    0 -0.13961123586E+03  0.81956085798E+02 -0.24584164259E+03  0.31983372070E+03  0.12508956188E+03 0.  0.
         23    2    1    2    0    0  0.13961123586E+03 -0.81956085798E+02 -0.17538196387E+03  0.24861056394E+03  0.69572135741E+02 0.  0.
          5    1    3    3  502    0 -0.34629219763E+02 -0.31363562097E+02 -0.83013852421E+02  0.95350028750E+02  0.41800000000E+01 0.  1.
         -5    1    3    3    0  502 -0.10498201610E+03  0.11331964789E+03 -0.16282779016E+03  0.22448369195E+03  0.41800000000E+01 0.  1.
        -11    1    4    4    0    0  0.82989283284E+02 -0.85248945659E+02 -0.12746505724E+03  0.17436153445E+03  0.00000000000E+00 0.  1.
         11    1    4    4    0    0  0.56621952576E+02  0.32928598610E+01 -0.47916906628E+02  0.74249029491E+02  0.00000000000E+00 0. -1.
</event>
<event>
 7    1  0.4205029E-010  0.1794665E+03  0.7561462E-02  0.1168320E+00
         -2   -1    0    0    0  501 -0.00000000000E+00  0.00000000000E+00  0.11119425423E+03  0.11119425423E+03  0.00000000000E+00 0.  1.
          2   -1    0    0  501    0  0.00000000000E+00 -0.00000000000E+00 -0.29523002248E+03  0.29523002248E+03  0.00000000000E+00 0. -1.
         25    2    1    2    0    0 -0.15580760389E+02 -0.15657964514E+03 -0.94469851941E+02  0.22210867505E+03  0.12509102782E+03 0.  0.
          5    1    3    3  502    0 -0.70241881874E+02 -0.89482730661E+02 -0.61639746782E+02  0.12945273979E+03  0.41800000000E+01 0.  1.
         -5    1    3    3    0  502  0.54661121485E+02 -0.67096914482E+02 -0.32830105159E+02  0.92655935264E+02  0.41800000000E+01 0.  1.
        -11    1    1    2    0    0  0.19478278101E+02  0.14314017532E+03 -0.70715440660E+02  0.16083900850E+03  0.00000000000E+00 0. -1.
         11    1    1    2    0    0 -0.38975177120E+01  0.13439469822E+02 -0.18850475653E+02  0.23476593146E+02  0.00000000000E+00 0.  1.
</event>
<event>
 8    1  0.4205029E-010  0.1614769E+03  0.7561462E-02  0.1187039E+00
         -2   -1    0    0    0  501 -0.00000000000E+00  0.00000000000E+00  0.12967019188E+03  0.12967019188E+03  0.00000000000E+00 0. -1.
          2   -1    0    0  501    0  0.00000000000E+00 -0.00000000000E+00 -0.22267489318E+03  0.22267489318E+03  0.00000000000E+00 0.  1.
         25    2    1    2    0    0  0.11805782296E+03 -0.39574470363E+02 -0.60606946320E+02  0.18661246561E+03  0.12508885686E+03 0.  0.
         23    2    1    2    0    0 -0.11805782296E+03  0.39574470363E+02 -0.32397754987E+02  0.16573261945E+03  0.10446960493E+03 0.  0.
          5    1    3    3  502    0 -0.19573410978E+02 -0.13903721278E+02 -0.37394829973E+02  0.44634936893E+02  0.41800000000E+01 0. -1.
         -5    1    3    3    0  502  0.13763123394E+03 -0.25670749085E+02 -0.23212116346E+02  0.14197752872E+03  0.41800000000E+01 0. -1.
        -11    1    4    4    0    0 -0.32060058800E+02  0.61863295732E+02 -0.32521787928E+02  0.76893311927E+02  0.00000000000E+00 0. -1.
         11    1    4    4    0    0 -0.85997764163E+02 -0.22288825369E+02  0.12403294173E+00  0.88839307525E+02  0.00000000000E+00 0.  1.
</event>
<event>
 8    1  0.4205029E-010  0.8423866E+02  0.7561462E-02  0.1317436E+00
         -1   -1    0    0    0  501 -0.00000000000E+00  0.00000000000E+00  0.26246129185E+03  0.26246129185E+03  0.00000000000E+00 0.  1.
          1   -1    0    0  501    0  0.00000000000E+00 -0.00000000000E+00 -0.42429056666E+02  0.42429056666E+02  0.00000000000E+00 0. -1.
         25    2    1    2    0    0 -0.17419278283E+02 -0.43579577264E+01  0.18045387487E+03  0.22030264290E+03  0.12508889023E+03 0.  0.
         23    2    1    2    0    0  0.17419278283E+02  0.43579577264E+01  0.39578360312E+02  0.84587705619E+02  0.72568659113E+02 0.  0.
          5    1    3    3  502    0  0.35244710000E+02  0.16612914424E+02  0.97466765745E+01  0.40381290382E+02  0.41800000000E+01 0. -1.
         -5    1    3    3    0  502 -0.52663988283E+02 -0.20970872150E+02  0.17070719830E+03  0.17992135252E+03  0.41800000000E+01 0. -1.
        -11    1    4    4    0    0  0.31244195407E+02 -0.24990227314E+02  0.32102631571E+02  0.51296102791E+02  0.00000000000E+00 0.  1.
         11    1    4    4    0    0 -0.13824917123E+02  0.29348185041E+02  0.74757287412E+01  0.33291602828E+02  0.00000000000E+00 0. -1.
</event>
<event>
 8    1  0.4205029E-010  0.1037039E+03  0.7561462E-02  0.1272694E+00
          1   -1    0    0  501    0  0.00000000000E+00  0.00000000000E+00  0.11795568637E+03  0.11795568637E+03  0.00000000000E+00 0. -1.
         -1   -1    0    0    0  501 -0.00000000000E+00 -0.00000000000E+00 -0.14066822636E+03  0.14066822636E+03  0.00000000000E+00 0.  1.
         25    2    1    2    0    0  0.34306967935E+02 -0.87805755384E+01  0.57411536985E+02  0.14211736898E+03  0.12508875022E+03 0.  0.
         23    2    1    2    0    0 -0.34306967935E+02  0.87805755384E+01 -0.80124076979E+02  0.11650654375E+03  0.76810419008E+02 0.  0.
          5    1    3    3  502    0  0.52512097664E+02 -0.56125925791E+02  0.46928997118E+02  0.90152332845E+02  0.41800000000E+01 0.  1.
         -5    1    3    3    0  502 -0.18205129729E+02  0.47345350252E+02  0.10482539867E+02  0.51965036140E+02  0.41800000000E+01 0.  1.
        -11    1    4    4    0    0 -0.56677651444E+02  0.65417198308E+01 -0.37374649645E+02  0.68205679438E+02  0.00000000000E+00 0. -1.
         11    1    4    4    0    0  0.22370683509E+02  0.22388557076E+01 -0.42749427334E+02  0.48300864308E+02  0.00000000000E+00 0.  1.
</event>
<event>
 8    1  0.4205029E-010  0.9265305E+02  0.7561462E-02  0.1296551E+00
          2   -1    0    0  501    0  0.00000000000E+00  0.00000000000E+00  0.56751353790E+03  0.56751353790E+03  0.00000000000E+00 0. -1.
         -2   -1    0    0    0  501 -0.00000000000E+00 -0.00000000000E+00 -0.33854964397E+02  0.33854964397E+02  0.00000000000E+00 0.  1.
         25    2    1    2    0    0 -0.22136721856E+02  0.20363682918E+02  0.42757437182E+03  0.44651144632E+03  0.12509162332E+03 0.  0.
         23    2    1    2    0    0  0.22136721856E+02 -0.20363682918E+02  0.10608420169E+03  0.15485705598E+03  0.10872964592E+03 0.  0.
          5    1    3    3  502    0 -0.26592444360E+01 -0.23773033863E+02  0.10202645240E+02  0.26339990317E+02  0.41800000000E+01 0.  1.
         -5    1    3    3    0  502 -0.19477477420E+02  0.44136716781E+02  0.41737172658E+03  0.42017145600E+03  0.41800000000E+01 0.  1.
        -11    1    4    4    0    0  0.66399835514E+02 -0.14293227917E+02  0.59273077474E+02  0.90147280790E+02  0.00000000000E+00 0.  1.
         11    1    4    4    0    0 -0.44263113658E+02 -0.60704550013E+01  0.46811124216E+02  0.64709775189E+02  0.00000000000E+00 0. -1.
</event>
<event>
 7    1  0.4205029E-010  0.1998775E+03  0.7561462E-02  0.1149842E+00
         -2   -1    0    0    0  501 -0.00000000000E+00  0.00000000000E+00  0.25873764982E+03  0.25873764982E+03  0.00000000000E+00 0.  1.
          2   -1    0    0  501    0  0.00000000000E+00 -0.00000000000E+00 -0.16723028206E+03  0.16723028206E+03  0.00000000000E+00 0. -1.
         25    2    1    2    0    0 -0.70730808630E+02 -0.13960890531E+03  0.76322636051E+02  0.21439708341E+03  0.12508985118E+03 0.  0.
          5    1    3    3  502    0  0.29689136082E+02 -0.35164804647E+01  0.19450903665E+02  0.35911286381E+02  0.41800000000E+01 0. -1.
         -5    1    3    3    0  502 -0.10041994471E+03 -0.13609242485E+03  0.56871732385E+02  0.17848579703E+03  0.41800000000E+01 0. -1.
        -11    1    1    2    0    0 -0.31728489183E+02  0.64638086221E+01  0.28369091875E+02  0.43049776092E+02  0.00000000000E+00 0.  1.
         11    1    1    2    0    0  0.10245929781E+03  0.13314509669E+03 -0.13184360163E+02  0.16852107237E+03  0.00000000000E+00 0. -1.
</event>
<event>
 8    1  0.4205029E-010  0.9917892E+02  0.7561462E-02  0.1282032E+00
         -2   -1    0    0    0  501 -0.00000000000E+00  0.00000000000E+00  0.42557742813E+02  0.42557742813E+02  0.00000000000E+00 0.  1.
          2   -1    0    0  501    0  0.00000000000E+00 -0.00000000000E+00 -0.41853223814E+03  0.41853223814E+03  0.00000000000E+00 0. -1.
         25    2    1    2    0    0 -0.12176820045E+02 -0.46625632494E+02 -0.19055439451E+03  0.23298173529E+03  0.12508911689E+03 0.  0.
         23    2    1    2    0    0  0.12176820045E+02  0.46625632494E+02 -0.18542010083E+03  0.22810824566E+03  0.12381653120E+03 0.  0.
          5    1    3    3  502    0 -0.28614363966E+02 -0.39872120638E+02 -0.84619381186E+01  0.49976440711E+02  0.41800000000E+01 0. -1.
         -5    1    3    3    0  502  0.16437543921E+02 -0.67535118562E+01 -0.18209245639E+03  0.18300529458E+03  0.41800000000E+01 0. -1.
        -11    1    4    4    0    0 -0.23091127206E+02  0.79407402555E+02 -0.97335136537E+02  0.12772182484E+03  0.00000000000E+00 0.  1.
         11    1    4    4    0    0  0.35267947251E+02 -0.32781770061E+02 -0.88084964290E+02  0.10038642082E+03  0.00000000000E+00 0. -1.
</event>
<event>
 8    1  0.4205029E-010  0.9535922E+02  0.7561462E-02  0.1290369E+00
         -4   -1    0    0    0  501 -0.00000000000E+00  0.00000000000E+00  0.47972506087E+02  0.47972506087E+02  0.00000000000E+00 0.  1.
          4   -1    0    0  501    0  0.00000000000E+00 -0.00000000000E+00 -0.37648978745E+03  0.37648978745E+03  0.00000000000E+00 0. -1.
         25    2    1    2    0    0  0.74990168386E+02 -0.19532324562E+02 -0.24666561231E+03  0.28721954122E+03  0.12508438553E+03 0.  0.
         23    2    1    2    0    0 -0.74990168386E+02  0.19532324562E+02 -0.81851669048E+02  0.13724275232E+03  0.78299682502E+02 0.  0.
          5    1    3    3  502    0  0.79246272369E+02 -0.33653748837E+02 -0.25541554893E+03  0.26956839861E+03  0.41800000000E+01 0.  1.
         -5    1    3    3    0  502 -0.42561039828E+01  0.14121424274E+02  0.87499366140E+01  0.17651142609E+02  0.41800000000E+01 0.  1.
        -11    1    4    4    0    0 -0.72193106074E+02  0.30131684516E+02 -0.29261857653E+02  0.83522567548E+02  0.00000000000E+00 0.  1.
         11    1    4    4    0    0 -0.27970623118E+01 -0.10599359954E+02 -0.52589811395E+02  0.53720184768E+02  0.00000000000E+00 0. -1.
</event>
<event>
 8    1  0.4205029E-010  0.1576471E+03  0.7561462E-02  0.1191379E+00
          2   -1    0    0  501    0  0.00000000000E+00  0.00000000000E+00  0.11795975209E+04  0.11795975209E+04  0.00000000000E+00 0. -1.
         -2   -1    0    0    0  501 -0.00000000000E+00 -0.00000000000E+00 -0.28933251429E+02  0.28933251429E+02  0.00000000000E+00 0.  1.
         25    2    1    2    0    0  0.45820240051E+02  0.14700774340E+03  0.56195001476E+03  0.59594539700E+03  0.12510925665E+03 0.  0.
         23    2    1    2    0    0 -0.45820240051E+02 -0.14700774340E+03  0.58871425467E+03  0.61258537529E+03  0.70466994752E+02 0.  0.
          5    1    3    3  502    0  0.54229742786E+02  0.13785807610E+03  0.56357388990E+03  0.58273382940E+03  0.41800000000E+01 0.  1.
         -5    1    3    3    0  502 -0.84095027357E+01  0.91496672966E+01 -0.16238751431E+01  0.13211567597E+02  0.41800000000E+01 0.  1.
        -11    1    4    4    0    0 -0.21127627312E+02 -0.68000995987E+02  0.40323071310E+03  0.40946980362E+03  0.00000000000E+00 0. -1.
         11    1    4    4    0    0 -0.24692612739E+02 -0.79006747410E+02  0.18548354157E+03  0.20311557166E+03  0.00000000000E+00 0.  1.
</event>
<event>
 7    1  0.4205029E-010  0.1547975E+03  0.7561462E-02  0.1194699E+00
         -1   -1    0    0    0  501 -0.00000000000E+00  0.00000000000E+00  0.13032496395E+03  0.13032496395E+03  0.00000000000E+00 0.  1.
          1   -1    0    0  501    0  0.00000000000E+00 -0.00000000000E+00 -0.19962270563E+03  0.19962270563E+03  0.00000000000E+00 0. -1.
         25    2    1    2    0    0 -0.12931608389E+03 -0.21302315010E+02 -0.12964197489E+02  0.18163742278E+03  0.12509054624E+03 0.  0.
          5    1    3    3  502    0 -0.13014322372E+03  0.19793986283E+02 -0.32913829166E+02  0.13575659514E+03  0.41800000000E+01 0.  1.
         -5    1    3    3    0  502  0.82713983320E+00 -0.41096301294E+02  0.19949631678E+02  0.45880827634E+02  0.41800000000E+01 0.  1.
        -11    1    1    2    0    0  0.10344376886E+03  0.32430315351E+02 -0.50291160157E+02  0.11950539511E+03  0.00000000000E+00 0.  1.
         11    1    1    2    0    0  0.25872315029E+02 -0.11128000340E+02 -0.60423840297E+01  0.28804851697E+02  0.00000000000E+00 0. -1.
</event>
<event>
 8    1  0.4205029E-010  0.8161919E+02  0.7561462E-02  0.1324518E+00
         -4   -1    0    0    0  501 -0.00000000000E+00  0.00000000000E+00  0.56721332691E+02  0.56721332691E+02  0.00000000000E+00 0.  1.
          4   -1    0    0  501    0  0.00000000000E+00 -0.00000000000E+00 -0.19296299478E+03  0.19296299478E+03  0.00000000000E+00 0. -1.
         25    2    1    2    0    0  0.35354034921E+02 -0.57345093544E+01 -0.68582322865E+02  0.14708934935E+03  0.12509576052E+03 0.  0.
         23    2    1    2    0    0 -0.35354034921E+02  0.57345093544E+01 -0.67659339228E+02  0.10259497812E+03  0.68301910427E+02 0.  0.
          5    1    3    3  502    0 -0.12610394294E+02  0.37035153342E+02 -0.72587484332E+02  0.82565367491E+02  0.41800000000E+01 0. -1.
         -5    1    3    3    0  502  0.47964429215E+02 -0.42769662697E+02  0.40051614673E+01  0.64523981863E+02  0.41800000000E+01 0. -1.
        -11    1    4    4    0    0 -0.26703398594E+02 -0.19337954811E+02 -0.34826087182E+01  0.33153530072E+02  0.00000000000E+00 0.  1.
         11    1    4    4    0    0 -0.86506363268E+01  0.25072464165E+02 -0.64176730510E+02  0.69441448049E+02  0.00000000000E+00 0. -1.
</event>
<event>
 7    1  0.4205029E-010  0.1479393E+03  0.7561462E-02  0.1203028E+00
          2   -1    0    0  501    0  0.00000000000E+00  0.00000000000E+00  0.19150519579E+02  0.19150519579E+02  0.00000000000E+00 0. -1.
         -2   -1    0    0    0  501 -0.00000000000E+00 -0.00000000000E+00 -0.13299700432E+04  0.13299700432E+04  0.00000000000E+00 0.  1.
         25    2    1    2    0    0 -0.41709845713E+02 -0.65570227791E+02 -0.85095207769E+03  0.86360061638E+03  0.12508964817E+03 0.  0.
          5    1    3    3  502    0  0.98065816721E+00 -0.92579120776E+02 -0.44901818956E+03  0.45848300105E+03  0.41800000000E+01 0. -1.
         -5    1    3    3    0  502 -0.42690503880E+02  0.27008892986E+02 -0.40193388813E+03  0.40511761533E+03  0.41800000000E+01 0. -1.
        -11    1    1    2    0    0  0.24005825591E+02 -0.39356766521E+02 -0.18799669334E+03  0.19356650392E+03  0.00000000000E+00 0.  1.
         11    1    1    2    0    0  0.17704020122E+02  0.10492699431E+03 -0.27187075261E+03  0.29195344250E+03  0.00000000000E+00 0. -1.
</event>
<event>
 8    1  0.4205029E-010  0.2083866E+03  0.7561462E-02  0.1142850E+00
          1   -1    0    0  501    0  0.00000000000E+00  0.00000000000E+00  0.36805198345E+03  0.36805198345E+03  0.00000000000E+00 0. -1.
         -1   -1    0    0    0  501 -0.00000000000E+00 -0.00000000000E+00 -0.15590971674E+03  0.15590971674E+03  0.00000000000E+00 0.  1.
         25    2    1    2    0    0 -0.16048004451E+03 -0.11437160090E+03  0.49183857205E+02  0.23854050215E+03  0.12509121304E+03 0.  0.
         23    2    1    2    0    0  0.16048004451E+03  0.11437160090E+03  0.16295840950E+03  0.28542119803E+03  0.12678765429E+03 0.  0.
          5    1    3    3  502    0 -0.28516428846E+01  0.14880470381E+02 -0.17974179222E+02  0.23876846203E+02  0.41800000000E+01 0.  1.
         -5    1    3    3    0  502 -0.15762840163E+03 -0.12925207128E+03  0.67158036427E+02  0.21466365595E+03  0.41800000000E+01 0.  1.
        -11    1    4    4    0    0  0.10355961276E+03  0.77516521780E+02  0.25075040750E+02  0.13176555777E+03  0.00000000000E+00 0.  1.
         11    1    4    4    0    0  0.56920431751E+02  0.36855079117E+02  0.13788336875E+03  0.15365564027E+03  0.00000000000E+00 0. -1.
</event>
<event>
 7    1  0.4205029E-010  0.5875298E+02  0.7561462E-02  0.1403141E+00
         -2   -1    0    0    0  501 -0.00000000000E+00  0.00000000000E+00  0.16165065646E+02  0.16165065646E+02  0.00000000000E+00 0.  1.
          2   -1    0    0  501    0  0.00000000000E+00 -0.00000000000E+00 -0.57669337876E+03  0.57669337876E+03  0.00000000000E+00 0. -1.
         25    2    1    2    0    0 -0.34947329632E+02  0.31575961438E+02 -0.35572637534E+03  0.38000985609E+03  0.12509148423E+03 0.  0.
          5    1    3    3  502    0 -0.49726339069E+01  0.29481611260E+02 -0.83651091283E+01  0.31326345800E+02  0.41800000000E+01 0. -1.
         -5    1    3    3    0  502 -0.29974695725E+02  0.20943501777E+01 -0.34736126621E+03  0.34868351029E+03  0.41800000000E+01 0. -1.
        -11    1    1    2    0    0 -0.60075269874E+00 -0.19392865977E+02 -0.52234464223E+02  0.55721480663E+02  0.00000000000E+00 0.  1.
         11    1    1    2    0    0  0.35548082331E+02 -0.12183095460E+02 -0.15256747356E+03  0.15712710765E+03  0.00000000000E+00 0. -1.
</event>
<event>
 8    1  0.4205029E-010  0.9664307E+02  0.7561462E-02  0.1287518E+00
         -2   -1    0    0    0  501 -0.00000000000E+00  0.00000000000E+00  0.15591725178E+02  0.15591725178E+02  0.00000000000E+00 0.  1.
          2   -1    0    0  501    0  0.00000000000E+00 -0.00000000000E+00 -0.70884590719E+03  0.70884590719E+03  0.00000000000E+00 0. -1.
         25    2    1    2    0    0 -0.25706621661E+02  0.18518113987E+02 -0.40212798216E+03  0.42232268233E+03  0.12508310451E+03 0.  0.
         23    2    1    2    0    0  0.25706621661E+02 -0.18518113987E+02 -0.29112619985E+03  0.30211495004E+03  0.74264580066E+02 0.  0.
          5    1    3    3  502    0 -0.10731162443E+02  0.65352661291E+02 -0.13219406442E+03  0.14791508122E+03  0.41800000000E+01 0.  1.
         -5    1    3    3    0  502 -0.14975459218E+02 -0.46834547304E+02 -0.26993391774E+03  0.27440760111E+03  0.41800000000E+01 0.  1.
        -11    1    4    4    0    0 -0.24024043098E+02  0.12654897945E+01 -0.55553331030E+02  0.60538654592E+02  0.00000000000E+00 0.  1.
         11    1    4    4    0    0  0.49730664759E+02 -0.19783603782E+02 -0.23557286882E+03  0.24157629545E+03  0.00000000000E+00 0. -1.
</event>
<event>
 8    1  0.4205029E-010  0.9326970E+02  0.7561462E-02  0.1295121E+00
          2   -1    0    0  501    0  0.00000000000E+00  0.00000000000E+00  0.53907292543E+02  0.53907292543E+02  0.00000000000E+00 0. -1.
         -2   -1    0    0    0  501 -0.00000000000E+00 -0.00000000000E+00 -0.34437680359E+03  0.34437680359E+03  0.00000000000E+00 0.  1.
         25    2    1    2    0    0 -0.56916473486E+02 -0.25238149086E+02 -0.69731924637E+02  0.15616178352E+03  0.12509001637E+03 0.  0.
         23    2    1    2    0    0  0.56916473486E+02  0.25238149086E+02 -0.22073758641E+03  0.24212231261E+03  0.77599504416E+02 0.  0.
          5    1    3    3  502    0  0.20782154058E+02 -0.18801220035E+02 -0.72702100885E+02  0.78028531161E+02  0.41800000000E+01 0.  1.
         -5    1    3    3    0  502 -0.77698627544E+02 -0.64369290515E+01  0.29701762478E+01  0.78133252363E+02  0.41800000000E+01 0.  1.
        -11    1    4    4    0    0  0.26629482897E+02  0.38705795942E+02 -0.19379099131E+03  0.19940465469E+03  0.00000000000E+00 0.  1.
         11    1    4    4    0    0  0.30286990589E+02 -0.13467646855E+02 -0.26946595104E+02  0.42717657923E+02  0.00000000000E+00 0. -1.
</event>
<event>
 8    1  0.4205029E-010  0.1952852E+03  0.7561462E-02  0.1153779E+00
          1   -1    0    0  501    0  0.00000000000E+00  0.00000000000E+00  0.59397572059E+02  0.59397572059E+02  0.00000000000E+00 0. -1.
         -1   -1    0    0    0  501 -0.00000000000E+00 -0.00000000000E+00 -0.79306006535E+03  0.79306006535E+03  0.00000000000E+00 0.  1.
         25    2    1    2    0    0 -0.37775156302E+02 -0.17041036889E+03 -0.53575303339E+03  0.57718692198E+03  0.12508706512E+03 0.  0.
         23    2    1    2    0    0  0.37775156302E+02  0.17041036889E+03 -0.19790945990E+03  0.27527071543E+03  0.78352767636E+02 0.  0.
          5    1    3    3  502    0 -0.82508085003E+02 -0.87924505039E+02 -0.31241522377E+03  0.33490154840E+03  0.41800000000E+01 0.  1.
         -5    1    3    3    0  502  0.44732928702E+02 -0.82485863850E+02 -0.22333780961E+03  0.24228537357E+03  0.41800000000E+01 0.  1.
        -11    1    4    4    0    0  0.15264844828E+02  0.28689083705E+02 -0.90115356845E+02  0.95795910929E+02  0.00000000000E+00 0.  1.
         11    1    4    4    0    0  0.22510311474E+02  0.14172128518E+03 -0.10779410306E+03  0.17947480450E+03  0.00000000000E+00 0. -1.
</event>
<event>
 8    1  0.4205029E-010  0.1332926E+03  0.7561462E-02  0.1222650E+00
         -1   -1    0    0    0  501 -0.00000000000E+00  0.00000000000E+00  0.50347295746E+02  0.50347295746E+02  0.00000000000E+00 0.  1.
          1   -1    0    0  501    0  0.00000000000E+00 -0.00000000000E+00 -0.39323326647E+03  0.39323326647E+03  0.00000000000E+00 0. -1.
         25    2    1    2    0    0  0.26666688878E+02 -0.72560272765E+02 -0.16756096998E+03  0.22293357064E+03  0.12508634129E+03 0.  0.
         23    2    1    2    0    0 -0.26666688878E+02  0.72560272765E+02 -0.17532500074E+03  0.22064699157E+03  0.10940810539E+03 0.  0.
          5    1    3    3  502    0  0.74562676733E+02 -0.61434110752E+02 -0.98314018815E+02  0.13790163676E+03  0.41800000000E+01 0.  1.
         -5    1    3    3    0  502 -0.47895987855E+02 -0.11126162014E+02 -0.69246951164E+02  0.85031933879E+02  0.41800000000E+01 0.  1.
        -11    1    4    4    0    0 -0.56634542204E+02  0.70592035870E+02 -0.16622600649E+03  0.18926645802E+03  0.00000000000E+00 0. -1.
         11    1    4    4    0    0  0.29967853326E+02  0.19682368951E+01 -0.90989942499E+01  0.31380533549E+02  0.00000000000E+00 0.  1.
</event>
<event>
 8    1  0.4205029E-010  0.1167511E+03  0.7561462E-02  0.1248555E+00
          1   -1    0    0  501    0  0.00000000000E+00  0.00000000000E+00  0.40234988029E+02  0.40234988029E+02  0.00000000000E+00 0. -1.
         -1   -1    0    0    0  501 -0.00000000000E+00 -0.00000000000E+00 -0.52044425879E+03  0.52044425879E+03  0.00000000000E+00 0.  1.
         25    2    1    2    0    0 -0.42891493889E+02 -0.37226650578E+02 -0.36037014143E+03  0.38566860772E+03  0.12509249533E+03 0.  0.
         23    2    1    2    0    0  0.42891493889E+02  0.37226650578E+02 -0.11983912933E+03  0.17501063909E+03  0.11420071417E+03 0.  0.
          5    1    3    3  502    0  0.42628342177E+02 -0.10377755869E+02 -0.80628196022E+02  0.91887168676E+02  0.41800000000E+01 0. -1.
         -5    1    3    3    0  502 -0.85519836066E+02 -0.26848894709E+02 -0.27974194541E+03  0.29378143905E+03  0.41800000000E+01 0. -1.
        -11    1    4    4    0    0 -0.10180178504E+02 -0.19510949044E+02  0.96289378626E+01  0.24021440659E+02  0.00000000000E+00 0. -1.
         11    1    4    4    0    0  0.53071672393E+02  0.56737599622E+02 -0.12946806719E+03  0.15098919843E+03  0.00000000000E+00 0.  1.
</event>
<event>
 8    1  0.4205029E-010  0.1182835E+03  0.7561462E-02  0.1245956E+00
         -2   -1    0    0    0  501 -0.00000000000E+00  0.00000000000E+00  0.38996422784E+03  0.38996422784E+03  0.00000000000E+00 0.  1.
          2   -1    0    0  501    0  0.00000000000E+00 -0.00000000000E+00 -0.71380399588E+02  0.71380399588E+02  0.00000000000E+00 0. -1.
         25    2    1    2    0    0 -0.22987662019E+02 -0.37860349264E+02  0.10889912834E+02  0.13314531450E+03  0.12508895203E+03 0.  0.
         23    2    1    2    0    0  0.22987662019E+02  0.37860349264E+02  0.30769391541E+03  0.32819931292E+03  0.10524925068E+03 0.  0.
          5    1    3    3  502    0 -0.62305620953E+02 -0.51361727099E+02  0.31229690073E+02  0.86676313690E+02  0.41800000000E+01 0. -1.
         -5    1    3    3    0  502  0.39317958934E+02  0.13501377835E+02 -0.20339777239E+02  0.46469000810E+02  0.41800000000E+01 0. -1.
        -11    1    4    4    0    0 -0.87303911173E+01 -0.34148188409E+02  0.85251979720E+02  0.92250845778E+02  0.00000000000E+00 0.  1.
         11    1    4    4    0    0  0.31718053136E+02  0.72008537673E+02  0.22244193569E+03  0.23594846714E+03  0.00000000000E+00 0. -1.
</event>
<event>
 7    1  0.4205029E-010  0.1126790E+03  0.7561462E-02  0.1255688E+00
          3   -1    0    0  501    0  0.00000000000E+00  0.00000000000E+00  0.22597752171E+03  0.22597752171E+03  0.00000000000E+00 0. -1.
         -3   -1    0    0    0  501 -0.00000000000E+00 -0.00000000000E+00 -0.97500866814E+02  0.97500866814E+02  0.00000000000E+00 0.  1.
         25    2    1    2    0    0 -0.60876619221E+02  0.95023973096E+00  0.29989514675E+02  0.14231396967E+03  0.12508808596E+03 0.  0.
          5    1    3    3  502    0 -0.96404591009E+02  0.17570417277E+02  0.30973851590E+02  0.10285629107E+03  0.41800000000E+01 0.  1.
         -5    1    3    3    0  502  0.35527971788E+02 -0.16620177546E+02 -0.98433691520E+00  0.39457678596E+02  0.41800000000E+01 0.  1.
        -11    1    1    2    0    0  0.23017357961E+01 -0.24566697992E+02 -0.29490447436E+02  0.38451360546E+02  0.00000000000E+00 0.  1.
         11    1    1    2    0    0  0.58574883425E+02  0.23616458261E+02  0.12797758765E+03  0.14271305830E+03  0.00000000000E+00 0. -1.
</event>
<event>
 8    1  0.4205029E-010  0.9672623E+02  0.7561462E-02  0.1287335E+00
          1   -1    0    0  501    0  0.00000000000E+00  0.00000000000E+00  0.34709242393E+02  0.34709242393E+02  0.00000000000E+00 0. -1.
         -1   -1    0    0    0  501 -0.00000000000E+00 -0.00000000000E+00 -0.81254187168E+03  0.81254187168E+03  0.00000000000E+00 0.  1.
         25    2    1    2    0    0 -0.22999821008E+02  0.30675645384E+02 -0.68832064623E+03  0.70064621623E+03  0.12509924580E+03 0.  0.
         23    2    1    2    0    0  0.22999821008E+02 -0.30675645384E+02 -0.89511983059E+02  0.14660489785E+03  0.10959294675E+03 0.  0.
          5    1    3    3  502    0 -0.39052010828E+02 -0.35309252758E+01 -0.62870704402E+03  0.62994249466E+03  0.41800000000E+01 0.  1.
         -5    1    3    3    0  502  0.16052189819E+02  0.34206570660E+02 -0.59613602212E+02  0.70703721564E+02  0.41800000000E+01 0.  1.
        -11    1    4    4    0    0  0.32738224412E+02  0.35976698218E+02 -0.40597721447E+02  0.63358418060E+02  0.00000000000E+00 0. -1.
         11    1    4    4    0    0 -0.97384034040E+01 -0.66652343602E+02 -0.48914261613E+02  0.83246479791E+02  0.00000000000E+00 0.  1.
</event>
<event>
 8    1  0.4205029E-010  0.9951557E+02  0.7561462E-02  0.1281318E+00
         -1   -1    0    0    0  501 -0.00000000000E+00  0.00000000000E+00  0.30634714799E+03  0.30634714799E+03  0.00000000000E+00 0.  1.
          1   -1    0    0  501    0  0.00000000000E+00 -0.00000000000E+00 -0.36966980481E+02  0.36966980481E+02  0.00000000000E+00 0. -1.
         25    2    1    2    0    0 -0.16385994329E+02  0.29631877098E+02  0.18912721241E+03  0.22926630796E+03  0.12508952211E+03 0.  0.
         23    2    1    2    0    0  0.16385994329E+02 -0.29631877098E+02  0.80252955097E+02  0.11404782051E+03  0.73619424142E+02 0.  0.
          5    1    3    3  502    0 -0.56167537599E+02  0.51528967312E+02  0.15336697185E+03  0.17131528597E+03  0.41800000000E+01 0.  1.
         -5    1    3    3    0  502  0.39781543270E+02 -0.21897090215E+02  0.35760240564E+02  0.57951021993E+02  0.41800000000E+01 0.  1.
        -11    1    4    4    0    0  0.24003685838E+02  0.17272564522E+02  0.48804419003E+02  0.57064785404E+02  0.00000000000E+00 0.  1.
         11    1    4    4    0    0 -0.76176915090E+01 -0.46904441619E+02  0.31448536094E+02  0.56983035107E+02  0.00000000000E+00 0. -1.
</event>
<event>
 8    1  0.4205029E-010  0.1236900E+03  0.7561462E-02  0.1237131E+00
          2   -1    0    0  501    0  0.00000000000E+00  0.00000000000E+00  0.14635107284E+03  0.14635107284E+03  0.00000000000E+00 0. -1.
         -2   -1    0    0    0  501 -0.00000000000E+00 -0.00000000000E+00 -0.12082538714E+03  0.12082538714E+03  0.00000000000E+00 0.  1.
         25    2    1    2    0    0 -0.49667921138E+02 -0.17615422889E+01  0.25181059773E+02  0.13693734318E+03  0.12509094598E+03 0.  0.
         23    2    1    2    0    0  0.49667921138E+02  0.17615422889E+01  0.34462592235E+00  0.13023911680E+03  0.12038315229E+03 0.  0.
          5    1    3    3  502    0 -0.39878250388E+02 -0.56694193041E+02  0.38528379683E+02  0.79412938616E+02  0.41800000000E+01 0.  1.
         -5    1    3    3    0  502 -0.97896707493E+01  0.54932650752E+02 -0.13347319910E+02  0.57524404567E+02  0.41800000000E+01 0.  1.
        -11    1    4    4    0    0  0.60435019632E+02 -0.44139773164E+02  0.22498140349E+02  0.78146512987E+02  0.00000000000E+00 0. -1.
         11    1    4    4    0    0 -0.10767098495E+02  0.45901315453E+02 -0.22153514426E+02  0.52092603810E+02  0.00000000000E+00 0.  1.
</event>
<event>
 8    1  0.4205029E-010  0.1259825E+03  0.7561462E-02  0.1233542E+00
         -1   -1    0    0    0  501 -0.00000000000E+00  0.00000000000E+00  0.53643895441E+02  0.53643895441E+02  0.00000000000E+00 0.  1.
          1   -1    0    0  501    0  0.00000000000E+00 -0.00000000000E+00 -0.38167250974E+03  0.38167250974E+03  0.00000000000E+00 0. -1.
         25    2    1    2    0    0 -0.49627647598E+02 -0.78146410271E+02 -0.11049338169E+03  0.19084545826E+03  0.12507372505E+03 0.  0.
         23    2    1    2    0    0  0.49627647598E+02  0.78146410271E+02 -0.21753523262E+03  0.24447094692E+03  0.62247101253E+02 0.  0.
          5    1    3    3  502    0 -0.90177002772E+02 -0.37427096840E+02 -0.64099441924E+02  0.11687125507E+03  0.41800000000E+01 0.  1.
         -5    1    3    3    0  502  0.40549355174E+02 -0.40719313431E+02 -0.46393939762E+02  0.73974203192E+02  0.41800000000E+01 0.  1.
        -11    1    4    4    0    0  0.23479148324E+02  0.60976521421E+02 -0.19570615730E+03  0.20632572931E+03  0.00000000000E+00 0. -1.
         11    1    4    4    0    0  0.26148499274E+02  0.17169888850E+02 -0.21829075320E+02  0.38145217613E+02  0.00000000000E+00 0.  1.
</event>
<event>
 8    1  0.4205029E-010  0.1783085E+03  0.7561462E-02  0.1169450E+00
         -2   -1    0    0    0  501 -0.00000000000E+00  0.00000000000E+00  0.17673571726E+03  0.17673571726E+03  0.00000000000E+00 0.  1.
          2   -1    0    0  501    0  0.00000000000E+00 -0.00000000000E+00 -0.20249381513E+03  0.20249381513E+03  0.00000000000E+00 0. -1.
         25    2    1    2    0    0  0.56926826185E+02  0.14280029626E+03 -0.52345669137E+02  0.20498715388E+03  0.12508827295E+03 0.  0.
         23    2    1    2    0    0 -0.56926826185E+02 -0.14280029626E+03  0.26587571271E+02  0.17424237851E+03  0.77594583385E+02 0.  0.
          5    1    3    3  502    0  0.79800628433E+02  0.57893720028E+02 -0.61824135622E+02  0.11644534882E+03  0.41800000000E+01 0.  1.
         -5    1    3    3    0  502 -0.22873802248E+02  0.84906576231E+02  0.94784664853E+01  0.88541805061E+02  0.41800000000E+01 0.  1.
        -11    1    4    4    0    0  0.13819803306E+02 -0.57243291506E+02 -0.41898974621E+01  0.59036739634E+02  0.00000000000E+00 0.  1.
         11    1    4    4    0    0 -0.70746629491E+02 -0.85557004754E+02  0.30777468733E+02  0.11520563887E+03  0.00000000000E+00 0. -1.
</event>
<event>
 8    1  0.4205029E-010  0.1017528E+03  0.7561462E-02  0.1276653E+00
         -1   -1    0    0    0  501 -0.00000000000E+00  0.00000000000E+00  0.10966424361E+03  0.10966424361E+03  0.00000000000E+00 0.  1.
          1   -1    0    0  501    0  0.00000000000E+00 -0.00000000000E+00 -0.15441102343E+03  0.15441102343E+03  0.00000000000E+00 0. -1.
         25    2    1    2    0    0  0.59518645895E+02  0.44836697150E+02  0.48583871181E+01  0.14568345692E+03  0.12508903658E+03 0.  0.
         23    2    1    2    0    0 -0.59518645895E+02 -0.44836697150E+02 -0.49605166935E+02  0.11839181012E+03  0.77479994165E+02 0.  0.
          5    1    3    3  502    0  0.74561234373E+02  0.52802071615E+02 -0.38259185493E+02  0.99139669722E+02  0.41800000000E+01 0.  1.
         -5    1    3    3    0  502 -0.15042588478E+02 -0.79653744646E+01  0.43117572611E+02  0.46543787194E+02  0.41800000000E+01 0.  1.
        -11    1    4    4    0    0  0.11383145069E+02 -0.11463962030E+02 -0.35179645163E+02  0.38711830891E+02  0.00000000000E+00 0. -1.
         11    1    4    4    0    0 -0.70901790964E+02 -0.33372735120E+02 -0.14425521772E+02  0.79679979227E+02  0.00000000000E+00 0.  1.
</event>
<event>
 8    1  0.4205029E-010  0.1255771E+03  0.7561462E-02  0.1234170E+00
          2   -1    0    0  501    0  0.00000000000E+00  0.00000000000E+00  0.48192921377E+03  0.48192921377E+03  0.00000000000E+00 0.  1.
         -2   -1    0    0    0  501 -0.00000000000E+00 -0.00000000000E+00 -0.38872829406E+02  0.38872829406E+02  0.00000000000E+00 0. -1.
         25    2    1    2    0    0  0.72051454746E+02  0.54308601122E+02  0.24275561541E+03  0.28760817357E+03  0.12508931371E+03 0.  0.
         23    2    1    2    0    0 -0.72051454746E+02 -0.54308601122E+02  0.20030076895E+03  0.23319386960E+03  0.78218581492E+02 0.  0.
          5    1    3    3  502    0  0.86505996155E+02 -0.97365781261E+00  0.92110540653E+02  0.12643598965E+03  0.41800000000E+01 0. -1.
         -5    1    3    3    0  502 -0.14454541409E+02  0.55282258935E+02  0.15064507476E+03  0.16117218392E+03  0.41800000000E+01 0. -1.
        -11    1    4    4    0    0 -0.37744797865E+02  0.56534344169E+01  0.12638109602E+03  0.13201822797E+03  0.00000000000E+00 0.  1.
         11    1    4    4    0    0 -0.34306656881E+02 -0.59962035539E+02  0.73919672934E+02  0.10117564163E+03  0.00000000000E+00 0. -1.
</event>
<event>
 8    1  0.5273011E-010  0.1224278E+03  0.7561462E-02  0.1239145E+00
         -2   -1    0    0    0  501 -0.00000000000E+00  0.00000000000E+00  0.32350699561E+02  0.32350699561E+02  0.00000000000E+00 0. -1.
          2   -1    0    0  501    0  0.00000000000E+00 -0.00000000000E+00 -0.70299183829E+03  0.70299183829E+03  0.00000000000E+00 0.  1.
         25    2    1    2    0    0  0.58614144046E+02  0.66414655895E+02 -0.45199366714E+03  0.47727577037E+03  0.12508941379E+03 0.  0.
         23    2    1    2    0    0 -0.58614144046E+02 -0.66414655895E+02 -0.21864747159E+03  0.25806676748E+03  0.10461938276E+03 0.  0.
          5    1    3    3  502    0  0.26194024326E+02  0.71190291497E+02 -0.10996911012E+03  0.13365950058E+03  0.41800000000E+01 0.  1.
         -5    1    3    3    0  502  0.32420119720E+02 -0.47756356025E+01 -0.34202455702E+03  0.34361626979E+03  0.41800000000E+01 0.  1.
        -11    1    4    4    0    0 -0.50510503545E+02  0.16040544507E+02 -0.10258885906E+03  0.11546897436E+03  0.00000000000E+00 0. -1.
         11    1    4    4    0    0 -0.81036405013E+01 -0.82455200401E+02 -0.11605861253E+03  0.14259779313E+03  0.00000000000E+00 0.  1.
</event>
<event>
 7    1  0.4205029E-010  0.7621305E+02  0.7561462E-02  0.1340155E+00
         -2   -1    0    0    0  501 -0.00000000000E+00  0.00000000000E+00  0.20861009299E+02  0.20861009299E+02  0.00000000000E+00 0.  1.
          2   -1    0    0  501    0  0.00000000000E+00 -0.00000000000E+00 -0.40933432072E+03  0.40933432072E+03  0.00000000000E+00 0. -1.
         25    2    1    2    0    0 -0.41139709809E+02  0.96090198285E+01 -0.29659490328E+03  0.32465468699E+03  0.12508924873E+03 0.  0.
          5    1    3    3  502    0 -0.64463656385E+01 -0.43870809220E+02 -0.22208613289E+03  0.22650811542E+03  0.41800000000E+01 0.  1.
         -5    1    3    3    0  502 -0.34693344170E+02  0.53479829049E+02 -0.74508770392E+02  0.98146571566E+02  0.41800000000E+01 0.  1.
        -11    1    1    2    0    0  0.20294601989E+02 -0.11051247483E+02 -0.19595524368E+02  0.30298275794E+02  0.00000000000E+00 0.  1.
         11    1    1    2    0    0  0.20845107819E+02  0.14422276548E+01 -0.72282883775E+02  0.75242367237E+02  0.00000000000E+00 0. -1.
</event>
<event>
 8    1  0.4205029E-010  0.9252553E+02  0.7561462E-02  0.1296848E+00
         -1   -1    0    0    0  501 -0.00000000000E+00  0.00000000000E+00  0.27068710842E+02  0.27068710842E+02  0.00000000000E+00 0.  1.
          1   -1    0    0  501    0  0.00000000000E+00 -0.00000000000E+00 -0.39892411214E+03  0.39892411214E+03  0.00000000000E+00 0. -1.
         25    2    1    2    0    0  0.21099888845E+02 -0.80044087024E+01 -0.24698634442E+03  0.27776889043E+03  0.12507608202E+03 0.  0.
         23    2    1    2    0    0 -0.21099888845E+02  0.80044087024E+01 -0.12486905688E+03  0.14822393255E+03  0.76607943107E+02 0.  0.
          5    1    3    3  502    0 -0.48759540461E+02 -0.22767160935E+02 -0.12838653556E+03  0.13927099955E+03  0.41800000000E+01 0.  1.
         -5    1    3    3    0  502  0.69859429306E+02  0.14762752233E+02 -0.11859980886E+03  0.13849789088E+03  0.41800000000E+01 0.  1.
        -11    1    4    4    0    0 -0.22954543065E+01 -0.23095096908E+02 -0.60689409628E+01  0.23989261266E+02  0.00000000000E+00 0.  1.
         11    1    4    4    0    0 -0.18804434539E+02  0.31099505611E+02 -0.11880011592E+03  0.12423467129E+03  0.00000000000E+00 0. -1.
</event>
<event>
 8    1  0.4205029E-010  0.1030468E+03  0.7561462E-02  0.1274016E+00
          2   -1    0    0  501    0  0.00000000000E+00  0.00000000000E+00  0.97848133919E+02  0.97848133919E+02  0.00000000000E+00 0.  1.
         -2   -1    0    0    0  501 -0.00000000000E+00 -0.00000000000E+00 -0.12043328175E+03  0.12043328175E+03  0.00000000000E+00 0. -1.
         25    2    1    2    0    0  0.32843531862E+02  0.17574099118E+02 -0.53792597420E+01  0.13062894462E+03  0.12508972057E+03 0.  0.
         23    2    1    2    0    0 -0.32843531862E+02 -0.17574099118E+02 -0.17205888092E+02  0.87652471047E+02  0.77455577918E+02 0.  0.
          5    1    3    3  502    0 -0.20639617333E+02  0.55409188969E+02 -0.21461502085E+02  0.63041577531E+02  0.41800000000E+01 0.  1.
         -5    1    3    3    0  502  0.53483149195E+02 -0.37835089850E+02  0.16082242343E+02  0.67587367093E+02  0.41800000000E+01 0.  1.
        -11    1    4    4    0    0 -0.33355006073E+02  0.23049739240E+02  0.58105582237E+01  0.40958631520E+02  0.00000000000E+00 0.  1.
         11    1    4    4    0    0  0.51147421045E+00 -0.40623838358E+02 -0.23016446315E+02  0.46693839527E+02  0.00000000000E+00 0. -1.
</event>
<event>
 8    1  0.4205029E-010  0.1302500E+03  0.7561462E-02  0.1227085E+00
         -1   -1    0    0    0  501 -0.00000000000E+00  0.00000000000E+00  0.82690063285E+02  0.82690063285E+02  0.00000000000E+00 0.  1.
          1   -1    0    0  501    0  0.00000000000E+00 -0.00000000000E+00 -0.35870866493E+03  0.35870866493E+03  0.00000000000E+00 0. -1.
         25    2    1    2    0    0 -0.78060885022E+02  0.86072426650E+02 -0.15250563703E+03  0.22892782040E+03  0.12509201904E+03 0.  0.
         23    2    1    2    0    0  0.78060885022E+02 -0.86072426650E+02 -0.12351296462E+03  0.21247090782E+03  0.12800964745E+03 0.  0.
          5    1    3    3  502    0 -0.77942133222E+02  0.62840280088E+02 -0.17149994795E+03  0.19862925635E+03  0.41800000000E+01 0. -1.
         -5    1    3    3    0  502 -0.11875179941E+00  0.23232146563E+02  0.18994310920E+02  0.30298564045E+02  0.41800000000E+01 0. -1.
        -11    1    4    4    0    0  0.39245335305E+02 -0.89495077632E+02 -0.17176641171E+02  0.99219969086E+02  0.00000000000E+00 0.  1.
         11    1    4    4    0    0  0.38815549717E+02  0.34226509815E+01 -0.10633632345E+03  0.11325093873E+03  0.00000000000E+00 0. -1.
</event>
<event>
 8    1  0.4205029E-010  0.2147913E+03  0.7561462E-02  0.1137827E+00
         -1   -1    0    0    0  501 -0.00000000000E+00  0.00000000000E+00  0.14596953680E+03  0.14596953680E+03  0.00000000000E+00 0.  1.
          1   -1    0    0  501    0  0.00000000000E+00 -0.00000000000E+00 -0.34740642613E+03  0.34740642613E+03  0.00000000000E+00 0. -1.
         25    2    1    2    0    0  0.20620708142E+02  0.19218232366E+03 -0.10617537393E+03  0.25353634701E+03  0.12509280593E+03 0.  0.
         23    2    1    2    0    0 -0.20620708142E+02 -0.19218232366E+03 -0.95261515393E+02  0.23983961592E+03  0.10530444396E+03 0.  0.
          5    1    3    3  502    0 -0.45109198790E+02  0.28089872902E+02 -0.27961921219E+02  0.60193207370E+02  0.41800000000E+01 0.  1.
         -5    1    3    3    0  502  0.65729906932E+02  0.16409245076E+03 -0.78213452713E+02  0.19334313964E+03  0.41800000000E+01 0.  1.
        -11    1    4    4    0    0 -0.31301049238E+02 -0.68429954104E+02  0.11410515509E+02  0.76109225237E+02  0.00000000000E+00 0.  1.
         11    1    4    4    0    0  0.10680341096E+02 -0.12375236956E+03 -0.10667203090E+03  0.16373039069E+03  0.00000000000E+00 0. -1.
</event>
<event>
 8    1  0.4205029E-010  0.1114874E+03  0.7561462E-02  0.1257840E+00
         -2   -1    0    0    0  501 -0.00000000000E+00  0.00000000000E+00  0.37642915969E+02  0.37642915969E+02  0.00000000000E+00 0. -1.
          2   -1    0    0  501    0  0.00000000000E+00 -0.00000000000E+00 -0.36737056398E+03  0.36737056398E+03  0.00000000000E+00 0.  1.
         25    2    1    2    0    0 -0.14226119875E+02 -0.10635553866E+02 -0.21385123810E+03  0.24838669613E+03  0.12509237102E+03 0.  0.
         23    2    1    2    0    0  0.14226119875E+02  0.10635553866E+02 -0.11587640992E+03  0.15662678382E+03  0.10387063850E+03 0.  0.
          5    1    3    3  502    0 -0.85510671999E+01 -0.67917159035E+02 -0.11254620703E+03  0.13179522889E+03  0.41800000000E+01 0. -1.
         -5    1    3    3    0  502 -0.56750526755E+01  0.57281605169E+02 -0.10130503107E+03  0.11659146724E+03  0.41800000000E+01 0. -1.
        -11    1    4    4    0    0  0.35883621531E+02 -0.32499706650E+02 -0.89167420613E+02  0.10146277212E+03  0.00000000000E+00 0.  1.
         11    1    4    4    0    0 -0.21657501656E+02  0.43135260516E+02 -0.26708989303E+02  0.55164011705E+02  0.00000000000E+00 0. -1.
</event>
<event>
 7    1  0.4205029E-010  0.1077389E+03  0.7561462E-02  0.1264815E+00
         -1   -1    0    0    0  501 -0.00000000000E+00  0.00000000000E+00  0.16894786556E+02  0.16894786556E+02  0.00000000000E+00 0.  1.
          1   -1    0    0  501    0  0.00000000000E+00 -0.00000000000E+00 -0.15499161956E+04  0.15499161956E+04  0.00000000000E+00 0. -1.
         25    2    1    2    0    0 -0.97742294532E+01  0.28709060831E+02 -0.11935282562E+04  0.12004488575E+04  0.12509202727E+03 0.  0.
          5    1    3    3  502    0  0.12688672533E+02 -0.31357993207E+02 -0.11343418367E+03  0.11844455485E+03  0.41800000000E+01 0. -1.
         -5    1    3    3    0  502 -0.22462901986E+02  0.60067054038E+02 -0.10800940726E+04  0.10820043027E+04  0.41800000000E+01 0. -1.
        -11    1    1    2    0    0 -0.25171728338E+02  0.35797979905E+02 -0.44616272200E+02  0.62495784000E+02  0.00000000000E+00 0.  1.
         11    1    1    2    0    0  0.34945957791E+02 -0.64507040736E+02 -0.29487688062E+03  0.30386634067E+03  0.00000000000E+00 0. -1.
</event>
<event>
 7    1  0.4205029E-010  0.1045039E+03  0.7561462E-02  0.1271100E+00
         -2   -1    0    0    0  501 -0.00000000000E+00  0.00000000000E+00  0.39599841139E+03  0.39599841139E+03  0.00000000000E+00 0.  1.
          2   -1    0    0  501    0  0.00000000000E+00 -0.00000000000E+00 -0.31622427828E+02  0.31622427828E+02  0.00000000000E+00 0. -1.
         25    2    1    2    0    0 -0.24596251515E+02 -0.65443946697E+02  0.20015169739E+03  0.24616322184E+03  0.12509094320E+03 0.  0.
          5    1    3    3  502    0  0.44824641819E+02 -0.57080485635E+01  0.10315868591E+03  0.11269878975E+03  0.41800000000E+01 0.  1.
         -5    1    3    3    0  502 -0.69420893333E+02 -0.59735898134E+02  0.96993011480E+02  0.13346443209E+03  0.41800000000E+01 0.  1.
        -11    1    1    2    0    0 -0.20595991553E+01  0.12549780206E+02  0.62193433235E+02  0.63480406973E+02  0.00000000000E+00 0. -1.
         11    1    1    2    0    0  0.26655850670E+02  0.52894166491E+02  0.10203085294E+03  0.11797721040E+03  0.00000000000E+00 0.  1.
</event>
<event>
 7    1  0.4205029E-010  0.6998356E+02  0.7561462E-02  0.1360149E+00
          2   -1    0    0  501    0  0.00000000000E+00  0.00000000000E+00  0.10517106609E+04  0.10517106609E+04  0.00000000000E+00 0. -1.
         -2   -1    0    0    0  501 -0.00000000000E+00 -0.00000000000E+00 -0.93946524148E+01  0.93946524148E+01  0.00000000000E+00 0.  1.
         25    2    1    2    0    0  0.37503476570E+02 -0.32619716796E+02  0.72336849461E+03  0.73578533954E+03  0.12509008839E+03 0.  0.
          5    1    3    3  502    0  0.49683157378E+02 -0.10048182581E+02  0.10300383733E+03  0.11487665126E+03  0.41800000000E+01 0. -1.
         -5    1    3    3    0  502 -0.12179680808E+02 -0.22571534215E+02  0.62036465728E+03  0.62090868828E+03  0.41800000000E+01 0. -1.
        -11    1    1    2    0    0 -0.41278271843E+02  0.13201516060E+02  0.24324894855E+03  0.24707939356E+03  0.00000000000E+00 0.  1.
         11    1    1    2    0    0  0.37747952723E+01  0.19418200736E+02  0.75698565327E+02  0.78240580211E+02  0.00000000000E+00 0. -1.
</event>
<event>
 8    1  0.4521533E-010  0.1580329E+03  0.7561462E-02  0.1190936E+00
         -2   -1    0    0    0  501 -0.00000000000E+00  0.00000000000E+00  0.42563068223E+02  0.42563068223E+02  0.00000000000E+00 0.  1.
          2   -1    0    0  501    0  0.00000000000E+00 -0.00000000000E+00 -0.83781312252E+03  0.83781312252E+03  0.00000000000E+00 0. -1.
         25    2    1    2    0    0  0.12386207295E+03 -0.78705395061E+02 -0.55951420537E+03  0.59181055160E+03  0.12508889100E+03 0.  0.
         23    2    1    2    0    0 -0.12386207295E+03  0.78705395061E+02 -0.23573584893E+03  0.28856563914E+03  0.78500861740E+02 0.  0.
          5    1    3    3  502    0  0.10938872860E+03 -0.23338271275E+02 -0.48508558092E+03  0.49783135906E+03  0.41800000000E+01 0. -1.
         -5    1    3    3    0  502  0.14473344347E+02 -0.55367123786E+02 -0.74428624448E+02  0.93979192539E+02  0.41800000000E+01 0. -1.
        -11    1    4    4    0    0 -0.95692619946E+02  0.61361814932E+02 -0.10866386588E+03  0.15725834030E+03  0.00000000000E+00 0.  1.
         11    1    4    4    0    0 -0.28169453004E+02  0.17343580129E+02 -0.12707198304E+03  0.13130729884E+03  0.00000000000E+00 0. -1.
</event>
<event>
 8    1  0.4205029E-010  0.1433628E+03  0.7561462E-02  0.1208874E+00
          1   -1    0    0  501    0  0.00000000000E+00  0.00000000000E+00  0.41109184925E+03  0.41109184925E+03  0.00000000000E+00 0. -1.
         -1   -1    0    0    0  501 -0.00000000000E+00 -0.00000000000E+00 -0.76059550245E+02  0.76059550245E+02  0.00000000000E+00 0.  1.
         25    2    1    2    0    0  0.58403096944E+01  0.11519129254E+03  0.63067519543E+02  0.18146209826E+03  0.12509131860E+03 0.  0.
         23    2    1    2    0    0 -0.58403096944E+01 -0.11519129254E+03  0.27196477946E+03  0.30568930123E+03  0.78600028780E+02 0.  0.
          5    1    3    3  502    0  0.50865942414E+02  0.47380582192E+02 -0.11986619812E+02  0.70664100653E+02  0.41800000000E+01 0.  1.
         -5    1    3    3    0  502 -0.45025632719E+02  0.67810710353E+02  0.75054139355E+02  0.11079799761E+03  0.41800000000E+01 0.  1.
        -11    1    4    4    0    0 -0.37334824193E+02 -0.80434655671E+02  0.21015583447E+03  0.22809887701E+03  0.00000000000E+00 0.  1.
         11    1    4    4    0    0  0.31494514498E+02 -0.34756636874E+02  0.61808944994E+02  0.77590424226E+02  0.00000000000E+00 0. -1.
</event>
<event>
 8    1  0.4205029E-010  0.8305931E+02  0.7561462E-02  0.1320587E+00
         -2   -1    0    0    0  501 -0.00000000000E+00  0.00000000000E+00  0.85163130311E+01  0.85163130311E+01  0.00000000000E+00 0.  1.
          2   -1    0    0  501    0  0.00000000000E+00 -0.00000000000E+00 -0.17243749062E+04  0.17243749062E+04  0.00000000000E+00 0. -1.
         25    2    1    2    0    0 -0.10076654952E+02  0.62082333897E+02 -0.11775230668E+04  0.11858177289E+04  0.12508940053E+03 0.  0.
         23    2    1    2    0    0  0.10076654952E+02 -0.62082333897E+02 -0.53833552638E+03  0.54707349036E+03  0.74353949031E+02 0.  0.
          5    1    3    3  502    0  0.74589931936E+01  0.36302181841E+02 -0.84765842124E+02  0.92607804082E+02  0.41800000000E+01 0.  1.
         -5    1    3    3    0  502 -0.17535648146E+02  0.25780152056E+02 -0.10927572247E+04  0.10932099248E+04  0.41800000000E+01 0.  1.
        -11    1    4    4    0    0  0.39229592683E+02 -0.54663232180E+02 -0.37731486079E+03  0.38326692274E+03  0.00000000000E+00 0.  1.
         11    1    4    4    0    0 -0.29152937730E+02 -0.74191017174E+01 -0.16102066558E+03  0.16380656761E+03  0.00000000000E+00 0. -1.
</event>
<event>
 7    1  0.4205029E-010  0.1584936E+03  0.7561462E-02  0.1190408E+00
         -2   -1    0    0    0  501 -0.00000000000E+00  0.00000000000E+00  0.16908528788E+03  0.16908528788E+03  0.00000000000E+00 0.  1.
          2   -1    0    0  501    0  0.00000000000E+00 -0.00000000000E+00 -0.15477040785E+03  0.15477040785E+03  0.00000000000E+00 0. -1.
         25    2    1    2    0    0  0.53869028626E+02  0.12093822793E+03  0.38376128667E+00  0.18214565046E+03  0.12509581723E+03 0.  0.
          5    1    3    3  502    0  0.78701813200E+02  0.33969968580E+02  0.22945179016E+02  0.88836297797E+02  0.41800000000E+01 0.  1.
         -5    1    3    3    0  502 -0.24832784574E+02  0.86968259351E+02 -0.22561417730E+02  0.93309352662E+02  0.41800000000E+01 0.  1.
        -11    1    1    2    0    0 -0.29525213450E+02 -0.17417159898E+02 -0.11625532079E+01  0.34299376352E+02  0.00000000000E+00 0.  1.
         11    1    1    2    0    0 -0.24343815176E+02 -0.10352106803E+03  0.15093671949E+02  0.10741066892E+03  0.00000000000E+00 0. -1.
</event>
<event>
 8    1  0.4205029E-010  0.1551591E+03  0.7561462E-02  0.1194273E+00
          2   -1    0    0  501    0  0.00000000000E+00  0.00000000000E+00  0.14476538121E+03  0.14476538121E+03  0.00000000000E+00 0. -1.
         -2   -1    0    0    0  501 -0.00000000000E+00 -0.00000000000E+00 -0.17623031206E+03  0.17623031206E+03  0.00000000000E+00 0.  1.
         25    2    1    2    0    0 -0.44013593103E+02  0.11341158883E+03 -0.30550801184E+01  0.17451161481E+03  0.12508231421E+03 0.  0.
         23    2    1    2    0    0  0.44013593103E+02 -0.11341158883E+03 -0.28409850732E+02  0.14648407846E+03  0.76492357552E+02 0.  0.
          5    1    3    3  502    0 -0.14188580716E+02  0.13212957411E+03 -0.21273114141E+02  0.13464604696E+03  0.41800000000E+01 0. -1.
         -5    1    3    3    0  502 -0.29825012387E+02 -0.18717985272E+02  0.18218034023E+02  0.39865567852E+02  0.41800000000E+01 0. -1.
        -11    1    4    4    0    0  0.13919344950E+01 -0.95762557826E+02 -0.82094668349E+01  0.96123880013E+02  0.00000000000E+00 0. -1.
         11    1    4    4    0    0  0.42621658608E+02 -0.17649031008E+02 -0.20200383897E+02  0.50360198447E+02  0.00000000000E+00 0.  1.
</event>
<event>
 8    1  0.4205029E-010  0.2932214E+03  0.7561462E-02  0.1088679E+00
          2   -1    0    0  501    0  0.00000000000E+00  0.00000000000E+00  0.10941617428E+04  0.10941617428E+04  0.00000000000E+00 0. -1.
         -2   -1    0    0    0  501 -0.00000000000E+00 -0.00000000000E+00 -0.18638776040E+03  0.18638776040E+03  0.00000000000E+00 0.  1.
         25    2    1    2    0    0 -0.28233268570E+03  0.57398536845E+02  0.93338268045E+03  0.98481328191E+03  0.12509050573E+03 0.  0.
         23    2    1    2    0    0  0.28233268570E+03 -0.57398536845E+02 -0.25608698064E+02  0.29573622128E+03  0.61626047365E+02 0.  0.
          5    1    3    3  502    0 -0.18075225459E+03  0.12011658713E+01  0.40057087925E+03  0.43948529218E+03  0.41800000000E+01 0. -1.
         -5    1    3    3    0  502 -0.10158043110E+03  0.56197370974E+02  0.53281180120E+03  0.54532798973E+03  0.41800000000E+01 0. -1.
        -11    1    4    4    0    0  0.94540351272E+02 -0.32843350744E+02 -0.35226579597E+02  0.10610125172E+03  0.00000000000E+00 0. -1.
         11    1    4    4    0    0  0.18779233443E+03 -0.24555186101E+02  0.96178815328E+01  0.18963496956E+03  0.00000000000E+00 0.  1.
</event>
<event>
 8    1  0.4205029E-010  0.1249072E+03  0.7561462E-02  0.1235214E+00
          2   -1    0    0  501    0  0.00000000000E+00  0.00000000000E+00  0.87543755611E+03  0.87543755611E+03  0.00000000000E+00 0. -1.
         -2   -1    0    0    0  501 -0.00000000000E+00 -0.00000000000E+00 -0.29426984511E+02  0.29426984511E+02  0.00000000000E+00 0.  1.
         25    2    1    2    0    0 -0.95786614822E+02  0.72488930252E+02  0.56844995812E+03  0.59431572457E+03  0.12508439149E+03 0.  0.
         23    2    1    2    0    0  0.95786614822E+02 -0.72488930252E+02  0.27756061348E+03  0.31054881605E+03  0.70504981445E+02 0.  0.
          5    1    3    3  502    0 -0.60482105511E+02  0.71322051965E+02  0.16824001332E+03  0.19252816590E+03  0.41800000000E+01 0.  1.
         -5    1    3    3    0  502 -0.35304509311E+02  0.11668782868E+01  0.40020994480E+03  0.40178755867E+03  0.41800000000E+01 0.  1.
        -11    1    4    4    0    0  0.74555862422E+02 -0.61944771109E+02  0.26799602509E+03  0.28498701857E+03  0.00000000000E+00 0.  1.
         11    1    4    4    0    0  0.21230752400E+02 -0.10544159144E+02  0.95645883897E+01  0.25561797483E+02  0.00000000000E+00 0. -1.
</event>
<event>
 8    1  0.4205029E-010  0.8246035E+02  0.7561462E-02  0.1322211E+00
         -2   -1    0    0    0  501 -0.00000000000E+00  0.00000000000E+00  0.39642571106E+02  0.39642571106E+02  0.00000000000E+00 0.  1.
          2   -1    0    0  501    0  0.00000000000E+00 -0.00000000000E+00 -0.50855399194E+03  0.50855399194E+03  0.00000000000E+00 0. -1.
         25    2    1    2    0    0  0.89851703329E+01  0.23008694817E+02 -0.44868696423E+03  0.46645165033E+03  0.12508803663E+03 0.  0.
         23    2    1    2    0    0 -0.89851703329E+01 -0.23008694817E+02 -0.20224456606E+02  0.81744912712E+02  0.75253363952E+02 0.  0.
          5    1    3    3  502    0  0.51555905342E+02 -0.18745907729E+02 -0.11536658757E+03  0.12781370177E+03  0.41800000000E+01 0. -1.
         -5    1    3    3    0  502 -0.42570735009E+02  0.41754602546E+02 -0.33332037666E+03  0.33863794857E+03  0.41800000000E+01 0. -1.
        -11    1    4    4    0    0 -0.18296278681E+02  0.63192529512E+01  0.22124809024E+02  0.29397175813E+02  0.00000000000E+00 0.  1.
         11    1    4    4    0    0  0.93111083476E+01 -0.29327947768E+02 -0.42349265630E+02  0.52347736899E+02  0.00000000000E+00 0. -1.
</event>
<event>
 7    1  0.4205029E-010  0.2411921E+03  0.7561462E-02  0.1119001E+00
          1   -1    0    0  501    0  0.00000000000E+00  0.00000000000E+00  0.93094337877E+02  0.93094337877E+02  0.00000000000E+00 0. -1.
         -1   -1    0    0    0  501 -0.00000000000E+00 -0.00000000000E+00 -0.94941251612E+03  0.94941251612E+03  0.00000000000E+00 0.  1.
         25    2    1    2    0    0 -0.19947628858E+03 -0.37435061368E+02 -0.68327549618E+03  0.72367576516E+03  0.12509610652E+03 0.  0.
          5    1    3    3  502    0  0.17522513441E+02  0.18467031945E-02 -0.58962773208E+02  0.61653219746E+02  0.41800000000E+01 0.  1.
         -5    1    3    3    0  502 -0.21699880202E+03 -0.37436908072E+02 -0.62431272297E+03  0.66202254541E+03  0.41800000000E+01 0.  1.
        -11    1    1    2    0    0  0.30282124741E+02  0.65927384953E+02  0.35193178922E+01  0.72634790314E+02  0.00000000000E+00 0. -1.
         11    1    1    2    0    0  0.16919416384E+03 -0.28492323584E+02 -0.17656199995E+03  0.24619629853E+03  0.00000000000E+00 0.  1.
</event>
<event>
 8    1  0.4205029E-010  0.6569332E+02  0.7561462E-02  0.1375382E+00
          1   -1    0    0  501    0  0.00000000000E+00  0.00000000000E+00  0.24958770121E+03  0.24958770121E+03  0.00000000000E+00 0. -1.
         -1   -1    0    0    0  501 -0.00000000000E+00 -0.00000000000E+00 -0.43220830466E+02  0.43220830466E+02  0.00000000000E+00 0.  1.
         25    2    1    2    0    0  0.27270581919E+02 -0.97149255522E+01  0.13325406181E+03  0.18504673476E+03  0.12509030594E+03 0.  0.
         23    2    1    2    0    0 -0.27270581919E+02  0.97149255522E+01  0.73112808929E+02  0.10776179691E+03  0.73682139134E+02 0.  0.
          5    1    3    3  502    0  0.40767639489E+01 -0.37343604658E+02  0.14261997743E+03  0.14754353654E+03  0.41800000000E+01 0. -1.
         -5    1    3    3    0  502  0.23193817971E+02  0.27628679106E+02 -0.93659156194E+01  0.37503198218E+02  0.41800000000E+01 0. -1.
        -11    1    4    4    0    0  0.10318930177E+02  0.16123251789E+02 -0.58980590507E+01  0.20030643245E+02  0.00000000000E+00 0.  1.
         11    1    4    4    0    0 -0.37589512096E+02 -0.64083262363E+01  0.79010867979E+02  0.87731153666E+02  0.00000000000E+00 0. -1.
</event>
<event>
 8    1  0.4205029E-010  0.1062604E+03  0.7561462E-02  0.1267656E+00
         -4   -1    0    0    0  501 -0.00000000000E+00  0.00000000000E+00  0.62200237346E+03  0.62200237346E+03  0.00000000000E+00 0.  1.
          4   -1    0    0  501    0  0.00000000000E+00 -0.00000000000E+00 -0.22716516037E+02  0.22716516037E+02  0.00000000000E+00 0. -1.
         25    2    1    2    0    0 -0.60604979927E+02  0.20356605449E+02  0.31802317511E+03  0.34766843904E+03  0.12508896281E+03 0.  0.
         23    2    1    2    0    0  0.60604979927E+02 -0.20356605449E+02  0.28126268230E+03  0.29705045045E+03  0.71013510553E+02 0.  0.
          5    1    3    3  502    0  0.11571443994E+02 -0.33717220234E+02  0.17418258549E+03  0.17784204999E+03  0.41800000000E+01 0.  1.
         -5    1    3    3    0  502 -0.72176423921E+02  0.54073825682E+02  0.14384058962E+03  0.16982638905E+03  0.41800000000E+01 0.  1.
        -11    1    4    4    0    0 -0.17096235676E+01  0.14732932270E+02  0.14037831370E+02  0.20421626174E+02  0.00000000000E+00 0. -1.
         11    1    4    4    0    0  0.62314603495E+02 -0.35089537719E+02  0.26722485093E+03  0.27662882428E+03  0.00000000000E+00 0.  1.
</event>
<event>
 8    1  0.4430785E-010  0.1258631E+03  0.7561462E-02  0.1233727E+00
         -1   -1    0    0    0  501 -0.00000000000E+00  0.00000000000E+00  0.78404490035E+02  0.78404490035E+02  0.00000000000E+00 0.  1.
          1   -1    0    0  501    0  0.00000000000E+00 -0.00000000000E+00 -0.33400150846E+03  0.33400150846E+03  0.00000000000E+00 0. -1.
         25    2    1    2    0    0  0.14354358385E+02 -0.10825744947E+03 -0.16290418635E+03  0.23261645262E+03  0.12508763779E+03 0.  0.
         23    2    1    2    0    0 -0.14354358385E+02  0.10825744947E+03 -0.92692832077E+02  0.17978954588E+03  0.10865816453E+03 0.  0.
          5    1    3    3  502    0 -0.30111276513E+02 -0.50148212833E+02 -0.53944478354E+01  0.58890616324E+02  0.41800000000E+01 0. -1.
         -5    1    3    3    0  502  0.44465634898E+02 -0.58109236634E+02 -0.15750973851E+03  0.17372583629E+03  0.41800000000E+01 0. -1.
        -11    1    4    4    0    0  0.18397487963E+02  0.34742306210E+02  0.17749726443E+02  0.43134072297E+02  0.00000000000E+00 0.  1.
         11    1    4    4    0    0 -0.32751846349E+02  0.73515143258E+02 -0.11044255852E+03  0.13665547358E+03  0.00000000000E+00 0. -1.
</event>
<event>
 8    1  0.4205029E-010  0.1223130E+03  0.7561462E-02  0.1239329E+00
         -2   -1    0    0    0  501 -0.00000000000E+00  0.00000000000E+00  0.23245181469E+03  0.23245181469E+03  0.00000000000E+00 0. -1.
          2   -1    0    0  501    0  0.00000000000E+00 -0.00000000000E+00 -0.16098903552E+03  0.16098903552E+03  0.00000000000E+00 0.  1.
         25    2    1    2    0    0 -0.11787565047E+02  0.66937212566E+02  0.17771361412E+03  0.22770402809E+03  0.12508980234E+03 0.  0.
         23    2    1    2    0    0  0.11787565047E+02 -0.66937212566E+02 -0.10625083495E+03  0.16573682212E+03  0.10751705522E+03 0.  0.
          5    1    3    3  502    0 -0.11394541284E+02 -0.36672982532E+02  0.50588430200E+02  0.63650647199E+02  0.41800000000E+01 0.  1.
         -5    1    3    3    0  502 -0.39302376292E+00  0.10361019510E+03  0.12712518392E+03  0.16405338089E+03  0.41800000000E+01 0.  1.
        -11    1    4    4    0    0 -0.32619618887E+02 -0.33097831137E+02 -0.86857119132E+00  0.46478601293E+02  0.00000000000E+00 0. -1.
         11    1    4    4    0    0  0.44407183933E+02 -0.33839381429E+02 -0.10538226376E+03  0.11925822083E+03  0.00000000000E+00 0.  1.
</event>
<event>
 7    1  0.4205029E-010  0.1027590E+03  0.7561462E-02  0.1274599E+00
          2   -1    0    0  501    0  0.00000000000E+00  0.00000000000E+00  0.42335663677E+03  0.42335663677E+03  0.00000000000E+00 0. -1.
         -2   -1    0    0    0  501 -0.00000000000E+00 -0.00000000000E+00 -0.28404455974E+02  0.28404455974E+02  0.00000000000E+00 0.  1.
         25    2    1    2    0    0 -0.70255922259E+02  0.86417196953E+01  0.27938011700E+03  0.31418170697E+03  0.12508525610E+03 0.  0.
          5    1    3    3  502    0  0.33130069176E+01 -0.42344318759E+02  0.39660236846E+02  0.58261686661E+02  0.41800000000E+01 0. -1.
         -5    1    3    3    0  502 -0.73568929177E+02  0.50986038454E+02  0.23971988015E+03  0.25592002031E+03  0.41800000000E+01 0. -1.
        -11    1    1    2    0    0  0.38773486419E+02  0.46643013336E+01  0.74760559942E+02  0.84346193031E+02  0.00000000000E+00 0.  1.
         11    1    1    2    0    0  0.31482435840E+02 -0.13306021029E+02  0.40811503855E+02  0.53233192737E+02  0.00000000000E+00 0. -1.
</event>
<event>
 8    1  0.4205029E-010  0.1236397E+03  0.7561462E-02  0.1237211E+00
         -1   -1    0    0    0  501 -0.00000000000E+00  0.00000000000E+00  0.34239057285E+03  0.34239057285E+03  0.00000000000E+00 0.  1.
          1   -1    0    0  501    0  0.00000000000E+00 -0.00000000000E+00 -0.60172251103E+02  0.60172251103E+02  0.00000000000E+00 0. -1.
         25    2    1    2    0    0  0.37925419099E+02  0.85723380740E+02  0.21689664168E+03  0.26735494607E+03  0.12509068148E+03 0.  0.
         23    2    1    2    0    0 -0.37925419099E+02 -0.85723380740E+02  0.65321680066E+02  0.13520787789E+03  0.72300850188E+02 0.  0.
          5    1    3    3  502    0  0.39671225097E+02 -0.40387565792E+01  0.15013245596E+03  0.15539415815E+03  0.41800000000E+01 0. -1.
         -5    1    3    3    0  502 -0.17458059979E+01  0.89762137319E+02  0.66764185726E+02  0.11196078791E+03  0.41800000000E+01 0. -1.
        -11    1    4    4    0    0 -0.44535027951E+02 -0.16075749337E+02  0.35395417933E+02  0.59115429813E+02  0.00000000000E+00 0. -1.
         11    1    4    4    0    0  0.66096088520E+01 -0.69647631403E+02  0.29926262133E+02  0.76092448078E+02  0.00000000000E+00 0.  1.
</event>
<event>
 8    1  0.4205029E-010  0.5025375E+02  0.7561462E-02  0.1443978E+00
         -1   -1    0    0    0  501 -0.00000000000E+00  0.00000000000E+00  0.50311362040E+02  0.50311362040E+02  0.00000000000E+00 0. -1.
          1   -1    0    0  501    0  0.00000000000E+00 -0.00000000000E+00 -0.26818938412E+03  0.26818938412E+03  0.00000000000E+00 0.  1.
         25    2    1    2    0    0  0.26329413631E+02  0.51279235333E+01 -0.57573769195E+02  0.14029604023E+03  0.12509478959E+03 0.  0.
         23    2    1    2    0    0 -0.26329413631E+02 -0.51279235333E+01 -0.16030425288E+03  0.17820470593E+03  0.73074825354E+02 0.  0.
          5    1    3    3  502    0  0.66760669707E+01  0.13141057569E+02 -0.95453279017E+02  0.96675013004E+02  0.41800000000E+01 0.  1.
         -5    1    3    3    0  502  0.19653346660E+02 -0.80131340360E+01  0.37879509822E+02  0.43621027227E+02  0.41800000000E+01 0.  1.
        -11    1    4    4    0    0  0.17581405380E+02 -0.84732461791E+01 -0.10836699906E+03  0.11011043638E+03  0.00000000000E+00 0.  1.
         11    1    4    4    0    0 -0.43910819010E+02  0.33453226458E+01 -0.51937253824E+02  0.68094269543E+02  0.00000000000E+00 0. -1.
</event>
<event>
 8    1  0.4205029E-010  0.1044363E+03  0.7561462E-02  0.1271234E+00
         -1   -1    0    0    0  501 -0.00000000000E+00  0.00000000000E+00  0.40281945020E+03  0.40281945020E+03  0.00000000000E+00 0.  1.
          1   -1    0    0  501    0  0.00000000000E+00 -0.00000000000E+00 -0.41458814123E+02  0.41458814123E+02  0.00000000000E+00 0. -1.
         25    2    1    2    0    0 -0.33627420286E+02 -0.57522788024E+02  0.12548437474E+03  0.18929921291E+03  0.12509272227E+03 0.  0.
         23    2    1    2    0    0  0.33627420286E+02  0.57522788024E+02  0.23587626133E+03  0.25497905141E+03  0.70264012565E+02 0.  0.
          5    1    3    3  502    0 -0.25339009430E+02 -0.86652998867E+02  0.40604196345E+02  0.99080678098E+02  0.41800000000E+01 0. -1.
         -5    1    3    3    0  502 -0.82884108559E+01  0.29130210843E+02  0.84880178397E+02  0.90218534808E+02  0.41800000000E+01 0. -1.
        -11    1    4    4    0    0  0.45594628979E+02  0.22370178257E+02  0.18592861652E+03  0.19274009833E+03  0.00000000000E+00 0.  1.
         11    1    4    4    0    0 -0.11967208692E+02  0.35152609768E+02  0.49947644817E+02  0.62238953077E+02  0.00000000000E+00 0. -1.
</event>
<event>
 7    1  0.4205029E-010  0.1927727E+03  0.7561462E-02  0.1155984E+00
         -2   -1    0    0    0  501 -0.00000000000E+00  0.00000000000E+00  0.24102703060E+03  0.24102703060E+03  0.00000000000E+00 0.  1.
          2   -1    0    0  501    0  0.00000000000E+00 -0.00000000000E+00 -0.64068639312E+03  0.64068639312E+03  0.00000000000E+00 0. -1.
         25    2    1    2    0    0 -0.35782738274E+02  0.14575623635E+03 -0.53562470662E+03  0.57014651085E+03  0.12509169717E+03 0.  0.
          5    1    3    3  502    0  0.23570281823E+02  0.10131428550E+03 -0.19017766574E+03  0.21680673324E+03  0.41800000000E+01 0.  1.
         -5    1    3    3    0  502 -0.59353020097E+02  0.44441950848E+02 -0.34544704088E+03  0.35333977761E+03  0.41800000000E+01 0.  1.
        -11    1    1    2    0    0  0.76932778820E+02 -0.27066110788E+02 -0.43556775647E+02  0.92457663365E+02  0.00000000000E+00 0. -1.
         11    1    1    2    0    0 -0.41150040546E+02 -0.11869012556E+03  0.17952211974E+03  0.21910924951E+03  0.00000000000E+00 0.  1.
</event>
<event>
 8    1  0.4205029E-010  0.1401762E+03  0.7561462E-02  0.1213092E+00
          2   -1    0    0  501    0  0.00000000000E+00  0.00000000000E+00  0.12599094332E+03  0.12599094332E+03  0.00000000000E+00 0. -1.
         -2   -1    0    0    0  501 -0.00000000000E+00 -0.00000000000E+00 -0.20641992503E+03  0.20641992503E+03  0.00000000000E+00 0.  1.
         25    2    1    2    0    0  0.63434485391E+02 -0.74090682433E+02 -0.10082633522E+03  0.18795587427E+03  0.12509235643E+03 0.  0.
         23    2    1    2    0    0 -0.63434485391E+02  0.74090682433E+02  0.20397353507E+02  0.14445499408E+03  0.10458408160E+03 0.  0.
          5    1    3    3  502    0  0.57128431406E+02  0.62700699347E+01  0.14797789842E+01  0.57642290011E+02  0.41800000000E+01 0.  1.
         -5    1    3    3    0  502  0.63060539853E+01 -0.80360752368E+02 -0.10230611421E+03  0.13031358426E+03  0.41800000000E+01 0.  1.
        -11    1    4    4    0    0 -0.11070159999E+02  0.87307391160E+02  0.43461412985E+01  0.88113664876E+02  0.00000000000E+00 0. -1.
         11    1    4    4    0    0 -0.52364325392E+02 -0.13216708727E+02  0.16051212208E+02  0.56341329206E+02  0.00000000000E+00 0.  1.
</event>
<event>
 7    1  0.4205029E-010  0.1418724E+03  0.7561462E-02  0.1210832E+00
         -1   -1    0    0    0  501 -0.00000000000E+00  0.00000000000E+00  0.10160056845E+04  0.10160056845E+04  0.00000000000E+00 0.  1.
          1   -1    0    0  501    0  0.00000000000E+00 -0.00000000000E+00 -0.37338980637E+02  0.37338980637E+02  0.00000000000E+00 0. -1.
         25    2    1    2    0    0  0.33380384525E+02 -0.95177375140E+02  0.73501202778E+03  0.75237241846E+03  0.12509433346E+03 0.  0.
          5    1    3    3  502    0 -0.24388898755E+02 -0.65341288412E+02  0.17269851413E+03  0.18629694452E+03  0.41800000000E+01 0. -1.
         -5    1    3    3    0  502  0.57769283280E+02 -0.29836086728E+02  0.56231351365E+03  0.56607547394E+03  0.41800000000E+01 0. -1.
        -11    1    1    2    0    0 -0.73351571700E+02  0.52197960904E+02  0.21996989214E+03  0.23768010780E+03  0.00000000000E+00 0.  1.
         11    1    1    2    0    0  0.39971187175E+02  0.42979414236E+02  0.23684783916E+02  0.63292138859E+02  0.00000000000E+00 0. -1.
</event>
<event>
 8    1  0.4205029E-010  0.1098680E+03  0.7561462E-02  0.1260815E+00
          4   -1    0    0  501    0  0.00000000000E+00  0.00000000000E+00  0.21745475777E+03  0.21745475777E+03  0.00000000000E+00 0. -1.
         -4   -1    0    0    0  501 -0.00000000000E+00 -0.00000000000E+00 -0.66833545345E+02  0.66833545345E+02  0.00000000000E+00 0.  1.
         25    2    1    2    0    0  0.58519799298E+01 -0.12122487239E+02  0.11216642418E+03  0.16855330394E+03  0.12509080378E+03 0.  0.
         23    2    1    2    0    0 -0.58519799298E+01  0.12122487239E+02  0.38454788247E+02  0.11573499918E+03  0.10832644612E+03 0.  0.
          5    1    3    3  502    0  0.55075533579E+02  0.10887761297E+02  0.96717731643E+02  0.11190911383E+03  0.41800000000E+01 0.  1.
         -5    1    3    3    0  502 -0.49223553649E+02 -0.23010248537E+02  0.15448692535E+02  0.56644190105E+02  0.41800000000E+01 0.  1.
        -11    1    4    4    0    0 -0.56172502435E+02 -0.34190718215E+01  0.23509275223E+02  0.60989557331E+02  0.00000000000E+00 0.  1.
         11    1    4    4    0    0  0.50320522506E+02  0.15541559061E+02  0.14945513024E+02  0.54745441845E+02  0.00000000000E+00 0. -1.
</event>
<event>
 8    1  0.4205029E-010  0.2064958E+03  0.7561462E-02  0.1144371E+00
         -1   -1    0    0    0  501 -0.00000000000E+00  0.00000000000E+00  0.73882539213E+02  0.73882539213E+02  0.00000000000E+00 0.  1.
          1   -1    0    0  501    0  0.00000000000E+00 -0.00000000000E+00 -0.11631738296E+04  0.11631738296E+04  0.00000000000E+00 0. -1.
         25    2    1    2    0    0  0.42560756236E+02  0.18269132391E+03 -0.96038585531E+03  0.98649678283E+03  0.12508946259E+03 0.  0.
         23    2    1    2    0    0 -0.42560756236E+02 -0.18269132391E+03 -0.12890543503E+03  0.25055958593E+03  0.10476620218E+03 0.  0.
          5    1    3    3  502    0  0.43058707195E+02  0.20151944663E+03 -0.88445706084E+03  0.90815522049E+03  0.41800000000E+01 0.  1.
         -5    1    3    3    0  502 -0.49795095881E+00 -0.18828122715E+02 -0.75928794471E+02  0.78341562341E+02  0.41800000000E+01 0.  1.
        -11    1    4    4    0    0 -0.16169563021E+02 -0.72207405427E+02 -0.11411871921E+03  0.13600899324E+03  0.00000000000E+00 0. -1.
         11    1    4    4    0    0 -0.26391193215E+02 -0.11048391848E+03 -0.14786715818E+02  0.11455059270E+03  0.00000000000E+00 0.  1.
</event>
<event>
 8    1  0.4205029E-010  0.1804064E+03  0.7561462E-02  0.1167410E+00
          3   -1    0    0  501    0  0.00000000000E+00  0.00000000000E+00  0.94659476588E+02  0.94659476588E+02  0.00000000000E+00 0. -1.
         -3   -1    0    0    0  501 -0.00000000000E+00 -0.00000000000E+00 -0.46133040692E+03  0.46133040692E+03  0.00000000000E+00 0.  1.
         25    2    1    2    0    0  0.83517399907E+02  0.11731453124E+03 -0.69900077407E+02  0.20315224810E+03  0.12508780819E+03 0.  0.
         23    2    1    2    0    0 -0.83517399907E+02 -0.11731453124E+03 -0.29677085293E+03  0.35283763541E+03  0.12523419057E+03 0.  0.
          5    1    3    3  502    0  0.60930252437E+02  0.13271315150E+03 -0.21855765283E+02  0.14771737582E+03  0.41800000000E+01 0. -1.
         -5    1    3    3    0  502  0.22587147471E+02 -0.15398620259E+02 -0.48044312124E+02  0.55434872275E+02  0.41800000000E+01 0. -1.
        -11    1    4    4    0    0 -0.75881590773E+02 -0.14212199486E+03 -0.27604969344E+03  0.31962495286E+03  0.00000000000E+00 0. -1.
         11    1    4    4    0    0 -0.76358091349E+01  0.24807463612E+02 -0.20721159487E+02  0.33212682555E+02  0.00000000000E+00 0.  1.
</event>
<event>
 7    1  0.4205029E-010  0.1123113E+03  0.7561462E-02  0.1256349E+00
         -2   -1    0    0    0  501 -0.00000000000E+00  0.00000000000E+00  0.21212050409E+02  0.21212050409E+02  0.00000000000E+00 0.  1.
          2   -1    0    0  501    0  0.00000000000E+00 -0.00000000000E+00 -0.61346089399E+03  0.61346089399E+03  0.00000000000E+00 0. -1.
         25    2    1    2    0    0 -0.56492196825E+02  0.36652232639E+02 -0.37387148288E+03  0.39995164259E+03  0.12508667490E+03 0.  0.
          5    1    3    3  502    0  0.37456625677E+02 -0.53889445035E+01 -0.12290282103E+03  0.12866474011E+03  0.41800000000E+01 0. -1.
         -5    1    3    3    0  502 -0.93948822503E+02  0.42041177143E+02 -0.25096866185E+03  0.27128690248E+03  0.41800000000E+01 0. -1.
        -11    1    1    2    0    0  0.48121026737E+02 -0.22940344589E+01 -0.97114031006E+02  0.10840678404E+03  0.00000000000E+00 0.  1.
         11    1    1    2    0    0  0.83711700888E+01 -0.34358198180E+02 -0.12126332969E+03  0.12631451777E+03  0.00000000000E+00 0. -1.
</event>
<event>
 8    1  0.4205029E-010  0.1283784E+03  0.7561462E-02  0.1229882E+00
         -1   -1    0    0    0  501 -0.00000000000E+00  0.00000000000E+00  0.10191249667E+03  0.10191249667E+03  0.00000000000E+00 0.  1.
          1   -1    0    0  501    0  0.00000000000E+00 -0.00000000000E+00 -0.36291339770E+03  0.36291339770E+03  0.00000000000E+00 0. -1.
         25    2    1    2    0    0  0.76266557714E+02 -0.52215815561E+02  0.14215772107E+02  0.15618620663E+03  0.12509581825E+03 0.  0.
         23    2    1    2    0    0 -0.76266557714E+02  0.52215815561E+02 -0.27521667313E+03  0.30863968775E+03  0.10474330749E+03 0.  0.
          5    1    3    3  502    0  0.49488215646E+02  0.35655537227E+02  0.19236795697E+02  0.64093116100E+02  0.41800000000E+01 0. -1.
         -5    1    3    3    0  502  0.26778342068E+02 -0.87871352788E+02 -0.50210235905E+01  0.92093090526E+02  0.41800000000E+01 0. -1.
        -11    1    4    4    0    0 -0.65154142302E+02  0.61187084860E+02 -0.27972919922E+03  0.29366195959E+03  0.00000000000E+00 0. -1.
         11    1    4    4    0    0 -0.11112415412E+02 -0.89712692990E+01  0.45125260883E+01  0.14977728159E+02  0.00000000000E+00 0.  1.
</event>
<event>
 8    1  0.4205029E-010  0.1117422E+03  0.7561462E-02  0.1257377E+00
          3   -1    0    0  501    0  0.00000000000E+00  0.00000000000E+00  0.17540608401E+03  0.17540608401E+03  0.00000000000E+00 0. -1.
         -3   -1    0    0    0  501 -0.00000000000E+00 -0.00000000000E+00 -0.10681319530E+03  0.10681319530E+03  0.00000000000E+00 0.  1.
         25    2    1    2    0    0  0.87347437730E+02 -0.30066781426E+01  0.11512920611E+02  0.15303059093E+03  0.12508876619E+03 0.  0.
         23    2    1    2    0    0 -0.87347437730E+02  0.30066781426E+01  0.57079968095E+02  0.12918868838E+03  0.76111624974E+02 0.  0.
          5    1    3    3  502    0  0.38150751599E+01  0.39529031965E+02 -0.30475294378E+02  0.50232610264E+02  0.41800000000E+01 0. -1.
         -5    1    3    3    0  502  0.83532362570E+02 -0.42535710108E+02  0.41988214989E+02  0.10279798067E+03  0.41800000000E+01 0. -1.
        -11    1    4    4    0    0 -0.44168072925E+02 -0.86239655144E+01 -0.12293786805E+02  0.46651137618E+02  0.00000000000E+00 0. -1.
         11    1    4    4    0    0 -0.43179364805E+02  0.11630643657E+02  0.69373754900E+02  0.82537550762E+02  0.00000000000E+00 0.  1.
</event>
<event>
 8    1  0.4205029E-010  0.1202925E+03  0.7561462E-02  0.1242615E+00
          2   -1    0    0  501    0  0.00000000000E+00  0.00000000000E+00  0.80603218456E+02  0.80603218456E+02  0.00000000000E+00 0. -1.
         -2   -1    0    0    0  501 -0.00000000000E+00 -0.00000000000E+00 -0.21331327297E+03  0.21331327297E+03  0.00000000000E+00 0.  1.
         25    2    1    2    0    0 -0.39294040814E+02 -0.37629807633E+02 -0.90690556208E+02  0.16381884692E+03  0.12510720825E+03 0.  0.
         23    2    1    2    0    0  0.39294040814E+02  0.37629807633E+02 -0.42019498304E+02  0.13009764450E+03  0.11045240967E+03 0.  0.
          5    1    3    3  502    0  0.19897659137E+02 -0.52926842366E+02 -0.29198331238E+01  0.56772927593E+02  0.41800000000E+01 0. -1.
         -5    1    3    3    0  502 -0.59191699951E+02  0.15297034733E+02 -0.87770723084E+02  0.10704591933E+03  0.41800000000E+01 0. -1.
        -11    1    4    4    0    0  0.76131529421E+02  0.10486319099E+02 -0.32054436474E+02  0.83267397929E+02  0.00000000000E+00 0. -1.
         11    1    4    4    0    0 -0.36837488607E+02  0.27143488535E+02 -0.99650618302E+01  0.46830246572E+02  0.00000000000E+00 0.  1.
</event>
<event>
 7    1  0.4205029E-010  0.4644753E+02  0.7561462E-02  0.1465502E+00
         -2   -1    0    0    0  501 -0.00000000000E+00  0.00000000000E+00  0.96715667481E+02  0.96715667481E+02  0.00000000000E+00 0.  1.
          2   -1    0    0  501    0  0.00000000000E+00 -0.00000000000E+00 -0.80439501262E+02  0.80439501262E+02  0.00000000000E+00 0. -1.
         25    2    1    2    0    0  0.68605308736E+01 -0.69322184857E+01  0.99913623638E+01  0.12586567404E+03  0.12508884060E+03 0.  0.
          5    1    3    3  502    0 -0.20470156763E+02 -0.12723445883E+02  0.62016226030E+02  0.66666318963E+02  0.41800000000E+01 0. -1.
         -5    1    3    3    0  502  0.27330687637E+02  0.57912273977E+01 -0.52024863666E+02  0.59199355072E+02  0.41800000000E+01 0. -1.
        -11    1    1    2    0    0 -0.10884215934E+02  0.22023455505E+02  0.19074948098E+02  0.31102289205E+02  0.00000000000E+00 0.  1.
         11    1    1    2    0    0  0.40236850603E+01 -0.15091237019E+02 -0.12790144243E+02  0.20187205502E+02  0.00000000000E+00 0. -1.
</event>
<event>
 8    1  0.4205029E-010  0.1364166E+03  0.7561462E-02  0.1218234E+00
          2   -1    0    0  501    0  0.00000000000E+00  0.00000000000E+00  0.15855647354E+04  0.15855647354E+04  0.00000000000E+00 0. -1.
         -2   -1    0    0    0  501 -0.00000000000E+00 -0.00000000000E+00 -0.15814487508E+02  0.15814487508E+02  0.00000000000E+00 0.  1.
         25    2    1    2    0    0 -0.87001869293E+02 -0.55095746396E+02  0.96964619337E+03  0.98309045437E+03  0.12509290397E+03 0.  0.
         23    2    1    2    0    0  0.87001869293E+02  0.55095746396E+02  0.60010405448E+03  0.61828876850E+03  0.10747678129E+03 0.  0.
          5    1    3    3  502    0 -0.92488369812E+02 -0.24960852062E+02  0.91729338066E+03  0.92229158150E+03  0.41800000000E+01 0.  1.
         -5    1    3    3    0  502  0.54865005199E+01 -0.30134894334E+02  0.52352812705E+02  0.60798872873E+02  0.41800000000E+01 0.  1.
        -11    1    4    4    0    0  0.60576156219E+02  0.86111538696E+02  0.48164047518E+03  0.49301340259E+03  0.00000000000E+00 0. -1.
         11    1    4    4    0    0  0.26425713073E+02 -0.31015792299E+02  0.11846357930E+03  0.12527536591E+03  0.00000000000E+00 0.  1.
</event>
<event>
 8    1  0.4205029E-010  0.1169079E+03  0.7561462E-02  0.1248287E+00
          2   -1    0    0  501    0  0.00000000000E+00  0.00000000000E+00  0.44274076873E+03  0.44274076873E+03  0.00000000000E+00 0. -1.
         -2   -1    0    0    0  501 -0.00000000000E+00 -0.00000000000E+00 -0.46199762416E+02  0.46199762416E+02  0.00000000000E+00 0.  1.
         25    2    1    2    0    0  0.64260771089E+01  0.67397875906E+02  0.21331761772E+03  0.25639086307E+03  0.12509236784E+03 0.  0.
         23    2    1    2    0    0 -0.64260771089E+01 -0.67397875906E+02  0.18322338859E+03  0.23254966807E+03  0.12619338275E+03 0.  0.
          5    1    3    3  502    0 -0.35074388937E+01 -0.13309651514E+02 -0.10769296453E+02  0.17969393343E+02  0.41800000000E+01 0. -1.
         -5    1    3    3    0  502  0.99335160026E+01  0.80707527420E+02  0.22408691418E+03  0.23842146973E+03  0.41800000000E+01 0. -1.
        -11    1    4    4    0    0 -0.26113180386E+02  0.29345057480E+02  0.26716060189E+02  0.47505562416E+02  0.00000000000E+00 0.  1.
         11    1    4    4    0    0  0.19687103277E+02 -0.96742933386E+02  0.15650732840E+03  0.18504410566E+03  0.00000000000E+00 0. -1.
</event>
<event>
 8    1  0.4205029E-010  0.1323360E+03  0.7561462E-02  0.1224030E+00
         -1   -1    0    0    0  501 -0.00000000000E+00  0.00000000000E+00  0.14884343301E+03  0.14884343301E+03  0.00000000000E+00 0.  1.
          1   -1    0    0  501    0  0.00000000000E+00 -0.00000000000E+00 -0.29216807747E+03  0.29216807747E+03  0.00000000000E+00 0. -1.
         25    2    1    2    0    0  0.51129795141E+02  0.10945430342E+03 -0.22001845824E+03  0.28044947304E+03  0.12509710020E+03 0.  0.
         23    2    1    2    0    0 -0.51129795141E+02 -0.10945430342E+03  0.76693813772E+02  0.16056203744E+03  0.72826686786E+02 0.  0.
          5    1    3    3  502    0  0.68516125730E+02  0.84887008547E+02 -0.22459463613E+03  0.24972081748E+03  0.41800000000E+01 0. -1.
         -5    1    3    3    0  502 -0.17386330590E+02  0.24567294869E+02  0.45761778939E+01  0.30728655562E+02  0.41800000000E+01 0. -1.
        -11    1    4    4    0    0 -0.36564061622E+02 -0.40171238357E+02  0.71195220702E+02  0.89551205711E+02  0.00000000000E+00 0.  1.
         11    1    4    4    0    0 -0.14565733518E+02 -0.69283065059E+02  0.54985930693E+01  0.71010831728E+02  0.00000000000E+00 0. -1.
</event>
<event>
 8    1  0.4205029E-010  0.8994202E+02  0.7561462E-02  0.1302992E+00
          1   -1    0    0  501    0  0.00000000000E+00  0.00000000000E+00  0.36965574809E+03  0.36965574809E+03  0.00000000000E+00 0. -1.
         -1   -1    0    0    0  501 -0.00000000000E+00 -0.00000000000E+00 -0.51390791827E+02  0.51390791827E+02  0.00000000000E+00 0.  1.
         25    2    1    2    0    0 -0.24774134934E+02 -0.43486406132E+02  0.25004875762E+03  0.28403809622E+03  0.12509369943E+03 0.  0.
         23    2    1    2    0    0  0.24774134934E+02  0.43486406132E+02  0.68216198649E+02  0.13700844370E+03  0.10776380936E+03 0.  0.
          5    1    3    3  502    0 -0.62593306885E+02  0.94608529789E+01  0.16568048850E+03  0.17741174277E+03  0.41800000000E+01 0. -1.
         -5    1    3    3    0  502  0.37819171951E+02 -0.52947259110E+02  0.84368269123E+02  0.10662635345E+03  0.41800000000E+01 0. -1.
        -11    1    4    4    0    0  0.16412310282E+02  0.17725753751E+02 -0.28042088515E+02  0.37012497932E+02  0.00000000000E+00 0.  1.
         11    1    4    4    0    0  0.83618246515E+01  0.25760652381E+02  0.96258287164E+02  0.99995945770E+02  0.00000000000E+00 0. -1.
</event>
<event>
 7    1  0.4205029E-010  0.3060084E+03  0.7561462E-02  0.1082275E+00
         -2   -1    0    0    0  501 -0.00000000000E+00  0.00000000000E+00  0.11212660264E+03  0.11212660264E+03  0.00000000000E+00 0.  1.
          2   -1    0    0  501    0  0.00000000000E+00 -0.00000000000E+00 -0.99329264215E+03  0.99329264215E+03  0.00000000000E+00 0. -1.
         25    2    1    2    0    0 -0.30369880559E+03  0.12975777005E+02 -0.35289584789E+03  0.48227076815E+03  0.12509308152E+03 0.  0.
          5    1    3    3  502    0 -0.10515551779E+03  0.27345960105E+02 -0.21230866090E+03  0.23853285801E+03  0.41800000000E+01 0. -1.
         -5    1    3    3    0  502 -0.19854328780E+03 -0.14370183100E+02 -0.14058718699E+03  0.24373791014E+03  0.41800000000E+01 0. -1.
        -11    1    1    2    0    0  0.83503198085E+02 -0.85136980988E+01 -0.52841036344E+02  0.99183881088E+02  0.00000000000E+00 0.  1.
         11    1    1    2    0    0  0.22019560750E+03 -0.44620789062E+01 -0.47542915528E+03  0.52396459556E+03  0.00000000000E+00 0. -1.
</event>
<event>
 8    1  0.4205029E-010  0.1001997E+03  0.7561462E-02  0.1279877E+00
          2   -1    0    0  501    0  0.00000000000E+00  0.00000000000E+00  0.42522810772E+03  0.42522810772E+03  0.00000000000E+00 0. -1.
         -2   -1    0    0    0  501 -0.00000000000E+00 -0.00000000000E+00 -0.37169401968E+02  0.37169401968E+02  0.00000000000E+00 0.  1.
         25    2    1    2    0    0  0.79506669774E+02 -0.26204056824E+02  0.22917563263E+03  0.27418377252E+03  0.12508919774E+03 0.  0.
         23    2    1    2    0    0 -0.79506669774E+02  0.26204056824E+02  0.15888307312E+03  0.18821373716E+03  0.56325986903E+02 0.  0.
          5    1    3    3  502    0  0.45891884306E+02 -0.41794797207E+02  0.25686653571E+02  0.67306364412E+02  0.41800000000E+01 0.  1.
         -5    1    3    3    0  502  0.33614785468E+02  0.15590740383E+02  0.20348897906E+03  0.20687740811E+03  0.41800000000E+01 0.  1.
        -11    1    4    4    0    0 -0.73480311292E+02 -0.54098668667E+00  0.11607865444E+03  0.13738232357E+03  0.00000000000E+00 0.  1.
         11    1    4    4    0    0 -0.60263584815E+01  0.26745043511E+02  0.42804418680E+02  0.50831413589E+02  0.00000000000E+00 0. -1.
</event>
<event>
 8    1  0.4205029E-010  0.1259646E+03  0.7561462E-02  0.1233569E+00
          1   -1    0    0  501    0  0.00000000000E+00  0.00000000000E+00  0.37202226364E+03  0.37202226364E+03  0.00000000000E+00 0. -1.
         -1   -1    0    0    0  501 -0.00000000000E+00 -0.00000000000E+00 -0.10233904661E+03  0.10233904661E+03  0.00000000000E+00 0.  1.
         25    2    1    2    0    0 -0.23477446527E+02 -0.11723341781E+03  0.25850521605E+03  0.31107445087E+03  0.12508997767E+03 0.  0.
         23    2    1    2    0    0  0.23477446527E+02  0.11723341781E+03  0.11178000977E+02  0.16328685938E+03  0.11064712374E+03 0.  0.
          5    1    3    3  502    0 -0.21170354936E+02 -0.10708078801E+03  0.27224171394E+03  0.29333854554E+03  0.41800000000E+01 0.  1.
         -5    1    3    3    0  502 -0.23070915908E+01 -0.10152629803E+02 -0.13736497896E+02  0.17735905333E+02  0.41800000000E+01 0.  1.
        -11    1    4    4    0    0  0.33587611273E+02  0.34579595386E+02  0.51693913385E+02  0.70683355390E+02  0.00000000000E+00 0. -1.
         11    1    4    4    0    0 -0.10110164746E+02  0.82653822424E+02 -0.40515912408E+02  0.92603503987E+02  0.00000000000E+00 0.  1.
</event>
<event>
 7    1  0.4205029E-010  0.1439290E+03  0.7561462E-02  0.1208138E+00
         -2   -1    0    0    0  501 -0.00000000000E+00  0.00000000000E+00  0.47315407880E+02  0.47315407880E+02  0.00000000000E+00 0.  1.
          2   -1    0    0  501    0  0.00000000000E+00 -0.00000000000E+00 -0.72766266256E+03  0.72766266256E+03  0.00000000000E+00 0. -1.
         25    2    1    2    0    0 -0.89317600727E+02 -0.54003927122E+02 -0.26923105561E+03  0.31468541975E+03  0.12508994426E+03 0.  0.
          5    1    3    3  502    0 -0.64332122309E+02 -0.56791718955E+02 -0.27537785282E+03  0.28846898538E+03  0.41800000000E+01 0.  1.
         -5    1    3    3    0  502 -0.24985478419E+02  0.27877918336E+01  0.61467972098E+01  0.26216434370E+02  0.41800000000E+01 0.  1.
        -11    1    1    2    0    0 -0.38377010541E+02  0.15475869381E+01 -0.22669718329E+03  0.22992782101E+03  0.00000000000E+00 0. -1.
         11    1    1    2    0    0  0.12769461127E+03  0.52456340184E+02 -0.18441901578E+03  0.23036482968E+03  0.00000000000E+00 0.  1.
</event>
<event>
 8    1  0.4205029E-010  0.1025816E+03  0.7561462E-02  0.1274959E+00
          2   -1    0    0  501    0  0.00000000000E+00  0.00000000000E+00  0.67535435298E+02  0.67535435298E+02  0.00000000000E+00 0.  1.
         -2   -1    0    0    0  501 -0.00000000000E+00 -0.00000000000E+00 -0.15757608520E+03  0.15757608520E+03  0.00000000000E+00 0. -1.
         25    2    1    2    0    0  0.31980363408E+02 -0.14885730401E+02 -0.50471500821E+02  0.13941161566E+03  0.12507556745E+03 0.  0.
         23    2    1    2    0    0 -0.31980363408E+02  0.14885730401E+02 -0.39569149077E+02  0.85699904834E+02  0.67338157954E+02 0.  0.
          5    1    3    3  502    0 -0.45961932580E+02  0.11174565295E+02 -0.22017183878E+02  0.52341178263E+02  0.41800000000E+01 0. -1.
         -5    1    3    3    0  502  0.77942295988E+02 -0.26060295695E+02 -0.28454316943E+02  0.87070437396E+02  0.41800000000E+01 0. -1.
        -11    1    4    4    0    0 -0.50335266259E+02 -0.21010310348E+01 -0.21143163634E+02  0.54635947226E+02  0.00000000000E+00 0. -1.
         11    1    4    4    0    0  0.18354902852E+02  0.16986761435E+02 -0.18425985443E+02  0.31063957609E+02  0.00000000000E+00 0.  1.
</event>
<event>
 8    1  0.4205029E-010  0.1318297E+03  0.7561462E-02  0.1224766E+00
          1   -1    0    0  501    0  0.00000000000E+00  0.00000000000E+00  0.45903664342E+02  0.45903664342E+02  0.00000000000E+00 0. -1.
         -1   -1    0    0    0  501 -0.00000000000E+00 -0.00000000000E+00 -0.42892500256E+03  0.42892500256E+03  0.00000000000E+00 0.  1.
         25    2    1    2    0    0  0.12324342517E+02 -0.96876388539E+02 -0.27925535293E+03  0.32119711466E+03  0.12508840974E+03 0.  0.
         23    2    1    2    0    0 -0.12324342517E+02  0.96876388539E+02 -0.10376598529E+03  0.15363155224E+03  0.57431263846E+02 0.  0.
          5    1    3    3  502    0 -0.12720208900E+02 -0.12213840942E+03 -0.21751984143E+03  0.24982383511E+03  0.41800000000E+01 0. -1.
         -5    1    3    3    0  502  0.25044551417E+02  0.25262020878E+02 -0.61735511492E+02  0.71373279550E+02  0.41800000000E+01 0. -1.
        -11    1    4    4    0    0 -0.25899883906E+02  0.73623968185E+02 -0.47788693094E+02  0.91515309459E+02  0.00000000000E+00 0.  1.
         11    1    4    4    0    0  0.13575541389E+02  0.23252420354E+02 -0.55977292192E+02  0.62116242783E+02  0.00000000000E+00 0. -1.
</event>
<event>
 8    1  0.4205029E-010  0.9971344E+02  0.7561462E-02  0.1280900E+00
          2   -1    0    0  501    0  0.00000000000E+00  0.00000000000E+00  0.22413985166E+02  0.22413985166E+02  0.00000000000E+00 0. -1.
         -2   -1    0    0    0  501 -0.00000000000E+00 -0.00000000000E+00 -0.67210544615E+03  0.67210544615E+03  0.00000000000E+00 0.  1.
         25    2    1    2    0    0  0.34989538406E+02  0.46066199860E+02 -0.50645546468E+03  0.52487135789E+03  0.12508573883E+03 0.  0.
         23    2    1    2    0    0 -0.34989538406E+02 -0.46066199860E+02 -0.14323599631E+03  0.16964807343E+03  0.70125285121E+02 0.  0.
          5    1    3    3  502    0 -0.37916974630E+02 -0.14402111352E+02 -0.11230878998E+03  0.11948160730E+03  0.41800000000E+01 0.  1.
         -5    1    3    3    0  502  0.72906513035E+02  0.60468311211E+02 -0.39414667470E+03  0.40538975059E+03  0.41800000000E+01 0.  1.
        -11    1    4    4    0    0 -0.28253766337E+02 -0.14875201196E+02 -0.13201662746E+03  0.13582318229E+03  0.00000000000E+00 0.  1.
         11    1    4    4    0    0 -0.67357720687E+01 -0.31190998664E+02 -0.11219368847E+02  0.33824891136E+02  0.00000000000E+00 0. -1.
</event>
<event>
 8    1  0.4205029E-010  0.8838310E+02  0.7561462E-02  0.1306815E+00
          2   -1    0    0  501    0  0.00000000000E+00  0.00000000000E+00  0.66354042893E+03  0.66354042893E+03  0.00000000000E+00 0. -1.
         -2   -1    0    0    0  501 -0.00000000000E+00 -0.00000000000E+00 -0.28921445580E+02  0.28921445580E+02  0.00000000000E+00 0.  1.
         25    2    1    2    0    0  0.37820792390E+02 -0.51405848772E+02  0.23337420980E+03  0.27236748150E+03  0.12509016570E+03 0.  0.
         23    2    1    2    0    0 -0.37820792390E+02  0.51405848772E+02  0.40124477355E+03  0.42009439301E+03  0.10681271980E+03 0.  0.
          5    1    3    3  502    0  0.10077714078E+02  0.74489564356E+01  0.19751633897E+03  0.19795763141E+03  0.41800000000E+01 0. -1.
         -5    1    3    3    0  502  0.27743078311E+02 -0.58854805208E+02  0.35857870827E+02  0.74409850090E+02  0.41800000000E+01 0. -1.
        -11    1    4    4    0    0 -0.53784636968E+01 -0.19581228514E+02  0.13066034966E+02  0.24146918055E+02  0.00000000000E+00 0.  1.
         11    1    4    4    0    0 -0.32442328693E+02  0.70987077286E+02  0.38817873858E+03  0.39594747495E+03  0.00000000000E+00 0. -1.
</event>
<event>
 7    1  0.4205029E-010  0.8246007E+02  0.7561462E-02  0.1322212E+00
          1   -1    0    0  501    0  0.00000000000E+00  0.00000000000E+00  0.50685455060E+03  0.50685455060E+03  0.00000000000E+00 0. -1.
         -1   -1    0    0    0  501 -0.00000000000E+00 -0.00000000000E+00 -0.40582316219E+02  0.40582316219E+02  0.00000000000E+00 0.  1.
         25    2    1    2    0    0  0.40708960633E+02  0.22155810971E+02  0.17148035327E+03  0.21725609411E+03  0.12508636791E+03 0.  0.
          5    1    3    3  502    0  0.23619131872E+02  0.21153927445E+02 -0.11080473258E+02  0.33846732846E+02  0.41800000000E+01 0.  1.
         -5    1    3    3    0  502  0.17089828761E+02  0.10018835266E+01  0.18256082653E+03  0.18340936127E+03  0.41800000000E+01 0.  1.
        -11    1    1    2    0    0 -0.35958307249E+02 -0.63889344885E+02  0.27337078310E+03  0.28303079921E+03  0.00000000000E+00 0. -1.
         11    1    1    2    0    0 -0.47506533839E+01  0.41733533913E+02  0.21421098012E+02  0.47149973494E+02  0.00000000000E+00 0.  1.
</event>
<event>
 7    1  0.4205029E-010  0.1962569E+03  0.7561462E-02  0.1152936E+00
         -3   -1    0    0    0  501 -0.00000000000E+00  0.00000000000E+00  0.92695629176E+02  0.92695629176E+02  0.00000000000E+00 0.  1.
          3   -1    0    0  501    0  0.00000000000E+00 -0.00000000000E+00 -0.54530960292E+03  0.54530960292E+03  0.00000000000E+00 0. -1.
         25    2    1    2    0    0  0.13932980391E+03 -0.90002877712E+02 -0.12512746028E+03  0.24252286931E+03  0.12508856291E+03 0.  0.
          5    1    3    3  502    0  0.15219166947E+03 -0.81106843948E+02 -0.13873799617E+03  0.22137373009E+03  0.41800000000E+01 0. -1.
         -5    1    3    3    0  502 -0.12861865562E+02 -0.88960337645E+01  0.13610535897E+02  0.21149139223E+02  0.41800000000E+01 0. -1.
        -11    1    1    2    0    0 -0.88069089423E+00 -0.24280739758E+02 -0.11393305950E+03  0.11649494404E+03  0.00000000000E+00 0. -1.
         11    1    1    2    0    0 -0.13844911301E+03  0.11428361747E+03 -0.21355345397E+03  0.27898741874E+03  0.00000000000E+00 0.  1.
</event>
<event>
 8    1  0.4205029E-010  0.1423835E+03  0.7561462E-02  0.1210157E+00
          1   -1    0    0  501    0  0.00000000000E+00  0.00000000000E+00  0.88364678809E+03  0.88364678809E+03  0.00000000000E+00 0. -1.
         -1   -1    0    0    0  501 -0.00000000000E+00 -0.00000000000E+00 -0.29046636156E+02  0.29046636156E+02  0.00000000000E+00 0.  1.
         25    2    1    2    0    0 -0.95715406944E+02 -0.63968900110E+02  0.33868443915E+03  0.37895598786E+03  0.12508809738E+03 0.  0.
         23    2    1    2    0    0  0.95715406944E+02  0.63968900110E+02  0.51591571278E+03  0.53373743638E+03  0.73845575303E+02 0.  0.
          5    1    3    3  502    0 -0.20864305888E+02 -0.87824294360E+02  0.16081863037E+03  0.18446823633E+03  0.41800000000E+01 0.  1.
         -5    1    3    3    0  502 -0.74851101056E+02  0.23855394249E+02  0.17786580878E+03  0.19448775154E+03  0.41800000000E+01 0.  1.
        -11    1    4    4    0    0  0.27183335277E+02  0.24788122365E+02  0.55384213073E+02  0.66489065152E+02  0.00000000000E+00 0.  1.
         11    1    4    4    0    0  0.68532071667E+02  0.39180777746E+02  0.46053149971E+03  0.46724837123E+03  0.00000000000E+00 0. -1.
</event>
<event>
 8    1  0.4205029E-010  0.1074980E+03  0.7561462E-02  0.1265275E+00
          1   -1    0    0  501    0  0.00000000000E+00  0.00000000000E+00  0.31749015305E+02  0.31749015305E+02  0.00000000000E+00 0. -1.
         -1   -1    0    0    0  501 -0.00000000000E+00 -0.00000000000E+00 -0.58875652072E+03  0.58875652072E+03  0.00000000000E+00 0.  1.
         25    2    1    2    0    0 -0.36717449422E+02  0.38316369242E+02 -0.47942248072E+03  0.49830626286E+03  0.12508757470E+03 0.  0.
         23    2    1    2    0    0  0.36717449422E+02 -0.38316369242E+02 -0.77585024702E+02  0.12219927317E+03  0.78082719348E+02 0.  0.
          5    1    3    3  502    0 -0.81619802931E+02  0.17687401028E+02 -0.25098106285E+03  0.26454414130E+03  0.41800000000E+01 0.  1.
         -5    1    3    3    0  502  0.44902353509E+02  0.20628968214E+02 -0.22844141786E+03  0.23376212156E+03  0.41800000000E+01 0.  1.
        -11    1    4    4    0    0 -0.12629839475E+02 -0.28913062945E+02 -0.22238140716E+01  0.31629470483E+02  0.00000000000E+00 0.  1.
         11    1    4    4    0    0  0.49347288897E+02 -0.94033062974E+01 -0.75361210630E+02  0.90569802685E+02  0.00000000000E+00 0. -1.
</event>
<event>
 8    1  0.4205029E-010  0.1100183E+03  0.7561462E-02  0.1260536E+00
          2   -1    0    0  501    0  0.00000000000E+00  0.00000000000E+00  0.45884923662E+03  0.45884923662E+03  0.00000000000E+00 0. -1.
         -2   -1    0    0    0  501 -0.00000000000E+00 -0.00000000000E+00 -0.48008927128E+02  0.48008927128E+02  0.00000000000E+00 0.  1.
         25    2    1    2    0    0  0.22841270511E+01  0.41036116392E+02  0.77100028427E+02  0.15257989854E+03  0.12508809284E+03 0.  0.
         23    2    1    2    0    0 -0.22841270511E+01 -0.41036116392E+02  0.33374028106E+03  0.35427826521E+03  0.11154072758E+03 0.  0.
          5    1    3    3  502    0 -0.47275656000E+02  0.21232440408E+02  0.83810025035E+02  0.98627566493E+02  0.41800000000E+01 0. -1.
         -5    1    3    3    0  502  0.49559783051E+02  0.19803675984E+02 -0.67099966088E+01  0.53952332044E+02  0.41800000000E+01 0. -1.
        -11    1    4    4    0    0 -0.49354943993E+02  0.38024032039E+01  0.98761380025E+02  0.11047252577E+03  0.00000000000E+00 0.  1.
         11    1    4    4    0    0  0.47070816942E+02 -0.44838519596E+02  0.23497890104E+03  0.24380573943E+03  0.00000000000E+00 0. -1.
</event>
<event>
 7    1  0.4205029E-010  0.1435811E+03  0.7561462E-02  0.1208590E+00
         -1   -1    0    0    0  501 -0.00000000000E+00  0.00000000000E+00  0.37110901682E+02  0.37110901682E+02  0.00000000000E+00 0.  1.
          1   -1    0    0  501    0  0.00000000000E+00 -0.00000000000E+00 -0.91405085490E+03  0.91405085490E+03  0.00000000000E+00 0. -1.
         25    2    1    2    0    0 -0.11471058085E+03 -0.16237220740E+02 -0.53641999056E+03  0.56286424599E+03  0.12509032114E+03 0.  0.
          5    1    3    3  502    0 -0.82070572246E+02 -0.68930501440E-01 -0.12363554244E+03  0.14845471813E+03  0.41800000000E+01 0.  1.
         -5    1    3    3    0  502 -0.32640008602E+02 -0.16168290238E+02 -0.41278444812E+03  0.41440952786E+03  0.41800000000E+01 0.  1.
        -11    1    1    2    0    0  0.45819213795E+02 -0.53401454701E+02 -0.64660049748E+02  0.95561696042E+02  0.00000000000E+00 0.  1.
         11    1    1    2    0    0  0.68891367052E+02  0.69638675440E+02 -0.27585991291E+03  0.29273581455E+03  0.00000000000E+00 0. -1.
</event>
<event>
 8    1  0.4205029E-010  0.1476100E+03  0.7561462E-02  0.1203441E+00
          2   -1    0    0  501    0  0.00000000000E+00  0.00000000000E+00  0.14932438098E+03  0.14932438098E+03  0.00000000000E+00 0. -1.
         -2   -1    0    0    0  501 -0.00000000000E+00 -0.00000000000E+00 -0.19519507772E+03  0.19519507772E+03  0.00000000000E+00 0.  1.
         25    2    1    2    0    0  0.40631675616E+02 -0.11075448051E+03 -0.59161264104E+02  0.18184103464E+03  0.12509443910E+03 0.  0.
         23    2    1    2    0    0 -0.40631675616E+02  0.11075448051E+03  0.13290567363E+02  0.16267842406E+03  0.11122114214E+03 0.  0.
          5    1    3    3  502    0 -0.17495932864E+02 -0.33718726895E+02 -0.74790255704E+02  0.83988778765E+02  0.41800000000E+01 0.  1.
         -5    1    3    3    0  502  0.58127608480E+02 -0.77035753612E+02  0.15628991599E+02  0.97852255879E+02  0.41800000000E+01 0.  1.
        -11    1    4    4    0    0  0.15423005844E+02  0.10261145813E+03 -0.27748156590E+01  0.10380115631E+03  0.00000000000E+00 0. -1.
         11    1    4    4    0    0 -0.56054681460E+02  0.81430223787E+01  0.16065383022E+02  0.58877267758E+02  0.00000000000E+00 0.  1.
</event>
<event>
 8    1  0.4205029E-010  0.1176660E+03  0.7561462E-02  0.1246998E+00
         -2   -1    0    0    0  501 -0.00000000000E+00  0.00000000000E+00  0.13735959498E+02  0.13735959498E+02  0.00000000000E+00 0.  1.
          2   -1    0    0  501    0  0.00000000000E+00 -0.00000000000E+00 -0.16278617841E+04  0.16278617841E+04  0.00000000000E+00 0. -1.
         25    2    1    2    0    0 -0.29040663079E+02 -0.24162871820E+02 -0.12861611483E+04  0.12927819193E+04  0.12508951600E+03 0.  0.
         23    2    1    2    0    0  0.29040663079E+02  0.24162871820E+02 -0.32796467629E+03  0.34881582427E+03  0.11262524532E+03 0.  0.
          5    1    3    3  502    0  0.12814494196E+02 -0.64803757336E+02 -0.48612160386E+03  0.49060719966E+03  0.41800000000E+01 0.  1.
         -5    1    3    3    0  502 -0.41855157275E+02  0.40640885517E+02 -0.80003954442E+03  0.80217471962E+03  0.41800000000E+01 0.  1.
        -11    1    4    4    0    0 -0.39461551964E+02  0.97983421761E+01 -0.18775339324E+03  0.19210559145E+03  0.00000000000E+00 0. -1.
         11    1    4    4    0    0  0.68502215044E+02  0.14364529643E+02 -0.14021128305E+03  0.15671023283E+03  0.00000000000E+00 0.  1.
</event>
<event>
 7    1  0.4205029E-010  0.1365587E+03  0.7561462E-02  0.1218036E+00
         -1   -1    0    0    0  501 -0.00000000000E+00  0.00000000000E+00  0.23656158369E+02  0.23656158369E+02  0.00000000000E+00 0.  1.
          1   -1    0    0  501    0  0.00000000000E+00 -0.00000000000E+00 -0.87926113993E+03  0.87926113993E+03  0.00000000000E+00 0. -1.
         25    2    1    2    0    0  0.14493020347E+02  0.66968280000E+02 -0.42561155791E+03  0.44887319032E+03  0.12508854703E+03 0.  0.
          5    1    3    3  502    0  0.40541401159E+02  0.89519553021E+02 -0.22913074134E+03  0.24935060579E+03  0.41800000000E+01 0. -1.
         -5    1    3    3    0  502 -0.26048380812E+02 -0.22551273021E+02 -0.19648081657E+03  0.19952258453E+03  0.41800000000E+01 0. -1.
        -11    1    1    2    0    0 -0.55207803801E+02 -0.80088769713E+02 -0.35079243917E+03  0.36402946037E+03  0.00000000000E+00 0. -1.
         11    1    1    2    0    0  0.40714783454E+02  0.13120489713E+02 -0.79200984481E+02  0.90014647612E+02  0.00000000000E+00 0.  1.
</event>
<event>
 8    1  0.4205029E-010  0.1251421E+03  0.7561462E-02  0.1234847E+00
         -2   -1    0    0    0  501 -0.00000000000E+00  0.00000000000E+00  0.11947631134E+03  0.11947631134E+03  0.00000000000E+00 0.  1.
          2   -1    0    0  501    0  0.00000000000E+00 -0.00000000000E+00 -0.16291909280E+03  0.16291909280E+03  0.00000000000E+00 0. -1.
         25    2    1    2    0    0 -0.22512117262E+02 -0.91886093782E+02 -0.38139771158E+02  0.16139993557E+03  0.12508176288E+03 0.  0.
         23    2    1    2    0    0  0.22512117262E+02  0.91886093782E+02 -0.53030103055E+01  0.12099546856E+03  0.75245809453E+02 0.  0.
          5    1    3    3  502    0  0.37346459241E+02 -0.86866461725E+02 -0.35638256515E+02  0.10113405914E+03  0.41800000000E+01 0. -1.
         -5    1    3    3    0  502 -0.59858576503E+02 -0.50196320575E+01 -0.25015146427E+01  0.60265876435E+02  0.41800000000E+01 0. -1.
        -11    1    4    4    0    0  0.64227877405E+00  0.25892621017E+02  0.32738714838E+02  0.41745224809E+02  0.00000000000E+00 0.  1.
         11    1    4    4    0    0  0.21869838488E+02  0.65993472765E+02 -0.38041725143E+02  0.79250243753E+02  0.00000000000E+00 0. -1.
</event>
<event>
 8    1  0.4205029E-010  0.1080230E+03  0.7561462E-02  0.1264275E+00
         -2   -1    0    0    0  501 -0.00000000000E+00  0.00000000000E+00  0.21877762558E+03  0.21877762558E+03  0.00000000000E+00 0.  1.
          2   -1    0    0  501    0  0.00000000000E+00 -0.00000000000E+00 -0.81907356386E+02  0.81907356386E+02  0.00000000000E+00 0. -1.
         25    2    1    2    0    0 -0.53757837380E+02 -0.66056442079E+01  0.29793481387E+02  0.13952861712E+03  0.12508814431E+03 0.  0.
         23    2    1    2    0    0  0.53757837380E+02  0.66056442079E+01  0.10707678780E+03  0.16115636484E+03  0.10757507066E+03 0.  0.
          5    1    3    3  502    0 -0.43404116560E+02  0.36120215697E+02  0.62679850860E+02  0.84467883957E+02  0.41800000000E+01 0.  1.
         -5    1    3    3    0  502 -0.10353720820E+02 -0.42725859905E+02 -0.32886369473E+02  0.55060733164E+02  0.41800000000E+01 0.  1.
        -11    1    4    4    0    0  0.45144247131E+01  0.49652410784E+02  0.23747943017E+02  0.55224149832E+02  0.00000000000E+00 0. -1.
         11    1    4    4    0    0  0.49243412666E+02 -0.43046766576E+02  0.83328844785E+02  0.10593221501E+03  0.00000000000E+00 0.  1.
</event>
<event>
 7    1  0.4205029E-010  0.1240085E+03  0.7561462E-02  0.1236627E+00
         -1   -1    0    0    0  501 -0.00000000000E+00  0.00000000000E+00  0.39990014676E+03  0.39990014676E+03  0.00000000000E+00 0.  1.
          1   -1    0    0  501    0  0.00000000000E+00 -0.00000000000E+00 -0.60804436486E+02  0.60804436486E+02  0.00000000000E+00 0. -1.
         25    2    1    2    0    0 -0.40592231450E+02  0.61268814201E+02  0.17381697935E+03  0.22640366599E+03  0.12507869849E+03 0.  0.
          5    1    3    3  502    0 -0.45911728414E+02  0.86163583430E+02  0.72033004645E+02  0.12140130178E+03  0.41800000000E+01 0. -1.
         -5    1    3    3    0  502  0.53194969641E+01 -0.24894769229E+02  0.10178397470E+03  0.10500236421E+03  0.41800000000E+01 0. -1.
        -11    1    1    2    0    0 -0.28089274073E+02  0.55983099006E+01  0.12846444770E+03  0.13161862601E+03  0.00000000000E+00 0.  1.
         11    1    1    2    0    0  0.68681505523E+02 -0.66867124101E+02  0.36814283235E+02  0.10268229125E+03  0.00000000000E+00 0. -1.
</event>
<event>
 8    1  0.4205029E-010  0.1869294E+03  0.7561462E-02  0.1161260E+00
          2   -1    0    0  501    0  0.00000000000E+00  0.00000000000E+00  0.21511745449E+04  0.21511745449E+04  0.00000000000E+00 0.  1.
         -2   -1    0    0    0  501 -0.00000000000E+00 -0.00000000000E+00 -0.50005493898E+02  0.50005493898E+02  0.00000000000E+00 0. -1.
         25    2    1    2    0    0 -0.37549737465E+02  0.14532826129E+03  0.19469562732E+04  0.19567357404E+04  0.12508294007E+03 0.  0.
         23    2    1    2    0    0  0.37549737465E+02 -0.14532826129E+03  0.15421277785E+03  0.24444429839E+03  0.11593596445E+03 0.  0.
          5    1    3    3  502    0 -0.83218754900E+02  0.83121363978E+02  0.11125457555E+04  0.11187537945E+04  0.41800000000E+01 0. -1.
         -5    1    3    3    0  502  0.45669017435E+02  0.62206897309E+02  0.83441051768E+03  0.83798194589E+03  0.41800000000E+01 0. -1.
        -11    1    4    4    0    0  0.63948396976E+02 -0.53637417780E+02  0.31984092466E+02  0.89383176453E+02  0.00000000000E+00 0. -1.
         11    1    4    4    0    0 -0.26398659511E+02 -0.91690843507E+02  0.12222868538E+03  0.15506112194E+03  0.00000000000E+00 0.  1.
</event>
<event>
 8    1  0.4205029E-010  0.1562999E+03  0.7561462E-02  0.1192939E+00
          2   -1    0    0  501    0  0.00000000000E+00  0.00000000000E+00  0.10594430804E+04  0.10594430804E+04  0.00000000000E+00 0. -1.
         -2   -1    0    0    0  501 -0.00000000000E+00 -0.00000000000E+00 -0.28969967070E+02  0.28969967070E+02  0.00000000000E+00 0.  1.
         25    2    1    2    0    0 -0.61655853661E+02 -0.13178490247E+03  0.63307326940E+03  0.66151187745E+03  0.12508994670E+03 0.  0.
         23    2    1    2    0    0  0.61655853661E+02  0.13178490247E+03  0.39739984394E+03  0.42690117004E+03  0.56118341044E+02 0.  0.
          5    1    3    3  502    0 -0.52426117069E+02 -0.13660012084E+03  0.63359347955E+03  0.65028167781E+03  0.41800000000E+01 0. -1.
         -5    1    3    3    0  502 -0.92297365915E+01  0.48152183630E+01 -0.52021014651E+00  0.11230199643E+02  0.41800000000E+01 0. -1.
        -11    1    4    4    0    0  0.35906998890E+01  0.70469102766E+02  0.20436316811E+03  0.21620150797E+03  0.00000000000E+00 0.  1.
         11    1    4    4    0    0  0.58065153772E+02  0.61315799706E+02  0.19303667584E+03  0.21069966206E+03  0.00000000000E+00 0. -1.
</event>
<event>
 8    1  0.4205029E-010  0.1453873E+03  0.7561462E-02  0.1206258E+00
         -1   -1    0    0    0  501 -0.00000000000E+00  0.00000000000E+00  0.28767087135E+02  0.28767087135E+02  0.00000000000E+00 0.  1.
          1   -1    0    0  501    0  0.00000000000E+00 -0.00000000000E+00 -0.76753991193E+03  0.76753991193E+03  0.00000000000E+00 0. -1.
         25    2    1    2    0    0 -0.88933636903E+02 -0.80250784741E+01 -0.44758187563E+03  0.47323257100E+03  0.12508372079E+03 0.  0.
         23    2    1    2    0    0  0.88933636903E+02  0.80250784741E+01 -0.29119094917E+03  0.32307442806E+03  0.10775585151E+03 0.  0.
          5    1    3    3  502    0  0.12398898720E+02  0.38916438419E+02 -0.99056058680E+02  0.10722778105E+03  0.41800000000E+01 0.  1.
         -5    1    3    3    0  502 -0.10133253562E+03 -0.46941516893E+02 -0.34852581695E+03  0.36600478995E+03  0.41800000000E+01 0.  1.
        -11    1    4    4    0    0  0.17290271914E+01 -0.38896819296E+02 -0.59485803447E+02  0.71095097567E+02  0.00000000000E+00 0.  1.
         11    1    4    4    0    0  0.87204609711E+02  0.46921897770E+02 -0.23170514572E+03  0.25197933050E+03  0.00000000000E+00 0. -1.
</event>
<event>
 8    1  0.4205029E-010  0.9379089E+02  0.7561462E-02  0.1293923E+00
          4   -1    0    0  501    0  0.00000000000E+00  0.00000000000E+00  0.26833122695E+03  0.26833122695E+03  0.00000000000E+00 0. -1.
         -4   -1    0    0    0  501 -0.00000000000E+00 -0.00000000000E+00 -0.74562081681E+02  0.74562081681E+02  0.00000000000E+00 0.  1.
         25    2    1    2    0    0  0.89473678912E+01  0.45579690063E+02  0.17320715597E+03  0.21864515162E+03  0.12508964750E+03 0.  0.
         23    2    1    2    0    0 -0.89473678912E+01 -0.45579690063E+02  0.20561989306E+02  0.12424815701E+03  0.11338979486E+03 0.  0.
          5    1    3    3  502    0 -0.53543136152E+02  0.26367367115E+02  0.12060429561E+03  0.13462902361E+03  0.41800000000E+01 0.  1.
         -5    1    3    3    0  502  0.62490504043E+02  0.19212322948E+02  0.52602860355E+02  0.84016128012E+02  0.41800000000E+01 0.  1.
        -11    1    4    4    0    0  0.16718885757E+02 -0.17958473963E+02 -0.43483177874E+02  0.49928095158E+02  0.00000000000E+00 0.  1.
         11    1    4    4    0    0 -0.25666253648E+02 -0.27621216100E+02  0.64045167180E+02  0.74320061856E+02  0.00000000000E+00 0. -1.
</event>
<event>
 8    1  0.4205029E-010  0.8168885E+02  0.7561462E-02  0.1324326E+00
          1   -1    0    0  501    0  0.00000000000E+00  0.00000000000E+00  0.12637468389E+02  0.12637468389E+02  0.00000000000E+00 0. -1.
         -1   -1    0    0    0  501 -0.00000000000E+00 -0.00000000000E+00 -0.80258335204E+03  0.80258335204E+03  0.00000000000E+00 0.  1.
         25    2    1    2    0    0 -0.28352510291E+02  0.12390408029E+02 -0.47826223096E+03  0.49531708449E+03  0.12508743171E+03 0.  0.
         23    2    1    2    0    0  0.28352510291E+02 -0.12390408029E+02 -0.31168365268E+03  0.31990373594E+03  0.65071605663E+02 0.  0.
          5    1    3    3  502    0 -0.14238754381E+02  0.49519425073E+02 -0.42803488685E+03  0.43114527986E+03  0.41800000000E+01 0.  1.
         -5    1    3    3    0  502 -0.14113755910E+02 -0.37129017044E+02 -0.50227344111E+02  0.64171804626E+02  0.41800000000E+01 0.  1.
        -11    1    4    4    0    0  0.49011105804E+02 -0.14138743172E+02 -0.23452173339E+03  0.24000507491E+03  0.00000000000E+00 0.  1.
         11    1    4    4    0    0 -0.20658595513E+02  0.17483351434E+01 -0.77161919298E+02  0.79898661028E+02  0.00000000000E+00 0. -1.
</event>
<event>
 8    1  0.4205029E-010  0.1297340E+03  0.7561462E-02  0.1227851E+00
         -3   -1    0    0    0  501 -0.00000000000E+00  0.00000000000E+00  0.45605252142E+03  0.45605252142E+03  0.00000000000E+00 0.  1.
          3   -1    0    0  501    0  0.00000000000E+00 -0.00000000000E+00 -0.46858697309E+02  0.46858697309E+02  0.00000000000E+00 0. -1.
         25    2    1    2    0    0 -0.89267020670E+01 -0.52876429015E+02  0.31229831634E+03  0.34066734789E+03  0.12509356808E+03 0.  0.
         23    2    1    2    0    0  0.89267020670E+01  0.52876429015E+02  0.96895507776E+02  0.16224387084E+03  0.11856952156E+03 0.  0.
          5    1    3    3  502    0  0.20686988809E+02 -0.86067177028E+02  0.17293939630E+03  0.19432194333E+03  0.41800000000E+01 0. -1.
         -5    1    3    3    0  502 -0.29613690876E+02  0.33190748012E+02  0.13935892004E+03  0.14634540456E+03  0.41800000000E+01 0. -1.
        -11    1    4    4    0    0 -0.28319313461E+02  0.76834668969E+02  0.43011630511E+02  0.92496217380E+02  0.00000000000E+00 0.  1.
         11    1    4    4    0    0  0.37246015528E+02 -0.23958239953E+02  0.53883877265E+02  0.69747653462E+02  0.00000000000E+00 0. -1.
</event>
<event>
 8    1  0.4205029E-010  0.5112576E+02  0.7561462E-02  0.1439362E+00
          2   -1    0    0  501    0  0.00000000000E+00  0.00000000000E+00  0.31557946896E+03  0.31557946896E+03  0.00000000000E+00 0. -1.
         -2   -1    0    0    0  501 -0.00000000000E+00 -0.00000000000E+00 -0.47010600218E+02  0.47010600218E+02  0.00000000000E+00 0.  1.
         25    2    1    2    0    0  0.15162015012E+02  0.29811464089E+02  0.70670275154E+02  0.14751360981E+03  0.12508943680E+03 0.  0.
         23    2    1    2    0    0 -0.15162015012E+02 -0.29811464089E+02  0.19789859359E+03  0.21507645937E+03  0.77300840490E+02 0.  0.
          5    1    3    3  502    0 -0.19706116828E+01  0.17592013988E+01 -0.35731411323E+02  0.36071931679E+02  0.41800000000E+01 0.  1.
         -5    1    3    3    0  502  0.17132626694E+02  0.28052262691E+02  0.10640168648E+03  0.11144167813E+03  0.41800000000E+01 0.  1.
        -11    1    4    4    0    0  0.19239506053E+02 -0.94338357223E+00  0.96489888010E+01  0.21544176722E+02  0.00000000000E+00 0.  1.
         11    1    4    4    0    0 -0.34401521065E+02 -0.28868080517E+02  0.18824960479E+03  0.19353228265E+03  0.00000000000E+00 0. -1.
</event>
<event>
 8    1  0.4205029E-010  0.9529847E+02  0.7561462E-02  0.1290505E+00
          1   -1    0    0  501    0  0.00000000000E+00  0.00000000000E+00  0.11477540819E+03  0.11477540819E+03  0.00000000000E+00 0. -1.
         -1   -1    0    0    0  501 -0.00000000000E+00 -0.00000000000E+00 -0.10832469479E+03  0.10832469479E+03  0.00000000000E+00 0.  1.
         25    2    1    2    0    0 -0.29687473400E+00 -0.12386459434E+02 -0.43382252157E+02  0.13298217710E+03  0.12509487245E+03 0.  0.
         23    2    1    2    0    0  0.29687473400E+00  0.12386459434E+02  0.49832965553E+02  0.90117925879E+02  0.74056759293E+02 0.  0.
          5    1    3    3  502    0  0.58944707164E+02  0.37409693595E+01 -0.28219288054E+01  0.59278234088E+02  0.41800000000E+01 0. -1.
         -5    1    3    3    0  502 -0.59241581898E+02 -0.16127428793E+02 -0.40560323352E+02  0.73703943013E+02  0.41800000000E+01 0. -1.
        -11    1    4    4    0    0 -0.25538306547E+02  0.29376290173E+02  0.43830204411E+02  0.58619607167E+02  0.00000000000E+00 0. -1.
         11    1    4    4    0    0  0.25835181281E+02 -0.16989830739E+02  0.60027611413E+01  0.31498318712E+02  0.00000000000E+00 0.  1.
</event>
<event>
 8    1  0.4205029E-010  0.1286687E+03  0.7561462E-02  0.1229445E+00
          1   -1    0    0  501    0  0.00000000000E+00  0.00000000000E+00  0.56522210559E+03  0.56522210559E+03  0.00000000000E+00 0. -1.
         -1   -1    0    0    0  501 -0.00000000000E+00 -0.00000000000E+00 -0.33754596572E+02  0.33754596572E+02  0.00000000000E+00 0.  1.
         25    2    1    2    0    0 -0.60289651070E+01  0.59388856092E+02  0.22571789492E+03  0.26487623495E+03  0.12508983613E+03 0.  0.
         23    2    1    2    0    0  0.60289651070E+01 -0.59388856092E+02  0.30574961409E+03  0.33410046721E+03  0.12073487908E+03 0.  0.
          5    1    3    3  502    0  0.30176977313E+02 -0.28305340449E+02  0.90988398536E+02  0.10004100822E+03  0.41800000000E+01 0. -1.
         -5    1    3    3    0  502 -0.36205942420E+02  0.87694196541E+02  0.13472949639E+03  0.16483522673E+03  0.41800000000E+01 0. -1.
        -11    1    4    4    0    0  0.27895154061E+02  0.22618946381E+02  0.17189185165E+03  0.17560343111E+03  0.00000000000E+00 0. -1.
         11    1    4    4    0    0 -0.21866188954E+02 -0.82007802473E+02  0.13385776244E+03  0.15849703610E+03  0.00000000000E+00 0.  1.
</event>
<event>
 8    1  0.4205029E-010  0.1553832E+03  0.7561462E-02  0.1194010E+00
          1   -1    0    0  501    0  0.00000000000E+00  0.00000000000E+00  0.96500517362E+02  0.96500517362E+02  0.00000000000E+00 0. -1.
         -1   -1    0    0    0  501 -0.00000000000E+00 -0.00000000000E+00 -0.29524860052E+03  0.29524860052E+03  0.00000000000E+00 0.  1.
         25    2    1    2    0    0  0.11463464591E+03  0.18133234014E+02 -0.11026962874E+03  0.20316920775E+03  0.12509364387E+03 0.  0.
         23    2    1    2    0    0 -0.11463464591E+03 -0.18133234014E+02 -0.88478454416E+02  0.18857991013E+03  0.11943211205E+03 0.  0.
          5    1    3    3  502    0 -0.12534022810E+02  0.20829239372E+02  0.11334536893E+02  0.27145958580E+02  0.41800000000E+01 0.  1.
         -5    1    3    3    0  502  0.12716866872E+03 -0.26960053582E+01 -0.12160416563E+03  0.17602324917E+03  0.41800000000E+01 0.  1.
        -11    1    4    4    0    0 -0.13448769872E+03 -0.41516011837E+01 -0.50938607553E+02  0.14387118766E+03  0.00000000000E+00 0.  1.
         11    1    4    4    0    0  0.19853052805E+02 -0.13981632830E+02 -0.37539846863E+02  0.44708722469E+02  0.00000000000E+00 0. -1.
</event>
<event>
 8    1  0.4205029E-010  0.1581080E+03  0.7561462E-02  0.1190850E+00
          2   -1    0    0  501    0  0.00000000000E+00  0.00000000000E+00  0.21362587419E+03  0.21362587419E+03  0.00000000000E+00 0. -1.
         -2   -1    0    0    0  501 -0.00000000000E+00 -0.00000000000E+00 -0.13583802286E+03  0.13583802286E+03  0.00000000000E+00 0.  1.
         25    2    1    2    0    0  0.11752288040E+03 -0.40387847022E+02 -0.17442045811E+02  0.17718963963E+03  0.12509651404E+03 0.  0.
         23    2    1    2    0    0 -0.11752288040E+03  0.40387847022E+02  0.95229897136E+02  0.17227425742E+03  0.71881018749E+02 0.  0.
          5    1    3    3  502    0  0.12112573795E+03  0.13617992143E+02 -0.14553851046E+02  0.12282581604E+03  0.41800000000E+01 0.  1.
         -5    1    3    3    0  502 -0.36028575505E+01 -0.54005839165E+02 -0.28881947648E+01  0.54363823591E+02  0.41800000000E+01 0.  1.
        -11    1    4    4    0    0 -0.29356936533E+02 -0.17800158253E+02  0.41176936172E+02  0.53611709811E+02  0.00000000000E+00 0.  1.
         11    1    4    4    0    0 -0.88165943870E+02  0.58188005275E+02  0.54052960964E+02  0.11866254761E+03  0.00000000000E+00 0. -1.
</event>
<event>
 8    1  0.4205029E-010  0.8765731E+02  0.7561462E-02  0.1308626E+00
          2   -1    0    0  501    0  0.00000000000E+00  0.00000000000E+00  0.69424952503E+03  0.69424952503E+03  0.00000000000E+00 0. -1.
         -2   -1    0    0    0  501 -0.00000000000E+00 -0.00000000000E+00 -0.20276393052E+02  0.20276393052E+02  0.00000000000E+00 0.  1.
         25    2    1    2    0    0 -0.35081259658E+02  0.59609910114E+02  0.40653318081E+03  0.43092766917E+03  0.12508154455E+03 0.  0.
         23    2    1    2    0    0  0.35081259658E+02 -0.59609910114E+02  0.26743995116E+03  0.28359824891E+03  0.64185692692E+02 0.  0.
          5    1    3    3  502    0 -0.15104415306E+02  0.71823620455E+02  0.10343551761E+03  0.12689820534E+03  0.41800000000E+01 0. -1.
         -5    1    3    3    0  502 -0.19976844352E+02 -0.12213710341E+02  0.30309766321E+03  0.30402946382E+03  0.41800000000E+01 0. -1.
        -11    1    4    4    0    0 -0.75562223142E+01 -0.11148906547E+02  0.68058046955E+01  0.15090181921E+02  0.00000000000E+00 0.  1.
         11    1    4    4    0    0  0.42637481973E+02 -0.48461003566E+02  0.26063414647E+03  0.26850806699E+03  0.00000000000E+00 0. -1.
</event>
<event>
 8    1  0.4205029E-010  0.1190096E+03  0.7561462E-02  0.1244740E+00
          1   -1    0    0  501    0  0.00000000000E+00  0.00000000000E+00  0.92644732323E+03  0.92644732323E+03  0.00000000000E+00 0. -1.
         -1   -1    0    0    0  501 -0.00000000000E+00 -0.00000000000E+00 -0.21745929165E+02  0.21745929165E+02  0.00000000000E+00 0.  1.
         25    2    1    2    0    0  0.60864906773E+02  0.17348919414E+02  0.36759830659E+03  0.39342232791E+03  0.12508833363E+03 0.  0.
         23    2    1    2    0    0 -0.60864906773E+02 -0.17348919414E+02  0.53710308748E+03  0.55477092449E+03  0.12363466422E+03 0.  0.
          5    1    3    3  502    0  0.71572745586E+02 -0.14513260418E+02  0.34508054615E+03  0.35274827905E+03  0.41800000000E+01 0. -1.
         -5    1    3    3    0  502 -0.10707838813E+02  0.31862179833E+02  0.22517760437E+02  0.40674048862E+02  0.41800000000E+01 0. -1.
        -11    1    4    4    0    0  0.17592070249E+02 -0.44599221416E+02  0.11533248034E+03  0.12490057049E+03  0.00000000000E+00 0.  1.
         11    1    4    4    0    0 -0.78456977022E+02  0.27250302002E+02  0.42177060714E+03  0.42987035400E+03  0.00000000000E+00 0. -1.
</event>
<event>
 8    1  0.4205029E-010  0.1233784E+03  0.7561462E-02  0.1237626E+00
         -1   -1    0    0    0  501 -0.00000000000E+00  0.00000000000E+00  0.15691759119E+02  0.15691759119E+02  0.00000000000E+00 0.  1.
          1   -1    0    0  501    0  0.00000000000E+00 -0.00000000000E+00 -0.14085533749E+04  0.14085533749E+04  0.00000000000E+00 0. -1.
         25    2    1    2    0    0  0.86148292522E+01 -0.96983624223E+02 -0.10057827190E+04  0.10181978207E+04  0.12509150881E+03 0.  0.
         23    2    1    2    0    0 -0.86148292522E+01  0.96983624223E+02 -0.38707889672E+03  0.40604731327E+03  0.74594300539E+02 0.  0.
          5    1    3    3  502    0 -0.42161623756E+02 -0.61568490286E+02 -0.79408603488E+03  0.79759537656E+03  0.41800000000E+01 0.  1.
         -5    1    3    3    0  502  0.50776453008E+02 -0.35415133937E+02 -0.21169668415E+03  0.22060244417E+03  0.41800000000E+01 0.  1.
        -11    1    4    4    0    0 -0.29416741913E+02  0.42828081163E+02 -0.27477644201E+03  0.27964563706E+03  0.00000000000E+00 0.  1.
         11    1    4    4    0    0  0.20801912661E+02  0.54155543060E+02 -0.11230245471E+03  0.12640167621E+03  0.00000000000E+00 0. -1.
</event>
<event>
 8    1  0.4205029E-010  0.1051608E+03  0.7561462E-02  0.1269803E+00
          2   -1    0    0  501    0  0.00000000000E+00  0.00000000000E+00  0.12782777560E+03  0.12782777560E+03  0.00000000000E+00 0.  1.
         -2   -1    0    0    0  501 -0.00000000000E+00 -0.00000000000E+00 -0.11228006927E+03  0.11228006927E+03  0.00000000000E+00 0. -1.
         25    2    1    2    0    0 -0.91276027651E+01  0.11953513789E+02  0.27915817805E+02  0.12904601519E+03  0.12508949407E+03 0.  0.
         23    2    1    2    0    0  0.91276027651E+01 -0.11953513789E+02 -0.12368111478E+02  0.11106182968E+03  0.10934148438E+03 0.  0.
          5    1    3    3  502    0 -0.37021088950E+02  0.47593191281E+02  0.50067598119E+02  0.78485091991E+02  0.41800000000E+01 0.  1.
         -5    1    3    3    0  502  0.27893486185E+02 -0.35639677492E+02 -0.22151780314E+02  0.50560923195E+02  0.41800000000E+01 0.  1.
        -11    1    4    4    0    0 -0.31500138583E+02  0.31773984141E+02  0.12415478351E+02  0.46432627555E+02  0.00000000000E+00 0.  1.
         11    1    4    4    0    0  0.40627741348E+02 -0.43727497930E+02 -0.24783589829E+02  0.64629202123E+02  0.00000000000E+00 0. -1.
</event>
<event>
 8    1  0.4205029E-010  0.1013372E+03  0.7561462E-02  0.1277509E+00
         -2   -1    0    0    0  501 -0.00000000000E+00  0.00000000000E+00  0.62283854719E+02  0.62283854719E+02  0.00000000000E+00 0.  1.
          2   -1    0    0  501    0  0.00000000000E+00 -0.00000000000E+00 -0.17012139259E+03  0.17012139259E+03  0.00000000000E+00 0. -1.
         25    2    1    2    0    0 -0.96063531263E+01  0.32553226300E+02 -0.79058281915E+02  0.15182793161E+03  0.12509801883E+03 0.  0.
         23    2    1    2    0    0  0.96063531263E+01 -0.32553226300E+02 -0.28779255958E+02  0.80577315700E+02  0.67174873793E+02 0.  0.
          5    1    3    3  502    0  0.27381984636E+02 -0.38389494941E+02 -0.16329777090E+02  0.50076545650E+02  0.41800000000E+01 0.  1.
         -5    1    3    3    0  502 -0.36988337763E+02  0.70942721240E+02 -0.62728504825E+02  0.10175138596E+03  0.41800000000E+01 0.  1.
        -11    1    4    4    0    0 -0.19753579804E+02 -0.40277621532E+02 -0.15828349364E+02  0.47571287085E+02  0.00000000000E+00 0. -1.
         11    1    4    4    0    0  0.29359932930E+02  0.77243952319E+01 -0.12950906594E+02  0.33006028616E+02  0.00000000000E+00 0.  1.
</event>
<event>
 8    1  0.4205029E-010  0.1128106E+03  0.7561462E-02  0.1255452E+00
          1   -1    0    0  501    0  0.00000000000E+00  0.00000000000E+00  0.61681226029E+03  0.61681226029E+03  0.00000000000E+00 0. -1.
         -1   -1    0    0    0  501 -0.00000000000E+00 -0.00000000000E+00 -0.39541406113E+02  0.39541406113E+02  0.00000000000E+00 0.  1.
         25    2    1    2    0    0 -0.60073468397E+02 -0.68856780611E+02  0.15617232056E+03  0.21997293371E+03  0.12509284557E+03 0.  0.
         23    2    1    2    0    0  0.60073468397E+02  0.68856780611E+02  0.42109853361E+03  0.43638073270E+03  0.68949916709E+02 0.  0.
          5    1    3    3  502    0  0.10547633956E+02 -0.31262731480E+02  0.13224505713E+03  0.13636289267E+03  0.41800000000E+01 0.  1.
         -5    1    3    3    0  502 -0.70621102354E+02 -0.37594049131E+02  0.23927263438E+02  0.83610041044E+02  0.41800000000E+01 0.  1.
        -11    1    4    4    0    0  0.74350938766E+02  0.56841357782E+02  0.31333541978E+03  0.32701389472E+03  0.00000000000E+00 0.  1.
         11    1    4    4    0    0 -0.14277470369E+02  0.12015422829E+02  0.10776311383E+03  0.10936683798E+03  0.00000000000E+00 0. -1.
</event>
<event>
 8    1  0.4205029E-010  0.9079392E+02  0.7561462E-02  0.1300940E+00
          2   -1    0    0  501    0  0.00000000000E+00  0.00000000000E+00  0.74861267177E+03  0.74861267177E+03  0.00000000000E+00 0. -1.
         -2   -1    0    0    0  501 -0.00000000000E+00 -0.00000000000E+00 -0.19347784373E+02  0.19347784373E+02  0.00000000000E+00 0.  1.
         25    2    1    2    0    0  0.28550123780E+02 -0.44416255148E+02  0.55629091581E+03  0.57262073238E+03  0.12508799642E+03 0.  0.
         23    2    1    2    0    0 -0.28550123780E+02  0.44416255148E+02  0.17297397158E+03  0.19533972376E+03  0.73822080333E+02 0.  0.
          5    1    3    3  502    0  0.64422432288E+01 -0.67782205076E+02  0.51784524128E+03  0.52231896016E+03  0.41800000000E+01 0. -1.
         -5    1    3    3    0  502  0.22107880551E+02  0.23365949928E+02  0.38445674527E+02  0.50301772219E+02  0.41800000000E+01 0. -1.
        -11    1    4    4    0    0 -0.78076670565E+01 -0.15594575192E+02  0.85442099989E+02  0.87203800897E+02  0.00000000000E+00 0. -1.
         11    1    4    4    0    0 -0.20742456723E+02  0.60010830340E+02  0.87531871592E+02  0.10813592286E+03  0.00000000000E+00 0.  1.
</event>
<event>
 8    1  0.4205029E-010  0.1695865E+03  0.7561462E-02  0.1178280E+00
         -1   -1    0    0    0  501 -0.00000000000E+00  0.00000000000E+00  0.23234521144E+03  0.23234521144E+03  0.00000000000E+00 0.  1.
          1   -1    0    0  501    0  0.00000000000E+00 -0.00000000000E+00 -0.15746502613E+03  0.15746502613E+03  0.00000000000E+00 0. -1.
         25    2    1    2    0    0 -0.11152185896E+03 -0.92329200103E+02 -0.82410331793E+01  0.19151274621E+03  0.12508961235E+03 0.  0.
         23    2    1    2    0    0  0.11152185896E+03  0.92329200103E+02  0.83121218489E+02  0.19829749136E+03  0.10700912065E+03 0.  0.
          5    1    3    3  502    0 -0.10286739761E+03 -0.12096729262E+03 -0.17770242432E+02  0.15983754656E+03  0.41800000000E+01 0. -1.
         -5    1    3    3    0  502 -0.86544613427E+01  0.28638092513E+02  0.95292092527E+01  0.31675199650E+02  0.41800000000E+01 0. -1.
        -11    1    4    4    0    0  0.11927814228E+02  0.30853972230E+02  0.73815857458E+02  0.80888943416E+02  0.00000000000E+00 0.  1.
         11    1    4    4    0    0  0.99594044727E+02  0.61475227873E+02  0.93053610301E+01  0.11740854795E+03  0.00000000000E+00 0. -1.
</event>
<event>
 8    1  0.4205029E-010  0.1179036E+03  0.7561462E-02  0.1246596E+00
         -2   -1    0    0    0  501 -0.00000000000E+00  0.00000000000E+00  0.47607565034E+03  0.47607565034E+03  0.00000000000E+00 0.  1.
          2   -1    0    0  501    0  0.00000000000E+00 -0.00000000000E+00 -0.40666707966E+02  0.40666707966E+02  0.00000000000E+00 0. -1.
         25    2    1    2    0    0 -0.58530288300E+02 -0.42054657761E+02  0.36230643889E+03  0.39001006337E+03  0.12508998752E+03 0.  0.
         23    2    1    2    0    0  0.58530288300E+02  0.42054657761E+02  0.73102503483E+02  0.12673229494E+03  0.74314935760E+02 0.  0.
          5    1    3    3  502    0 -0.90798355459E+02 -0.74650337735E+01  0.28545740008E+03  0.29967226723E+03  0.41800000000E+01 0.  1.
         -5    1    3    3    0  502  0.32268067159E+02 -0.34589623988E+02  0.76849038808E+02  0.90337796140E+02  0.41800000000E+01 0.  1.
        -11    1    4    4    0    0 -0.75374194351E+01  0.28753483734E+02  0.36358131205E+01  0.29946529943E+02  0.00000000000E+00 0. -1.
         11    1    4    4    0    0  0.66067707735E+02  0.13301174028E+02  0.69466690363E+02  0.96785764996E+02  0.00000000000E+00 0.  1.
</event>
<event>
 8    1  0.4205029E-010  0.1210058E+03  0.7561462E-02  0.1241447E+00
         -1   -1    0    0    0  501 -0.00000000000E+00  0.00000000000E+00  0.40202848247E+02  0.40202848247E+02  0.00000000000E+00 0.  1.
          1   -1    0    0  501    0  0.00000000000E+00 -0.00000000000E+00 -0.44998608717E+03  0.44998608717E+03  0.00000000000E+00 0. -1.
         25    2    1    2    0    0 -0.58633147140E+02  0.20380833964E+02 -0.16983237344E+03  0.21988030148E+03  0.12510430677E+03 0.  0.
         23    2    1    2    0    0  0.58633147140E+02 -0.20380833964E+02 -0.23995086548E+03  0.27030863394E+03  0.10787546247E+03 0.  0.
          5    1    3    3  502    0 -0.79341517050E+02 -0.20851862640E+02 -0.63276753961E+02  0.10368845883E+03  0.41800000000E+01 0. -1.
         -5    1    3    3    0  502  0.20708369910E+02  0.41232696605E+02 -0.10655561948E+03  0.11619184264E+03  0.41800000000E+01 0. -1.
        -11    1    4    4    0    0  0.80646530863E+02  0.39312294003E+01 -0.11104830812E+03  0.13729910502E+03  0.00000000000E+00 0.  1.
         11    1    4    4    0    0 -0.22013383723E+02 -0.24312063365E+02 -0.12890255737E+03  0.13300952892E+03  0.00000000000E+00 0. -1.
</event>
<event>
 7    1  0.4205029E-010  0.1230327E+03  0.7561462E-02  0.1238176E+00
         -2   -1    0    0    0  501 -0.00000000000E+00  0.00000000000E+00  0.23257798785E+03  0.23257798785E+03  0.00000000000E+00 0.  1.
          2   -1    0    0  501    0  0.00000000000E+00 -0.00000000000E+00 -0.73216086390E+02  0.73216086390E+02  0.00000000000E+00 0. -1.
         25    2    1    2    0    0 -0.66588175350E+02 -0.58728812492E+02  0.49120675840E+02  0.16106972755E+03  0.12509019875E+03 0.  0.
          5    1    3    3  502    0 -0.76255475837E+02  0.15914503343E+02  0.25539442433E+02  0.82084739944E+02  0.41800000000E+01 0.  1.
         -5    1    3    3    0  502  0.96673004869E+01 -0.74643315835E+02  0.23581233407E+02  0.78984987602E+02  0.41800000000E+01 0.  1.
        -11    1    1    2    0    0  0.56966866326E+02  0.34491386726E+02  0.68723769749E+02  0.95696583773E+02  0.00000000000E+00 0.  1.
         11    1    1    2    0    0  0.96213090238E+01  0.24237425766E+02  0.41517455874E+02  0.49027762924E+02  0.00000000000E+00 0. -1.
</event>
<event>
 7    1  0.4205029E-010  0.1015901E+03  0.7561462E-02  0.1276987E+00
         -1   -1    0    0    0  501 -0.00000000000E+00  0.00000000000E+00  0.22438847227E+02  0.22438847227E+02  0.00000000000E+00 0.  1.
          1   -1    0    0  501    0  0.00000000000E+00 -0.00000000000E+00 -0.47675449452E+03  0.47675449452E+03  0.00000000000E+00 0. -1.
         25    2    1    2    0    0 -0.55760891791E+02  0.31332812490E+01 -0.30410677577E+03  0.33353776068E+03  0.12508961678E+03 0.  0.
          5    1    3    3  502    0 -0.25460048046E+02  0.63919500464E+02 -0.15080391102E+03  0.16581076130E+03  0.41800000000E+01 0. -1.
         -5    1    3    3    0  502 -0.30300843744E+02 -0.60786219215E+02 -0.15330286476E+03  0.16772699938E+03  0.41800000000E+01 0. -1.
        -11    1    1    2    0    0  0.33113098460E+02  0.15793229963E+02 -0.56132278005E+02  0.67057706763E+02  0.00000000000E+00 0.  1.
         11    1    1    2    0    0  0.22647793331E+02 -0.18926511212E+02 -0.94076593514E+02  0.98597874301E+02  0.00000000000E+00 0. -1.
</event>
<event>
 8    1  0.4205029E-010  0.1153447E+03  0.7561462E-02  0.1250981E+00
         -4   -1    0    0    0  501 -0.00000000000E+00  0.00000000000E+00  0.36418613917E+03  0.36418613917E+03  0.00000000000E+00 0.  1.
          4   -1    0    0  501    0  0.00000000000E+00 -0.00000000000E+00 -0.72931773584E+02  0.72931773584E+02  0.00000000000E+00 0. -1.
         25    2    1    2    0    0  0.28784711227E+02 -0.49501184358E+02  0.27966099297E+03  0.31167008933E+03  0.12509614998E+03 0.  0.
         23    2    1    2    0    0 -0.28784711227E+02  0.49501184358E+02  0.11593372613E+02  0.12544782342E+03  0.11101271666E+03 0.  0.
          5    1    3    3  502    0 -0.32554004285E+02 -0.21962451271E+02  0.21706360479E+02  0.45063854096E+02  0.41800000000E+01 0.  1.
         -5    1    3    3    0  502  0.61338715512E+02 -0.27538733087E+02  0.25795463249E+03  0.26660623523E+03  0.41800000000E+01 0.  1.
        -11    1    4    4    0    0 -0.70696159801E+02  0.23454310174E+02  0.15014860301E+02  0.75983535758E+02  0.00000000000E+00 0.  1.
         11    1    4    4    0    0  0.41911448574E+02  0.26046874184E+02 -0.34214876880E+01  0.49464287666E+02  0.00000000000E+00 0. -1.
</event>
<event>
 8    1  0.4205029E-010  0.1149961E+03  0.7561462E-02  0.1251588E+00
          2   -1    0    0  501    0  0.00000000000E+00  0.00000000000E+00  0.55861187709E+03  0.55861187709E+03  0.00000000000E+00 0. -1.
         -2   -1    0    0    0  501 -0.00000000000E+00 -0.00000000000E+00 -0.32149631577E+02  0.32149631577E+02  0.00000000000E+00 0.  1.
         25    2    1    2    0    0  0.36475598486E+02  0.49459851454E+02  0.33151435274E+03  0.35962347504E+03  0.12510208446E+03 0.  0.
         23    2    1    2    0    0 -0.36475598486E+02 -0.49459851454E+02  0.19494789277E+03  0.23113803362E+03  0.10790441836E+03 0.  0.
          5    1    3    3  502    0 -0.27277481543E+02  0.51385693904E+02  0.73615119193E+02  0.93921289978E+02  0.41800000000E+01 0.  1.
         -5    1    3    3    0  502  0.63753080029E+02 -0.19258424494E+01  0.25789923355E+03  0.26570218506E+03  0.41800000000E+01 0.  1.
        -11    1    4    4    0    0  0.26060441875E+02  0.28512832920E+01  0.83623460163E+01  0.27517363210E+02  0.00000000000E+00 0.  1.
         11    1    4    4    0    0 -0.62536040361E+02 -0.52311134746E+02  0.18658554675E+03  0.20362067041E+03  0.00000000000E+00 0. -1.
</event>
<event>
 7    1  0.4205029E-010  0.1373308E+03  0.7561462E-02  0.1216966E+00
          2   -1    0    0  501    0  0.00000000000E+00  0.00000000000E+00  0.60599786671E+02  0.60599786671E+02  0.00000000000E+00 0.  1.
         -2   -1    0    0    0  501 -0.00000000000E+00 -0.00000000000E+00 -0.45155529854E+03  0.45155529854E+03  0.00000000000E+00 0. -1.
         25    2    1    2    0    0 -0.10445427989E+03 -0.46943100382E+02 -0.10310855030E+03  0.19847558064E+03  0.12508729634E+03 0.  0.
          5    1    3    3  502    0 -0.17652453152E+02 -0.63480416770E+02 -0.85924820529E+02  0.10836013842E+03  0.41800000000E+01 0. -1.
         -5    1    3    3    0  502 -0.86801826735E+02  0.16537316388E+02 -0.17183729767E+02  0.90115442220E+02  0.41800000000E+01 0. -1.
        -11    1    1    2    0    0  0.43137597892E+02  0.30237163903E+00 -0.14627458054E+03  0.15250310388E+03  0.00000000000E+00 0. -1.
         11    1    1    2    0    0  0.61316681995E+02  0.46640728743E+02 -0.14157238104E+03  0.16117640069E+03  0.00000000000E+00 0.  1.
</event>
<event>
 7    1  0.4205029E-010  0.7974356E+02  0.7561462E-02  0.1329781E+00
          2   -1    0    0  501    0  0.00000000000E+00  0.00000000000E+00  0.18000218915E+03  0.18000218915E+03  0.00000000000E+00 0. -1.
         -2   -1    0    0    0  501 -0.00000000000E+00 -0.00000000000E+00 -0.67425640019E+02  0.67425640019E+02  0.00000000000E+00 0.  1.
         25    2    1    2    0    0  0.12763437975E+02 -0.59161872333E+02  0.97853806924E+02  0.16995986921E+03  0.12509179480E+03 0.  0.
          5    1    3    3  502    0 -0.10522194965E+02 -0.71374167536E+02  0.11675380868E+03  0.13730955035E+03  0.41800000000E+01 0.  1.
         -5    1    3    3    0  502  0.23285632939E+02  0.12212295202E+02 -0.18900001751E+02  0.32650318861E+02  0.41800000000E+01 0.  1.
        -11    1    1    2    0    0 -0.10713147117E+02  0.43436387848E+02 -0.12066442296E+02  0.46336706185E+02  0.00000000000E+00 0.  1.
         11    1    1    2    0    0 -0.20502908573E+01  0.15725484485E+02  0.26789184505E+02  0.31131253771E+02  0.00000000000E+00 0. -1.
</event>
<event>
 8    1  0.4205029E-010  0.1069371E+03  0.7561462E-02  0.1266349E+00
          3   -1    0    0  501    0  0.00000000000E+00  0.00000000000E+00  0.46731238896E+03  0.46731238896E+03  0.00000000000E+00 0. -1.
         -3   -1    0    0    0  501 -0.00000000000E+00 -0.00000000000E+00 -0.43962731664E+02  0.43962731664E+02  0.00000000000E+00 0.  1.
         25    2    1    2    0    0  0.15761009058E+02  0.76651056806E+02  0.35153855324E+03  0.38124851923E+03  0.12508910857E+03 0.  0.
         23    2    1    2    0    0 -0.15761009058E+02 -0.76651056806E+02  0.71811104057E+02  0.13002660140E+03  0.75008589435E+02 0.  0.
          5    1    3    3  502    0  0.45679139434E+02  0.81245234294E+02  0.14474098416E+03  0.17220568158E+03  0.41800000000E+01 0. -1.
         -5    1    3    3    0  502 -0.29918130375E+02 -0.45941774883E+01  0.20679756908E+03  0.20904283765E+03  0.41800000000E+01 0. -1.
        -11    1    4    4    0    0  0.14351582397E+02 -0.40506257020E+02  0.70979088651E+02  0.82974428596E+02  0.00000000000E+00 0. -1.
         11    1    4    4    0    0 -0.30112591455E+02 -0.36144799785E+02  0.83201540612E+00  0.47052172801E+02  0.00000000000E+00 0.  1.
</event>
<event>
 8    1  0.4205029E-010  0.1178108E+03  0.7561462E-02  0.1246753E+00
          2   -1    0    0  501    0  0.00000000000E+00  0.00000000000E+00  0.59239138170E+02  0.59239138170E+02  0.00000000000E+00 0. -1.
         -2   -1    0    0    0  501 -0.00000000000E+00 -0.00000000000E+00 -0.60510217723E+03  0.60510217723E+03  0.00000000000E+00 0.  1.
         25    2    1    2    0    0  0.85209037114E+02  0.69139878912E+02 -0.44576703077E+03  0.47581122126E+03  0.12508864734E+03 0.  0.
         23    2    1    2    0    0 -0.85209037114E+02 -0.69139878912E+02 -0.10009600828E+03  0.18853009413E+03  0.11611839931E+03 0.  0.
          5    1    3    3  502    0  0.71274293669E+02  0.59142215007E+02 -0.13066078734E+03  0.16021092435E+03  0.41800000000E+01 0.  1.
         -5    1    3    3    0  502  0.13934743445E+02  0.99976639048E+01 -0.31510624343E+03  0.31560029691E+03  0.41800000000E+01 0.  1.
        -11    1    4    4    0    0 -0.93498795072E+02 -0.53932945236E+02 -0.12049454541E+03  0.16177058674E+03  0.00000000000E+00 0.  1.
         11    1    4    4    0    0  0.82897579582E+01 -0.15206933676E+02  0.20398537127E+02  0.26759507390E+02  0.00000000000E+00 0. -1.
</event>
<event>
 8    1  0.4205029E-010  0.1918588E+03  0.7561462E-02  0.1156795E+00
         -2   -1    0    0    0  501 -0.00000000000E+00  0.00000000000E+00  0.29765496589E+03  0.29765496589E+03  0.00000000000E+00 0. -1.
          2   -1    0    0  501    0  0.00000000000E+00 -0.00000000000E+00 -0.16709894104E+03  0.16709894104E+03  0.00000000000E+00 0.  1.
         25    2    1    2    0    0  0.18221360160E+03 -0.24104912394E+02  0.11682357131E+03  0.25115328985E+03  0.12508950707E+03 0.  0.
         23    2    1    2    0    0 -0.18221360160E+03  0.24104912394E+02  0.13732453543E+02  0.21360061708E+03  0.10795276711E+03 0.  0.
          5    1    3    3  502    0  0.10945161164E+03 -0.44641129487E+02  0.12837545046E+03  0.17455719525E+03  0.41800000000E+01 0. -1.
         -5    1    3    3    0  502  0.72761989966E+02  0.20536217093E+02 -0.11551879154E+02  0.76596094602E+02  0.41800000000E+01 0. -1.
        -11    1    4    4    0    0 -0.96172123619E+02 -0.10983586413E+02 -0.41704306205E+02  0.10539907821E+03  0.00000000000E+00 0.  1.
         11    1    4    4    0    0 -0.86041477983E+02  0.35088498807E+02  0.55436759748E+02  0.10820153887E+03  0.00000000000E+00 0. -1.
</event>
<event>
 8    1  0.4205029E-010  0.1605545E+03  0.7561462E-02  0.1188072E+00
          2   -1    0    0  501    0  0.00000000000E+00  0.00000000000E+00  0.11286626231E+04  0.11286626231E+04  0.00000000000E+00 0. -1.
         -2   -1    0    0    0  501 -0.00000000000E+00 -0.00000000000E+00 -0.25167622433E+02  0.25167622433E+02  0.00000000000E+00 0.  1.
         25    2    1    2    0    0  0.14329084913E+02 -0.13197844951E+03  0.53071057552E+03  0.56118175780E+03  0.12509043331E+03 0.  0.
         23    2    1    2    0    0 -0.14329084913E+02  0.13197844951E+03  0.57278442516E+03  0.59264848775E+03  0.74341095724E+02 0.  0.
          5    1    3    3  502    0 -0.22110932052E+02  0.83748474170E+01  0.18086644989E+03  0.18245321724E+03  0.41800000000E+01 0.  1.
         -5    1    3    3    0  502  0.36440016965E+02 -0.14035329693E+03  0.34984412563E+03  0.37872854055E+03  0.41800000000E+01 0.  1.
        -11    1    4    4    0    0  0.22523097392E+02  0.10064187614E+02  0.10194053990E+03  0.10488303707E+03  0.00000000000E+00 0.  1.
         11    1    4    4    0    0 -0.36852182304E+02  0.12191426190E+03  0.47084388526E+03  0.48776545068E+03  0.00000000000E+00 0. -1.
</event>
<event>
 8    1  0.4205029E-010  0.1692621E+03  0.7561462E-02  0.1178620E+00
          1   -1    0    0  501    0  0.00000000000E+00  0.00000000000E+00  0.81191878182E+03  0.81191878182E+03  0.00000000000E+00 0. -1.
         -1   -1    0    0    0  501 -0.00000000000E+00 -0.00000000000E+00 -0.46183632800E+02  0.46183632800E+02  0.00000000000E+00 0.  1.
         25    2    1    2    0    0 -0.95672108932E+02  0.11757719769E+03  0.37054844819E+03  0.41944181589E+03  0.12509090541E+03 0.  0.
         23    2    1    2    0    0  0.95672108932E+02 -0.11757719769E+03  0.39518670083E+03  0.43866059873E+03  0.11520869118E+03 0.  0.
          5    1    3    3  502    0 -0.74270692687E+02  0.10661830008E+03  0.15406210571E+03  0.20158423183E+03  0.41800000000E+01 0. -1.
         -5    1    3    3    0  502 -0.21401416245E+02  0.10958897607E+02  0.21648634248E+03  0.21785758406E+03  0.41800000000E+01 0. -1.
        -11    1    4    4    0    0 -0.21282969136E+02 -0.34938459675E+02  0.47813179727E+02  0.62926631050E+02  0.00000000000E+00 0.  1.
         11    1    4    4    0    0  0.11695507807E+03 -0.82638738015E+02  0.34737352110E+03  0.37573396768E+03  0.00000000000E+00 0. -1.
</event>
<event>
 8    1  0.4205029E-010  0.1086491E+03  0.7561462E-02  0.1263092E+00
          2   -1    0    0  501    0  0.00000000000E+00  0.00000000000E+00  0.75656802645E+02  0.75656802645E+02  0.00000000000E+00 0. -1.
         -2   -1    0    0    0  501 -0.00000000000E+00 -0.00000000000E+00 -0.22610079843E+03  0.22610079843E+03  0.00000000000E+00 0.  1.
         25    2    1    2    0    0  0.29167480567E+02 -0.30344449101E+02 -0.16752659640E+03  0.21327059434E+03  0.12509060075E+03 0.  0.
         23    2    1    2    0    0 -0.29167480567E+02  0.30344449101E+02  0.17082600618E+02  0.88487006731E+02  0.75938182770E+02 0.  0.
          5    1    3    3  502    0 -0.30989663660E+02  0.31887783640E+02 -0.47114329533E+02  0.64918583214E+02  0.41800000000E+01 0. -1.
         -5    1    3    3    0  502  0.60157144227E+02 -0.62232232740E+02 -0.12041226687E+03  0.14835201113E+03  0.41800000000E+01 0. -1.
        -11    1    4    4    0    0 -0.33269122992E+02  0.53207665632E+02  0.17863549884E+02  0.65245663773E+02  0.00000000000E+00 0.  1.
         11    1    4    4    0    0  0.41016424248E+01 -0.22863216531E+02 -0.78094926506E+00  0.23241342958E+02  0.00000000000E+00 0. -1.
</event>
<event>
 8    1  0.4205029E-010  0.1391406E+03  0.7561462E-02  0.1214490E+00
          2   -1    0    0  501    0  0.00000000000E+00  0.00000000000E+00  0.82664786821E+03  0.82664786821E+03  0.00000000000E+00 0. -1.
         -2   -1    0    0    0  501 -0.00000000000E+00 -0.00000000000E+00 -0.33455064202E+02  0.33455064202E+02  0.00000000000E+00 0.  1.
         25    2    1    2    0    0 -0.66301945531E+02 -0.84732458075E+02  0.23732805115E+03  0.28904656096E+03  0.12509105925E+03 0.  0.
         23    2    1    2    0    0  0.66301945531E+02  0.84732458075E+02  0.55586475285E+03  0.57105637145E+03  0.74459509002E+02 0.  0.
          5    1    3    3  502    0  0.19865430310E+02 -0.69052625179E+02  0.71434371421E+02  0.10140632222E+03  0.41800000000E+01 0.  1.
         -5    1    3    3    0  502 -0.86167375841E+02 -0.15679832897E+02  0.16589367973E+03  0.18764023874E+03  0.41800000000E+01 0.  1.
        -11    1    4    4    0    0 -0.51400310853E+01  0.24935844669E+02  0.44451407207E+02  0.51226398191E+02  0.00000000000E+00 0.  1.
         11    1    4    4    0    0  0.71441976617E+02  0.59796613406E+02  0.51141334564E+03  0.51982997326E+03  0.00000000000E+00 0. -1.
</event>
<event>
 7    1  0.4205029E-010  0.8714162E+02  0.7561462E-02  0.1309925E+00
         -2   -1    0    0    0  501 -0.00000000000E+00  0.00000000000E+00  0.17841534039E+02  0.17841534039E+02  0.00000000000E+00 0.  1.
          2   -1    0    0  501    0  0.00000000000E+00 -0.00000000000E+00 -0.66504919299E+03  0.66504919299E+03  0.00000000000E+00 0. -1.
         25    2    1    2    0    0 -0.42053533035E+02 -0.15648104307E+02 -0.53475298875E+03  0.55101988124E+03  0.12509511475E+03 0.  0.
          5    1    3    3  502    0  0.31999676542E+02 -0.17228327360E+02 -0.58309782108E+02  0.68835293651E+02  0.41800000000E+01 0. -1.
         -5    1    3    3    0  502 -0.74053209578E+02  0.15802230529E+01 -0.47644320664E+03  0.48218458759E+03  0.41800000000E+01 0. -1.
        -11    1    1    2    0    0  0.10133047043E+02 -0.15756732185E+02 -0.60233967849E+02  0.63079982041E+02  0.00000000000E+00 0. -1.
         11    1    1    2    0    0  0.31920485993E+02  0.31404836492E+02 -0.52220702352E+02  0.68790863748E+02  0.00000000000E+00 0.  1.
</event>
<event>
 8    1  0.4205029E-010  0.1095011E+03  0.7561462E-02  0.1261497E+00
          1   -1    0    0  501    0  0.00000000000E+00  0.00000000000E+00  0.50091137189E+02  0.50091137189E+02  0.00000000000E+00 0. -1.
         -1   -1    0    0    0  501 -0.00000000000E+00 -0.00000000000E+00 -0.28175792799E+03  0.28175792799E+03  0.00000000000E+00 0.  1.
         25    2    1    2    0    0  0.22109874597E+02 -0.56999205193E+01 -0.14163451259E+03  0.19034993062E+03  0.12510565647E+03 0.  0.
         23    2    1    2    0    0 -0.22109874597E+02  0.56999205193E+01 -0.90032278216E+02  0.14149913457E+03  0.10674670165E+03 0.  0.
          5    1    3    3  502    0  0.14444782536E+02 -0.56524580654E+02 -0.12176632877E+03  0.13508586596E+03  0.41800000000E+01 0.  1.
         -5    1    3    3    0  502  0.76650920611E+01  0.50824660134E+02 -0.19868183820E+02  0.55264064657E+02  0.41800000000E+01 0.  1.
        -11    1    4    4    0    0 -0.50229883973E+02  0.40270247081E+02 -0.48767790431E+02  0.80765286029E+02  0.00000000000E+00 0.  1.
         11    1    4    4    0    0  0.28120009376E+02 -0.34570326561E+02 -0.41264487785E+02  0.60733848536E+02  0.00000000000E+00 0. -1.
</event>
<event>
 8    1  0.4205029E-010  0.2046880E+03  0.7561462E-02  0.1145843E+00
         -1   -1    0    0    0  501 -0.00000000000E+00  0.00000000000E+00  0.10274582957E+03  0.10274582957E+03  0.00000000000E+00 0.  1.
          1   -1    0    0  501    0  0.00000000000E+00 -0.00000000000E+00 -0.52478404765E+03  0.52478404765E+03  0.00000000000E+00 0. -1.
         25    2    1    2    0    0  0.99421692012E+02  0.15479510251E+03 -0.12330683854E+03  0.25435984397E+03  0.12509259445E+03 0.  0.
         23    2    1    2    0    0 -0.99421692012E+02 -0.15479510251E+03 -0.29873137954E+03  0.37317003325E+03  0.12715832647E+03 0.  0.
          5    1    3    3  502    0  0.37964412774E+02  0.34983373302E+02 -0.10671834020E+03  0.11862297239E+03  0.41800000000E+01 0. -1.
         -5    1    3    3    0  502  0.61457279238E+02  0.11981172921E+03 -0.16588498346E+02  0.13573687157E+03  0.41800000000E+01 0. -1.
        -11    1    4    4    0    0 -0.17880970160E+02 -0.13857569675E+03 -0.17197771980E+03  0.22158359355E+03  0.00000000000E+00 0.  1.
         11    1    4    4    0    0 -0.81540721852E+02 -0.16219405763E+02 -0.12675365975E+03  0.15158643970E+03  0.00000000000E+00 0. -1.
</event>
<event>
 7    1  0.4205029E-010  0.2026421E+03  0.7561462E-02  0.1147529E+00
         -1   -1    0    0    0  501 -0.00000000000E+00  0.00000000000E+00  0.32390132557E+02  0.32390132557E+02  0.00000000000E+00 0.  1.
          1   -1    0    0  501    0  0.00000000000E+00 -0.00000000000E+00 -0.13755757169E+04  0.13755757169E+04  0.00000000000E+00 0. -1.
         25    2    1    2    0    0  0.12188936718E+03 -0.10415836738E+03 -0.62192603590E+03  0.65432843217E+03  0.12509084576E+03 0.  0.
          5    1    3    3  502    0  0.37029342560E+02 -0.10432305009E+03 -0.26099146304E+03  0.28352863554E+03  0.41800000000E+01 0.  1.
         -5    1    3    3    0  502  0.84860024622E+02  0.16468270866E+00 -0.36093457286E+03  0.37079979663E+03  0.41800000000E+01 0.  1.
        -11    1    1    2    0    0 -0.15032464857E+03  0.72197839832E+02 -0.46876584603E+03  0.49754542149E+03  0.00000000000E+00 0.  1.
         11    1    1    2    0    0  0.28435281391E+02  0.31960527551E+02 -0.25249370246E+03  0.25609199583E+03  0.00000000000E+00 0. -1.
</event>
<event>
 7    1  0.4205029E-010  0.1521619E+03  0.7561462E-02  0.1197841E+00
          2   -1    0    0  501    0  0.00000000000E+00  0.00000000000E+00  0.30918343380E+02  0.30918343380E+02  0.00000000000E+00 0. -1.
         -2   -1    0    0    0  501 -0.00000000000E+00 -0.00000000000E+00 -0.89974047932E+03  0.89974047932E+03  0.00000000000E+00 0.  1.
         25    2    1    2    0    0 -0.14487970290E+02 -0.13758729773E+03 -0.54776820666E+03  0.57865153982E+03  0.12508968993E+03 0.  0.
          5    1    3    3  502    0 -0.27982703995E+02 -0.14633919364E+03 -0.54021002036E+03  0.56039497662E+03  0.41800000000E+01 0.  1.
         -5    1    3    3    0  502  0.13494733705E+02  0.87518959097E+01 -0.75581862973E+01  0.18256563201E+02  0.41800000000E+01 0.  1.
        -11    1    1    2    0    0  0.12676712465E+02  0.76604339429E+02 -0.22687231489E+03  0.23979151596E+03  0.00000000000E+00 0. -1.
         11    1    1    2    0    0  0.18112578251E+01  0.60982958304E+02 -0.94181614387E+02  0.11221576693E+03  0.00000000000E+00 0.  1.
</event>
<event>
 8    1  0.4205029E-010  0.1579174E+03  0.7561462E-02  0.1191068E+00
          1   -1    0    0  501    0  0.00000000000E+00  0.00000000000E+00  0.30513762030E+03  0.30513762030E+03  0.00000000000E+00 0. -1.
         -1   -1    0    0    0  501 -0.00000000000E+00 -0.00000000000E+00 -0.10779278503E+03  0.10779278503E+03  0.00000000000E+00 0.  1.
         25    2    1    2    0    0 -0.82928344997E+02 -0.99414993137E+02  0.42491818965E+02  0.18496795413E+03  0.12508852111E+03 0.  0.
         23    2    1    2    0    0  0.82928344997E+02  0.99414993137E+02  0.15485301630E+03  0.22796245120E+03  0.10595740292E+03 0.  0.
          5    1    3    3  502    0  0.15161397919E+02 -0.59789327466E+02 -0.16205197719E+02  0.63911755561E+02  0.41800000000E+01 0. -1.
         -5    1    3    3    0  502 -0.98089742916E+02 -0.39625665671E+02  0.58697016684E+02  0.12105619857E+03  0.41800000000E+01 0. -1.
        -11    1    4    4    0    0  0.93525333340E+02  0.69848347868E+02  0.66836494238E+02  0.13450983844E+03  0.00000000000E+00 0.  1.
         11    1    4    4    0    0 -0.10596988343E+02  0.29566645270E+02  0.88016522060E+02  0.93452612751E+02  0.00000000000E+00 0. -1.
</event>
<event>
 8    1  0.4205029E-010  0.1106049E+03  0.7561462E-02  0.1259454E+00
          3   -1    0    0  501    0  0.00000000000E+00  0.00000000000E+00  0.17640481301E+02  0.17640481301E+02  0.00000000000E+00 0. -1.
         -3   -1    0    0    0  501 -0.00000000000E+00 -0.00000000000E+00 -0.11033667346E+04  0.11033667346E+04  0.00000000000E+00 0.  1.
         25    2    1    2    0    0  0.37016420100E+02 -0.10037968477E+02 -0.85240488302E+03  0.86238802086E+03  0.12509211713E+03 0.  0.
         23    2    1    2    0    0 -0.37016420100E+02  0.10037968477E+02 -0.23332137030E+03  0.25861919505E+03  0.10475710021E+03 0.  0.
          5    1    3    3  502    0  0.73846949943E+02 -0.12584520467E+02 -0.31957072068E+03  0.32826004949E+03  0.41800000000E+01 0.  1.
         -5    1    3    3    0  502 -0.36830529842E+02  0.25465519901E+01 -0.53283416233E+03  0.53412797138E+03  0.41800000000E+01 0.  1.
        -11    1    4    4    0    0 -0.13516025017E+02  0.55891447974E+02 -0.95426743263E+02  0.11141274711E+03  0.00000000000E+00 0. -1.
         11    1    4    4    0    0 -0.23500395083E+02 -0.45853479497E+02 -0.13789462703E+03  0.14720644794E+03  0.00000000000E+00 0.  1.
</event>
<event>
 7    1  0.4205029E-010  0.1794271E+03  0.7561462E-02  0.1168359E+00
         -2   -1    0    0    0  501 -0.00000000000E+00  0.00000000000E+00  0.23074124720E+03  0.23074124720E+03  0.00000000000E+00 0.  1.
          2   -1    0    0  501    0  0.00000000000E+00 -0.00000000000E+00 -0.16599037314E+03  0.16599037314E+03  0.00000000000E+00 0. -1.
         25    2    1    2    0    0  0.12051144790E+03  0.76920025167E+02  0.25810559254E+01  0.18998692769E+03  0.12509465015E+03 0.  0.
          5    1    3    3  502    0  0.31708637796E+02 -0.32306108348E+02 -0.15430939038E+02  0.48007380964E+02  0.41800000000E+01 0.  1.
         -5    1    3    3    0  502  0.88802810105E+02  0.10922613351E+03  0.18011994964E+02  0.14197954672E+03  0.41800000000E+01 0.  1.
        -11    1    1    2    0    0  0.10573179870E+02 -0.32466677959E+02  0.59146244656E+02  0.68294623267E+02  0.00000000000E+00 0.  1.
         11    1    1    2    0    0 -0.13108462777E+03 -0.44453347208E+02  0.30235734725E+01  0.13845006938E+03  0.00000000000E+00 0. -1.
</event>
<event>
 8    1  0.4205029E-010  0.6501129E+02  0.7561462E-02  0.1377929E+00
         -1   -1    0    0    0  501 -0.00000000000E+00  0.00000000000E+00  0.54705363699E+02  0.54705363699E+02  0.00000000000E+00 0.  1.
          1   -1    0    0  501    0  0.00000000000E+00 -0.00000000000E+00 -0.18925082613E+03  0.18925082613E+03  0.00000000000E+00 0. -1.
         25    2    1    2    0    0  0.10260189501E+02  0.29933198924E+01 -0.12263388805E+03  0.17550347332E+03  0.12509263446E+03 0.  0.
         23    2    1    2    0    0 -0.10260189501E+02 -0.29933198924E+01 -0.11911574386E+02  0.68452716513E+02  0.66555670991E+02 0.  0.
          5    1    3    3  502    0  0.44390751565E+02 -0.21102524215E+02 -0.12404348007E+03  0.13349199489E+03  0.41800000000E+01 0. -1.
         -5    1    3    3    0  502 -0.34130562064E+02  0.24095844107E+02  0.14095920196E+01  0.42011478428E+02  0.41800000000E+01 0. -1.
        -11    1    4    4    0    0 -0.10388708889E+02 -0.19555296830E+02  0.21686464587E+02  0.30994155139E+02  0.00000000000E+00 0.  1.
         11    1    4    4    0    0  0.12851938801E+00  0.16561976938E+02 -0.33598038974E+02  0.37458561374E+02  0.00000000000E+00 0. -1.
</event>
<event>
 8    1  0.4205029E-010  0.4082786E+02  0.7561462E-02  0.1502206E+00
         -1   -1    0    0    0  501 -0.00000000000E+00  0.00000000000E+00  0.49851513687E+03  0.49851513687E+03  0.00000000000E+00 0.  1.
          1   -1    0    0  501    0  0.00000000000E+00 -0.00000000000E+00 -0.21220638939E+02  0.21220638939E+02  0.00000000000E+00 0. -1.
         25    2    1    2    0    0  0.22684589280E+02  0.83541813380E+01  0.36587902244E+03  0.38742660801E+03  0.12509010591E+03 0.  0.
         23    2    1    2    0    0 -0.22684589280E+02 -0.83541813380E+01  0.11141547549E+03  0.13230916779E+03  0.67141081073E+02 0.  0.
          5    1    3    3  502    0 -0.22193121904E+01  0.17133548318E+02 -0.26128527647E+01  0.17966168878E+02  0.41800000000E+01 0. -1.
         -5    1    3    3    0  502  0.24903901470E+02 -0.87793669803E+01  0.36849187521E+03  0.36946043914E+03  0.41800000000E+01 0. -1.
        -11    1    4    4    0    0 -0.15625757269E+01 -0.14939423848E+02 -0.33837877638E+01  0.15397338973E+02  0.00000000000E+00 0. -1.
         11    1    4    4    0    0 -0.21122013553E+02  0.65852425097E+01  0.11479926325E+03  0.11691182882E+03  0.00000000000E+00 0.  1.
</event>
<event>
 7    1  0.4205029E-010  0.1089277E+03  0.7561462E-02  0.1262569E+00
          1   -1    0    0  501    0  0.00000000000E+00  0.00000000000E+00  0.30719270999E+02  0.30719270999E+02  0.00000000000E+00 0. -1.
         -1   -1    0    0    0  501 -0.00000000000E+00 -0.00000000000E+00 -0.42420786628E+03  0.42420786628E+03  0.00000000000E+00 0.  1.
         25    2    1    2    0    0 -0.40952059589E+02 -0.64987564445E+02 -0.26679425496E+03  0.30450979185E+03  0.12508630673E+03 0.  0.
          5    1    3    3  502    0 -0.53515920410E+02  0.16140681721E+02 -0.60675408905E+02  0.82604194746E+02  0.41800000000E+01 0.  1.
         -5    1    3    3    0  502  0.12563860821E+02 -0.81128246166E+02 -0.20611884606E+03  0.22190559710E+03  0.41800000000E+01 0.  1.
        -11    1    1    2    0    0  0.33944148523E+02  0.34811413027E+02 -0.62921945506E+02  0.79518619971E+02  0.00000000000E+00 0. -1.
         11    1    1    2    0    0  0.70079110664E+01  0.30176151419E+02 -0.63772394808E+02  0.70898725457E+02  0.00000000000E+00 0.  1.
</event>
<event>
 8    1  0.4205029E-010  0.1277886E+03  0.7561462E-02  0.1230774E+00
         -1   -1    0    0    0  501 -0.00000000000E+00  0.00000000000E+00  0.16235967242E+02  0.16235967242E+02  0.00000000000E+00 0. -1.
          1   -1    0    0  501    0  0.00000000000E+00 -0.00000000000E+00 -0.11474999034E+04  0.11474999034E+04  0.00000000000E+00 0.  1.
         25    2    1    2    0    0  0.63748474323E+02 -0.60725210039E+02 -0.75457973570E+03  0.76992864039E+03  0.12509242447E+03 0.  0.
         23    2    1    2    0    0 -0.63748474323E+02  0.60725210039E+02 -0.37668420044E+03  0.39380723023E+03  0.73768073076E+02 0.  0.
          5    1    3    3  502    0  0.95005146041E+02 -0.41281498853E+02 -0.66433689611E+03  0.67237721843E+03  0.41800000000E+01 0. -1.
         -5    1    3    3    0  502 -0.31256671718E+02 -0.19443711186E+02 -0.90242839583E+02  0.97551421966E+02  0.41800000000E+01 0. -1.
        -11    1    4    4    0    0 -0.58953717385E+02  0.77521679292E+02 -0.32028054091E+03  0.33476077494E+03  0.00000000000E+00 0.  1.
         11    1    4    4    0    0 -0.47947569374E+01 -0.16796469253E+02 -0.56403659531E+02  0.59046455287E+02  0.00000000000E+00 0. -1.
</event>
<event>
 8    1  0.4905650E-010  0.1035491E+03  0.7561462E-02  0.1273005E+00
         -1   -1    0    0    0  501 -0.00000000000E+00  0.00000000000E+00  0.41259089428E+02  0.41259089428E+02  0.00000000000E+00 0.  1.
          1   -1    0    0  501    0  0.00000000000E+00 -0.00000000000E+00 -0.34489321151E+03  0.34489321151E+03  0.00000000000E+00 0. -1.
         25    2    1    2    0    0  0.28883291089E+02 -0.15932593973E+02 -0.16352894623E+03  0.20851284949E+03  0.12509116713E+03 0.  0.
         23    2    1    2    0    0 -0.28883291089E+02  0.15932593973E+02 -0.14010517585E+03  0.17763945145E+03  0.10410678342E+03 0.  0.
          5    1    3    3  502    0  0.16684194643E+02 -0.70651960391E+02 -0.83697875790E+02  0.11087320988E+03  0.41800000000E+01 0. -1.
         -5    1    3    3    0  502  0.12199096446E+02  0.54719366417E+02 -0.79831070438E+02  0.97639639607E+02  0.41800000000E+01 0. -1.
        -11    1    4    4    0    0 -0.31604971394E+02  0.41660939997E+02 -0.21996849152E+02  0.56730675219E+02  0.00000000000E+00 0.  1.
         11    1    4    4    0    0  0.27216803047E+01 -0.25728346024E+02 -0.11810832670E+03  0.12090877623E+03  0.00000000000E+00 0. -1.
</event>
<event>
 8    1  0.4205029E-010  0.1512402E+03  0.7561462E-02  0.1198957E+00
         -2   -1    0    0    0  501 -0.00000000000E+00  0.00000000000E+00  0.57409350545E+02  0.57409350545E+02  0.00000000000E+00 0.  1.
          2   -1    0    0  501    0  0.00000000000E+00 -0.00000000000E+00 -0.45143223415E+03  0.45143223415E+03  0.00000000000E+00 0. -1.
         25    2    1    2    0    0  0.36846470312E+02 -0.12315640820E+03 -0.22973972347E+03  0.29146691277E+03  0.12508979754E+03 0.  0.
         23    2    1    2    0    0 -0.36846470312E+02  0.12315640820E+03 -0.16428316014E+03  0.21737467192E+03  0.61136143411E+02 0.  0.
          5    1    3    3  502    0 -0.21599319356E+02 -0.91701288757E+02 -0.67052491370E+02  0.11571156362E+03  0.41800000000E+01 0. -1.
         -5    1    3    3    0  502  0.58445789668E+02 -0.31455119448E+02 -0.16268723210E+03  0.17575534915E+03  0.41800000000E+01 0. -1.
        -11    1    4    4    0    0 -0.50482067812E+02  0.67027817952E+02 -0.10754946658E+03  0.13641134598E+03  0.00000000000E+00 0.  1.
         11    1    4    4    0    0  0.13635597500E+02  0.56128590253E+02 -0.56733693565E+02  0.80963325947E+02  0.00000000000E+00 0. -1.
</event>
<event>
 8    1  0.4609378E-010  0.1029481E+03  0.7561462E-02  0.1274216E+00
         -2   -1    0    0    0  501 -0.00000000000E+00  0.00000000000E+00  0.76324052816E+02  0.76324052816E+02  0.00000000000E+00 0.  1.
          2   -1    0    0  501    0  0.00000000000E+00 -0.00000000000E+00 -0.22111440341E+03  0.22111440341E+03  0.00000000000E+00 0. -1.
         25    2    1    2    0    0 -0.24274636764E+02 -0.44248057643E+02 -0.38062209183E+02  0.14014055957E+03  0.12507396241E+03 0.  0.
         23    2    1    2    0    0  0.24274636764E+02  0.44248057643E+02 -0.10672814141E+03  0.15729789666E+03  0.10394509863E+03 0.  0.
          5    1    3    3  502    0  0.28267712592E+02  0.31422485388E+02 -0.15403837944E+02  0.45179495199E+02  0.41800000000E+01 0.  1.
         -5    1    3    3    0  502 -0.52542349356E+02 -0.75670543030E+02 -0.22658371239E+02  0.94961064366E+02  0.41800000000E+01 0.  1.
        -11    1    4    4    0    0 -0.11349453856E+02  0.31311936335E+02  0.98356737940E+01  0.34727337054E+02  0.00000000000E+00 0.  1.
         11    1    4    4    0    0  0.35624090620E+02  0.12936121308E+02 -0.11656381520E+03  0.12257055960E+03  0.00000000000E+00 0. -1.
</event>
<event>
 8    1  0.4205029E-010  0.1160639E+03  0.7561462E-02  0.1249735E+00
          1   -1    0    0  501    0  0.00000000000E+00  0.00000000000E+00  0.71488901186E+03  0.71488901186E+03  0.00000000000E+00 0. -1.
         -1   -1    0    0    0  501 -0.00000000000E+00 -0.00000000000E+00 -0.26709737321E+02  0.26709737321E+02  0.00000000000E+00 0.  1.
         25    2    1    2    0    0  0.58439576730E+02 -0.54294198284E+02  0.56834866462E+03  0.58739328986E+03  0.12509048044E+03 0.  0.
         23    2    1    2    0    0 -0.58439576730E+02  0.54294198284E+02  0.11983060992E+03  0.15420545933E+03  0.55289280303E+02 0.  0.
          5    1    3    3  502    0  0.83678758999E+02 -0.10198300853E+02  0.45963535198E+03  0.46732030690E+03  0.41800000000E+01 0.  1.
         -5    1    3    3    0  502 -0.25239182268E+02 -0.44095897431E+02  0.10871331264E+03  0.12007298296E+03  0.41800000000E+01 0.  1.
        -11    1    4    4    0    0 -0.54303535439E+02  0.65335265484E+02  0.10898272882E+03  0.13818395731E+03  0.00000000000E+00 0.  1.
         11    1    4    4    0    0 -0.41360412913E+01 -0.11041067200E+02  0.10847881106E+02  0.16021502020E+02  0.00000000000E+00 0. -1.
</event>
<event>
 8    1  0.5783790E-010  0.1328068E+03  0.7561462E-02  0.1223349E+00
          2   -1    0    0  501    0  0.00000000000E+00  0.00000000000E+00  0.18082831138E+04  0.18082831138E+04  0.00000000000E+00 0. -1.
         -2   -1    0    0    0  501 -0.00000000000E+00 -0.00000000000E+00 -0.10392522666E+02  0.10392522666E+02  0.00000000000E+00 0.  1.
         25    2    1    2    0    0  0.82665039404E+02 -0.24244951207E+02  0.12004713342E+04  0.12100428181E+04  0.12510344150E+03 0.  0.
         23    2    1    2    0    0 -0.82665039404E+02  0.24244951207E+02  0.59741925693E+03  0.60863281833E+03  0.78120500511E+02 0.  0.
          5    1    3    3  502    0  0.45672834126E+02 -0.75376065177E+02  0.74276670065E+03  0.74798890565E+03  0.41800000000E+01 0.  1.
         -5    1    3    3    0  502  0.36992205278E+02  0.51131113971E+02  0.45770463351E+03  0.46205391244E+03  0.41800000000E+01 0.  1.
        -11    1    4    4    0    0 -0.79840748092E+02 -0.93797620162E+01  0.46978240224E+03  0.47661098440E+03  0.00000000000E+00 0. -1.
         11    1    4    4    0    0 -0.28242913115E+01  0.33624713223E+02  0.12763685469E+03  0.13202183394E+03  0.00000000000E+00 0.  1.
</event>
<event>
 8    1  0.4205029E-010  0.8959408E+02  0.7561462E-02  0.1303838E+00
         -3   -1    0    0    0  501 -0.00000000000E+00  0.00000000000E+00  0.14950590390E+03  0.14950590390E+03  0.00000000000E+00 0.  1.
          3   -1    0    0  501    0  0.00000000000E+00 -0.00000000000E+00 -0.10639548759E+03  0.10639548759E+03  0.00000000000E+00 0. -1.
         25    2    1    2    0    0  0.25433499777E+02 -0.34750132049E+01  0.62639456458E+02  0.14223199572E+03  0.12508917009E+03 0.  0.
         23    2    1    2    0    0 -0.25433499777E+02  0.34750132049E+01 -0.19529040148E+02  0.11366939577E+03  0.10899729124E+03 0.  0.
          5    1    3    3  502    0 -0.31359642124E+02 -0.34059571434E+02  0.62122624236E+02  0.77589782848E+02  0.41800000000E+01 0. -1.
         -5    1    3    3    0  502  0.56793141901E+02  0.30584558229E+02  0.51683222158E+00  0.64642212869E+02  0.41800000000E+01 0. -1.
        -11    1    4    4    0    0 -0.19206677393E+02 -0.29116597190E+02 -0.54980901949E+02  0.65111997877E+02  0.00000000000E+00 0. -1.
         11    1    4    4    0    0 -0.62268223841E+01  0.32591610395E+02  0.35451861802E+02  0.48557397895E+02  0.00000000000E+00 0.  1.
</event>
<event>
 8    1  0.4205029E-010  0.1307460E+03  0.7561462E-02  0.1226353E+00
         -2   -1    0    0    0  501 -0.00000000000E+00  0.00000000000E+00  0.23703428419E+03  0.23703428419E+03  0.00000000000E+00 0. -1.
          2   -1    0    0  501    0  0.00000000000E+00 -0.00000000000E+00 -0.94504041405E+02  0.94504041405E+02  0.00000000000E+00 0.  1.
         25    2    1    2    0    0 -0.15383295194E+02  0.11065158915E+03  0.11716621891E+03  0.20458420371E+03  0.12508538524E+03 0.  0.
         23    2    1    2    0    0  0.15383295194E+02 -0.11065158915E+03  0.25364023868E+02  0.12695412188E+03  0.54713758795E+02 0.  0.
          5    1    3    3  502    0 -0.52923837979E+02  0.61490233295E+02  0.11718238878E+03  0.14258739796E+03  0.41800000000E+01 0. -1.
         -5    1    3    3    0  502  0.37540542785E+02  0.49161355859E+02 -0.16169862740E-01  0.61996805756E+02  0.41800000000E+01 0. -1.
        -11    1    4    4    0    0  0.28555609999E+02 -0.75818710860E+02 -0.15062445589E+01  0.81031898359E+02  0.00000000000E+00 0.  1.
         11    1    4    4    0    0 -0.13172314805E+02 -0.34832878293E+02  0.26870268427E+02  0.45922223518E+02  0.00000000000E+00 0. -1.
</event>
<event>
 7    1  0.4205029E-010  0.9288759E+02  0.7561462E-02  0.1296006E+00
         -2   -1    0    0    0  501 -0.00000000000E+00  0.00000000000E+00  0.79593223710E+02  0.79593223710E+02  0.00000000000E+00 0.  1.
          2   -1    0    0  501    0  0.00000000000E+00 -0.00000000000E+00 -0.27226764327E+03  0.27226764327E+03  0.00000000000E+00 0. -1.
         25    2    1    2    0    0  0.43837730160E+02  0.37279998908E+02  0.76164537668E+01  0.13790188543E+03  0.12508946691E+03 0.  0.
          5    1    3    3  502    0  0.47707970380E+02  0.74139632983E+02 -0.21196315063E+02  0.90771646394E+02  0.41800000000E+01 0. -1.
         -5    1    3    3    0  502 -0.38702402201E+01 -0.36859634076E+02  0.28812768830E+02  0.47130239032E+02  0.41800000000E+01 0. -1.
        -11    1    1    2    0    0 -0.16778907845E+02 -0.25902887905E+02 -0.37613447058E+02  0.48654524455E+02  0.00000000000E+00 0. -1.
         11    1    1    2    0    0 -0.27058822315E+02 -0.11377111003E+02 -0.16267742627E+03  0.16530445710E+03  0.00000000000E+00 0.  1.
</event>
<event>
 8    1  0.4205029E-010  0.1641874E+03  0.7561462E-02  0.1184049E+00
          2   -1    0    0  501    0  0.00000000000E+00  0.00000000000E+00  0.52161526053E+03  0.52161526053E+03  0.00000000000E+00 0. -1.
         -2   -1    0    0    0  501 -0.00000000000E+00 -0.00000000000E+00 -0.61947339357E+02  0.61947339357E+02  0.00000000000E+00 0.  1.
         25    2    1    2    0    0  0.37759788881E+02  0.12422293224E+03  0.24435108987E+03  0.30366048806E+03  0.12508036752E+03 0.  0.
         23    2    1    2    0    0 -0.37759788881E+02 -0.12422293224E+03  0.21531683130E+03  0.27990211182E+03  0.12299071433E+03 0.  0.
          5    1    3    3  502    0 -0.24962976508E+02  0.15675669974E+02  0.88915018506E+00  0.29784892367E+02  0.41800000000E+01 0. -1.
         -5    1    3    3    0  502  0.62722765389E+02  0.10854726226E+03  0.24346193968E+03  0.27387559570E+03  0.41800000000E+01 0. -1.
        -11    1    4    4    0    0  0.40639663148E+02 -0.29551310201E+02  0.97251407671E+02  0.10946551260E+03  0.00000000000E+00 0.  1.
         11    1    4    4    0    0 -0.78399452029E+02 -0.94671622034E+02  0.11806542363E+03  0.17043659922E+03  0.00000000000E+00 0. -1.
</event>
<event>
 8    1  0.4205029E-010  0.1060590E+03  0.7561462E-02  0.1268047E+00
         -1   -1    0    0    0  501 -0.00000000000E+00  0.00000000000E+00  0.11939798898E+03  0.11939798898E+03  0.00000000000E+00 0.  1.
          1   -1    0    0  501    0  0.00000000000E+00 -0.00000000000E+00 -0.15113363064E+03  0.15113363064E+03  0.00000000000E+00 0. -1.
         25    2    1    2    0    0  0.51834844641E+02 -0.27914627774E+02 -0.21003106146E+02  0.13984003403E+03  0.12509207444E+03 0.  0.
         23    2    1    2    0    0 -0.51834844641E+02  0.27914627774E+02 -0.10732535519E+02  0.13069158559E+03  0.11618530743E+03 0.  0.
          5    1    3    3  502    0 -0.35580868044E+02  0.14596490650E+02  0.53167095396E+01  0.39048630071E+02  0.41800000000E+01 0. -1.
         -5    1    3    3    0  502  0.87415712685E+02 -0.42511118424E+02 -0.26319815686E+02  0.10079140396E+03  0.41800000000E+01 0. -1.
        -11    1    4    4    0    0 -0.11749435838E+02 -0.13908951057E+02  0.46082940820E+02  0.49549425795E+02  0.00000000000E+00 0.  1.
         11    1    4    4    0    0 -0.40085408803E+02  0.41823578831E+02 -0.56815476339E+02  0.81142159799E+02  0.00000000000E+00 0. -1.
</event>
<event>
 8    1  0.4205029E-010  0.7816207E+02  0.7561462E-02  0.1334350E+00
         -2   -1    0    0    0  501 -0.00000000000E+00  0.00000000000E+00  0.18838543572E+02  0.18838543572E+02  0.00000000000E+00 0.  1.
          2   -1    0    0  501    0  0.00000000000E+00 -0.00000000000E+00 -0.58524871119E+03  0.58524871119E+03  0.00000000000E+00 0. -1.
         25    2    1    2    0    0  0.24652226668E+02 -0.68522666713E+01 -0.46578255519E+03  0.48296547275E+03  0.12509026064E+03 0.  0.
         23    2    1    2    0    0 -0.24652226668E+02  0.68522666713E+01 -0.10062761243E+03  0.12112178202E+03  0.62368933433E+02 0.  0.
          5    1    3    3  502    0  0.38717547839E+02  0.30706304737E+02 -0.41579297388E+03  0.41874000906E+03  0.41800000000E+01 0. -1.
         -5    1    3    3    0  502 -0.14065321171E+02 -0.37558571408E+02 -0.49989581308E+02  0.64225463683E+02  0.41800000000E+01 0. -1.
        -11    1    4    4    0    0 -0.41882407710E+02  0.18317180753E+02 -0.59033872049E+02  0.74663600472E+02  0.00000000000E+00 0.  1.
         11    1    4    4    0    0  0.17230181042E+02 -0.11464914082E+02 -0.41593740380E+02  0.46458181544E+02  0.00000000000E+00 0. -1.
</event>
<event>
 8    1  0.4205029E-010  0.1593168E+03  0.7561462E-02  0.1189470E+00
          2   -1    0    0  501    0  0.00000000000E+00  0.00000000000E+00  0.54841415715E+02  0.54841415715E+02  0.00000000000E+00 0. -1.
         -2   -1    0    0    0  501 -0.00000000000E+00 -0.00000000000E+00 -0.50468538988E+03  0.50468538988E+03  0.00000000000E+00 0.  1.
         25    2    1    2    0    0 -0.27517870519E+02  0.11040307408E+03 -0.30049459954E+03  0.34480643808E+03  0.12509357865E+03 0.  0.
         23    2    1    2    0    0  0.27517870519E+02 -0.11040307408E+03 -0.14934937463E+03  0.21472036752E+03  0.10418026955E+03 0.  0.
          5    1    3    3  502    0 -0.34958006552E+02  0.13658272554E+03 -0.24082037146E+03  0.27908569803E+03  0.41800000000E+01 0.  1.
         -5    1    3    3    0  502  0.74401360326E+01 -0.26179651455E+02 -0.59674228083E+02  0.65720740043E+02  0.41800000000E+01 0.  1.
        -11    1    4    4    0    0  0.11632557760E+02  0.17582967123E+02 -0.41709189104E+02  0.46734715027E+02  0.00000000000E+00 0.  1.
         11    1    4    4    0    0  0.15885312759E+02 -0.12798604121E+03 -0.10764018552E+03  0.16798565250E+03  0.00000000000E+00 0. -1.
</event>
<event>
 7    1  0.4205029E-010  0.6506635E+02  0.7561462E-02  0.1377722E+00
         -1   -1    0    0    0  501 -0.00000000000E+00  0.00000000000E+00  0.20842157934E+02  0.20842157934E+02  0.00000000000E+00 0.  1.
          1   -1    0    0  501    0  0.00000000000E+00 -0.00000000000E+00 -0.73684375753E+03  0.73684375753E+03  0.00000000000E+00 0. -1.
         25    2    1    2    0    0  0.28873036189E+02  0.14384572458E+02 -0.66588888026E+03  0.67830344546E+03  0.12508794953E+03 0.  0.
          5    1    3    3  502    0 -0.17138197037E+02  0.18346586552E+02 -0.58114911914E+03  0.58170618538E+03  0.41800000000E+01 0. -1.
         -5    1    3    3    0  502  0.46011233226E+02 -0.39620140941E+01 -0.84739761125E+02  0.96597260076E+02  0.41800000000E+01 0. -1.
        -11    1    1    2    0    0  0.13790467622E+02 -0.46232090922E+01 -0.25839400241E+01  0.14772535516E+02  0.00000000000E+00 0.  1.
         11    1    1    2    0    0 -0.42663503811E+02 -0.97613633657E+01 -0.47528779306E+02  0.64609934487E+02  0.00000000000E+00 0. -1.
</event>
<event>
 7    1  0.4205029E-010  0.8422890E+02  0.7561462E-02  0.1317461E+00
          1   -1    0    0  501    0  0.00000000000E+00  0.00000000000E+00  0.79694665322E+03  0.79694665322E+03  0.00000000000E+00 0. -1.
         -1   -1    0    0    0  501 -0.00000000000E+00 -0.00000000000E+00 -0.11641624385E+02  0.11641624385E+02  0.00000000000E+00 0.  1.
         25    2    1    2    0    0  0.11352383962E+02  0.10930754890E+02  0.69541083331E+03  0.70674814451E+03  0.12509338373E+03 0.  0.
          5    1    3    3  502    0  0.47966431298E+02 -0.40323365882E+02  0.32947263762E+03  0.33540489518E+03  0.41800000000E+01 0.  1.
         -5    1    3    3    0  502 -0.36614047336E+02  0.51254120772E+02  0.36593819569E+03  0.37134324933E+03  0.41800000000E+01 0.  1.
        -11    1    1    2    0    0 -0.26166249334E+02 -0.85223797222E+01  0.32844640212E+02  0.42849433497E+02  0.00000000000E+00 0.  1.
         11    1    1    2    0    0  0.14813865372E+02 -0.24083751675E+01  0.57049555312E+02  0.58990699602E+02  0.00000000000E+00 0. -1.
</event>
<event>
 8    1  0.4205029E-010  0.1689413E+03  0.7561462E-02  0.1178956E+00
          1   -1    0    0  501    0  0.00000000000E+00  0.00000000000E+00  0.15857435453E+03  0.15857435453E+03  0.00000000000E+00 0. -1.
         -1   -1    0    0    0  501 -0.00000000000E+00 -0.00000000000E+00 -0.27929423586E+03  0.27929423586E+03  0.00000000000E+00 0.  1.
         25    2    1    2    0    0  0.13583256695E+03  0.61146668641E+02  0.35776910680E+02  0.19777933047E+03  0.12508906785E+03 0.  0.
         23    2    1    2    0    0 -0.13583256695E+03 -0.61146668641E+02 -0.15649679201E+03  0.24008925991E+03  0.10470055151E+03 0.  0.
          5    1    3    3  502    0  0.97004043692E+02 -0.15387646033E+02 -0.12703886702E+02  0.99123283241E+02  0.41800000000E+01 0.  1.
         -5    1    3    3    0  502  0.38828523255E+02  0.76534314674E+02  0.48480797382E+02  0.98656047233E+02  0.41800000000E+01 0.  1.
        -11    1    4    4    0    0 -0.33361246018E+02 -0.34031874417E+02  0.39180749663E+01  0.47817282687E+02  0.00000000000E+00 0. -1.
         11    1    4    4    0    0 -0.10247132093E+03 -0.27114794225E+02 -0.16041486698E+03  0.19227197723E+03  0.00000000000E+00 0.  1.
</event>
<event>
 8    1  0.4205029E-010  0.1621866E+03  0.7561462E-02  0.1186250E+00
          1   -1    0    0  501    0  0.00000000000E+00  0.00000000000E+00  0.19823052467E+03  0.19823052467E+03  0.00000000000E+00 0. -1.
         -1   -1    0    0    0  501 -0.00000000000E+00 -0.00000000000E+00 -0.13686939947E+03  0.13686939947E+03  0.00000000000E+00 0.  1.
         25    2    1    2    0    0 -0.20388624465E+02 -0.12679183548E+03  0.35959237496E+02  0.18284325507E+03  0.12508686426E+03 0.  0.
         23    2    1    2    0    0  0.20388624465E+02  0.12679183548E+03  0.25401887706E+02  0.15225666907E+03  0.77749416881E+02 0.  0.
          5    1    3    3  502    0  0.30411779668E+02  0.84287538072E+01  0.19667067422E+02  0.37419061644E+02  0.41800000000E+01 0. -1.
         -5    1    3    3    0  502 -0.50800404133E+02 -0.13522058929E+03  0.16292170074E+02  0.14542419343E+03  0.41800000000E+01 0. -1.
        -11    1    4    4    0    0  0.47457578077E+02  0.95598228186E+02  0.67605731950E+01  0.10694366881E+03  0.00000000000E+00 0.  1.
         11    1    4    4    0    0 -0.27068953612E+02  0.31193607299E+02  0.18641314511E+02  0.45313000261E+02  0.00000000000E+00 0. -1.
</event>
<event>
 8    1  0.4205029E-010  0.1207252E+03  0.7561462E-02  0.1241905E+00
         -2   -1    0    0    0  501 -0.00000000000E+00  0.00000000000E+00  0.31640686290E+02  0.31640686290E+02  0.00000000000E+00 0. -1.
          2   -1    0    0  501    0  0.00000000000E+00 -0.00000000000E+00 -0.67070164534E+03  0.67070164534E+03  0.00000000000E+00 0.  1.
         25    2    1    2    0    0  0.78129262101E+02  0.10620560503E+01 -0.43723168595E+03  0.46143695465E+03  0.12508879390E+03 0.  0.
         23    2    1    2    0    0 -0.78129262101E+02 -0.10620560503E+01 -0.20182927310E+03  0.24090537698E+03  0.10580659534E+03 0.  0.
          5    1    3    3  502    0  0.97919397293E+02 -0.26142898623E+02 -0.22894536816E+03  0.25040989101E+03  0.41800000000E+01 0. -1.
         -5    1    3    3    0  502 -0.19790135192E+02  0.27204954673E+02 -0.20828631779E+03  0.21102706364E+03  0.41800000000E+01 0. -1.
        -11    1    4    4    0    0 -0.76578921972E+02 -0.26194112782E+02 -0.19988691753E+03  0.21565074225E+03  0.00000000000E+00 0.  1.
         11    1    4    4    0    0 -0.15503401286E+01  0.25132056732E+02 -0.19423555741E+01  0.25254634728E+02  0.00000000000E+00 0. -1.
</event>
<event>
 8    1  0.4205029E-010  0.9209138E+02  0.7561462E-02  0.1297865E+00
          2   -1    0    0  501    0  0.00000000000E+00  0.00000000000E+00  0.31783840681E+03  0.31783840681E+03  0.00000000000E+00 0. -1.
         -2   -1    0    0    0  501 -0.00000000000E+00 -0.00000000000E+00 -0.44735147810E+02  0.44735147810E+02  0.00000000000E+00 0.  1.
         25    2    1    2    0    0 -0.19861908929E+02 -0.43706516323E+02  0.24175706265E+03  0.27639856492E+03  0.12507971201E+03 0.  0.
         23    2    1    2    0    0  0.19861908929E+02  0.43706516323E+02  0.31346196347E+02  0.86174989691E+02  0.64333426982E+02 0.  0.
          5    1    3    3  502    0  0.40105194754E+02 -0.20207408865E+02  0.27946905845E+02  0.53059098802E+02  0.41800000000E+01 0.  1.
         -5    1    3    3    0  502 -0.59967103684E+02 -0.23499107458E+02  0.21381015680E+03  0.22333946612E+03  0.41800000000E+01 0.  1.
        -11    1    4    4    0    0  0.36388333891E+02  0.11202680597E+02 -0.24265551826E-01  0.38073763732E+02  0.00000000000E+00 0.  1.
         11    1    4    4    0    0 -0.16526424962E+02  0.32503835727E+02  0.31370461899E+02  0.48101225959E+02  0.00000000000E+00 0. -1.
</event>
<event>
 8    1  0.4205029E-010  0.9079181E+02  0.7561462E-02  0.1300945E+00
         -4   -1    0    0    0  501 -0.00000000000E+00  0.00000000000E+00  0.88629257744E+02  0.88629257744E+02  0.00000000000E+00 0.  1.
          4   -1    0    0  501    0  0.00000000000E+00 -0.00000000000E+00 -0.14088568514E+03  0.14088568514E+03  0.00000000000E+00 0. -1.
         25    2    1    2    0    0  0.40133038868E+02 -0.17704511706E+02 -0.44801322989E+02  0.13992757741E+03  0.12509379615E+03 0.  0.
         23    2    1    2    0    0 -0.40133038868E+02  0.17704511706E+02 -0.74551044043E+01  0.89587365468E+02  0.77757359306E+02 0.  0.
          5    1    3    3  502    0  0.78009360958E+02  0.18005784694E+02 -0.30563489080E+02  0.85797831816E+02  0.41800000000E+01 0. -1.
         -5    1    3    3    0  502 -0.37876322090E+02 -0.35710296400E+02 -0.14237833909E+02  0.54129745598E+02  0.41800000000E+01 0. -1.
        -11    1    4    4    0    0 -0.15975986951E+02  0.19211736009E+02  0.33633887878E+02  0.41899419725E+02  0.00000000000E+00 0.  1.
         11    1    4    4    0    0 -0.24157051917E+02 -0.15072243026E+01 -0.41088992282E+02  0.47687945743E+02  0.00000000000E+00 0. -1.
</event>
<event>
 7    1  0.4205029E-010  0.2117118E+03  0.7561462E-02  0.1140218E+00
          1   -1    0    0  501    0  0.00000000000E+00  0.00000000000E+00  0.11315760272E+03  0.11315760272E+03  0.00000000000E+00 0. -1.
         -1   -1    0    0    0  501 -0.00000000000E+00 -0.00000000000E+00 -0.47859666851E+03  0.47859666851E+03  0.00000000000E+00 0.  1.
         25    2    1    2    0    0 -0.19449113842E+02 -0.19576622309E+03 -0.91764606411E+02  0.25054128747E+03  0.12509001400E+03 0.  0.
          5    1    3    3  502    0  0.31736720120E+02 -0.14172773312E+03 -0.19296077880E+02  0.14657346541E+03  0.41800000000E+01 0.  1.
         -5    1    3    3    0  502 -0.51185833962E+02 -0.54038489974E+02 -0.72468528531E+02  0.10396782206E+03  0.41800000000E+01 0.  1.
        -11    1    1    2    0    0 -0.18191617167E+02  0.65998937574E+02 -0.99430974535E+02  0.12071997926E+03  0.00000000000E+00 0. -1.
         11    1    1    2    0    0  0.37640731009E+02  0.12976728552E+03 -0.17424348485E+03  0.22049300450E+03  0.00000000000E+00 0.  1.
</event>
<event>
 7    1  0.4205029E-010  0.1296819E+03  0.7561462E-02  0.1227929E+00
         -1   -1    0    0    0  501 -0.00000000000E+00  0.00000000000E+00  0.74277008146E+02  0.74277008146E+02  0.00000000000E+00 0.  1.
          1   -1    0    0  501    0  0.00000000000E+00 -0.00000000000E+00 -0.57297594799E+03  0.57297594799E+03  0.00000000000E+00 0. -1.
         25    2    1    2    0    0 -0.26339360532E+02  0.62498649166E+02 -0.33265411409E+03  0.36180989741E+03  0.12509116347E+03 0.  0.
          5    1    3    3  502    0 -0.13274428457E+02 -0.17580638709E+02 -0.33984447935E+01  0.22678428854E+02  0.41800000000E+01 0.  1.
         -5    1    3    3    0  502 -0.13064932075E+02  0.80079287874E+02 -0.32925566930E+03  0.33913146855E+03  0.41800000000E+01 0.  1.
        -11    1    1    2    0    0  0.50970720006E+02 -0.99180471614E+02 -0.20049280276E+03  0.22941696582E+03  0.00000000000E+00 0. -1.
         11    1    1    2    0    0 -0.24631359474E+02  0.36681822449E+02  0.34447977004E+02  0.56026092915E+02  0.00000000000E+00 0.  1.
</event>
<event>
 8    1  0.4205029E-010  0.9417939E+02  0.7561462E-02  0.1293035E+00
         -2   -1    0    0    0  501 -0.00000000000E+00  0.00000000000E+00  0.51078567835E+02  0.51078567835E+02  0.00000000000E+00 0.  1.
          2   -1    0    0  501    0  0.00000000000E+00 -0.00000000000E+00 -0.37440365895E+03  0.37440365895E+03  0.00000000000E+00 0. -1.
         25    2    1    2    0    0 -0.32325457282E+02 -0.56572890281E+02 -0.22442714629E+03  0.26506684888E+03  0.12508982084E+03 0.  0.
         23    2    1    2    0    0  0.32325457282E+02  0.56572890281E+02 -0.98897944826E+02  0.16041537791E+03  0.10819825727E+03 0.  0.
          5    1    3    3  502    0 -0.75404523775E+01 -0.33082308733E+02  0.36755994554E+01  0.34384298808E+02  0.41800000000E+01 0. -1.
         -5    1    3    3    0  502 -0.24785004905E+02 -0.23490581547E+02 -0.22810274575E+03  0.23068255007E+03  0.41800000000E+01 0. -1.
        -11    1    4    4    0    0  0.68066918628E+02  0.47160457536E+02 -0.90197450979E+02  0.12244506658E+03  0.00000000000E+00 0.  1.
         11    1    4    4    0    0 -0.35741461346E+02  0.94124327448E+01 -0.87004938471E+01  0.37970311330E+02  0.00000000000E+00 0. -1.
</event>
<event>
 7    1  0.4205029E-010  0.1005186E+03  0.7561462E-02  0.1279209E+00
          2   -1    0    0  501    0  0.00000000000E+00  0.00000000000E+00  0.26301606431E+03  0.26301606431E+03  0.00000000000E+00 0. -1.
         -2   -1    0    0    0  501 -0.00000000000E+00 -0.00000000000E+00 -0.94082538663E+02  0.94082538663E+02  0.00000000000E+00 0.  1.
         25    2    1    2    0    0 -0.42301276232E+02 -0.15962197197E+02 -0.46087307795E+01  0.13308910212E+03  0.12508908423E+03 0.  0.
          5    1    3    3  502    0 -0.29173125662E+02  0.39102853928E+02 -0.42503816929E+02  0.64839427047E+02  0.41800000000E+01 0.  1.
         -5    1    3    3    0  502 -0.13128150570E+02 -0.55065051125E+02  0.37895086150E+02  0.68249675069E+02  0.41800000000E+01 0.  1.
        -11    1    1    2    0    0 -0.18193679892E+02  0.28228543242E+02 -0.60334295082E+01  0.34121297062E+02  0.00000000000E+00 0.  1.
         11    1    1    2    0    0  0.60494956124E+02 -0.12266346044E+02  0.17957568593E+03  0.18988820379E+03  0.00000000000E+00 0. -1.
</event>
<event>
 8    1  0.4205029E-010  0.8203540E+02  0.7561462E-02  0.1323373E+00
          2   -1    0    0  501    0  0.00000000000E+00  0.00000000000E+00  0.86291970745E+03  0.86291970745E+03  0.00000000000E+00 0. -1.
         -2   -1    0    0    0  501 -0.00000000000E+00 -0.00000000000E+00 -0.18464304367E+02  0.18464304367E+02  0.00000000000E+00 0.  1.
         25    2    1    2    0    0  0.20850948538E+02 -0.21165546781E+02  0.58375732422E+03  0.59774750571E+03  0.12508686811E+03 0.  0.
         23    2    1    2    0    0 -0.20850948538E+02  0.21165546781E+02  0.26069807887E+03  0.28363650612E+03  0.10771925014E+03 0.  0.
          5    1    3    3  502    0  0.11380751560E+02  0.19365661846E+02  0.14729729215E+02  0.27184327977E+02  0.41800000000E+01 0. -1.
         -5    1    3    3    0  502  0.94701969780E+01 -0.40531208628E+02  0.56902759500E+03  0.57056317773E+03  0.41800000000E+01 0. -1.
        -11    1    4    4    0    0 -0.62889616381E+00 -0.37413867350E+02  0.41647506747E+02  0.55988461299E+02  0.00000000000E+00 0.  1.
         11    1    4    4    0    0 -0.20222052374E+02  0.58579414131E+02  0.21905057212E+03  0.22764804482E+03  0.00000000000E+00 0. -1.
</event>
<event>
 8    1  0.4205029E-010  0.1819574E+03  0.7561462E-02  0.1165922E+00
         -2   -1    0    0    0  501 -0.00000000000E+00  0.00000000000E+00  0.88608363293E+03  0.88608363293E+03  0.00000000000E+00 0. -1.
          2   -1    0    0  501    0  0.00000000000E+00 -0.00000000000E+00 -0.57938997563E+02  0.57938997563E+02  0.00000000000E+00 0.  1.
         25    2    1    2    0    0  0.15365755569E+03 -0.51596167817E+02  0.65017025073E+03  0.68164612539E+03  0.12508907374E+03 0.  0.
         23    2    1    2    0    0 -0.15365755569E+03  0.51596167817E+02  0.17797438464E+03  0.26237650511E+03  0.10437308029E+03 0.  0.
          5    1    3    3  502    0 -0.24487195301E+01 -0.45274310515E+02  0.19998509800E+03  0.20510307467E+03  0.41800000000E+01 0.  1.
         -5    1    3    3    0  502  0.15610627522E+03 -0.63218573017E+01  0.45018515273E+03  0.47654305071E+03  0.41800000000E+01 0.  1.
        -11    1    4    4    0    0 -0.85941340808E+02  0.29375513178E+02  0.16723098466E+03  0.19030248833E+03  0.00000000000E+00 0. -1.
         11    1    4    4    0    0 -0.67716214884E+02  0.22220654638E+02  0.10743399977E+02  0.72074016774E+02  0.00000000000E+00 0.  1.
</event>
<event>
 8    1  0.4205029E-010  0.1202592E+03  0.7561462E-02  0.1242670E+00
         -2   -1    0    0    0  501 -0.00000000000E+00  0.00000000000E+00  0.79202824285E+02  0.79202824285E+02  0.00000000000E+00 0.  1.
          2   -1    0    0  501    0  0.00000000000E+00 -0.00000000000E+00 -0.28805424850E+03  0.28805424850E+03  0.00000000000E+00 0. -1.
         25    2    1    2    0    0 -0.47152196728E+02 -0.36941030328E+02 -0.19680593833E+03  0.24076554560E+03  0.12508997245E+03 0.  0.
         23    2    1    2    0    0  0.47152196728E+02  0.36941030328E+02 -0.12045485883E+02  0.12649152718E+03  0.11075668531E+03 0.  0.
          5    1    3    3  502    0  0.25789292718E+02 -0.56702923866E+02 -0.99920716629E+02  0.11782160755E+03  0.41800000000E+01 0.  1.
         -5    1    3    3    0  502 -0.72941489446E+02  0.19761893538E+02 -0.96885221700E+02  0.12294393805E+03  0.41800000000E+01 0.  1.
        -11    1    4    4    0    0  0.12765466203E+02  0.59774387203E+02 -0.43139882082E+02  0.74812992982E+02  0.00000000000E+00 0. -1.
         11    1    4    4    0    0  0.34386730525E+02 -0.22833356875E+02  0.31094396199E+02  0.51678534203E+02  0.00000000000E+00 0.  1.
</event>
<event>
 8    1  0.4205029E-010  0.1021814E+03  0.7561462E-02  0.1275774E+00
         -2   -1    0    0    0  501 -0.00000000000E+00  0.00000000000E+00  0.25120315226E+03  0.25120315226E+03  0.00000000000E+00 0.  1.
          2   -1    0    0  501    0  0.00000000000E+00 -0.00000000000E+00 -0.96558483544E+02  0.96558483544E+02  0.00000000000E+00 0. -1.
         25    2    1    2    0    0  0.50347780748E+02  0.33265014022E+02  0.16993223826E+03  0.21946698940E+03  0.12508930271E+03 0.  0.
         23    2    1    2    0    0 -0.50347780748E+02 -0.33265014022E+02 -0.15287569545E+02  0.12829464641E+03  0.11217997294E+03 0.  0.
          5    1    3    3  502    0  0.39069496406E+02  0.64610083333E+02  0.16981732731E+03  0.18589320986E+03  0.41800000000E+01 0.  1.
         -5    1    3    3    0  502  0.11278284342E+02 -0.31345069311E+02  0.11491094846E+00  0.33573779536E+02  0.41800000000E+01 0.  1.
        -11    1    4    4    0    0 -0.81880697609E+01  0.23256685585E+02  0.34190890084E+02  0.42153705360E+02  0.00000000000E+00 0.  1.
         11    1    4    4    0    0 -0.42159710987E+02 -0.56521699608E+02 -0.49478459629E+02  0.86140941046E+02  0.00000000000E+00 0. -1.
</event>
<event>
 8    1  0.4205029E-010  0.1255791E+03  0.7561462E-02  0.1234167E+00
          1   -1    0    0  501    0  0.00000000000E+00  0.00000000000E+00  0.37096085287E+03  0.37096085287E+03  0.00000000000E+00 0. -1.
         -1   -1    0    0    0  501 -0.00000000000E+00 -0.00000000000E+00 -0.45520248434E+02  0.45520248434E+02  0.00000000000E+00 0.  1.
         25    2    1    2    0    0 -0.34964923748E+02  0.28039748394E+02  0.22410348284E+03  0.26053064772E+03  0.12508027023E+03 0.  0.
         23    2    1    2    0    0  0.34964923748E+02 -0.28039748394E+02  0.10133712160E+03  0.15595045358E+03  0.10973859110E+03 0.  0.
          5    1    3    3  502    0  0.18646361599E+02  0.64776646639E+02  0.10682369445E+03  0.12638225685E+03  0.41800000000E+01 0.  1.
         -5    1    3    3    0  502 -0.53611285347E+02 -0.36736898245E+02  0.11727978839E+03  0.13414839087E+03  0.41800000000E+01 0.  1.
        -11    1    4    4    0    0  0.14066940101E+02  0.42583389134E+02  0.40360666132E+02  0.60334129682E+02  0.00000000000E+00 0. -1.
         11    1    4    4    0    0  0.20897983647E+02 -0.70623137528E+02  0.60976455467E+02  0.95616323900E+02  0.00000000000E+00 0.  1.
</event>
<event>
 8    1  0.4205029E-010  0.1432273E+03  0.7561462E-02  0.1209051E+00
          1   -1    0    0  501    0  0.00000000000E+00  0.00000000000E+00  0.18720544710E+03  0.18720544710E+03  0.00000000000E+00 0. -1.
         -1   -1    0    0    0  501 -0.00000000000E+00 -0.00000000000E+00 -0.13474345149E+03  0.13474345149E+03  0.00000000000E+00 0.  1.
         25    2    1    2    0    0  0.61520399282E+02  0.84237086823E+02  0.93074379248E+02  0.18759190462E+03  0.12508891351E+03 0.  0.
         23    2    1    2    0    0 -0.61520399282E+02 -0.84237086823E+02 -0.40612383632E+02  0.13435699397E+03  0.74308746465E+02 0.  0.
          5    1    3    3  502    0 -0.21827735041E+02  0.73091028044E+02  0.59977516385E+02  0.97126326345E+02  0.41800000000E+01 0. -1.
         -5    1    3    3    0  502  0.83348134323E+02  0.11146058779E+02  0.33096862863E+02  0.90465578275E+02  0.41800000000E+01 0. -1.
        -11    1    4    4    0    0  0.61729650238E+01 -0.49305932234E+02 -0.28327357129E+02  0.57198073504E+02  0.00000000000E+00 0.  1.
         11    1    4    4    0    0 -0.67693364306E+02 -0.34931154589E+02 -0.12285026503E+02  0.77158920470E+02  0.00000000000E+00 0. -1.
</event>
<event>
 8    1  0.5222400E-010  0.1138594E+03  0.7561462E-02  0.1253585E+00
         -2   -1    0    0    0  501 -0.00000000000E+00  0.00000000000E+00  0.46569474112E+02  0.46569474112E+02  0.00000000000E+00 0.  1.
          2   -1    0    0  501    0  0.00000000000E+00 -0.00000000000E+00 -0.36937932097E+03  0.36937932097E+03  0.00000000000E+00 0. -1.
         25    2    1    2    0    0 -0.22943159976E+02 -0.25647763339E+02 -0.88633221094E+02  0.15711993496E+03  0.12508648899E+03 0.  0.
         23    2    1    2    0    0  0.22943159976E+02  0.25647763339E+02 -0.23417662576E+03  0.25882886012E+03  0.10473533512E+03 0.  0.
          5    1    3    3  502    0 -0.70349179945E+02 -0.29380329013E+02 -0.76023947116E+02  0.10774657204E+03  0.41800000000E+01 0.  1.
         -5    1    3    3    0  502  0.47406019969E+02  0.37325656736E+01 -0.12609273978E+02  0.49373362920E+02  0.41800000000E+01 0.  1.
        -11    1    4    4    0    0  0.59733916085E+02  0.29531486838E+02 -0.10415678037E+03  0.12364822822E+03  0.00000000000E+00 0.  1.
         11    1    4    4    0    0 -0.36790756110E+02 -0.38837234987E+01 -0.13001984539E+03  0.13518063190E+03  0.00000000000E+00 0. -1.
</event>
<event>
 8    1  0.4205029E-010  0.7997113E+02  0.7561462E-02  0.1329133E+00
         -1   -1    0    0    0  501 -0.00000000000E+00  0.00000000000E+00  0.35557764615E+03  0.35557764615E+03  0.00000000000E+00 0.  1.
          1   -1    0    0  501    0  0.00000000000E+00 -0.00000000000E+00 -0.47785383397E+02  0.47785383397E+02  0.00000000000E+00 0. -1.
         25    2    1    2    0    0 -0.49072821154E+02 -0.16782071872E+02  0.21601204042E+03  0.25494844788E+03  0.12509088600E+03 0.  0.
         23    2    1    2    0    0  0.49072821154E+02  0.16782071872E+02  0.91780222332E+02  0.14841458166E+03  0.10446769417E+03 0.  0.
          5    1    3    3  502    0 -0.51296096131E+01  0.28659280018E+02 -0.43944933399E+00  0.29416538573E+02  0.41800000000E+01 0.  1.
         -5    1    3    3    0  502 -0.43943211541E+02 -0.45441351890E+02  0.21645148975E+03  0.22553190931E+03  0.41800000000E+01 0.  1.
        -11    1    4    4    0    0  0.26676015998E+02 -0.13192444352E+02 -0.16376512043E+02  0.33968228747E+02  0.00000000000E+00 0. -1.
         11    1    4    4    0    0  0.22396805156E+02  0.29974516223E+02  0.10815673437E+03  0.11444635291E+03  0.00000000000E+00 0.  1.
</event>
<event>
 8    1  0.4205029E-010  0.1369310E+03  0.7561462E-02  0.1217519E+00
          1   -1    0    0  501    0  0.00000000000E+00  0.00000000000E+00  0.19957236453E+03  0.19957236453E+03  0.00000000000E+00 0. -1.
         -1   -1    0    0    0  501 -0.00000000000E+00 -0.00000000000E+00 -0.11456721066E+03  0.11456721066E+03  0.00000000000E+00 0.  1.
         25    2    1    2    0    0 -0.10914509746E+03 -0.10552226026E+02  0.63519197867E+02  0.17806367263E+03  0.12509189118E+03 0.  0.
         23    2    1    2    0    0  0.10914509746E+03  0.10552226026E+02  0.21485956004E+02  0.13607590256E+03  0.77659533730E+02 0.  0.
          5    1    3    3  502    0 -0.33665601826E+02  0.51173107985E+02 -0.40474694793E+00  0.61397849696E+02  0.41800000000E+01 0.  1.
         -5    1    3    3    0  502 -0.75479495636E+02 -0.61725334012E+02  0.63923944815E+02  0.11666582293E+03  0.41800000000E+01 0.  1.
        -11    1    4    4    0    0  0.15183446557E+02  0.14268939311E+02  0.35340642217E+02  0.41025609937E+02  0.00000000000E+00 0. -1.
         11    1    4    4    0    0  0.93961650906E+02 -0.37167132848E+01 -0.13854686213E+02  0.95050292628E+02  0.00000000000E+00 0.  1.
</event>
<event>
 8    1  0.4205029E-010  0.1127511E+03  0.7561462E-02  0.1255558E+00
         -1   -1    0    0    0  501 -0.00000000000E+00  0.00000000000E+00  0.34338812861E+02  0.34338812861E+02  0.00000000000E+00 0.  1.
          1   -1    0    0  501    0  0.00000000000E+00 -0.00000000000E+00 -0.49484115428E+03  0.49484115428E+03  0.00000000000E+00 0. -1.
         25    2    1    2    0    0  0.67022063351E+02  0.47991419984E+02 -0.25863382654E+03  0.29888810985E+03  0.12509001803E+03 0.  0.
         23    2    1    2    0    0 -0.67022063351E+02 -0.47991419984E+02 -0.20186851488E+03  0.23029185729E+03  0.74083121339E+02 0.  0.
          5    1    3    3  502    0 -0.25806990967E+02  0.31980203611E+02 -0.14733949633E+03  0.15302004374E+03  0.41800000000E+01 0. -1.
         -5    1    3    3    0  502  0.92829054319E+02  0.16011216373E+02 -0.11129433021E+03  0.14586806612E+03  0.41800000000E+01 0. -1.
        -11    1    4    4    0    0 -0.26508442542E+02 -0.40952155765E+02 -0.17377071661E+03  0.18048833353E+03  0.00000000000E+00 0. -1.
         11    1    4    4    0    0 -0.40513620809E+02 -0.70392642196E+01 -0.28097798267E+02  0.49803523764E+02  0.00000000000E+00 0.  1.
</event>
<event>
 7    1  0.4205029E-010  0.7451729E+02  0.7561462E-02  0.1345372E+00
          2   -1    0    0  501    0  0.00000000000E+00  0.00000000000E+00  0.28309045459E+03  0.28309045459E+03  0.00000000000E+00 0.  1.
         -2   -1    0    0    0  501 -0.00000000000E+00 -0.00000000000E+00 -0.27148909378E+02  0.27148909378E+02  0.00000000000E+00 0. -1.
         25    2    1    2    0    0  0.20883330904E+02  0.29679385175E+02  0.15509577785E+03  0.20253078535E+03  0.12508812611E+03 0.  0.
          5    1    3    3  502    0  0.63309708148E+02  0.25982786196E+02  0.14215510822E+03  0.15782512955E+03  0.41800000000E+01 0. -1.
         -5    1    3    3    0  502 -0.42426377245E+02  0.36965989792E+01  0.12940669630E+02  0.44705655801E+02  0.41800000000E+01 0. -1.
        -11    1    1    2    0    0 -0.12561435193E+02 -0.91839015260E+01  0.46447455268E+02  0.48984689468E+02  0.00000000000E+00 0. -1.
         11    1    1    2    0    0 -0.83218957102E+01 -0.20495483649E+02  0.54398312092E+02  0.58723889148E+02  0.00000000000E+00 0.  1.
</event>
<event>
 8    1  0.4205029E-010  0.9838991E+02  0.7561462E-02  0.1283719E+00
         -2   -1    0    0    0  501 -0.00000000000E+00  0.00000000000E+00  0.57155172928E+02  0.57155172928E+02  0.00000000000E+00 0.  1.
          2   -1    0    0  501    0  0.00000000000E+00 -0.00000000000E+00 -0.24332478595E+03  0.24332478595E+03  0.00000000000E+00 0. -1.
         25    2    1    2    0    0  0.21418344273E+02 -0.10793758483E+02 -0.10248671405E+03  0.16349534707E+03  0.12510775861E+03 0.  0.
         23    2    1    2    0    0 -0.21418344273E+02  0.10793758483E+02 -0.83682898972E+02  0.13698461180E+03  0.10576722364E+03 0.  0.
          5    1    3    3  502    0  0.15961287168E+02  0.56631156051E+02 -0.55799363619E+02  0.81196624955E+02  0.41800000000E+01 0. -1.
         -5    1    3    3    0  502  0.54570571046E+01 -0.67424914534E+02 -0.46687350430E+02  0.82298722119E+02  0.41800000000E+01 0. -1.
        -11    1    4    4    0    0 -0.32768438268E+02  0.32104692493E+02 -0.98497843766E+02  0.10865683160E+03  0.00000000000E+00 0. -1.
         11    1    4    4    0    0  0.11350093995E+02 -0.21310934010E+02  0.14814944794E+02  0.28327780205E+02  0.00000000000E+00 0.  1.
</event>
<event>
 8    1  0.4205029E-010  0.1023972E+03  0.7561462E-02  0.1275334E+00
          2   -1    0    0  501    0  0.00000000000E+00  0.00000000000E+00  0.66646063113E+02  0.66646063113E+02  0.00000000000E+00 0. -1.
         -2   -1    0    0    0  501 -0.00000000000E+00 -0.00000000000E+00 -0.43427097585E+03  0.43427097585E+03  0.00000000000E+00 0.  1.
         25    2    1    2    0    0  0.44542090111E+02 -0.17995681213E+02 -0.28879159118E+02  0.13707008560E+03  0.12508541163E+03 0.  0.
         23    2    1    2    0    0 -0.44542090111E+02  0.17995681213E+02 -0.33874575362E+03  0.36384695336E+03  0.12380661348E+03 0.  0.
          5    1    3    3  502    0 -0.99879123322E+01 -0.35870331374E+02  0.34877865018E+02  0.51189617442E+02  0.41800000000E+01 0.  1.
         -5    1    3    3    0  502  0.54530002443E+02  0.17874650161E+02 -0.63757024135E+02  0.85880468161E+02  0.41800000000E+01 0.  1.
        -11    1    4    4    0    0 -0.49963499549E+02 -0.32109049234E+02 -0.76738660669E+02  0.97036922721E+02  0.00000000000E+00 0. -1.
         11    1    4    4    0    0  0.54214094382E+01  0.50104730447E+02 -0.26200709295E+03  0.26681003064E+03  0.00000000000E+00 0.  1.
</event>
<event>
 8    1  0.4205029E-010  0.1646351E+03  0.7561462E-02  0.1183561E+00
          2   -1    0    0  501    0  0.00000000000E+00  0.00000000000E+00  0.30799834999E+03  0.30799834999E+03  0.00000000000E+00 0. -1.
         -2   -1    0    0    0  501 -0.00000000000E+00 -0.00000000000E+00 -0.94752841513E+02  0.94752841513E+02  0.00000000000E+00 0.  1.
         25    2    1    2    0    0 -0.18719614404E+02  0.13015830771E+03  0.16542413624E+03  0.24556998089E+03  0.12509141312E+03 0.  0.
         23    2    1    2    0    0  0.18719614404E+02 -0.13015830771E+03  0.47821372237E+02  0.15718121061E+03  0.71606147057E+02 0.  0.
          5    1    3    3  502    0  0.51361106083E+02  0.76096645989E+02  0.71457646165E+02  0.11641447652E+03  0.41800000000E+01 0.  1.
         -5    1    3    3    0  502 -0.70080720487E+02  0.54061661722E+02  0.93966490076E+02  0.12915550437E+03  0.41800000000E+01 0.  1.
        -11    1    4    4    0    0 -0.25956064992E+02 -0.34418698426E+02  0.58696469124E+01  0.43506515214E+02  0.00000000000E+00 0. -1.
         11    1    4    4    0    0  0.44675679396E+02 -0.95739609285E+02  0.41951725325E+02  0.11367469540E+03  0.00000000000E+00 0.  1.
</event>
<event>
 8    1  0.4205029E-010  0.2485113E+03  0.7561462E-02  0.1114249E+00
          2   -1    0    0  501    0  0.00000000000E+00  0.00000000000E+00  0.12598605332E+04  0.12598605332E+04  0.00000000000E+00 0. -1.
         -2   -1    0    0    0  501 -0.00000000000E+00 -0.00000000000E+00 -0.60349815502E+02  0.60349815502E+02  0.00000000000E+00 0.  1.
         25    2    1    2    0    0  0.17877354939E+03 -0.14539647495E+03  0.80205629239E+03  0.84382751680E+03  0.12510181877E+03 0.  0.
         23    2    1    2    0    0 -0.17877354939E+03  0.14539647495E+03  0.39745442535E+03  0.47638283194E+03  0.12597803558E+03 0.  0.
          5    1    3    3  502    0  0.11847461779E+03 -0.13520482960E+03  0.41983799930E+03  0.45672529935E+03  0.41800000000E+01 0.  1.
         -5    1    3    3    0  502  0.60298931600E+02 -0.10191645355E+02  0.38221829308E+03  0.38710221745E+03  0.41800000000E+01 0.  1.
        -11    1    4    4    0    0  0.28099689006E+01 -0.14006450990E+02  0.43059459749E+01  0.14920380870E+02  0.00000000000E+00 0. -1.
         11    1    4    4    0    0 -0.18158351829E+03  0.15940292594E+03  0.39314847938E+03  0.46146245107E+03  0.00000000000E+00 0.  1.
</event>
<event>
 8    1  0.4205029E-010  0.1135855E+03  0.7561462E-02  0.1254071E+00
          2   -1    0    0  501    0  0.00000000000E+00  0.00000000000E+00  0.62795174289E+02  0.62795174289E+02  0.00000000000E+00 0.  1.
         -2   -1    0    0    0  501 -0.00000000000E+00 -0.00000000000E+00 -0.35620451382E+03  0.35620451382E+03  0.00000000000E+00 0. -1.
         25    2    1    2    0    0 -0.42849757073E+02  0.93399548464E+02 -0.10396050782E+03  0.19239311166E+03  0.12509094649E+03 0.  0.
         23    2    1    2    0    0  0.42849757073E+02 -0.93399548464E+02 -0.18944883172E+03  0.22660657645E+03  0.70000737987E+02 0.  0.
          5    1    3    3  502    0 -0.62020688546E+02  0.68404240729E+02 -0.97194893769E+01  0.92938941414E+02  0.41800000000E+01 0.  1.
         -5    1    3    3    0  502  0.19170931473E+02  0.24995307735E+02 -0.94241018440E+02  0.99454170244E+02  0.41800000000E+01 0.  1.
        -11    1    4    4    0    0  0.29561495880E+02 -0.56885047870E+02 -0.48464390821E+02  0.80365340088E+02  0.00000000000E+00 0.  1.
         11    1    4    4    0    0  0.13288261193E+02 -0.36514500594E+02 -0.14098444089E+03  0.14624123636E+03  0.00000000000E+00 0. -1.
</event>
<event>
 8    1  0.4205029E-010  0.1024127E+03  0.7561462E-02  0.1275303E+00
         -2   -1    0    0    0  501 -0.00000000000E+00  0.00000000000E+00  0.18454307579E+02  0.18454307579E+02  0.00000000000E+00 0. -1.
          2   -1    0    0  501    0  0.00000000000E+00 -0.00000000000E+00 -0.79308544864E+03  0.79308544864E+03  0.00000000000E+00 0.  1.
         25    2    1    2    0    0  0.10787666164E+02 -0.49556123873E+02 -0.66802347520E+03  0.68152428325E+03  0.12509117511E+03 0.  0.
         23    2    1    2    0    0 -0.10787666164E+02  0.49556123873E+02 -0.10660766586E+03  0.13001547297E+03  0.54466922399E+02 0.  0.
          5    1    3    3  502    0  0.14970450010E+02 -0.90064826870E+02 -0.51870907642E+03  0.52669950235E+03  0.41800000000E+01 0.  1.
         -5    1    3    3    0  502 -0.41827838467E+01  0.40508702997E+02 -0.14931439878E+03  0.15482478090E+03  0.41800000000E+01 0.  1.
        -11    1    4    4    0    0 -0.21567103000E+02  0.55946765747E+02 -0.75050501711E+02  0.96061221814E+02  0.00000000000E+00 0. -1.
         11    1    4    4    0    0  0.10779436837E+02 -0.63906418739E+01 -0.31557164151E+02  0.33954251152E+02  0.00000000000E+00 0.  1.
</event>
<event>
 8    1  0.4205029E-010  0.1185548E+03  0.7561462E-02  0.1245500E+00
          1   -1    0    0  501    0  0.00000000000E+00  0.00000000000E+00  0.29235233552E+03  0.29235233552E+03  0.00000000000E+00 0. -1.
         -1   -1    0    0    0  501 -0.00000000000E+00 -0.00000000000E+00 -0.73899798939E+02  0.73899798939E+02  0.00000000000E+00 0.  1.
         25    2    1    2    0    0 -0.10896611682E+03  0.24479106142E+02  0.11410233937E+03  0.20283320112E+03  0.12509645229E+03 0.  0.
         23    2    1    2    0    0  0.10896611682E+03 -0.24479106142E+02  0.10435019721E+03  0.16341893334E+03  0.57826835133E+02 0.  0.
          5    1    3    3  502    0 -0.28185383174E+02  0.19325721235E+02  0.11676657834E+03  0.12173662367E+03  0.41800000000E+01 0. -1.
         -5    1    3    3    0  502 -0.80780733649E+02  0.51533849071E+01 -0.26642389695E+01  0.81096577451E+02  0.41800000000E+01 0. -1.
        -11    1    4    4    0    0  0.90642053497E+02 -0.38575067897E+02  0.99059845423E+02  0.13970279418E+03  0.00000000000E+00 0. -1.
         11    1    4    4    0    0  0.18324063326E+02  0.14095961755E+02  0.52903517878E+01  0.23716139159E+02  0.00000000000E+00 0.  1.
</event>
<event>
 8    1  0.4205029E-010  0.7559742E+02  0.7561462E-02  0.1342031E+00
          2   -1    0    0  501    0  0.00000000000E+00  0.00000000000E+00  0.47466411152E+02  0.47466411152E+02  0.00000000000E+00 0. -1.
         -2   -1    0    0    0  501 -0.00000000000E+00 -0.00000000000E+00 -0.30292802744E+03  0.30292802744E+03  0.00000000000E+00 0.  1.
         25    2    1    2    0    0  0.27747449954E+02 -0.52918163566E+01 -0.11098721189E+03  0.16960150893E+03  0.12509430974E+03 0.  0.
         23    2    1    2    0    0 -0.27747449954E+02  0.52918163566E+01 -0.14447440439E+03  0.18079292965E+03  0.10495382599E+03 0.  0.
          5    1    3    3  502    0  0.25295989036E+02 -0.24521112558E+02  0.17523940420E+02  0.39569343060E+02  0.41800000000E+01 0.  1.
         -5    1    3    3    0  502  0.24514609188E+01  0.19229296201E+02 -0.12851115231E+03  0.13003216587E+03  0.41800000000E+01 0.  1.
        -11    1    4    4    0    0  0.33949832659E+02  0.39098122214E+01 -0.97263895919E+02  0.10309288636E+03  0.00000000000E+00 0.  1.
         11    1    4    4    0    0 -0.61697282613E+02  0.13820041352E+01 -0.47210508471E+02  0.77700043291E+02  0.00000000000E+00 0. -1.
</event>
<event>
 8    1  0.4205029E-010  0.2409126E+03  0.7561462E-02  0.1119186E+00
         -2   -1    0    0    0  501 -0.00000000000E+00  0.00000000000E+00  0.35597863673E+03  0.35597863673E+03  0.00000000000E+00 0.  1.
          2   -1    0    0  501    0  0.00000000000E+00 -0.00000000000E+00 -0.24717256273E+03  0.24717256273E+03  0.00000000000E+00 0. -1.
         25    2    1    2    0    0  0.20216100267E+03  0.12141521876E+03  0.19459319976E+03  0.33034044365E+03  0.12509024332E+03 0.  0.
         23    2    1    2    0    0 -0.20216100267E+03 -0.12141521876E+03 -0.85787125755E+02  0.27281075581E+03  0.10703060869E+03 0.  0.
          5    1    3    3  502    0  0.80803726360E+02  0.80189881717E+02  0.16197116801E+03  0.19801967324E+03  0.41800000000E+01 0. -1.
         -5    1    3    3    0  502  0.12135727631E+03  0.41225337041E+02  0.32622031747E+02  0.13232077041E+03  0.41800000000E+01 0. -1.
        -11    1    4    4    0    0 -0.19919030117E+03 -0.10932060684E+03 -0.10468881357E+03  0.25017497646E+03  0.00000000000E+00 0. -1.
         11    1    4    4    0    0 -0.29707015001E+01 -0.12094611914E+02  0.18901687814E+02  0.22635779354E+02  0.00000000000E+00 0.  1.
</event>
<event>
 8    1  0.4205029E-010  0.1128544E+03  0.7561462E-02  0.1255373E+00
         -3   -1    0    0    0  501 -0.00000000000E+00  0.00000000000E+00  0.11497648634E+03  0.11497648634E+03  0.00000000000E+00 0.  1.
          3   -1    0    0  501    0  0.00000000000E+00 -0.00000000000E+00 -0.15907638977E+03  0.15907638977E+03  0.00000000000E+00 0. -1.
         25    2    1    2    0    0 -0.57059239311E+02 -0.29570783694E+02 -0.86627083850E+02  0.16517513649E+03  0.12509350911E+03 0.  0.
         23    2    1    2    0    0  0.57059239311E+02  0.29570783694E+02  0.42527180426E+02  0.10887773962E+03  0.76913022758E+02 0.  0.
          5    1    3    3  502    0  0.27315680323E+02  0.23268285200E+02 -0.43649270933E+02  0.56659427642E+02  0.41800000000E+01 0. -1.
         -5    1    3    3    0  502 -0.84374919633E+02 -0.52839068895E+02 -0.42977812917E+02  0.10851570885E+03  0.41800000000E+01 0. -1.
        -11    1    4    4    0    0  0.30112513052E+02 -0.18134682378E+02  0.41082858765E+02  0.54068765767E+02  0.00000000000E+00 0.  1.
         11    1    4    4    0    0  0.26946726258E+02  0.47705466073E+02  0.14443216605E+01  0.54808973848E+02  0.00000000000E+00 0. -1.
</event>
<event>
 8    1  0.4205029E-010  0.1107471E+03  0.7561462E-02  0.1259193E+00
         -2   -1    0    0    0  501 -0.00000000000E+00  0.00000000000E+00  0.61271430707E+03  0.61271430707E+03  0.00000000000E+00 0.  1.
          2   -1    0    0  501    0  0.00000000000E+00 -0.00000000000E+00 -0.21324739339E+02  0.21324739339E+02  0.00000000000E+00 0. -1.
         25    2    1    2    0    0 -0.14410155462E+02 -0.49891390154E+02  0.34943281073E+03  0.37476147998E+03  0.12508426868E+03 0.  0.
         23    2    1    2    0    0  0.14410155462E+02  0.49891390154E+02  0.24195675701E+03  0.25927756643E+03  0.77362657672E+02 0.  0.
          5    1    3    3  502    0 -0.23686070686E+02  0.37862733158E+02  0.15167005092E+03  0.15816413390E+03  0.41800000000E+01 0. -1.
         -5    1    3    3    0  502  0.92759152247E+01 -0.87754123312E+02  0.19776275981E+03  0.21659734608E+03  0.41800000000E+01 0. -1.
        -11    1    4    4    0    0  0.36687330369E+02  0.35259900878E+01  0.14393046262E+03  0.14857446243E+03  0.00000000000E+00 0. -1.
         11    1    4    4    0    0 -0.22277174907E+02  0.46365400066E+02  0.98026294388E+02  0.11070310401E+03  0.00000000000E+00 0.  1.
</event>
<event>
 8    1  0.5145688E-010  0.1262345E+03  0.7561462E-02  0.1233152E+00
         -2   -1    0    0    0  501 -0.00000000000E+00  0.00000000000E+00  0.17276363276E+02  0.17276363276E+02  0.00000000000E+00 0.  1.
          2   -1    0    0  501    0  0.00000000000E+00 -0.00000000000E+00 -0.10154585467E+04  0.10154585467E+04  0.00000000000E+00 0. -1.
         25    2    1    2    0    0 -0.45494784737E+02  0.30253146443E+02 -0.39032741519E+03  0.41350810598E+03  0.12509370231E+03 0.  0.
         23    2    1    2    0    0  0.45494784737E+02 -0.30253146443E+02 -0.60785476823E+03  0.61922680398E+03  0.10473484238E+03 0.  0.
          5    1    3    3  502    0 -0.76421550278E+02 -0.16671841319E+02 -0.19296392877E+03  0.20825646171E+03  0.41800000000E+01 0. -1.
         -5    1    3    3    0  502  0.30926765541E+02  0.46924987763E+02 -0.19736348642E+03  0.20525164427E+03  0.41800000000E+01 0. -1.
        -11    1    4    4    0    0  0.59736841423E+02 -0.60084464711E+02 -0.45775157664E+03  0.46552673290E+03  0.00000000000E+00 0.  1.
         11    1    4    4    0    0 -0.14242056686E+02  0.29831318268E+02 -0.15010319159E+03  0.15370007109E+03  0.00000000000E+00 0. -1.
</event>
<event>
 8    1  0.4205029E-010  0.1233379E+03  0.7561462E-02  0.1237690E+00
         -2   -1    0    0    0  501 -0.00000000000E+00  0.00000000000E+00  0.31630349546E+02  0.31630349546E+02  0.00000000000E+00 0.  1.
          2   -1    0    0  501    0  0.00000000000E+00 -0.00000000000E+00 -0.57182947666E+03  0.57182947666E+03  0.00000000000E+00 0. -1.
         25    2    1    2    0    0  0.66881302963E+02 -0.47566472500E+02 -0.22041644081E+03  0.26639662325E+03  0.12509226797E+03 0.  0.
         23    2    1    2    0    0 -0.66881302963E+02  0.47566472500E+02 -0.31978268631E+03  0.33706320296E+03  0.67933484648E+02 0.  0.
          5    1    3    3  502    0 -0.49717313970E+01 -0.72421263827E+02 -0.94332287617E+02  0.11910336038E+03  0.41800000000E+01 0.  1.
         -5    1    3    3    0  502  0.71853034360E+02  0.24854791328E+02 -0.12608415319E+03  0.14729326286E+03  0.41800000000E+01 0.  1.
        -11    1    4    4    0    0 -0.24662365936E+01  0.31279422683E+02 -0.17463179929E+03  0.17742815427E+03  0.00000000000E+00 0.  1.
         11    1    4    4    0    0 -0.64415066370E+02  0.16287049817E+02 -0.14515088702E+03  0.15963504869E+03  0.00000000000E+00 0. -1.
</event>
<event>
 8    1  0.4205029E-010  0.1223775E+03  0.7561462E-02  0.1239226E+00
          2   -1    0    0  501    0  0.00000000000E+00  0.00000000000E+00  0.51080524160E+02  0.51080524160E+02  0.00000000000E+00 0. -1.
         -2   -1    0    0    0  501 -0.00000000000E+00 -0.00000000000E+00 -0.31201047152E+03  0.31201047152E+03  0.00000000000E+00 0.  1.
         25    2    1    2    0    0 -0.54061030030E+01  0.73619218353E+02 -0.15678382166E+03  0.21372356017E+03  0.12509028011E+03 0.  0.
         23    2    1    2    0    0  0.54061030030E+01 -0.73619218353E+02 -0.10414612570E+03  0.14936743551E+03  0.77557720646E+02 0.  0.
          5    1    3    3  502    0 -0.60914116412E+02  0.64319992570E+02 -0.10010199081E+03  0.13373657685E+03  0.41800000000E+01 0.  1.
         -5    1    3    3    0  502  0.55508013409E+02  0.92992257821E+01 -0.56681830847E+02  0.79986983322E+02  0.41800000000E+01 0.  1.
        -11    1    4    4    0    0 -0.22371090780E+02 -0.67607991622E+02 -0.46369057968E+02  0.84978796007E+02  0.00000000000E+00 0. -1.
         11    1    4    4    0    0  0.27777193783E+02 -0.60112267304E+01 -0.57777067734E+02  0.64388639504E+02  0.00000000000E+00 0.  1.
</event>
<event>
 8    1  0.4205029E-010  0.9867025E+02  0.7561462E-02  0.1283117E+00
          4   -1    0    0  501    0  0.00000000000E+00  0.00000000000E+00  0.85838879882E+02  0.85838879882E+02  0.00000000000E+00 0.  1.
         -4   -1    0    0    0  501 -0.00000000000E+00 -0.00000000000E+00 -0.24597394535E+03  0.24597394535E+03  0.00000000000E+00 0. -1.
         25    2    1    2    0    0 -0.69830950836E+02 -0.64766906787E+02 -0.14151105883E+03  0.21152629419E+03  0.12508748719E+03 0.  0.
         23    2    1    2    0    0  0.69830950836E+02  0.64766906787E+02 -0.18624006634E+02  0.12028653104E+03  0.71069557598E+02 0.  0.
          5    1    3    3  502    0 -0.14018758774E+02 -0.23704702142E+01  0.22729207822E+02  0.27133632540E+02  0.41800000000E+01 0. -1.
         -5    1    3    3    0  502 -0.55812192062E+02 -0.62396436573E+02 -0.16424026665E+03  0.18439266165E+03  0.41800000000E+01 0. -1.
        -11    1    4    4    0    0  0.47046527430E+02  0.26049113938E+02  0.23513875664E+02  0.58692711889E+02  0.00000000000E+00 0.  1.
         11    1    4    4    0    0  0.22784423407E+02  0.38717792850E+02 -0.42137882298E+02  0.61593819152E+02  0.00000000000E+00 0. -1.
</event>
<event>
 8    1  0.4205029E-010  0.1477253E+03  0.7561462E-02  0.1203296E+00
          4   -1    0    0  501    0  0.00000000000E+00  0.00000000000E+00  0.31810554872E+03  0.31810554872E+03  0.00000000000E+00 0.  1.
         -4   -1    0    0    0  501 -0.00000000000E+00 -0.00000000000E+00 -0.82366297743E+02  0.82366297743E+02  0.00000000000E+00 0. -1.
         25    2    1    2    0    0  0.91311556318E+02 -0.57767886856E+02  0.14206871178E+03  0.21795730260E+03  0.12508772051E+03 0.  0.
         23    2    1    2    0    0 -0.91311556318E+02  0.57767886856E+02  0.93670539203E+02  0.18251454387E+03  0.11341278473E+03 0.  0.
          5    1    3    3  502    0 -0.23418747951E+02 -0.37494452883E+02  0.18591330031E+02  0.48139190946E+02  0.41800000000E+01 0.  1.
         -5    1    3    3    0  502  0.11473030427E+03 -0.20273433972E+02  0.12347738175E+03  0.16981811165E+03  0.41800000000E+01 0.  1.
        -11    1    4    4    0    0 -0.23843892926E+02 -0.20276447533E+02 -0.13204883367E+02  0.33971083279E+02  0.00000000000E+00 0. -1.
         11    1    4    4    0    0 -0.67467663392E+02  0.78044334389E+02  0.10687542257E+03  0.14854346059E+03  0.00000000000E+00 0.  1.
</event>
<event>
 7    1  0.4205029E-010  0.1249454E+03  0.7561462E-02  0.1235155E+00
         -2   -1    0    0    0  501 -0.00000000000E+00  0.00000000000E+00  0.19714414627E+03  0.19714414627E+03  0.00000000000E+00 0. -1.
          2   -1    0    0  501    0  0.00000000000E+00 -0.00000000000E+00 -0.13573362526E+03  0.13573362526E+03  0.00000000000E+00 0.  1.
         25    2    1    2    0    0  0.73369087745E+02 -0.28151588440E+01  0.71689479299E+02  0.16179660655E+03  0.12509121589E+03 0.  0.
          5    1    3    3  502    0  0.43337613070E+02  0.29727024478E+02  0.97160012403E+02  0.11054132757E+03  0.41800000000E+01 0. -1.
         -5    1    3    3    0  502  0.30031474675E+02 -0.32542183322E+02 -0.25470533104E+02  0.51255278978E+02  0.41800000000E+01 0. -1.
        -11    1    1    2    0    0  0.70446197236E+00 -0.57294379908E+02 -0.41454370744E+02  0.70722041044E+02  0.00000000000E+00 0. -1.
         11    1    1    2    0    0 -0.74073549717E+02  0.60109538752E+02  0.31175412457E+02  0.10035912394E+03  0.00000000000E+00 0.  1.
</event>
<event>
 8    1  0.4205029E-010  0.1453598E+03  0.7561462E-02  0.1206294E+00
          1   -1    0    0  501    0  0.00000000000E+00  0.00000000000E+00  0.12496669374E+03  0.12496669374E+03  0.00000000000E+00 0. -1.
         -1   -1    0    0    0  501 -0.00000000000E+00 -0.00000000000E+00 -0.20877077376E+03  0.20877077376E+03  0.00000000000E+00 0.  1.
         25    2    1    2    0    0  0.81063784427E+02  0.93759841251E+02 -0.57801928874E+02  0.18533818796E+03  0.12508771306E+03 0.  0.
         23    2    1    2    0    0 -0.81063784427E+02 -0.93759841251E+02 -0.26002151142E+02  0.14839927954E+03  0.77356249432E+02 0.  0.
          5    1    3    3  502    0 -0.26780249040E+02  0.12506679527E+02  0.13297196394E+02  0.32678534291E+02  0.41800000000E+01 0.  1.
         -5    1    3    3    0  502  0.10784403347E+03  0.81253161724E+02 -0.71099125267E+02  0.15265965367E+03  0.41800000000E+01 0.  1.
        -11    1    4    4    0    0 -0.26129287767E+02 -0.46373625354E+02  0.25901625014E+02  0.59195835884E+02  0.00000000000E+00 0. -1.
         11    1    4    4    0    0 -0.54934496661E+02 -0.47386215897E+02 -0.51903776156E+02  0.89203443653E+02  0.00000000000E+00 0.  1.
</event>
<event>
 8    1  0.4205029E-010  0.1316599E+03  0.7561462E-02  0.1225013E+00
         -2   -1    0    0    0  501 -0.00000000000E+00  0.00000000000E+00  0.45250765380E+02  0.45250765380E+02  0.00000000000E+00 0. -1.
          2   -1    0    0  501    0  0.00000000000E+00 -0.00000000000E+00 -0.65703082515E+03  0.65703082515E+03  0.00000000000E+00 0.  1.
         25    2    1    2    0    0  0.34764578297E+02  0.12324831117E+03 -0.32716775957E+03  0.37294281936E+03  0.12509548952E+03 0.  0.
         23    2    1    2    0    0 -0.34764578297E+02 -0.12324831117E+03 -0.28461230021E+03  0.32933877118E+03  0.10517196708E+03 0.  0.
          5    1    3    3  502    0  0.40190941665E+02  0.11676012709E+03 -0.33722865402E+03  0.35915021448E+03  0.41800000000E+01 0.  1.
         -5    1    3    3    0  502 -0.54263633679E+01  0.64881840850E+01  0.10060894452E+02  0.13792604877E+02  0.41800000000E+01 0.  1.
        -11    1    4    4    0    0 -0.20804686177E+02 -0.33012741421E+02 -0.20349380023E+03  0.20720135809E+03  0.00000000000E+00 0.  1.
         11    1    4    4    0    0 -0.13959892120E+02 -0.90235569753E+02 -0.81118499981E+02  0.12213741309E+03  0.00000000000E+00 0. -1.
</event>
<event>
 7    1  0.4205029E-010  0.1584281E+03  0.7561462E-02  0.1190483E+00
         -1   -1    0    0    0  501 -0.00000000000E+00  0.00000000000E+00  0.16788150476E+03  0.16788150476E+03  0.00000000000E+00 0.  1.
          1   -1    0    0  501    0  0.00000000000E+00 -0.00000000000E+00 -0.19379684438E+03  0.19379684438E+03  0.00000000000E+00 0. -1.
         25    2    1    2    0    0  0.58925723011E+02 -0.92201301207E+02 -0.68239251206E+02  0.17966254411E+03  0.12509481834E+03 0.  0.
          5    1    3    3  502    0  0.74794412615E+02 -0.11433107463E+03 -0.66639060752E+02  0.15206589231E+03  0.41800000000E+01 0. -1.
         -5    1    3    3    0  502 -0.15868689604E+02  0.22129773425E+02 -0.16001904542E+01  0.27596651809E+02  0.41800000000E+01 0. -1.
        -11    1    1    2    0    0 -0.82262379423E+02  0.32377453518E+02  0.69335698917E+02  0.11235140279E+03  0.00000000000E+00 0.  1.
         11    1    1    2    0    0  0.23336656412E+02  0.59823847689E+02 -0.27011787327E+02  0.69664402240E+02  0.00000000000E+00 0. -1.
</event>
<event>
 8    1  0.4205029E-010  0.9905365E+02  0.7561462E-02  0.1282299E+00
         -2   -1    0    0    0  501 -0.00000000000E+00  0.00000000000E+00  0.23447532223E+02  0.23447532223E+02  0.00000000000E+00 0.  1.
          2   -1    0    0  501    0  0.00000000000E+00 -0.00000000000E+00 -0.53017924489E+03  0.53017924489E+03  0.00000000000E+00 0. -1.
         25    2    1    2    0    0  0.24661496387E+02 -0.23512815128E+01 -0.40835317735E+03  0.42780020910E+03  0.12508790322E+03 0.  0.
         23    2    1    2    0    0 -0.24661496387E+02  0.23512815128E+01 -0.98378535321E+02  0.12582656801E+03  0.74432997226E+02 0.  0.
          5    1    3    3  502    0  0.31695519092E+02 -0.59063795736E+02 -0.26600111833E+03  0.27434869282E+03  0.41800000000E+01 0. -1.
         -5    1    3    3    0  502 -0.70340227058E+01  0.56712514223E+02 -0.14235205902E+03  0.15345151629E+03  0.41800000000E+01 0. -1.
        -11    1    4    4    0    0  0.11627374527E+02  0.27256792911E+02 -0.19420453340E+02  0.35429967628E+02  0.00000000000E+00 0.  1.
         11    1    4    4    0    0 -0.36288870914E+02 -0.24905511398E+02 -0.78958081981E+02  0.90396600380E+02  0.00000000000E+00 0. -1.
</event>
<event>
 8    1  0.4205029E-010  0.2884126E+03  0.7561462E-02  0.1091181E+00
         -1   -1    0    0    0  501 -0.00000000000E+00  0.00000000000E+00  0.60035006220E+03  0.60035006220E+03  0.00000000000E+00 0.  1.
          1   -1    0    0  501    0  0.00000000000E+00 -0.00000000000E+00 -0.15481364728E+03  0.15481364728E+03  0.00000000000E+00 0. -1.
         25    2    1    2    0    0  0.25393587166E+03  0.12017107389E+03  0.31346237275E+03  0.43912557603E+03  0.12509235979E+03 0.  0.
         23    2    1    2    0    0 -0.25393587166E+03 -0.12017107389E+03  0.13207404217E+03  0.31603813346E+03  0.59262427137E+02 0.  0.
          5    1    3    3  502    0  0.12174154941E+03  0.19214117261E+02  0.20897948306E+03  0.24265218709E+03  0.41800000000E+01 0.  1.
         -5    1    3    3    0  502  0.13219432225E+03  0.10095695663E+03  0.10448288969E+03  0.19647338894E+03  0.41800000000E+01 0.  1.
        -11    1    4    4    0    0 -0.10002176495E+03 -0.16070818976E+02  0.46775614003E+02  0.11158217936E+03  0.00000000000E+00 0.  1.
         11    1    4    4    0    0 -0.15391410671E+03 -0.10410025491E+03  0.85298428168E+02  0.20445595409E+03  0.00000000000E+00 0. -1.
</event>
<event>
 8    1  0.4205029E-010  0.1205695E+03  0.7561462E-02  0.1242160E+00
          1   -1    0    0  501    0  0.00000000000E+00  0.00000000000E+00  0.18103671230E+03  0.18103671230E+03  0.00000000000E+00 0. -1.
         -1   -1    0    0    0  501 -0.00000000000E+00 -0.00000000000E+00 -0.98557196617E+02  0.98557196617E+02  0.00000000000E+00 0.  1.
         25    2    1    2    0    0 -0.81434562349E+02 -0.47344772605E+02  0.47287942665E+02  0.16357317020E+03  0.12508763747E+03 0.  0.
         23    2    1    2    0    0  0.81434562349E+02  0.47344772605E+02  0.35191573016E+02  0.11602073872E+03  0.57872701368E+02 0.  0.
          5    1    3    3  502    0  0.17793086858E+02  0.73706757112E+01  0.46144778467E+02  0.50177024425E+02  0.41800000000E+01 0.  1.
         -5    1    3    3    0  502 -0.99227649207E+02 -0.54715448316E+02  0.11431641982E+01  0.11339614577E+03  0.41800000000E+01 0.  1.
        -11    1    4    4    0    0  0.61452017311E+02  0.55342869387E+01  0.78039101753E+01  0.62192280691E+02  0.00000000000E+00 0.  1.
         11    1    4    4    0    0  0.19982545038E+02  0.41810485666E+02  0.27387662841E+02  0.53828458028E+02  0.00000000000E+00 0. -1.
</event>
<event>
 8    1  0.4205029E-010  0.1868821E+03  0.7561462E-02  0.1161304E+00
          1   -1    0    0  501    0  0.00000000000E+00  0.00000000000E+00  0.28279324544E+03  0.28279324544E+03  0.00000000000E+00 0. -1.
         -1   -1    0    0    0  501 -0.00000000000E+00 -0.00000000000E+00 -0.13811168787E+03  0.13811168787E+03  0.00000000000E+00 0.  1.
         25    2    1    2    0    0 -0.14281428185E+03 -0.33868428010E+02  0.13607636581E+03  0.23602490340E+03  0.12509191892E+03 0.  0.
         23    2    1    2    0    0  0.14281428185E+03  0.33868428010E+02  0.86051917591E+01  0.18488002991E+03  0.11208740615E+03 0.  0.
          5    1    3    3  502    0 -0.16144202819E+03 -0.14881215606E+02  0.98335209939E+02  0.18966355727E+03  0.41800000000E+01 0. -1.
         -5    1    3    3    0  502  0.18627746342E+02 -0.18987212404E+02  0.37741155872E+02  0.46361346132E+02  0.41800000000E+01 0. -1.
        -11    1    4    4    0    0  0.63576309285E+01 -0.32360339303E+02  0.46393358345E+00  0.32982211344E+02  0.00000000000E+00 0.  1.
         11    1    4    4    0    0  0.13645665092E+03  0.66228767312E+02  0.81412581757E+01  0.15189781856E+03  0.00000000000E+00 0. -1.
</event>
<event>
 8    1  0.4205029E-010  0.6562845E+02  0.7561462E-02  0.1375623E+00
          2   -1    0    0  501    0  0.00000000000E+00  0.00000000000E+00  0.42657561184E+03  0.42657561184E+03  0.00000000000E+00 0. -1.
         -2   -1    0    0    0  501 -0.00000000000E+00 -0.00000000000E+00 -0.29374461910E+02  0.29374461910E+02  0.00000000000E+00 0.  1.
         25    2    1    2    0    0  0.43201738182E+02  0.16671545474E+02  0.23648056143E+03  0.27150487626E+03  0.12509001274E+03 0.  0.
         23    2    1    2    0    0 -0.43201738182E+02 -0.16671545474E+02  0.16072058850E+03  0.18444519749E+03  0.77746978710E+02 0.  0.
          5    1    3    3  502    0  0.62345526223E+01  0.65892031009E+01  0.23254535544E+03  0.23275975163E+03  0.41800000000E+01 0. -1.
         -5    1    3    3    0  502  0.36967185560E+02  0.10082342373E+02  0.39352059865E+01  0.38745124623E+02  0.41800000000E+01 0. -1.
        -11    1    4    4    0    0  0.22073199919E+01  0.22588673922E+02  0.15999841152E+02  0.27768964115E+02  0.00000000000E+00 0.  1.
         11    1    4    4    0    0 -0.45409058174E+02 -0.39260219396E+02  0.14472074735E+03  0.15667623338E+03  0.00000000000E+00 0. -1.
</event>
<event>
 8    1  0.4205029E-010  0.1140038E+03  0.7561462E-02  0.1253330E+00
          4   -1    0    0  501    0  0.00000000000E+00  0.00000000000E+00  0.35465903643E+02  0.35465903643E+02  0.00000000000E+00 0. -1.
         -4   -1    0    0    0  501 -0.00000000000E+00 -0.00000000000E+00 -0.45695495141E+03  0.45695495141E+03  0.00000000000E+00 0.  1.
         25    2    1    2    0    0 -0.37528619254E+02  0.77475471463E+02 -0.26577741244E+03  0.30609988480E+03  0.12509460649E+03 0.  0.
         23    2    1    2    0    0  0.37528619254E+02 -0.77475471463E+02 -0.15571163533E+03  0.18632097025E+03  0.55304110488E+02 0.  0.
          5    1    3    3  502    0  0.39107607336E+02  0.23461566564E+02 -0.37186582790E+02  0.58992918192E+02  0.41800000000E+01 0.  1.
         -5    1    3    3    0  502 -0.76636226590E+02  0.54013904899E+02 -0.22859082965E+03  0.24710696661E+03  0.41800000000E+01 0.  1.
        -11    1    4    4    0    0  0.31534974495E+02 -0.42760819141E+02 -0.13587065067E+03  0.14588960204E+03  0.00000000000E+00 0.  1.
         11    1    4    4    0    0  0.59936447589E+01 -0.34714652322E+02 -0.19840984665E+02  0.40431368216E+02  0.00000000000E+00 0. -1.
</event>
<event>
 8    1  0.4205029E-010  0.1025933E+03  0.7561462E-02  0.1274935E+00
         -2   -1    0    0    0  501 -0.00000000000E+00  0.00000000000E+00  0.73788598294E+02  0.73788598294E+02  0.00000000000E+00 0.  1.
          2   -1    0    0  501    0  0.00000000000E+00 -0.00000000000E+00 -0.14730532648E+03  0.14730532648E+03  0.00000000000E+00 0. -1.
         25    2    1    2    0    0  0.37218777553E+02  0.14622993992E+02 -0.54665144341E+02  0.14224975384E+03  0.12509054763E+03 0.  0.
         23    2    1    2    0    0 -0.37218777553E+02 -0.14622993992E+02 -0.18851583845E+02  0.78844170934E+02  0.65283625213E+02 0.  0.
          5    1    3    3  502    0  0.69374951952E+02 -0.28724895570E+02 -0.19477572086E+02  0.77684308572E+02  0.41800000000E+01 0. -1.
         -5    1    3    3    0  502 -0.32156174399E+02  0.43347889562E+02 -0.35187572255E+02  0.64565445268E+02  0.41800000000E+01 0. -1.
        -11    1    4    4    0    0  0.10610044778E+02  0.15897049209E+02 -0.17809439427E+00  0.19113370748E+02  0.00000000000E+00 0.  1.
         11    1    4    4    0    0 -0.47828822332E+02 -0.30520043201E+02 -0.18673489451E+02  0.59730800186E+02  0.00000000000E+00 0. -1.
</event>
<event>
 8    1  0.4205029E-010  0.1223268E+03  0.7561462E-02  0.1239307E+00
         -2   -1    0    0    0  501 -0.00000000000E+00  0.00000000000E+00  0.27732714465E+02  0.27732714465E+02  0.00000000000E+00 0.  1.
          2   -1    0    0  501    0  0.00000000000E+00 -0.00000000000E+00 -0.56169468966E+03  0.56169468966E+03  0.00000000000E+00 0. -1.
         25    2    1    2    0    0  0.76985827696E+01  0.43778432404E+02 -0.24521945511E+03  0.27884499071E+03  0.12508448488E+03 0.  0.
         23    2    1    2    0    0 -0.76985827696E+01 -0.43778432404E+02 -0.28874252009E+03  0.31058241342E+03  0.10541998529E+03 0.  0.
          5    1    3    3  502    0 -0.28291282117E+02  0.77778302553E+02 -0.16047135104E+03  0.18060561425E+03  0.41800000000E+01 0.  1.
         -5    1    3    3    0  502  0.35989864887E+02 -0.33999870149E+02 -0.84748104063E+02  0.98239376459E+02  0.41800000000E+01 0.  1.
        -11    1    4    4    0    0 -0.55403375569E+02 -0.21217614657E+02 -0.12147978199E+03  0.13519267224E+03  0.00000000000E+00 0.  1.
         11    1    4    4    0    0  0.47704792799E+02 -0.22560817747E+02 -0.16726273810E+03  0.17538974118E+03  0.00000000000E+00 0. -1.
</event>
<event>
 8    1  0.4205029E-010  0.5525238E+02  0.7561462E-02  0.1418909E+00
         -1   -1    0    0    0  501 -0.00000000000E+00  0.00000000000E+00  0.37171086739E+02  0.37171086739E+02  0.00000000000E+00 0.  1.
          1   -1    0    0  501    0  0.00000000000E+00 -0.00000000000E+00 -0.33046605794E+03  0.33046605794E+03  0.00000000000E+00 0. -1.
         25    2    1    2    0    0 -0.25060478659E+02 -0.23172146564E+02 -0.21992748043E+03  0.25530580298E+03  0.12509188791E+03 0.  0.
         23    2    1    2    0    0  0.25060478659E+02  0.23172146564E+02 -0.73367490769E+02  0.11233134169E+03  0.77913834830E+02 0.  0.
          5    1    3    3  502    0  0.62992207067E+01 -0.28204424234E+02 -0.22132272419E+03  0.22324065573E+03  0.41800000000E+01 0. -1.
         -5    1    3    3    0  502 -0.31359699366E+02  0.50322776702E+01  0.13952437657E+01  0.32065147248E+02  0.41800000000E+01 0. -1.
        -11    1    4    4    0    0  0.26892559439E+02  0.88447302896E+00  0.79002191743E+01  0.28042922613E+02  0.00000000000E+00 0.  1.
         11    1    4    4    0    0 -0.18320807793E+01  0.22287673535E+02 -0.81267709943E+02  0.84288419080E+02  0.00000000000E+00 0. -1.
</event>
<event>
 8    1  0.4205029E-010  0.1115061E+03  0.7561462E-02  0.1257806E+00
         -2   -1    0    0    0  501 -0.00000000000E+00  0.00000000000E+00  0.18857151000E+03  0.18857151000E+03  0.00000000000E+00 0.  1.
          2   -1    0    0  501    0  0.00000000000E+00 -0.00000000000E+00 -0.81560236612E+02  0.81560236612E+02  0.00000000000E+00 0. -1.
         25    2    1    2    0    0  0.60878029593E+02  0.27081761302E+02  0.32276492989E+02  0.14535796150E+03  0.12509040207E+03 0.  0.
         23    2    1    2    0    0 -0.60878029593E+02 -0.27081761302E+02  0.74734780397E+02  0.12477378511E+03  0.74455716823E+02 0.  0.
          5    1    3    3  502    0 -0.42026637858E+01  0.65051661063E+02  0.66340812811E+01  0.65657173442E+02  0.41800000000E+01 0.  1.
         -5    1    3    3    0  502  0.65080693379E+02 -0.37969899762E+02  0.25642411708E+02  0.79700788056E+02  0.41800000000E+01 0.  1.
        -11    1    4    4    0    0 -0.55291896353E+02 -0.73636394742E+00  0.80080620006E+02  0.97317222190E+02  0.00000000000E+00 0.  1.
         11    1    4    4    0    0 -0.55861332395E+01 -0.26345397354E+02 -0.53458396091E+01  0.27456562921E+02  0.00000000000E+00 0. -1.
</event>
<event>
 8    1  0.4205029E-010  0.1071855E+03  0.7561462E-02  0.1265872E+00
         -2   -1    0    0    0  501 -0.00000000000E+00  0.00000000000E+00  0.47829521954E+03  0.47829521954E+03  0.00000000000E+00 0.  1.
          2   -1    0    0  501    0  0.00000000000E+00 -0.00000000000E+00 -0.32542981685E+02  0.32542981685E+02  0.00000000000E+00 0. -1.
         25    2    1    2    0    0 -0.62255812841E+02 -0.33036409903E+02  0.22902679507E+03  0.27031093449E+03  0.12509011885E+03 0.  0.
         23    2    1    2    0    0  0.62255812841E+02  0.33036409903E+02  0.21672544278E+03  0.24052726673E+03  0.76917214464E+02 0.  0.
          5    1    3    3  502    0  0.13044758921E+02  0.36788574890E+02  0.46662783936E+02  0.60979117593E+02  0.41800000000E+01 0. -1.
         -5    1    3    3    0  502 -0.75300571762E+02 -0.69824984793E+02  0.18236401114E+03  0.20933181690E+03  0.41800000000E+01 0. -1.
        -11    1    4    4    0    0  0.50148798608E+02  0.33351629305E+02  0.21990711158E+03  0.22800519928E+03  0.00000000000E+00 0.  1.
         11    1    4    4    0    0  0.12107014233E+02 -0.31521940262E+00 -0.31816687919E+01  0.12522067449E+02  0.00000000000E+00 0. -1.
</event>
<event>
 8    1  0.4205029E-010  0.1418385E+03  0.7561462E-02  0.1210876E+00
         -1   -1    0    0    0  501 -0.00000000000E+00  0.00000000000E+00  0.37008550453E+02  0.37008550453E+02  0.00000000000E+00 0.  1.
          1   -1    0    0  501    0  0.00000000000E+00 -0.00000000000E+00 -0.73559659365E+03  0.73559659365E+03  0.00000000000E+00 0. -1.
         25    2    1    2    0    0  0.97845650447E+02 -0.63618218930E+02 -0.50828087339E+03  0.53629894844E+03  0.12508423863E+03 0.  0.
         23    2    1    2    0    0 -0.97845650447E+02  0.63618218930E+02 -0.19030716981E+03  0.23630619567E+03  0.77477416953E+02 0.  0.
          5    1    3    3  502    0  0.56369578485E+02  0.29677972473E+02 -0.26187906452E+03  0.26954856383E+03  0.41800000000E+01 0. -1.
         -5    1    3    3    0  502  0.41476071962E+02 -0.93296191403E+02 -0.24640180887E+03  0.26675038461E+03  0.41800000000E+01 0. -1.
        -11    1    4    4    0    0 -0.48033220958E+02  0.22421986197E+02 -0.24602591794E+02  0.58439911906E+02  0.00000000000E+00 0.  1.
         11    1    4    4    0    0 -0.49812429489E+02  0.41196232733E+02 -0.16570457802E+03  0.17786628376E+03  0.00000000000E+00 0. -1.
</event>
<event>
 8    1  0.4205029E-010  0.1814107E+03  0.7561462E-02  0.1166445E+00
         -1   -1    0    0    0  501 -0.00000000000E+00  0.00000000000E+00  0.78970687040E+02  0.78970687040E+02  0.00000000000E+00 0.  1.
          1   -1    0    0  501    0  0.00000000000E+00 -0.00000000000E+00 -0.48493833219E+03  0.48493833219E+03  0.00000000000E+00 0. -1.
         25    2    1    2    0    0 -0.69059716884E+02 -0.13731920162E+03 -0.25807592308E+03  0.32538670460E+03  0.12509003889E+03 0.  0.
         23    2    1    2    0    0  0.69059716884E+02  0.13731920162E+03 -0.14789172207E+03  0.23852231462E+03  0.10674795308E+03 0.  0.
          5    1    3    3  502    0  0.33656785368E+02 -0.27034716778E+02 -0.33080261876E+02  0.54547513585E+02  0.41800000000E+01 0.  1.
         -5    1    3    3    0  502 -0.10271650225E+03 -0.11028448484E+03 -0.22499566120E+03  0.27083919102E+03  0.41800000000E+01 0.  1.
        -11    1    4    4    0    0  0.75506347441E+02  0.76375774971E+02 -0.40318234604E+02  0.11471716327E+03  0.00000000000E+00 0.  1.
         11    1    4    4    0    0 -0.64466305567E+01  0.60943426650E+02 -0.10757348746E+03  0.12380515136E+03  0.00000000000E+00 0. -1.
</event>
<event>
 8    1  0.4205029E-010  0.1240823E+03  0.7561462E-02  0.1236510E+00
         -2   -1    0    0    0  501 -0.00000000000E+00  0.00000000000E+00  0.44807969487E+02  0.44807969487E+02  0.00000000000E+00 0.  1.
          2   -1    0    0  501    0  0.00000000000E+00 -0.00000000000E+00 -0.34874916717E+03  0.34874916717E+03  0.00000000000E+00 0. -1.
         25    2    1    2    0    0  0.28855798839E+02 -0.66548654365E+02 -0.17971937677E+03  0.23066688511E+03  0.12508707757E+03 0.  0.
         23    2    1    2    0    0 -0.28855798839E+02  0.66548654365E+02 -0.12422182092E+03  0.16289025155E+03  0.76425079213E+02 0.  0.
          5    1    3    3  502    0 -0.42282127988E+02 -0.57587842693E+02 -0.74816782805E+02  0.10353338284E+03  0.41800000000E+01 0. -1.
         -5    1    3    3    0  502  0.71137926828E+02 -0.89608116722E+01 -0.10490259396E+03  0.12713350227E+03  0.41800000000E+01 0. -1.
        -11    1    4    4    0    0 -0.53293903624E+02  0.58291807799E+02 -0.10071415678E+03  0.12799029805E+03  0.00000000000E+00 0. -1.
         11    1    4    4    0    0  0.24438104784E+02  0.82568465655E+01 -0.23507664134E+02  0.34899953491E+02  0.00000000000E+00 0.  1.
</event>
<event>
 8    1  0.4205029E-010  0.1407241E+03  0.7561462E-02  0.1212358E+00
         -1   -1    0    0    0  501 -0.00000000000E+00  0.00000000000E+00  0.42579198482E+02  0.42579198482E+02  0.00000000000E+00 0.  1.
          1   -1    0    0  501    0  0.00000000000E+00 -0.00000000000E+00 -0.60853073679E+03  0.60853073679E+03  0.00000000000E+00 0. -1.
         25    2    1    2    0    0  0.10820606149E+03  0.33571309456E+01 -0.18512649348E+03  0.24827388723E+03  0.12509309502E+03 0.  0.
         23    2    1    2    0    0 -0.10820606149E+03 -0.33571309456E+01 -0.38082504483E+03  0.40283604804E+03  0.74359564015E+02 0.  0.
          5    1    3    3  502    0  0.66433452213E+01  0.41081007346E+02 -0.10627895458E+03  0.11421239770E+03  0.41800000000E+01 0. -1.
         -5    1    3    3    0  502  0.10156271627E+03 -0.37723876401E+02 -0.78847538898E+02  0.13406148954E+03  0.41800000000E+01 0. -1.
        -11    1    4    4    0    0  0.10301795121E+00 -0.21399230568E+02 -0.55623769164E+02  0.59598165892E+02  0.00000000000E+00 0.  1.
         11    1    4    4    0    0 -0.10830907944E+03  0.18042099622E+02 -0.32520127566E+03  0.34323788215E+03  0.00000000000E+00 0. -1.
</event>
<event>
 7    1  0.4205029E-010  0.7436601E+02  0.7561462E-02  0.1345846E+00
          4   -1    0    0  501    0  0.00000000000E+00  0.00000000000E+00  0.37405738455E+02  0.37405738455E+02  0.00000000000E+00 0. -1.
         -4   -1    0    0    0  501 -0.00000000000E+00 -0.00000000000E+00 -0.20551915158E+03  0.20551915158E+03  0.00000000000E+00 0.  1.
         25    2    1    2    0    0 -0.29841074274E+02 -0.15325770013E+02 -0.12551762894E+03  0.18035494025E+03  0.12509140800E+03 0.  0.
          5    1    3    3  502    0 -0.22515302621E+02 -0.57973357009E+02 -0.18774392827E+02  0.65098380940E+02  0.41800000000E+01 0. -1.
         -5    1    3    3    0  502 -0.73257716535E+01  0.42647586996E+02 -0.10674323611E+03  0.11525655931E+03  0.41800000000E+01 0. -1.
        -11    1    1    2    0    0  0.41826115647E+01  0.16714652403E+02 -0.68388200198E+01  0.18537618609E+02  0.00000000000E+00 0. -1.
         11    1    1    2    0    0  0.25658462710E+02 -0.13888823900E+01 -0.35756964167E+02  0.44032331183E+02  0.00000000000E+00 0.  1.
</event>
<event>
 7    1  0.4205029E-010  0.9136984E+02  0.7561462E-02  0.1299568E+00
          2   -1    0    0  501    0  0.00000000000E+00  0.00000000000E+00  0.16676958966E+03  0.16676958966E+03  0.00000000000E+00 0. -1.
         -2   -1    0    0    0  501 -0.00000000000E+00 -0.00000000000E+00 -0.63097168509E+02  0.63097168509E+02  0.00000000000E+00 0.  1.
         25    2    1    2    0    0 -0.38432204593E+02 -0.33974610122E+02  0.76637851996E+02  0.15541010223E+03  0.12509049139E+03 0.  0.
          5    1    3    3  502    0 -0.40423401766E+02  0.34331253170E+02  0.75076468237E+00  0.53204533662E+02  0.41800000000E+01 0. -1.
         -5    1    3    3    0  502  0.19911971730E+01 -0.68305863292E+02  0.75887087314E+02  0.10220556857E+03  0.41800000000E+01 0. -1.
        -11    1    1    2    0    0  0.81634885871E+01 -0.65713286701E+01 -0.77682050448E+01  0.13044919165E+02  0.00000000000E+00 0.  1.
         11    1    1    2    0    0  0.30268716006E+02  0.40545938792E+02  0.34802774202E+02  0.61411736772E+02  0.00000000000E+00 0. -1.
</event>
<event>
 8    1  0.4205029E-010  0.1206618E+03  0.7561462E-02  0.1242009E+00
         -1   -1    0    0    0  501 -0.00000000000E+00  0.00000000000E+00  0.22669083828E+03  0.22669083828E+03  0.00000000000E+00 0.  1.
          1   -1    0    0  501    0  0.00000000000E+00 -0.00000000000E+00 -0.80756090237E+02  0.80756090237E+02  0.00000000000E+00 0. -1.
         25    2    1    2    0    0  0.66154544435E+02  0.43550849794E+02  0.34904427915E+02  0.15211136445E+03  0.12508576193E+03 0.  0.
         23    2    1    2    0    0 -0.66154544435E+02 -0.43550849794E+02  0.11103032013E+03  0.15533556407E+03  0.74352573662E+02 0.  0.
          5    1    3    3  502    0  0.95057623982E+02  0.21157623969E-01  0.28359571338E+02  0.99285900365E+02  0.41800000000E+01 0.  1.
         -5    1    3    3    0  502 -0.28903079547E+02  0.43529692170E+02  0.65448565770E+01  0.52825464080E+02  0.41800000000E+01 0.  1.
        -11    1    4    4    0    0 -0.52336764217E+02 -0.54918409117E+02  0.11426215623E+03  0.13715323144E+03  0.00000000000E+00 0.  1.
         11    1    4    4    0    0 -0.13817780219E+02  0.11367559324E+02 -0.32318361041E+01  0.18182332627E+02  0.00000000000E+00 0. -1.
</event>
<event>
 8    1  0.4205029E-010  0.8559161E+02  0.7561462E-02  0.1313893E+00
          1   -1    0    0  501    0  0.00000000000E+00  0.00000000000E+00  0.32991678604E+02  0.32991678604E+02  0.00000000000E+00 0.  1.
         -1   -1    0    0    0  501 -0.00000000000E+00 -0.00000000000E+00 -0.29295025563E+03  0.29295025563E+03  0.00000000000E+00 0. -1.
         25    2    1    2    0    0 -0.15466143738E+02  0.66507633841E+01 -0.20736366916E+03  0.24275749241E+03  0.12509226426E+03 0.  0.
         23    2    1    2    0    0  0.15466143738E+02 -0.66507633841E+01 -0.52594907865E+02  0.83184441827E+02  0.62209265974E+02 0.  0.
          5    1    3    3  502    0 -0.23800793466E+02  0.63847529643E+02 -0.11257507754E+03  0.13165715056E+03  0.41800000000E+01 0. -1.
         -5    1    3    3    0  502  0.83346497283E+01 -0.57196766259E+02 -0.94788591623E+02  0.11110034185E+03  0.41800000000E+01 0. -1.
        -11    1    4    4    0    0  0.22342618208E+02  0.11804380418E+02 -0.57569594128E+02  0.62871250612E+02  0.00000000000E+00 0. -1.
         11    1    4    4    0    0 -0.68764744707E+01 -0.18455143802E+02  0.49746862632E+01  0.20313191215E+02  0.00000000000E+00 0.  1.
</event>
<event>
 8    1  0.4205029E-010  0.1790776E+03  0.7561462E-02  0.1168699E+00
          2   -1    0    0  501    0  0.00000000000E+00  0.00000000000E+00  0.26127311876E+03  0.26127311876E+03  0.00000000000E+00 0. -1.
         -2   -1    0    0    0  501 -0.00000000000E+00 -0.00000000000E+00 -0.18406891014E+03  0.18406891014E+03  0.00000000000E+00 0.  1.
         25    2    1    2    0    0  0.11733040622E+03 -0.10286166445E+03  0.13973218799E+03  0.24396768804E+03  0.12509277442E+03 0.  0.
         23    2    1    2    0    0 -0.11733040622E+03  0.10286166445E+03 -0.62527979371E+02  0.20137434086E+03  0.11088250861E+03 0.  0.
          5    1    3    3  502    0 -0.11134902036E+02 -0.64851036164E+02  0.47671389527E+02  0.81361395725E+02  0.41800000000E+01 0.  1.
         -5    1    3    3    0  502  0.12846530825E+03 -0.38010628281E+02  0.92060798464E+02  0.16260629232E+03  0.41800000000E+01 0.  1.
        -11    1    4    4    0    0 -0.96789146680E+01  0.20406371298E+02 -0.61771439925E+02  0.65770906707E+02  0.00000000000E+00 0.  1.
         11    1    4    4    0    0 -0.10765149155E+03  0.82455293148E+02 -0.75653944654E+00  0.13560343415E+03  0.00000000000E+00 0. -1.
</event>
<event>
 8    1  0.4205029E-010  0.1554502E+03  0.7561462E-02  0.1193931E+00
          3   -1    0    0  501    0  0.00000000000E+00  0.00000000000E+00  0.46075885494E+02  0.46075885494E+02  0.00000000000E+00 0. -1.
         -3   -1    0    0    0  501 -0.00000000000E+00 -0.00000000000E+00 -0.57886933236E+03  0.57886933236E+03  0.00000000000E+00 0.  1.
         25    2    1    2    0    0  0.67001134042E+02  0.89958980261E+02 -0.24949120208E+03  0.30079330181E+03  0.12509588485E+03 0.  0.
         23    2    1    2    0    0 -0.67001134042E+02 -0.89958980261E+02 -0.28330224479E+03  0.32415191604E+03  0.11060078065E+03 0.  0.
          5    1    3    3  502    0  0.93871322379E+02  0.84835998530E+02 -0.24034866412E+03  0.27165037191E+03  0.41800000000E+01 0. -1.
         -5    1    3    3    0  502 -0.26870188338E+02  0.51229817312E+01 -0.91425379602E+01  0.29142929905E+02  0.41800000000E+01 0. -1.
        -11    1    4    4    0    0  0.30532072969E+02 -0.24821840447E+02 -0.56994029547E+02  0.69257856211E+02  0.00000000000E+00 0. -1.
         11    1    4    4    0    0 -0.97533207011E+02 -0.65137139814E+02 -0.22630821524E+03  0.25489405983E+03  0.00000000000E+00 0.  1.
</event>
<event>
 8    1  0.4205029E-010  0.6977422E+02  0.7561462E-02  0.1360863E+00
          1   -1    0    0  501    0  0.00000000000E+00  0.00000000000E+00  0.49216207635E+03  0.49216207635E+03  0.00000000000E+00 0. -1.
         -1   -1    0    0    0  501 -0.00000000000E+00 -0.00000000000E+00 -0.24326507982E+02  0.24326507982E+02  0.00000000000E+00 0.  1.
         25    2    1    2    0    0 -0.13641829729E+02  0.39302560990E+02  0.33431693828E+03  0.35937057460E+03  0.12509437976E+03 0.  0.
         23    2    1    2    0    0  0.13641829729E+02 -0.39302560990E+02  0.13351863009E+03  0.15711800974E+03  0.71610429292E+02 0.  0.
          5    1    3    3  502    0 -0.18849569990E+01  0.46521744594E+02  0.34049337905E+03  0.34368741519E+03  0.41800000000E+01 0.  1.
         -5    1    3    3    0  502 -0.11756872730E+02 -0.72191836038E+01 -0.61764407738E+01  0.15683159405E+02  0.41800000000E+01 0.  1.
        -11    1    4    4    0    0  0.17966048643E+02 -0.57209334191E+02  0.12038989080E+03  0.13449688706E+03  0.00000000000E+00 0.  1.
         11    1    4    4    0    0 -0.43242189144E+01  0.17906773201E+02  0.13128739291E+02  0.22621122675E+02  0.00000000000E+00 0. -1.
</event>
<event>
 8    1  0.4205029E-010  0.7206998E+02  0.7561462E-02  0.1353192E+00
          1   -1    0    0  501    0  0.00000000000E+00  0.00000000000E+00  0.89168128433E+02  0.89168128433E+02  0.00000000000E+00 0. -1.
         -1   -1    0    0    0  501 -0.00000000000E+00 -0.00000000000E+00 -0.10397413784E+03  0.10397413784E+03  0.00000000000E+00 0.  1.
         25    2    1    2    0    0 -0.81725414119E+01  0.15019938039E+02 -0.26176525441E+02  0.12894193162E+03  0.12509365401E+03 0.  0.
         23    2    1    2    0    0  0.81725414119E+01 -0.15019938039E+02  0.11370516030E+02  0.64200334658E+02  0.60827669391E+02 0.  0.
          5    1    3    3  502    0  0.43108530116E+02 -0.57004207511E+01 -0.51868975419E+02  0.67813738848E+02  0.41800000000E+01 0. -1.
         -5    1    3    3    0  502 -0.51281071528E+02  0.20720358790E+02  0.25692449979E+02  0.61128192771E+02  0.41800000000E+01 0. -1.
        -11    1    4    4    0    0  0.24574970915E+02 -0.14592688183E+02  0.28582429223E+02  0.40420675455E+02  0.00000000000E+00 0. -1.
         11    1    4    4    0    0 -0.16402429503E+02 -0.42724985552E+00 -0.17211913194E+02  0.23779659203E+02  0.00000000000E+00 0.  1.
</event>
<event>
 7    1  0.4205029E-010  0.1040752E+03  0.7561462E-02  0.1271952E+00
          1   -1    0    0  501    0  0.00000000000E+00  0.00000000000E+00  0.27627651966E+03  0.27627651966E+03  0.00000000000E+00 0.  1.
         -1   -1    0    0    0  501 -0.00000000000E+00 -0.00000000000E+00 -0.94102130740E+02  0.94102130740E+02  0.00000000000E+00 0. -1.
         25    2    1    2    0    0 -0.68007763146E+02 -0.23000356414E+02  0.14945739290E+03  0.20769903211E+03  0.12508918180E+03 0.  0.
          5    1    3    3  502    0  0.10301338090E+02 -0.33254369870E+02 -0.37692838394E+01  0.35265430417E+02  0.41800000000E+01 0. -1.
         -5    1    3    3    0  502 -0.78309101236E+02  0.10254013455E+02  0.15322667674E+03  0.17243360169E+03  0.41800000000E+01 0. -1.
        -11    1    1    2    0    0  0.20679818018E+02 -0.20931215403E+02 -0.49833995672E+02  0.57872253941E+02  0.00000000000E+00 0. -1.
         11    1    1    2    0    0  0.47327945128E+02  0.43931571818E+02  0.82550991697E+02  0.10480736435E+03  0.00000000000E+00 0.  1.
</event>
<event>
 8    1  0.4205029E-010  0.1935735E+03  0.7561462E-02  0.1155277E+00
          1   -1    0    0  501    0  0.00000000000E+00  0.00000000000E+00  0.19782405051E+03  0.19782405051E+03  0.00000000000E+00 0. -1.
         -1   -1    0    0    0  501 -0.00000000000E+00 -0.00000000000E+00 -0.23646088066E+03  0.23646088066E+03  0.00000000000E+00 0.  1.
         25    2    1    2    0    0 -0.17479248175E+03 -0.21417371292E+02  0.23391743432E+02  0.21727495151E+03  0.12510042137E+03 0.  0.
         23    2    1    2    0    0  0.17479248175E+03  0.21417371292E+02 -0.62028573573E+02  0.21700997966E+03  0.11061045096E+03 0.  0.
          5    1    3    3  502    0 -0.63528159237E+02 -0.65164927249E+02  0.33853141988E+02  0.97189517860E+02  0.41800000000E+01 0. -1.
         -5    1    3    3    0  502 -0.11126432251E+03  0.43747555957E+02 -0.10461398556E+02  0.12008543365E+03  0.41800000000E+01 0. -1.
        -11    1    4    4    0    0  0.13562249266E+03  0.21029217317E+02 -0.94082589448E+02  0.16639477797E+03  0.00000000000E+00 0.  1.
         11    1    4    4    0    0  0.39169989083E+02  0.38815397550E+00  0.32054015875E+02  0.50615201689E+02  0.00000000000E+00 0. -1.
</event>
<event>
 8    1  0.4205029E-010  0.1083420E+03  0.7561462E-02  0.1263671E+00
          1   -1    0    0  501    0  0.00000000000E+00  0.00000000000E+00  0.22111669427E+03  0.22111669427E+03  0.00000000000E+00 0. -1.
         -1   -1    0    0    0  501 -0.00000000000E+00 -0.00000000000E+00 -0.54184841172E+02  0.54184841172E+02  0.00000000000E+00 0.  1.
         25    2    1    2    0    0 -0.35638756655E+02  0.18605242492E+02  0.88069510817E+02  0.15817978430E+03  0.12509328280E+03 0.  0.
         23    2    1    2    0    0  0.35638756655E+02 -0.18605242492E+02  0.78862342282E+02  0.11712175115E+03  0.76693934161E+02 0.  0.
          5    1    3    3  502    0 -0.52582224736E+02  0.63154827983E+02  0.66025332371E+02  0.10549995057E+03  0.41800000000E+01 0. -1.
         -5    1    3    3    0  502  0.16943468081E+02 -0.44549585492E+02  0.22044178446E+02  0.52679833726E+02  0.41800000000E+01 0. -1.
        -11    1    4    4    0    0  0.59520235743E+02 -0.67834869260E+01  0.52935905724E+02  0.79943006402E+02  0.00000000000E+00 0.  1.
         11    1    4    4    0    0 -0.23881479088E+02 -0.11821755566E+02  0.25926436558E+02  0.37178744743E+02  0.00000000000E+00 0. -1.
</event>
<event>
 8    1  0.4205029E-010  0.1716914E+03  0.7561462E-02  0.1176095E+00
          2   -1    0    0  501    0  0.00000000000E+00  0.00000000000E+00  0.82982900226E+03  0.82982900226E+03  0.00000000000E+00 0. -1.
         -2   -1    0    0    0  501 -0.00000000000E+00 -0.00000000000E+00 -0.57611876466E+02  0.57611876466E+02  0.00000000000E+00 0.  1.
         25    2    1    2    0    0  0.13760661119E+03  0.36436068567E+02  0.63277817828E+03  0.66054525766E+03  0.12509455616E+03 0.  0.
         23    2    1    2    0    0 -0.13760661119E+03 -0.36436068567E+02  0.13943894752E+03  0.22689562107E+03  0.10851376059E+03 0.  0.
          5    1    3    3  502    0  0.12067861878E+03 -0.49274949123E+01  0.28060601233E+03  0.30552383834E+03  0.41800000000E+01 0.  1.
         -5    1    3    3    0  502  0.16927992408E+02  0.41363563479E+02  0.35217216595E+03  0.35502141932E+03  0.41800000000E+01 0.  1.
        -11    1    4    4    0    0 -0.11041486691E+03 -0.72786685406E+02  0.11545375357E+03  0.17555316466E+03  0.00000000000E+00 0. -1.
         11    1    4    4    0    0 -0.27191744276E+02  0.36350616839E+02  0.23985193951E+02  0.51342456410E+02  0.00000000000E+00 0.  1.
</event>
<event>
 8    1  0.4905418E-010  0.1135421E+03  0.7561462E-02  0.1254148E+00
         -2   -1    0    0    0  501 -0.00000000000E+00  0.00000000000E+00  0.14795226504E+03  0.14795226504E+03  0.00000000000E+00 0.  1.
          2   -1    0    0  501    0  0.00000000000E+00 -0.00000000000E+00 -0.14124010249E+03  0.14124010249E+03  0.00000000000E+00 0. -1.
         25    2    1    2    0    0  0.75887702783E+02 -0.23754101139E+02 -0.33128994429E+02  0.15188316849E+03  0.12509103023E+03 0.  0.
         23    2    1    2    0    0 -0.75887702783E+02  0.23754101139E+02  0.39841156982E+02  0.13730919905E+03  0.10461021747E+03 0.  0.
          5    1    3    3  502    0  0.76496866421E+02 -0.60582038426E+02 -0.51604559101E+02  0.11046473135E+03  0.41800000000E+01 0. -1.
         -5    1    3    3    0  502 -0.60916363822E+00  0.36827937287E+02  0.18475564672E+02  0.41418437140E+02  0.41800000000E+01 0. -1.
        -11    1    4    4    0    0 -0.62331445118E+02 -0.29453404089E+01 -0.23950384092E+02  0.66839396906E+02  0.00000000000E+00 0. -1.
         11    1    4    4    0    0 -0.13556257664E+02  0.26699441548E+02  0.63791541075E+02  0.70469802139E+02  0.00000000000E+00 0.  1.
</event>
<event>
 8    1  0.4205029E-010  0.1081096E+03  0.7561462E-02  0.1264111E+00
          2   -1    0    0  501    0  0.00000000000E+00  0.00000000000E+00  0.48149399918E+03  0.48149399918E+03  0.00000000000E+00 0. -1.
         -2   -1    0    0    0  501 -0.00000000000E+00 -0.00000000000E+00 -0.31670258614E+02  0.31670258614E+02  0.00000000000E+00 0.  1.
         25    2    1    2    0    0 -0.19026438826E+02  0.47988414675E+01  0.27237908610E+03  0.30037125448E+03  0.12508992652E+03 0.  0.
         23    2    1    2    0    0  0.19026438826E+02 -0.47988414675E+01  0.17744465446E+03  0.21279300331E+03  0.11579819777E+03 0.  0.
          5    1    3    3  502    0 -0.26815901622E+02 -0.43681690855E+02  0.22904881697E+03  0.23475096518E+03  0.41800000000E+01 0. -1.
         -5    1    3    3    0  502  0.77894627955E+01  0.48480532323E+02  0.43330269127E+02  0.65620289298E+02  0.41800000000E+01 0. -1.
        -11    1    4    4    0    0  0.87345737423E+01 -0.59355223712E+02  0.11127148422E+03  0.12641470864E+03  0.00000000000E+00 0. -1.
         11    1    4    4    0    0  0.10291865084E+02  0.54556382244E+02  0.66173170244E+02  0.86378294673E+02  0.00000000000E+00 0.  1.
</event>
<event>
 8    1  0.4205029E-010  0.1046599E+03  0.7561462E-02  0.1270791E+00
         -1   -1    0    0    0  501 -0.00000000000E+00  0.00000000000E+00  0.10271648846E+03  0.10271648846E+03  0.00000000000E+00 0.  1.
          1   -1    0    0  501    0  0.00000000000E+00 -0.00000000000E+00 -0.13504486556E+03  0.13504486556E+03  0.00000000000E+00 0. -1.
         25    2    1    2    0    0 -0.33497612707E+02 -0.56547373705E+01 -0.72066618252E+02  0.14830825389E+03  0.12509066549E+03 0.  0.
         23    2    1    2    0    0  0.33497612707E+02  0.56547373705E+01  0.39738241155E+02  0.89453100138E+02  0.72585557809E+02 0.  0.
          5    1    3    3  502    0 -0.19330385922E+02  0.59450672725E+02 -0.30700903716E+02  0.69771514219E+02  0.41800000000E+01 0.  1.
         -5    1    3    3    0  502 -0.14167226785E+02 -0.65105410096E+02 -0.41365714536E+02  0.78536739667E+02  0.41800000000E+01 0.  1.
        -11    1    4    4    0    0 -0.31177162443E+01  0.33662723503E+02  0.13441078268E+02  0.36380787419E+02  0.00000000000E+00 0. -1.
         11    1    4    4    0    0  0.36615328951E+02 -0.28007986133E+02  0.26297162887E+02  0.53072312719E+02  0.00000000000E+00 0.  1.
</event>
<event>
 8    1  0.4205029E-010  0.1521914E+03  0.7561462E-02  0.1197806E+00
          2   -1    0    0  501    0  0.00000000000E+00  0.00000000000E+00  0.60760804292E+03  0.60760804292E+03  0.00000000000E+00 0.  1.
         -2   -1    0    0    0  501 -0.00000000000E+00 -0.00000000000E+00 -0.51975909369E+02  0.51975909369E+02  0.00000000000E+00 0. -1.
         25    2    1    2    0    0  0.11711967456E+03  0.64179837865E+02  0.30733880593E+03  0.35768622847E+03  0.12508487778E+03 0.  0.
         23    2    1    2    0    0 -0.11711967456E+03 -0.64179837865E+02  0.24829332762E+03  0.30189772382E+03  0.10796568598E+03 0.  0.
          5    1    3    3  502    0  0.34133771078E+02 -0.14897835889E+02  0.18975345064E+03  0.19341898633E+03  0.41800000000E+01 0.  1.
         -5    1    3    3    0  502  0.82985903478E+02  0.79077673754E+02  0.11758535529E+03  0.16426724214E+03  0.41800000000E+01 0.  1.
        -11    1    4    4    0    0 -0.69980729333E+02 -0.76295184450E+02  0.22554924541E+03  0.24817477663E+03  0.00000000000E+00 0.  1.
         11    1    4    4    0    0 -0.47138945223E+02  0.12115346584E+02  0.22744082212E+02  0.53722947195E+02  0.00000000000E+00 0. -1.
</event>
<event>
 8    1  0.4205029E-010  0.9869829E+02  0.7561462E-02  0.1283057E+00
          1   -1    0    0  501    0  0.00000000000E+00  0.00000000000E+00  0.87930600366E+03  0.87930600366E+03  0.00000000000E+00 0. -1.
         -1   -1    0    0    0  501 -0.00000000000E+00 -0.00000000000E+00 -0.11393106264E+02  0.11393106264E+02  0.00000000000E+00 0.  1.
         25    2    1    2    0    0 -0.27280716387E+01 -0.72437250910E+01  0.57768625728E+03  0.59112424997E+03  0.12508618279E+03 0.  0.
         23    2    1    2    0    0  0.27280716387E+01  0.72437250910E+01  0.29022664011E+03  0.29957485995E+03  0.73849036253E+02 0.  0.
          5    1    3    3  502    0  0.18856233441E+02 -0.61787704719E+02  0.35191027346E+03  0.35781502338E+03  0.41800000000E+01 0.  1.
         -5    1    3    3    0  502 -0.21584305079E+02  0.54543979628E+02  0.22577598382E+03  0.23330922659E+03  0.41800000000E+01 0.  1.
        -11    1    4    4    0    0 -0.23742442452E+02 -0.23415944394E+02  0.14667527453E+03  0.15041823754E+03  0.00000000000E+00 0.  1.
         11    1    4    4    0    0  0.26470514091E+02  0.30659669485E+02  0.14355136558E+03  0.14915662241E+03  0.00000000000E+00 0. -1.
</event>
<event>
 7    1  0.4205029E-010  0.8688846E+02  0.7561462E-02  0.1310567E+00
          1   -1    0    0  501    0  0.00000000000E+00  0.00000000000E+00  0.74053535755E+03  0.74053535755E+03  0.00000000000E+00 0. -1.
         -1   -1    0    0    0  501 -0.00000000000E+00 -0.00000000000E+00 -0.11781034076E+02  0.11781034076E+02  0.00000000000E+00 0.  1.
         25    2    1    2    0    0 -0.45478520130E+02  0.10058720019E+02  0.47367512494E+03  0.49212336893E+03  0.12509121719E+03 0.  0.
          5    1    3    3  502    0 -0.82929975158E+02 -0.26567821163E+01  0.39858583513E+03  0.40715178943E+03  0.41800000000E+01 0. -1.
         -5    1    3    3    0  502  0.37451455028E+02  0.12715502135E+02  0.75089289814E+02  0.84971579502E+02  0.41800000000E+01 0. -1.
        -11    1    1    2    0    0  0.16601513140E+02 -0.14084871381E+02  0.12546888100E+03  0.12734376286E+03  0.00000000000E+00 0. -1.
         11    1    1    2    0    0  0.28877006989E+02  0.40261513620E+01  0.12961031753E+03  0.13284925983E+03  0.00000000000E+00 0.  1.
</event>
<event>
 8    1  0.4205029E-010  0.9764285E+02  0.7561462E-02  0.1285332E+00
         -4   -1    0    0    0  501 -0.00000000000E+00  0.00000000000E+00  0.27943626358E+03  0.27943626358E+03  0.00000000000E+00 0.  1.
          4   -1    0    0  501    0  0.00000000000E+00 -0.00000000000E+00 -0.51333128978E+02  0.51333128978E+02  0.00000000000E+00 0. -1.
         25    2    1    2    0    0  0.11086401112E+02  0.66075359894E+02  0.10700336727E+03  0.17772697563E+03  0.12509314843E+03 0.  0.
         23    2    1    2    0    0 -0.11086401112E+02 -0.66075359894E+02  0.12109976733E+03  0.15304241693E+03  0.65329673631E+02 0.  0.
          5    1    3    3  502    0 -0.34886965600E+02  0.47458568772E+02  0.11309226860E+03  0.12758036579E+03  0.41800000000E+01 0.  1.
         -5    1    3    3    0  502  0.45973366713E+02  0.18616791121E+02 -0.60889013305E+01  0.50146609835E+02  0.41800000000E+01 0.  1.
        -11    1    4    4    0    0  0.15489348935E+02 -0.55894740761E+02  0.50435785944E+02  0.76862933062E+02  0.00000000000E+00 0. -1.
         11    1    4    4    0    0 -0.26575750047E+02 -0.10180619133E+02  0.70663981388E+02  0.76179483866E+02  0.00000000000E+00 0.  1.
</event>
<event>
 7    1  0.4205029E-010  0.2329313E+03  0.7561462E-02  0.1124593E+00
          3   -1    0    0  501    0  0.00000000000E+00  0.00000000000E+00  0.27421142004E+04  0.27421142004E+04  0.00000000000E+00 0. -1.
         -3   -1    0    0    0  501 -0.00000000000E+00 -0.00000000000E+00 -0.52411169793E+02  0.52411169793E+02  0.00000000000E+00 0.  1.
         25    2    1    2    0    0 -0.17722777050E+03 -0.12265220854E+03  0.20572124195E+04  0.20722507801E+04  0.12508840797E+03 0.  0.
          5    1    3    3  502    0 -0.16395099834E+03 -0.13826660806E+03  0.19974080490E+04  0.20088937183E+04  0.41800000000E+01 0. -1.
         -5    1    3    3    0  502 -0.13276772159E+02  0.15614399518E+02  0.59804370463E+02  0.63357061783E+02  0.41800000000E+01 0. -1.
        -11    1    1    2    0    0  0.68261448810E+02  0.96791250437E+02  0.59114456856E+03  0.60289308546E+03  0.00000000000E+00 0. -1.
         11    1    1    2    0    0  0.10896632169E+03  0.25860958104E+02  0.41346042573E+02  0.11938150465E+03  0.00000000000E+00 0.  1.
</event>
<event>
 7    1  0.4205029E-010  0.8459229E+02  0.7561462E-02  0.1316502E+00
          1   -1    0    0  501    0  0.00000000000E+00  0.00000000000E+00  0.33387924229E+03  0.33387924229E+03  0.00000000000E+00 0. -1.
         -1   -1    0    0    0  501 -0.00000000000E+00 -0.00000000000E+00 -0.29658490484E+02  0.29658490484E+02  0.00000000000E+00 0.  1.
         25    2    1    2    0    0  0.11252178583E+02 -0.39614287402E+02  0.18213180631E+03  0.22476197178E+03  0.12510014307E+03 0.  0.
          5    1    3    3  502    0  0.43816952969E+02  0.28162955803E+02  0.48105255658E+02  0.71025808471E+02  0.41800000000E+01 0.  1.
         -5    1    3    3    0  502 -0.32564774385E+02 -0.67777243205E+02  0.13402655065E+03  0.15373616330E+03  0.41800000000E+01 0.  1.
        -11    1    1    2    0    0 -0.41198231703E+01  0.25226134949E+02  0.11986925908E+03  0.12256414688E+03  0.00000000000E+00 0. -1.
         11    1    1    2    0    0 -0.71323554129E+01  0.14388152453E+02  0.22196864158E+01  0.16211614124E+02  0.00000000000E+00 0.  1.
</event>
<event>
 8    1  0.4205029E-010  0.1070123E+03  0.7561462E-02  0.1266205E+00
          1   -1    0    0  501    0  0.00000000000E+00  0.00000000000E+00  0.12831391175E+03  0.12831391175E+03  0.00000000000E+00 0. -1.
         -1   -1    0    0    0  501 -0.00000000000E+00 -0.00000000000E+00 -0.13209155978E+03  0.13209155978E+03  0.00000000000E+00 0.  1.
         25    2    1    2    0    0 -0.52175908875E+02  0.48713241500E+02  0.47914732347E+02  0.15178343393E+03  0.12508830432E+03 0.  0.
         23    2    1    2    0    0  0.52175908875E+02 -0.48713241500E+02 -0.51692380379E+02  0.10862203759E+03  0.63492830275E+02 0.  0.
          5    1    3    3  502    0  0.38075822148E+02  0.31561053223E+02  0.30298123593E+02  0.58149092908E+02  0.41800000000E+01 0.  1.
         -5    1    3    3    0  502 -0.90251731023E+02  0.17152188277E+02  0.17616608754E+02  0.93634341026E+02  0.41800000000E+01 0.  1.
        -11    1    4    4    0    0  0.19974208916E+02 -0.10868608080E+02  0.13657520554E+02  0.26525903021E+02  0.00000000000E+00 0. -1.
         11    1    4    4    0    0  0.32201699959E+02 -0.37844633420E+02 -0.65349900934E+02  0.82096134568E+02  0.00000000000E+00 0.  1.
</event>
<event>
 8    1  0.4205029E-010  0.1121821E+03  0.7561462E-02  0.1256582E+00
          4   -1    0    0  501    0  0.00000000000E+00  0.00000000000E+00  0.12027663024E+03  0.12027663024E+03  0.00000000000E+00 0. -1.
         -4   -1    0    0    0  501 -0.00000000000E+00 -0.00000000000E+00 -0.22605630431E+03  0.22605630431E+03  0.00000000000E+00 0.  1.
         25    2    1    2    0    0 -0.59700038058E+02 -0.81993127669E+02 -0.11608863926E+03  0.19852231016E+03  0.12509023919E+03 0.  0.
         23    2    1    2    0    0  0.59700038058E+02  0.81993127669E+02  0.10308965186E+02  0.14781062439E+03  0.10702681155E+03 0.  0.
          5    1    3    3  502    0 -0.10674788566E+02 -0.64352337465E+02 -0.12905814630E+03  0.14466738393E+03  0.41800000000E+01 0. -1.
         -5    1    3    3    0  502 -0.49025249493E+02 -0.17640790203E+02  0.12969507039E+02  0.53854926234E+02  0.41800000000E+01 0. -1.
        -11    1    4    4    0    0 -0.25171971629E+00  0.21703428914E+02 -0.42499868583E+02  0.47721494309E+02  0.00000000000E+00 0.  1.
         11    1    4    4    0    0  0.59951757774E+02  0.60289698754E+02  0.52808833770E+02  0.10008913008E+03  0.00000000000E+00 0. -1.
</event>
<event>
 7    1  0.4205029E-010  0.7148849E+02  0.7561462E-02  0.1355103E+00
          1   -1    0    0  501    0  0.00000000000E+00  0.00000000000E+00  0.58442244031E+03  0.58442244031E+03  0.00000000000E+00 0. -1.
         -1   -1    0    0    0  501 -0.00000000000E+00 -0.00000000000E+00 -0.16141773852E+02  0.16141773852E+02  0.00000000000E+00 0.  1.
         25    2    1    2    0    0 -0.31323661249E+02  0.40644145566E+02  0.33579288647E+03  0.36198930486E+03  0.12508507466E+03 0.  0.
          5    1    3    3  502    0 -0.37612424085E+02 -0.99415284301E+01  0.29213557854E+03  0.29474429101E+03  0.41800000000E+01 0. -1.
         -5    1    3    3    0  502  0.62887628362E+01  0.50585673996E+02  0.43657307931E+02  0.67245013848E+02  0.41800000000E+01 0. -1.
        -11    1    1    2    0    0  0.11329974676E+02 -0.63024927972E+01  0.40756678576E+02  0.42769107895E+02  0.00000000000E+00 0.  1.
         11    1    1    2    0    0  0.19993686573E+02 -0.34341652769E+02  0.19173110141E+03  0.19580580141E+03  0.00000000000E+00 0. -1.
</event>
<event>
 8    1  0.4205029E-010  0.1358762E+03  0.7561462E-02  0.1218988E+00
         -2   -1    0    0    0  501 -0.00000000000E+00  0.00000000000E+00  0.31555454750E+02  0.31555454750E+02  0.00000000000E+00 0. -1.
          2   -1    0    0  501    0  0.00000000000E+00 -0.00000000000E+00 -0.73413598325E+03  0.73413598325E+03  0.00000000000E+00 0.  1.
         25    2    1    2    0    0  0.10379856803E+03  0.41637549517E+02 -0.33834481343E+03  0.37766831134E+03  0.12509321470E+03 0.  0.
         23    2    1    2    0    0 -0.10379856803E+03 -0.41637549517E+02 -0.36423571507E+03  0.38802312666E+03  0.73392523010E+02 0.  0.
          5    1    3    3  502    0 -0.15829390760E+02  0.50989653947E+01 -0.24646922076E+00  0.17149408357E+02  0.41800000000E+01 0.  1.
         -5    1    3    3    0  502  0.11962795879E+03  0.36538584122E+02 -0.33809834421E+03  0.36051890299E+03  0.41800000000E+01 0.  1.
        -11    1    4    4    0    0 -0.26579675357E+02  0.17814333994E+02 -0.13852301029E+03  0.14217051037E+03  0.00000000000E+00 0. -1.
         11    1    4    4    0    0 -0.77218892672E+02 -0.59451883511E+02 -0.22571270478E+03  0.24585261629E+03  0.00000000000E+00 0.  1.
</event>
<event>
 7    1  0.4205029E-010  0.7359319E+02  0.7561462E-02  0.1348284E+00
         -1   -1    0    0    0  501 -0.00000000000E+00  0.00000000000E+00  0.32130225483E+03  0.32130225483E+03  0.00000000000E+00 0.  1.
          1   -1    0    0  501    0  0.00000000000E+00 -0.00000000000E+00 -0.32531632329E+02  0.32531632329E+02  0.00000000000E+00 0. -1.
         25    2    1    2    0    0  0.25804078542E+02 -0.35721126450E+02  0.25032892839E+03  0.28329103582E+03  0.12508952491E+03 0.  0.
          5    1    3    3  502    0 -0.25803315434E+02 -0.24951571784E+02  0.21870942167E+03  0.22167470660E+03  0.41800000000E+01 0. -1.
         -5    1    3    3    0  502  0.51607393976E+02 -0.10769554666E+02  0.31619506726E+02  0.61616329218E+02  0.41800000000E+01 0. -1.
        -11    1    1    2    0    0  0.37955796846E+01  0.27059095604E+02  0.11703545313E+02  0.29724973557E+02  0.00000000000E+00 0.  1.
         11    1    1    2    0    0 -0.29599658226E+02  0.86620308461E+01  0.26738148794E+02  0.40817877779E+02  0.00000000000E+00 0. -1.
</event>
<event>
 8    1  0.4251000E-010  0.8169235E+02  0.7561462E-02  0.1324316E+00
          3   -1    0    0  501    0  0.00000000000E+00  0.00000000000E+00  0.78691747468E+02  0.78691747468E+02  0.00000000000E+00 0. -1.
         -3   -1    0    0    0  501 -0.00000000000E+00 -0.00000000000E+00 -0.19592601160E+03  0.19592601160E+03  0.00000000000E+00 0.  1.
         25    2    1    2    0    0  0.11057357089E+02  0.23258743209E+02 -0.10479761204E+03  0.16520740747E+03  0.12509082186E+03 0.  0.
         23    2    1    2    0    0 -0.11057357089E+02 -0.23258743209E+02 -0.12436652100E+02  0.10941035160E+03  0.10560644129E+03 0.  0.
          5    1    3    3  502    0 -0.47053600842E+02  0.39728048566E+02 -0.76726453445E+02  0.98472230874E+02  0.41800000000E+01 0.  1.
         -5    1    3    3    0  502  0.58110957931E+02 -0.16469305357E+02 -0.28071158591E+02  0.66735176596E+02  0.41800000000E+01 0.  1.
        -11    1    4    4    0    0 -0.22336772644E+02 -0.17924991261E+02  0.43509677873E+02  0.52089622694E+02  0.00000000000E+00 0. -1.
         11    1    4    4    0    0  0.11279415555E+02 -0.53337519477E+01 -0.55946329973E+02  0.57320728908E+02  0.00000000000E+00 0.  1.
</event>
<event>
 7    1  0.4205029E-010  0.1121813E+03  0.7561462E-02  0.1256583E+00
         -2   -1    0    0    0  501 -0.00000000000E+00  0.00000000000E+00  0.17256742890E+02  0.17256742890E+02  0.00000000000E+00 0.  1.
          2   -1    0    0  501    0  0.00000000000E+00 -0.00000000000E+00 -0.13814468870E+04  0.13814468870E+04  0.00000000000E+00 0. -1.
         25    2    1    2    0    0 -0.55343096974E+02  0.86510009045E+02 -0.11315837804E+04  0.11430991472E+04  0.12508784232E+03 0.  0.
          5    1    3    3  502    0 -0.53340375931E+02  0.23780891445E+02 -0.17674321252E+03  0.18618904929E+03  0.41800000000E+01 0.  1.
         -5    1    3    3    0  502 -0.20027210434E+01  0.62729117601E+02 -0.95484056787E+03  0.95691009794E+03  0.41800000000E+01 0.  1.
        -11    1    1    2    0    0  0.16930148785E+02 -0.32350054018E+02 -0.55235919600E+02  0.66213010406E+02  0.00000000000E+00 0.  1.
         11    1    1    2    0    0  0.38412948189E+02 -0.54159955027E+02 -0.17737044411E+03  0.18939147225E+03  0.00000000000E+00 0. -1.
</event>
<event>
 8    1  0.4205029E-010  0.1899588E+03  0.7561462E-02  0.1158498E+00
         -1   -1    0    0    0  501 -0.00000000000E+00  0.00000000000E+00  0.39213492733E+02  0.39213492733E+02  0.00000000000E+00 0.  1.
          1   -1    0    0  501    0  0.00000000000E+00 -0.00000000000E+00 -0.12497706954E+04  0.12497706954E+04  0.00000000000E+00 0. -1.
         25    2    1    2    0    0  0.13811825704E+03 -0.10704526847E+03 -0.82418201986E+03  0.85173792757E+03  0.12508458326E+03 0.  0.
         23    2    1    2    0    0 -0.13811825704E+03  0.10704526847E+03 -0.38637518282E+03  0.43724626058E+03  0.10659816162E+03 0.  0.
          5    1    3    3  502    0 -0.69101959568E+01 -0.81864829918E+01 -0.28453251405E+01  0.11846416635E+02  0.41800000000E+01 0.  1.
         -5    1    3    3    0  502  0.14502845300E+03 -0.98858785474E+02 -0.82133669472E+03  0.83989151093E+03  0.41800000000E+01 0.  1.
        -11    1    4    4    0    0 -0.12798426911E+03  0.12064949263E+03 -0.38068503490E+03  0.41935351317E+03  0.00000000000E+00 0. -1.
         11    1    4    4    0    0 -0.10133987934E+02 -0.13604224165E+02 -0.56901479239E+01  0.17892747412E+02  0.00000000000E+00 0.  1.
</event>
<event>
 8    1  0.4205029E-010  0.1145392E+03  0.7561462E-02  0.1252388E+00
          2   -1    0    0  501    0  0.00000000000E+00  0.00000000000E+00  0.61591504390E+03  0.61591504390E+03  0.00000000000E+00 0. -1.
         -2   -1    0    0    0  501 -0.00000000000E+00 -0.00000000000E+00 -0.28244509398E+02  0.28244509398E+02  0.00000000000E+00 0.  1.
         25    2    1    2    0    0 -0.49136365621E+02 -0.49425805710E+00  0.34731641988E+03  0.37241532620E+03  0.12509937232E+03 0.  0.
         23    2    1    2    0    0  0.49136365621E+02  0.49425805710E+00  0.24035411462E+03  0.27174422710E+03  0.11687684898E+03 0.  0.
          5    1    3    3  502    0  0.31730842858E+02 -0.12641248814E+02  0.33249994463E+02  0.47850622690E+02  0.41800000000E+01 0. -1.
         -5    1    3    3    0  502 -0.80867208479E+02  0.12146990757E+02  0.31406642542E+03  0.32456470351E+03  0.41800000000E+01 0. -1.
        -11    1    4    4    0    0  0.41019763028E+02 -0.48273336040E+02  0.19359562794E+03  0.20369635021E+03  0.00000000000E+00 0. -1.
         11    1    4    4    0    0  0.81166025932E+01  0.48767594098E+02  0.46758486679E+02  0.68047876883E+02  0.00000000000E+00 0.  1.
</event>
<event>
 8    1  0.4205029E-010  0.7567895E+02  0.7561462E-02  0.1341781E+00
         -2   -1    0    0    0  501 -0.00000000000E+00  0.00000000000E+00  0.60453127411E+02  0.60453127411E+02  0.00000000000E+00 0. -1.
          2   -1    0    0  501    0  0.00000000000E+00 -0.00000000000E+00 -0.30611592900E+03  0.30611592900E+03  0.00000000000E+00 0.  1.
         25    2    1    2    0    0  0.34955884399E+02  0.50896283173E+01 -0.21508096402E+03  0.25130674115E+03  0.12508972337E+03 0.  0.
         23    2    1    2    0    0 -0.34955884399E+02 -0.50896283173E+01 -0.30581837564E+02  0.11526231526E+03  0.10536761532E+03 0.  0.
          5    1    3    3  502    0  0.52220677902E+02 -0.12535020639E+02 -0.21939777397E+03  0.22591365954E+03  0.41800000000E+01 0. -1.
         -5    1    3    3    0  502 -0.17264793503E+02  0.17624648956E+02  0.43168099514E+01  0.25393081611E+02  0.41800000000E+01 0. -1.
        -11    1    4    4    0    0 -0.50608423810E+02 -0.16352153612E+02 -0.59942442587E+02  0.80135522158E+02  0.00000000000E+00 0.  1.
         11    1    4    4    0    0  0.15652539411E+02  0.11262525294E+02  0.29360605023E+02  0.35126793098E+02  0.00000000000E+00 0. -1.
</event>
<event>
 8    1  0.4205029E-010  0.1630834E+03  0.7561462E-02  0.1185259E+00
          2   -1    0    0  501    0  0.00000000000E+00  0.00000000000E+00  0.33671284878E+03  0.33671284878E+03  0.00000000000E+00 0. -1.
         -2   -1    0    0    0  501 -0.00000000000E+00 -0.00000000000E+00 -0.82628382411E+02  0.82628382411E+02  0.00000000000E+00 0.  1.
         25    2    1    2    0    0 -0.10264076064E+03 -0.58757827934E+02  0.13405916116E+03  0.21818052476E+03  0.12507307706E+03 0.  0.
         23    2    1    2    0    0  0.10264076064E+03  0.58757827934E+02  0.12002530521E+03  0.20116070643E+03  0.10987241617E+03 0.  0.
          5    1    3    3  502    0 -0.92258752141E+02 -0.95744780378E+02  0.96974974816E+02  0.16462186506E+03  0.41800000000E+01 0. -1.
         -5    1    3    3    0  502 -0.10382008496E+02  0.36986952445E+02  0.37084186346E+02  0.53558659697E+02  0.41800000000E+01 0. -1.
        -11    1    4    4    0    0  0.10206953576E+00  0.51716319199E+02  0.69507288278E+02  0.86636315789E+02  0.00000000000E+00 0. -1.
         11    1    4    4    0    0  0.10253869110E+03  0.70415087348E+01  0.50518016931E+02  0.11452439065E+03  0.00000000000E+00 0.  1.
</event>
<event>
 8    1  0.4205029E-010  0.8548213E+02  0.7561462E-02  0.1314177E+00
         -2   -1    0    0    0  501 -0.00000000000E+00  0.00000000000E+00  0.22160395249E+03  0.22160395249E+03  0.00000000000E+00 0.  1.
          2   -1    0    0  501    0  0.00000000000E+00 -0.00000000000E+00 -0.75691396269E+02  0.75691396269E+02  0.00000000000E+00 0. -1.
         25    2    1    2    0    0 -0.14447401345E+02 -0.26816549691E+02  0.17171034347E+03  0.21461471353E+03  0.12508868240E+03 0.  0.
         23    2    1    2    0    0  0.14447401345E+02  0.26816549691E+02 -0.25797787257E+02  0.82680635224E+02  0.72406538867E+02 0.  0.
          5    1    3    3  502    0 -0.46381638394E+02  0.13422623735E+02  0.15182149324E+03  0.15936957495E+03  0.41800000000E+01 0. -1.
         -5    1    3    3    0  502  0.31934237049E+02 -0.40239173426E+02  0.19888850231E+02  0.55245138586E+02  0.41800000000E+01 0. -1.
        -11    1    4    4    0    0  0.37683610028E+02  0.31876384938E+01 -0.31295479145E+02  0.49087906034E+02  0.00000000000E+00 0. -1.
         11    1    4    4    0    0 -0.23236208683E+02  0.23628911197E+02  0.54976918878E+01  0.33592729190E+02  0.00000000000E+00 0.  1.
</event>
<event>
 8    1  0.4205029E-010  0.9194816E+02  0.7561462E-02  0.1298201E+00
         -4   -1    0    0    0  501 -0.00000000000E+00  0.00000000000E+00  0.58293631373E+03  0.58293631373E+03  0.00000000000E+00 0. -1.
          4   -1    0    0  501    0  0.00000000000E+00 -0.00000000000E+00 -0.20350415831E+02  0.20350415831E+02  0.00000000000E+00 0.  1.
         25    2    1    2    0    0 -0.40812024792E+02 -0.37518671144E+01  0.33401368471E+03  0.35901730233E+03  0.12509430013E+03 0.  0.
         23    2    1    2    0    0  0.40812024792E+02  0.37518671144E+01  0.22857221318E+03  0.24426942722E+03  0.75779935092E+02 0.  0.
          5    1    3    3  502    0  0.29511423757E+02 -0.12048894997E+02  0.23515559075E+03  0.23734305186E+03  0.41800000000E+01 0.  1.
         -5    1    3    3    0  502 -0.70323448549E+02  0.82970278823E+01  0.98858093958E+02  0.12167425047E+03  0.41800000000E+01 0.  1.
        -11    1    4    4    0    0  0.73271063389E+01 -0.31412502720E+02  0.52435749770E+02  0.61562485885E+02  0.00000000000E+00 0. -1.
         11    1    4    4    0    0  0.33484918454E+02  0.35164369835E+02  0.17613646341E+03  0.18270694134E+03  0.00000000000E+00 0.  1.
</event>
<event>
 8    1  0.4205029E-010  0.6857946E+02  0.7561462E-02  0.1364991E+00
         -1   -1    0    0    0  501 -0.00000000000E+00  0.00000000000E+00  0.17006367262E+02  0.17006367262E+02  0.00000000000E+00 0.  1.
          1   -1    0    0  501    0  0.00000000000E+00 -0.00000000000E+00 -0.94565470349E+03  0.94565470349E+03  0.00000000000E+00 0. -1.
         25    2    1    2    0    0  0.31639836285E+02  0.96019432632E+01 -0.82119813988E+03  0.83132810103E+03  0.12508696999E+03 0.  0.
         23    2    1    2    0    0 -0.31639836285E+02 -0.96019432632E+01 -0.10745019635E+03  0.13133296973E+03  0.67893502540E+02 0.  0.
          5    1    3    3  502    0 -0.19165452952E+02 -0.25899281008E+02 -0.61783401341E+03  0.61868766585E+03  0.41800000000E+01 0.  1.
         -5    1    3    3    0  502  0.50805289236E+02  0.35501224271E+02 -0.20336412647E+03  0.21264043518E+03  0.41800000000E+01 0.  1.
        -11    1    4    4    0    0 -0.19985382478E+02  0.79261928302E+01 -0.10815589648E+03  0.11027210884E+03  0.00000000000E+00 0. -1.
         11    1    4    4    0    0 -0.11654453807E+02 -0.17528136093E+02  0.70570013057E+00  0.21060860883E+02  0.00000000000E+00 0.  1.
</event>
<event>
 8    1  0.4205029E-010  0.1113645E+03  0.7561462E-02  0.1258064E+00
          1   -1    0    0  501    0  0.00000000000E+00  0.00000000000E+00  0.32269180129E+03  0.32269180129E+03  0.00000000000E+00 0.  1.
         -1   -1    0    0    0  501 -0.00000000000E+00 -0.00000000000E+00 -0.15539247423E+03  0.15539247423E+03  0.00000000000E+00 0. -1.
         25    2    1    2    0    0 -0.87220494453E+02  0.29271485321E+01  0.27903297124E+03  0.31800051137E+03  0.12509573670E+03 0.  0.
         23    2    1    2    0    0  0.87220494453E+02 -0.29271485321E+01 -0.11173364418E+03  0.16008376416E+03  0.74339904859E+02 0.  0.
          5    1    3    3  502    0 -0.47857795807E+02 -0.48919871688E+02  0.65862119768E+02  0.95072675811E+02  0.41800000000E+01 0. -1.
         -5    1    3    3    0  502 -0.39362698646E+02  0.51847020220E+02  0.21317085147E+03  0.22292783556E+03  0.41800000000E+01 0. -1.
        -11    1    4    4    0    0  0.40238309675E+02 -0.98991568463E+01 -0.10401326490E+03  0.11196371800E+03  0.00000000000E+00 0. -1.
         11    1    4    4    0    0  0.46982184778E+02  0.69720083141E+01 -0.77203792752E+01  0.48120046162E+02  0.00000000000E+00 0.  1.
</event>
<event>
 8    1  0.4205029E-010  0.3329985E+03  0.7561462E-02  0.1069818E+00
         -1   -1    0    0    0  501 -0.00000000000E+00  0.00000000000E+00  0.16477472926E+03  0.16477472926E+03  0.00000000000E+00 0.  1.
          1   -1    0    0  501    0  0.00000000000E+00 -0.00000000000E+00 -0.69489581103E+03  0.69489581103E+03  0.00000000000E+00 0. -1.
         25    2    1    2    0    0  0.30067614289E+03  0.11267938558E+03 -0.30487275862E+03  0.46010593550E+03  0.12508911265E+03 0.  0.
         23    2    1    2    0    0 -0.30067614289E+03 -0.11267938558E+03 -0.22524832315E+03  0.39956460478E+03  0.76238307167E+02 0.  0.
          5    1    3    3  502    0  0.15468620389E+03 -0.14251529735E+01 -0.17604788692E+03  0.23439322435E+03  0.41800000000E+01 0.  1.
         -5    1    3    3    0  502  0.14598993900E+03  0.11410453855E+03 -0.12882487170E+03  0.22571271115E+03  0.41800000000E+01 0.  1.
        -11    1    4    4    0    0 -0.14661717848E+03 -0.84718180916E+02 -0.85501569865E+02  0.18969524415E+03  0.00000000000E+00 0.  1.
         11    1    4    4    0    0 -0.15405896441E+03 -0.27961204661E+02 -0.13974675328E+03  0.20986936064E+03  0.00000000000E+00 0. -1.
</event>
<event>
 8    1  0.4205029E-010  0.1738526E+03  0.7561462E-02  0.1173889E+00
          1   -1    0    0  501    0  0.00000000000E+00  0.00000000000E+00  0.79480417902E+03  0.79480417902E+03  0.00000000000E+00 0. -1.
         -1   -1    0    0    0  501 -0.00000000000E+00 -0.00000000000E+00 -0.63783454210E+02  0.63783454210E+02  0.00000000000E+00 0.  1.
         25    2    1    2    0    0 -0.98143555266E+02  0.10713074126E+03  0.11609236525E+03  0.22412900817E+03  0.12508885591E+03 0.  0.
         23    2    1    2    0    0  0.98143555266E+02 -0.10713074126E+03  0.61492835956E+03  0.63445862506E+03  0.57373394125E+02 0.  0.
          5    1    3    3  502    0 -0.10305387765E+03  0.20916954732E+02  0.61873415645E+02  0.12207953414E+03  0.41800000000E+01 0. -1.
         -5    1    3    3    0  502  0.49103223802E+01  0.86213786529E+02  0.54218949603E+02  0.10204947403E+03  0.41800000000E+01 0. -1.
        -11    1    4    4    0    0  0.91606643960E+02 -0.62478871609E+02  0.42234488465E+03  0.43665843425E+03  0.00000000000E+00 0.  1.
         11    1    4    4    0    0  0.65369113059E+01 -0.44651869652E+02  0.19258347492E+03  0.19780019081E+03  0.00000000000E+00 0. -1.
</event>
<event>
 8    1  0.4205029E-010  0.1136989E+03  0.7561462E-02  0.1253869E+00
         -1   -1    0    0    0  501 -0.00000000000E+00  0.00000000000E+00  0.97064812661E+03  0.97064812661E+03  0.00000000000E+00 0.  1.
          1   -1    0    0  501    0  0.00000000000E+00 -0.00000000000E+00 -0.29095469863E+02  0.29095469863E+02  0.00000000000E+00 0. -1.
         25    2    1    2    0    0 -0.51228872786E+02  0.97788176360E+02  0.75892824750E+03  0.77705118757E+03  0.12509811510E+03 0.  0.
         23    2    1    2    0    0  0.51228872786E+02 -0.97788176360E+02  0.18262440925E+03  0.22269240891E+03  0.63665605230E+02 0.  0.
          5    1    3    3  502    0 -0.27778451003E+02  0.60273526759E+02  0.70047409227E+03  0.70362345520E+03  0.41800000000E+01 0.  1.
         -5    1    3    3    0  502 -0.23450421783E+02  0.37514649602E+02  0.58454155230E+02  0.73427732365E+02  0.41800000000E+01 0.  1.
        -11    1    4    4    0    0  0.55872294777E+02 -0.76845362444E+02  0.17639471158E+03  0.20035472874E+03  0.00000000000E+00 0.  1.
         11    1    4    4    0    0 -0.46434219910E+01 -0.20942813916E+02  0.62296976681E+01  0.22337680174E+02  0.00000000000E+00 0. -1.
</event>
<event>
 8    1  0.4205029E-010  0.1185693E+03  0.7561462E-02  0.1245476E+00
          1   -1    0    0  501    0  0.00000000000E+00  0.00000000000E+00  0.56416684341E+03  0.56416684341E+03  0.00000000000E+00 0. -1.
         -1   -1    0    0    0  501 -0.00000000000E+00 -0.00000000000E+00 -0.36918114619E+02  0.36918114619E+02  0.00000000000E+00 0.  1.
         25    2    1    2    0    0 -0.25851601044E+02  0.10383632682E+03  0.30973928230E+03  0.35076366488E+03  0.12508572083E+03 0.  0.
         23    2    1    2    0    0  0.25851601044E+02 -0.10383632682E+03  0.21750944650E+03  0.25032129316E+03  0.62450800236E+02 0.  0.
          5    1    3    3  502    0  0.13368245992E+02  0.97825742082E+01 -0.66569850092E+01  0.18335664931E+02  0.41800000000E+01 0.  1.
         -5    1    3    3    0  502 -0.39219847036E+02  0.94053752608E+02  0.31639626731E+03  0.33242799994E+03  0.41800000000E+01 0.  1.
        -11    1    4    4    0    0  0.27341457208E+02 -0.19186002463E+02  0.10042272794E+03  0.10583185844E+03  0.00000000000E+00 0. -1.
         11    1    4    4    0    0 -0.14898561645E+01 -0.84650324353E+02  0.11708671855E+03  0.14448943472E+03  0.00000000000E+00 0.  1.
</event>
<event>
 8    1  0.4205029E-010  0.7688206E+02  0.7561462E-02  0.1338140E+00
         -1   -1    0    0    0  501 -0.00000000000E+00  0.00000000000E+00  0.79285590008E+02  0.79285590008E+02  0.00000000000E+00 0.  1.
          1   -1    0    0  501    0  0.00000000000E+00 -0.00000000000E+00 -0.15482186630E+03  0.15482186630E+03  0.00000000000E+00 0. -1.
         25    2    1    2    0    0  0.14857884520E+02  0.42100418687E+02 -0.17447546086E+02  0.13396209785E+03  0.12509286474E+03 0.  0.
         23    2    1    2    0    0 -0.14857884520E+02 -0.42100418687E+02 -0.58088730207E+02  0.10014535846E+03  0.68275839491E+02 0.  0.
          5    1    3    3  502    0 -0.21273477307E+02  0.20910003594E+02 -0.64282792256E+02  0.70989709587E+02  0.41800000000E+01 0. -1.
         -5    1    3    3    0  502  0.36131361828E+02  0.21190415093E+02  0.46835246170E+02  0.62972388260E+02  0.41800000000E+01 0. -1.
        -11    1    4    4    0    0 -0.34560264353E+02 -0.49611836623E+02 -0.44217842168E+02  0.74906366694E+02  0.00000000000E+00 0. -1.
         11    1    4    4    0    0  0.19702379832E+02  0.75114179361E+01 -0.13870888039E+02  0.25238991768E+02  0.00000000000E+00 0.  1.
</event>
<event>
 8    1  0.4205029E-010  0.1199785E+03  0.7561462E-02  0.1243133E+00
          1   -1    0    0  501    0  0.00000000000E+00  0.00000000000E+00  0.32714318737E+02  0.32714318737E+02  0.00000000000E+00 0. -1.
         -1   -1    0    0    0  501 -0.00000000000E+00 -0.00000000000E+00 -0.50552342214E+03  0.50552342214E+03  0.00000000000E+00 0.  1.
         25    2    1    2    0    0  0.49776899012E+02  0.22024043649E+01 -0.23592683754E+03  0.27164601734E+03  0.12508995085E+03 0.  0.
         23    2    1    2    0    0 -0.49776899012E+02 -0.22024043649E+01 -0.23688226585E+03  0.26659172353E+03  0.11169310149E+03 0.  0.
          5    1    3    3  502    0 -0.15729671177E+02 -0.45764443725E+02 -0.55526423685E+02  0.73773050581E+02  0.41800000000E+01 0.  1.
         -5    1    3    3    0  502  0.65506570188E+02  0.47966848090E+02 -0.18040041386E+03  0.19787296676E+03  0.41800000000E+01 0.  1.
        -11    1    4    4    0    0 -0.33296228825E+02 -0.49693421773E+02 -0.68870160175E+02  0.91220469107E+02  0.00000000000E+00 0. -1.
         11    1    4    4    0    0 -0.16480670187E+02  0.47491017408E+02 -0.16801210568E+03  0.17537125443E+03  0.00000000000E+00 0.  1.
</event>
<event>
 8    1  0.4205029E-010  0.9813930E+02  0.7561462E-02  0.1284258E+00
          1   -1    0    0  501    0  0.00000000000E+00  0.00000000000E+00  0.69118111917E+03  0.69118111917E+03  0.00000000000E+00 0. -1.
         -1   -1    0    0    0  501 -0.00000000000E+00 -0.00000000000E+00 -0.18411334394E+02  0.18411334394E+02  0.00000000000E+00 0.  1.
         25    2    1    2    0    0 -0.33119823861E+02  0.42468429655E+02  0.44378178883E+03  0.46420839443E+03  0.12508663841E+03 0.  0.
         23    2    1    2    0    0  0.33119823861E+02 -0.42468429655E+02  0.22898799594E+03  0.24538405913E+03  0.69837983513E+02 0.  0.
          5    1    3    3  502    0  0.25591303681E+02 -0.13577888355E+02  0.27840238476E+03  0.27993683951E+03  0.41800000000E+01 0. -1.
         -5    1    3    3    0  502 -0.58711127542E+02  0.56046318010E+02  0.16537940407E+03  0.18427155491E+03  0.41800000000E+01 0. -1.
        -11    1    4    4    0    0  0.79388973506E+01 -0.56399501821E+02  0.17731725963E+03  0.18624000768E+03  0.00000000000E+00 0. -1.
         11    1    4    4    0    0  0.25180926510E+02  0.13931072166E+02  0.51670736309E+02  0.59144051453E+02  0.00000000000E+00 0.  1.
</event>
<event>
 8    1  0.4205029E-010  0.1757299E+03  0.7561462E-02  0.1172001E+00
          1   -1    0    0  501    0  0.00000000000E+00  0.00000000000E+00  0.29671932421E+02  0.29671932421E+02  0.00000000000E+00 0. -1.
         -1   -1    0    0    0  501 -0.00000000000E+00 -0.00000000000E+00 -0.10960327722E+04  0.10960327722E+04  0.00000000000E+00 0.  1.
         25    2    1    2    0    0  0.62818369827E+02 -0.12376245725E+03 -0.58423761032E+03  0.61338751551E+03  0.12508942981E+03 0.  0.
         23    2    1    2    0    0 -0.62818369827E+02  0.12376245725E+03 -0.48212322945E+03  0.51231718911E+03  0.10374391774E+03 0.  0.
          5    1    3    3  502    0 -0.32713734189E+02 -0.67559917352E+01 -0.75134332728E+02  0.82331477476E+02  0.41800000000E+01 0.  1.
         -5    1    3    3    0  502  0.95532104016E+02 -0.11700646552E+03 -0.50910327760E+03  0.53105603803E+03  0.41800000000E+01 0.  1.
        -11    1    4    4    0    0 -0.42655240232E+02  0.13638282061E+03 -0.34961562156E+03  0.37769144300E+03  0.00000000000E+00 0.  1.
         11    1    4    4    0    0 -0.20163129595E+02 -0.12620363360E+02 -0.13250760789E+03  0.13462574611E+03  0.00000000000E+00 0. -1.
</event>
<event>
 8    1  0.4205029E-010  0.1159630E+03  0.7561462E-02  0.1249909E+00
          2   -1    0    0  501    0  0.00000000000E+00  0.00000000000E+00  0.54183891481E+03  0.54183891481E+03  0.00000000000E+00 0. -1.
         -2   -1    0    0    0  501 -0.00000000000E+00 -0.00000000000E+00 -0.30295994076E+02  0.30295994076E+02  0.00000000000E+00 0.  1.
         25    2    1    2    0    0 -0.41651052137E+02  0.67016734755E+02  0.35487831754E+03  0.38446417496E+03  0.12509208082E+03 0.  0.
         23    2    1    2    0    0  0.41651052137E+02 -0.67016734755E+02  0.15666460320E+03  0.18767073393E+03  0.66711720091E+02 0.  0.
          5    1    3    3  502    0 -0.53163659567E+02  0.93087796858E+02  0.20025862863E+03  0.22718429383E+03  0.41800000000E+01 0. -1.
         -5    1    3    3    0  502  0.11512607429E+02 -0.26071062102E+02  0.15461968891E+03  0.15727988113E+03  0.41800000000E+01 0. -1.
        -11    1    4    4    0    0  0.16134289455E+01 -0.53585848379E+02  0.12118863321E+03  0.13251690880E+03  0.00000000000E+00 0. -1.
         11    1    4    4    0    0  0.40037623192E+02 -0.13430886377E+02  0.35475969990E+02  0.55153825130E+02  0.00000000000E+00 0.  1.
</event>
<event>
 7    1  0.4205029E-010  0.8388945E+02  0.7561462E-02  0.1318363E+00
          1   -1    0    0  501    0  0.00000000000E+00  0.00000000000E+00  0.81988216796E+03  0.81988216796E+03  0.00000000000E+00 0. -1.
         -1   -1    0    0    0  501 -0.00000000000E+00 -0.00000000000E+00 -0.88344826702E+01  0.88344826702E+01  0.00000000000E+00 0.  1.
         25    2    1    2    0    0 -0.19683939298E+00  0.33527844218E+02  0.65430231283E+03  0.66699577539E+03  0.12509073797E+03 0.  0.
          5    1    3    3  502    0  0.59971397496E+02 -0.15993635670E+00  0.28171975729E+03  0.28806264621E+03  0.41800000000E+01 0.  1.
         -5    1    3    3    0  502 -0.60168236889E+02  0.33687780575E+02  0.37258255555E+03  0.37893312918E+03  0.41800000000E+01 0.  1.
        -11    1    1    2    0    0  0.86040042718E+01 -0.81779031270E+01  0.68555295315E+02  0.69575394392E+02  0.00000000000E+00 0. -1.
         11    1    1    2    0    0 -0.84071648788E+01 -0.25349941091E+02  0.88190077145E+02  0.92145480852E+02  0.00000000000E+00 0.  1.
</event>
<event>
 8    1  0.4205029E-010  0.2167786E+03  0.7561462E-02  0.1136308E+00
          2   -1    0    0  501    0  0.00000000000E+00  0.00000000000E+00  0.14003965967E+04  0.14003965967E+04  0.00000000000E+00 0. -1.
         -2   -1    0    0    0  501 -0.00000000000E+00 -0.00000000000E+00 -0.42580546914E+02  0.42580546914E+02  0.00000000000E+00 0.  1.
         25    2    1    2    0    0  0.18524577908E+03 -0.61933636800E+02  0.10148606183E+04  0.10410288630E+04  0.12508894854E+03 0.  0.
         23    2    1    2    0    0 -0.18524577908E+03  0.61933636800E+02  0.34295543149E+03  0.40194828059E+03  0.76106624206E+02 0.  0.
          5    1    3    3  502    0  0.60387720979E+02  0.38336944236E+02  0.29941217610E+03  0.30786607760E+03  0.41800000000E+01 0.  1.
         -5    1    3    3    0  502  0.12485805810E+03 -0.10027058104E+03  0.71544844219E+03  0.73316278542E+03  0.41800000000E+01 0.  1.
        -11    1    4    4    0    0 -0.31312780441E+02  0.32241469372E+02  0.12972133556E+03  0.13728666165E+03  0.00000000000E+00 0. -1.
         11    1    4    4    0    0 -0.15393299864E+03  0.29692167428E+02  0.21323409593E+03  0.26466161895E+03  0.00000000000E+00 0.  1.
</event>
<event>
 8    1  0.4205029E-010  0.8162180E+02  0.7561462E-02  0.1324511E+00
          1   -1    0    0  501    0  0.00000000000E+00  0.00000000000E+00  0.12881549763E+03  0.12881549763E+03  0.00000000000E+00 0. -1.
         -1   -1    0    0    0  501 -0.00000000000E+00 -0.00000000000E+00 -0.11241228333E+03  0.11241228333E+03  0.00000000000E+00 0.  1.
         25    2    1    2    0    0  0.28025457998E+02  0.79551774187E+01  0.13225412474E+02  0.12911797675E+03  0.12509128363E+03 0.  0.
         23    2    1    2    0    0 -0.28025457998E+02 -0.79551774187E+01  0.31778018271E+01  0.11210980421E+03  0.10821182298E+03 0.  0.
          5    1    3    3  502    0  0.60743786326E+02  0.31788686091E+02 -0.25186455875E+02  0.73158445173E+02  0.41800000000E+01 0. -1.
         -5    1    3    3    0  502 -0.32718328328E+02 -0.23833508673E+02  0.38411868349E+02  0.55959531577E+02  0.41800000000E+01 0. -1.
        -11    1    4    4    0    0 -0.11645579273E+01 -0.23031381158E+02 -0.47501810629E+02  0.52803624177E+02  0.00000000000E+00 0.  1.
         11    1    4    4    0    0 -0.26860900071E+02  0.15076203739E+02  0.50679612456E+02  0.59306180036E+02  0.00000000000E+00 0. -1.
</event>
<event>
 8    1  0.4205029E-010  0.1192795E+03  0.7561462E-02  0.1244290E+00
          1   -1    0    0  501    0  0.00000000000E+00  0.00000000000E+00  0.45995400686E+02  0.45995400686E+02  0.00000000000E+00 0. -1.
         -1   -1    0    0    0  501 -0.00000000000E+00 -0.00000000000E+00 -0.41312421180E+03  0.41312421180E+03  0.00000000000E+00 0.  1.
         25    2    1    2    0    0  0.92132279260E+02 -0.67230792746E+01 -0.23975204639E+03  0.28576422241E+03  0.12508633173E+03 0.  0.
         23    2    1    2    0    0 -0.92132279260E+02  0.67230792746E+01 -0.12737676472E+03  0.17335539007E+03  0.72757778960E+02 0.  0.
          5    1    3    3  502    0  0.44264038818E+02 -0.48728853914E+02 -0.19994459303E+03  0.21054481475E+03  0.41800000000E+01 0.  1.
         -5    1    3    3    0  502  0.47868240442E+02  0.42005774640E+02 -0.39807453358E+02  0.75219407661E+02  0.41800000000E+01 0.  1.
        -11    1    4    4    0    0  0.17368400487E+01  0.14479372322E+02 -0.48042625448E+02  0.50207197653E+02  0.00000000000E+00 0.  1.
         11    1    4    4    0    0 -0.93869119308E+02 -0.77562930473E+01 -0.79334139273E+02  0.12314819242E+03  0.00000000000E+00 0. -1.
</event>
<event>
 8    1  0.4205029E-010  0.1371110E+03  0.7561462E-02  0.1217270E+00
         -2   -1    0    0    0  501 -0.00000000000E+00  0.00000000000E+00  0.17182059409E+03  0.17182059409E+03  0.00000000000E+00 0.  1.
          2   -1    0    0  501    0  0.00000000000E+00 -0.00000000000E+00 -0.15797864988E+03  0.15797864988E+03  0.00000000000E+00 0. -1.
         25    2    1    2    0    0  0.10056612611E+03  0.64009254500E+02 -0.44249105710E+02  0.17837180068E+03  0.12509110895E+03 0.  0.
         23    2    1    2    0    0 -0.10056612611E+03 -0.64009254500E+02  0.58091049914E+02  0.15142744330E+03  0.73109302552E+02 0.  0.
          5    1    3    3  502    0 -0.85592871906E+01  0.15710745200E+02  0.31854052334E+02  0.36772842724E+02  0.41800000000E+01 0. -1.
         -5    1    3    3    0  502  0.10912541330E+03  0.48298509300E+02 -0.76103158043E+02  0.14159895795E+03  0.41800000000E+01 0. -1.
        -11    1    4    4    0    0 -0.39774206171E+02 -0.64346511827E+02  0.48560504548E+02  0.89892066740E+02  0.00000000000E+00 0. -1.
         11    1    4    4    0    0 -0.60791919943E+02  0.33725732662E+00  0.95305453656E+01  0.61535376555E+02  0.00000000000E+00 0.  1.
</event>
<event>
 8    1  0.4205029E-010  0.2080313E+03  0.7561462E-02  0.1143135E+00
         -4   -1    0    0    0  501 -0.00000000000E+00  0.00000000000E+00  0.55029297172E+02  0.55029297172E+02  0.00000000000E+00 0. -1.
          4   -1    0    0  501    0  0.00000000000E+00 -0.00000000000E+00 -0.10816718365E+04  0.10816718365E+04  0.00000000000E+00 0.  1.
         25    2    1    2    0    0  0.10121258751E+03  0.17743765489E+03 -0.74405527226E+03  0.78166043517E+03  0.12508668385E+03 0.  0.
         23    2    1    2    0    0 -0.10121258751E+03 -0.17743765489E+03 -0.28258726706E+03  0.35504069851E+03  0.66859740106E+02 0.  0.
          5    1    3    3  502    0  0.29821692712E+02  0.10772163834E+03 -0.57101793119E+03  0.58186960297E+03  0.41800000000E+01 0. -1.
         -5    1    3    3    0  502  0.71390894795E+02  0.69716016543E+02 -0.17303734108E+03  0.19979083220E+03  0.41800000000E+01 0. -1.
        -11    1    4    4    0    0 -0.58566449828E+02 -0.97536818035E+02 -0.21052878397E+03  0.23930279731E+03  0.00000000000E+00 0.  1.
         11    1    4    4    0    0 -0.42646137678E+02 -0.79900836853E+02 -0.72058483093E+02  0.11573790120E+03  0.00000000000E+00 0. -1.
</event>
<event>
 8    1  0.4205029E-010  0.1092795E+03  0.7561462E-02  0.1261910E+00
         -2   -1    0    0    0  501 -0.00000000000E+00  0.00000000000E+00  0.21515795151E+03  0.21515795151E+03  0.00000000000E+00 0.  1.
          2   -1    0    0  501    0  0.00000000000E+00 -0.00000000000E+00 -0.74392425123E+02  0.74392425123E+02  0.00000000000E+00 0. -1.
         25    2    1    2    0    0 -0.51963130096E+02  0.60370284789E+02  0.10434775850E+03  0.18133098699E+03  0.12509090281E+03 0.  0.
         23    2    1    2    0    0  0.51963130096E+02 -0.60370284789E+02  0.36417767885E+02  0.10821938964E+03  0.63564489305E+02 0.  0.
          5    1    3    3  502    0 -0.53271564362E+02  0.81829068124E+02  0.11974091075E+03  0.15456136020E+03  0.41800000000E+01 0. -1.
         -5    1    3    3    0  502  0.13084342661E+01 -0.21458783336E+02 -0.15393152251E+02  0.26769626794E+02  0.41800000000E+01 0. -1.
        -11    1    4    4    0    0 -0.90972943456E+01 -0.28769847195E+02  0.23541833951E+02  0.38271174764E+02  0.00000000000E+00 0. -1.
         11    1    4    4    0    0  0.61060424441E+02 -0.31600437593E+02  0.12875933935E+02  0.69948214872E+02  0.00000000000E+00 0.  1.
</event>
<event>
 8    1  0.4205029E-010  0.1048692E+03  0.7561462E-02  0.1270378E+00
          3   -1    0    0  501    0  0.00000000000E+00  0.00000000000E+00  0.30504329634E+03  0.30504329634E+03  0.00000000000E+00 0. -1.
         -3   -1    0    0    0  501 -0.00000000000E+00 -0.00000000000E+00 -0.45255528292E+02  0.45255528292E+02  0.00000000000E+00 0.  1.
         25    2    1    2    0    0 -0.41654564330E+02 -0.37764572699E+02  0.10787757753E+03  0.17448980902E+03  0.12509139073E+03 0.  0.
         23    2    1    2    0    0  0.41654564330E+02  0.37764572699E+02  0.15191019051E+03  0.17580901561E+03  0.68343531575E+02 0.  0.
          5    1    3    3  502    0 -0.77137335291E+02 -0.39308991574E+02  0.35317499481E+02  0.93595745009E+02  0.41800000000E+01 0.  1.
         -5    1    3    3    0  502  0.35482770961E+02  0.15444188749E+01  0.72560078051E+02  0.80894064007E+02  0.41800000000E+01 0.  1.
        -11    1    4    4    0    0  0.58632638767E+02  0.38771592942E+02  0.13258070824E+03  0.15006221025E+03  0.00000000000E+00 0. -1.
         11    1    4    4    0    0 -0.16978074437E+02 -0.10070202431E+01  0.19329482276E+02  0.25746805364E+02  0.00000000000E+00 0.  1.
</event>
<event>
 8    1  0.4205029E-010  0.1891106E+03  0.7561462E-02  0.1159266E+00
          1   -1    0    0  501    0  0.00000000000E+00  0.00000000000E+00  0.19163878064E+03  0.19163878064E+03  0.00000000000E+00 0. -1.
         -1   -1    0    0    0  501 -0.00000000000E+00 -0.00000000000E+00 -0.20408849413E+03  0.20408849413E+03  0.00000000000E+00 0.  1.
         25    2    1    2    0    0 -0.14011663993E+03  0.94806585181E+02 -0.28215490310E+02  0.21228425018E+03  0.12509007795E+03 0.  0.
         23    2    1    2    0    0  0.14011663993E+03 -0.94806585181E+02  0.15765776821E+02  0.18344302460E+03  0.69150720731E+02 0.  0.
          5    1    3    3  502    0 -0.13037414012E+03  0.24004135802E+02  0.63532495709E+01  0.13278347460E+03  0.41800000000E+01 0.  1.
         -5    1    3    3    0  502 -0.97424998091E+01  0.70802449380E+02 -0.34568739881E+02  0.79500775579E+02  0.41800000000E+01 0.  1.
        -11    1    4    4    0    0  0.34906564519E+02 -0.46719359922E+02 -0.21119992718E+02  0.62025969807E+02  0.00000000000E+00 0.  1.
         11    1    4    4    0    0  0.10521007541E+03 -0.48087225260E+02  0.36885769539E+02  0.12141705479E+03  0.00000000000E+00 0. -1.
</event>
<event>
 7    1  0.4205029E-010  0.1368223E+03  0.7561462E-02  0.1217670E+00
          1   -1    0    0  501    0  0.00000000000E+00  0.00000000000E+00  0.86751215778E+02  0.86751215778E+02  0.00000000000E+00 0. -1.
         -1   -1    0    0    0  501 -0.00000000000E+00 -0.00000000000E+00 -0.50010068804E+03  0.50010068804E+03  0.00000000000E+00 0.  1.
         25    2    1    2    0    0 -0.24104247299E+02  0.31150880989E+02 -0.74193041976E+02  0.15067629896E+03  0.12508935792E+03 0.  0.
          5    1    3    3  502    0 -0.50785943873E+02 -0.33200388022E+02 -0.41359476108E+02  0.73549687449E+02  0.41800000000E+01 0. -1.
         -5    1    3    3    0  502  0.26681696574E+02  0.64351269011E+02 -0.32833565868E+02  0.77126611510E+02  0.41800000000E+01 0. -1.
        -11    1    1    2    0    0  0.80252095349E+02 -0.31981031503E+01  0.10445257949E+02  0.80992160641E+02  0.00000000000E+00 0. -1.
         11    1    1    2    0    0 -0.56147848050E+02 -0.27952777839E+02 -0.34960168824E+03  0.35518344422E+03  0.00000000000E+00 0.  1.
</event>
<event>
 8    1  0.4205029E-010  0.1602451E+03  0.7561462E-02  0.1188420E+00
         -1   -1    0    0    0  501 -0.00000000000E+00  0.00000000000E+00  0.23655923131E+03  0.23655923131E+03  0.00000000000E+00 0.  1.
          1   -1    0    0  501    0  0.00000000000E+00 -0.00000000000E+00 -0.13634949416E+03  0.13634949416E+03  0.00000000000E+00 0. -1.
         25    2    1    2    0    0  0.12674918226E+03  0.22767512335E+02  0.22379067999E+01  0.17954345332E+03  0.12508848301E+03 0.  0.
         23    2    1    2    0    0 -0.12674918226E+03 -0.22767512335E+02  0.97971830350E+02  0.19336527216E+03  0.10586753097E+03 0.  0.
          5    1    3    3  502    0  0.33132258432E+02  0.48780552278E+02  0.44008664763E+02  0.73698872471E+02  0.41800000000E+01 0.  1.
         -5    1    3    3    0  502  0.93616923830E+02 -0.26013039942E+02 -0.41770757964E+02  0.10584458085E+03  0.41800000000E+01 0.  1.
        -11    1    4    4    0    0  0.10456653048E+02 -0.24783680019E+02  0.29795392219E+02  0.40141472142E+02  0.00000000000E+00 0.  1.
         11    1    4    4    0    0 -0.13720583531E+03  0.20161676833E+01  0.68176438131E+02  0.15322380002E+03  0.00000000000E+00 0. -1.
</event>
<event>
 8    1  0.4205029E-010  0.1075792E+03  0.7561462E-02  0.1265120E+00
          2   -1    0    0  501    0  0.00000000000E+00  0.00000000000E+00  0.41640126539E+03  0.41640126539E+03  0.00000000000E+00 0. -1.
         -2   -1    0    0    0  501 -0.00000000000E+00 -0.00000000000E+00 -0.38696302790E+02  0.38696302790E+02  0.00000000000E+00 0.  1.
         25    2    1    2    0    0 -0.36862256856E+01 -0.11182752297E+01  0.10683007711E+03  0.16454485533E+03  0.12508998858E+03 0.  0.
         23    2    1    2    0    0  0.36862256856E+01  0.11182752297E+01  0.27087488550E+03  0.29055271285E+03  0.10503731028E+03 0.  0.
          5    1    3    3  502    0 -0.55427860187E+02 -0.13127724382E+02  0.16122824429E+02  0.59346463246E+02  0.41800000000E+01 0.  1.
         -5    1    3    3    0  502  0.51741634501E+02  0.12009449152E+02  0.90707252677E+02  0.10519839209E+03  0.41800000000E+01 0.  1.
        -11    1    4    4    0    0  0.44247267129E+02  0.31304734459E+02  0.12835350414E+03  0.13932849340E+03  0.00000000000E+00 0. -1.
         11    1    4    4    0    0 -0.40561041444E+02 -0.30186459229E+02  0.14252138136E+03  0.15122421945E+03  0.00000000000E+00 0.  1.
</event>
<event>
 8    1  0.4205029E-010  0.1409220E+03  0.7561462E-02  0.1212094E+00
         -4   -1    0    0    0  501 -0.00000000000E+00  0.00000000000E+00  0.96725904565E+03  0.96725904565E+03  0.00000000000E+00 0. -1.
          4   -1    0    0  501    0  0.00000000000E+00 -0.00000000000E+00 -0.22316413314E+02  0.22316413314E+02  0.00000000000E+00 0.  1.
         25    2    1    2    0    0  0.93554450962E+02 -0.26841834955E+02  0.39511571125E+03  0.42571894235E+03  0.12508906107E+03 0.  0.
         23    2    1    2    0    0 -0.93554450962E+02  0.26841834955E+02  0.54982692108E+03  0.56385651661E+03  0.78432192251E+02 0.  0.
          5    1    3    3  502    0  0.93703988477E+02  0.32260074774E+02  0.25269937291E+03  0.27146932672E+03  0.41800000000E+01 0.  1.
         -5    1    3    3    0  502 -0.14953751575E+00 -0.59101909729E+02  0.14241633834E+03  0.15424961563E+03  0.41800000000E+01 0.  1.
        -11    1    4    4    0    0 -0.58830847797E+02  0.53584602630E+02  0.30953077206E+03  0.31959611566E+03  0.00000000000E+00 0. -1.
         11    1    4    4    0    0 -0.34723603165E+02 -0.26742767675E+02  0.24029614902E+03  0.24426040096E+03  0.00000000000E+00 0.  1.
</event>
<event>
 8    1  0.4205029E-010  0.1629110E+03  0.7561462E-02  0.1185449E+00
         -1   -1    0    0    0  501 -0.00000000000E+00  0.00000000000E+00  0.44490437353E+03  0.44490437353E+03  0.00000000000E+00 0.  1.
          1   -1    0    0  501    0  0.00000000000E+00 -0.00000000000E+00 -0.82918503016E+02  0.82918503016E+02  0.00000000000E+00 0. -1.
         25    2    1    2    0    0  0.49902557090E+02  0.10703339709E+03  0.31158350217E+03  0.35591919557E+03  0.12509109343E+03 0.  0.
         23    2    1    2    0    0 -0.49902557090E+02 -0.10703339709E+03  0.50402368344E+02  0.17190368098E+03  0.11429813429E+03 0.  0.
          5    1    3    3  502    0  0.82574194363E+02  0.29525421568E+02  0.16172037418E+03  0.18401412967E+03  0.41800000000E+01 0. -1.
         -5    1    3    3    0  502 -0.32671637272E+02  0.77507975518E+02  0.14986312800E+03  0.17190506590E+03  0.41800000000E+01 0. -1.
        -11    1    4    4    0    0 -0.74537612798E+02 -0.10543972792E+03  0.63569388952E+02  0.14392518597E+03  0.00000000000E+00 0.  1.
         11    1    4    4    0    0  0.24635055707E+02 -0.15936691660E+01 -0.13167020608E+02  0.27978495006E+02  0.00000000000E+00 0. -1.
</event>
<event>
 8    1  0.4205029E-010  0.2994988E+03  0.7561462E-02  0.1085491E+00
         -1   -1    0    0    0  501 -0.00000000000E+00  0.00000000000E+00  0.10117336517E+04  0.10117336517E+04  0.00000000000E+00 0.  1.
          1   -1    0    0  501    0  0.00000000000E+00 -0.00000000000E+00 -0.14158015342E+03  0.14158015342E+03  0.00000000000E+00 0. -1.
         25    2    1    2    0    0 -0.19579213214E+03 -0.20776883588E+03  0.79151121780E+03  0.85067045261E+03  0.12509101838E+03 0.  0.
         23    2    1    2    0    0  0.19579213214E+03  0.20776883588E+03  0.78642280524E+02  0.30264335255E+03  0.62497539042E+02 0.  0.
          5    1    3    3  502    0 -0.29885487350E+01 -0.79701787079E+02  0.22033607163E+03  0.23436459449E+03  0.41800000000E+01 0. -1.
         -5    1    3    3    0  502 -0.19280358340E+03 -0.12806704880E+03  0.57117514616E+03  0.61630585812E+03  0.41800000000E+01 0. -1.
        -11    1    4    4    0    0  0.17653618643E+03  0.16922394487E+03  0.85405419663E+02  0.25902867475E+03  0.00000000000E+00 0.  1.
         11    1    4    4    0    0  0.19255945704E+02  0.38544891014E+02 -0.67631391391E+01  0.43614677796E+02  0.00000000000E+00 0. -1.
</event>
<event>
 7    1  0.4205029E-010  0.1659802E+03  0.7561462E-02  0.1182106E+00
          1   -1    0    0  501    0  0.00000000000E+00  0.00000000000E+00  0.70626624690E+02  0.70626624690E+02  0.00000000000E+00 0. -1.
         -1   -1    0    0    0  501 -0.00000000000E+00 -0.00000000000E+00 -0.93115100050E+03  0.93115100050E+03  0.00000000000E+00 0.  1.
         25    2    1    2    0    0  0.94556566113E+02  0.98395581300E+02 -0.87755522912E+02  0.20486837327E+03  0.12508950376E+03 0.  0.
          5    1    3    3  502    0  0.70415343062E+02  0.60037820608E+02 -0.11815413212E+03  0.15013571120E+03  0.41800000000E+01 0.  1.
         -5    1    3    3    0  502  0.24141223052E+02  0.38357760692E+02  0.30398609205E+02  0.54732662070E+02  0.41800000000E+01 0.  1.
        -11    1    1    2    0    0 -0.12627139685E+03 -0.49694420708E+02 -0.50569900007E+03  0.52358903711E+03  0.00000000000E+00 0. -1.
         11    1    1    2    0    0  0.31714830739E+02 -0.48701160592E+02 -0.26706985283E+03  0.27332021481E+03  0.00000000000E+00 0.  1.
</event>
<event>
 8    1  0.4205029E-010  0.2473924E+03  0.7561462E-02  0.1114964E+00
          2   -1    0    0  501    0  0.00000000000E+00  0.00000000000E+00  0.58522090408E+03  0.58522090408E+03  0.00000000000E+00 0. -1.
         -2   -1    0    0    0  501 -0.00000000000E+00 -0.00000000000E+00 -0.16924671276E+03  0.16924671276E+03  0.00000000000E+00 0.  1.
         25    2    1    2    0    0 -0.22309934472E+03  0.36439939969E+02  0.43067315650E+03  0.50222090158E+03  0.12508109137E+03 0.  0.
         23    2    1    2    0    0  0.22309934472E+03 -0.36439939969E+02 -0.14698965179E+02  0.25224671526E+03  0.11095566205E+03 0.  0.
          5    1    3    3  502    0 -0.54579742144E+02  0.65047584265E+02  0.17624711712E+03  0.19567998151E+03  0.41800000000E+01 0. -1.
         -5    1    3    3    0  502 -0.16851960257E+03 -0.28607644296E+02  0.25442603938E+03  0.30654092007E+03  0.41800000000E+01 0. -1.
        -11    1    4    4    0    0  0.13371617210E+02  0.17701555252E+02  0.23481957394E+02  0.32303986259E+02  0.00000000000E+00 0. -1.
         11    1    4    4    0    0  0.20972772751E+03 -0.54141495221E+02 -0.38180922573E+02  0.21994272900E+03  0.00000000000E+00 0.  1.
</event>
<event>
 8    1  0.4205029E-010  0.1946242E+03  0.7561462E-02  0.1154355E+00
          1   -1    0    0  501    0  0.00000000000E+00  0.00000000000E+00  0.12329929744E+04  0.12329929744E+04  0.00000000000E+00 0. -1.
         -1   -1    0    0    0  501 -0.00000000000E+00 -0.00000000000E+00 -0.51697171024E+02  0.51697171024E+02  0.00000000000E+00 0.  1.
         25    2    1    2    0    0  0.11512808469E+03 -0.11391373194E+03  0.99156875692E+03  0.10124660520E+04  0.12509233638E+03 0.  0.
         23    2    1    2    0    0 -0.11512808469E+03  0.11391373194E+03  0.18972704642E+03  0.27222409335E+03  0.10898986489E+03 0.  0.
          5    1    3    3  502    0  0.13527504392E+03 -0.80476417232E+02  0.88493266546E+03  0.89883206776E+03  0.41800000000E+01 0. -1.
         -5    1    3    3    0  502 -0.20146959229E+02 -0.33437314704E+02  0.10663609147E+03  0.11363398428E+03  0.41800000000E+01 0. -1.
        -11    1    4    4    0    0 -0.90394734152E+02  0.16328197176E+02  0.68152634342E+02  0.11437919196E+03  0.00000000000E+00 0.  1.
         11    1    4    4    0    0 -0.24733350539E+02  0.97585534760E+02  0.12157441208E+03  0.15784490139E+03  0.00000000000E+00 0. -1.
</event>
<event>
 8    1  0.4205029E-010  0.1516322E+03  0.7561462E-02  0.1198482E+00
          3   -1    0    0  501    0  0.00000000000E+00  0.00000000000E+00  0.28598960851E+03  0.28598960851E+03  0.00000000000E+00 0. -1.
         -3   -1    0    0    0  501 -0.00000000000E+00 -0.00000000000E+00 -0.16285384561E+03  0.16285384561E+03  0.00000000000E+00 0.  1.
         25    2    1    2    0    0 -0.95898777325E+02 -0.94464316885E+02  0.20408412728E+03  0.27462328729E+03  0.12509011255E+03 0.  0.
         23    2    1    2    0    0  0.95898777325E+02  0.94464316885E+02 -0.80948364376E+02  0.17422016683E+03  0.75365417658E+02 0.  0.
          5    1    3    3  502    0 -0.62077883954E+02 -0.17174332336E+02  0.17294512406E+03  0.18459715519E+03  0.41800000000E+01 0. -1.
         -5    1    3    3    0  502 -0.33820893371E+02 -0.77289984550E+02  0.31139003220E+02  0.90026132104E+02  0.41800000000E+01 0. -1.
        -11    1    4    4    0    0  0.86497748424E+02  0.33809356815E+02 -0.47266136030E+02  0.10420662506E+03  0.00000000000E+00 0.  1.
         11    1    4    4    0    0  0.94010289015E+01  0.60654960070E+02 -0.33682228345E+02  0.70013541774E+02  0.00000000000E+00 0. -1.
</event>
<event>
 8    1  0.4205029E-010  0.1488986E+03  0.7561462E-02  0.1201833E+00
          1   -1    0    0  501    0  0.00000000000E+00  0.00000000000E+00  0.10168301644E+03  0.10168301644E+03  0.00000000000E+00 0. -1.
         -1   -1    0    0    0  501 -0.00000000000E+00 -0.00000000000E+00 -0.33915418457E+03  0.33915418457E+03  0.00000000000E+00 0.  1.
         25    2    1    2    0    0  0.79650494343E+02  0.91116304145E+02 -0.21211176767E+03  0.27438134427E+03  0.12508931998E+03 0.  0.
         23    2    1    2    0    0 -0.79650494343E+02 -0.91116304145E+02 -0.25359400462E+02  0.16645585673E+03  0.11143639854E+03 0.  0.
          5    1    3    3  502    0 -0.30367095614E+00 -0.28590149911E+02 -0.48139220045E+02  0.56145754911E+02  0.41800000000E+01 0. -1.
         -5    1    3    3    0  502  0.79954165299E+02  0.11970645406E+03 -0.16397254762E+03  0.21823558936E+03  0.41800000000E+01 0. -1.
        -11    1    4    4    0    0 -0.58854372754E+02 -0.84670813298E+02 -0.64528425721E+02  0.12164251536E+03  0.00000000000E+00 0.  1.
         11    1    4    4    0    0 -0.20796121589E+02 -0.64454908471E+01  0.39169025260E+02  0.44813341375E+02  0.00000000000E+00 0. -1.
</event>
<event>
 8    1  0.4205029E-010  0.1126423E+03  0.7561462E-02  0.1255754E+00
          2   -1    0    0  501    0  0.00000000000E+00  0.00000000000E+00  0.11638919779E+03  0.11638919779E+03  0.00000000000E+00 0. -1.
         -2   -1    0    0    0  501 -0.00000000000E+00 -0.00000000000E+00 -0.12260065231E+03  0.12260065231E+03  0.00000000000E+00 0.  1.
         25    2    1    2    0    0 -0.59886077591E+02  0.33254632275E+02  0.74066347635E+01  0.14281175404E+03  0.12509246978E+03 0.  0.
         23    2    1    2    0    0  0.59886077591E+02 -0.33254632275E+02 -0.13618089280E+02  0.96178096061E+02  0.66125342716E+02 0.  0.
          5    1    3    3  502    0 -0.78363288857E+02  0.60204547186E+02  0.29420465477E+02  0.10319122410E+03  0.41800000000E+01 0. -1.
         -5    1    3    3    0  502  0.18477211266E+02 -0.26949914911E+02 -0.22013830714E+02  0.39620529938E+02  0.41800000000E+01 0. -1.
        -11    1    4    4    0    0 -0.30771314921E+01 -0.30242755640E+02 -0.13201013102E+02  0.33141511037E+02  0.00000000000E+00 0. -1.
         11    1    4    4    0    0  0.62963209083E+02 -0.30118766349E+01 -0.41707617783E+00  0.63036585024E+02  0.00000000000E+00 0.  1.
</event>
<event>
 7    1  0.4205029E-010  0.1557650E+03  0.7561462E-02  0.1193563E+00
          1   -1    0    0  501    0  0.00000000000E+00  0.00000000000E+00  0.60279337770E+02  0.60279337770E+02  0.00000000000E+00 0. -1.
         -1   -1    0    0    0  501 -0.00000000000E+00 -0.00000000000E+00 -0.11382430247E+04  0.11382430247E+04  0.00000000000E+00 0.  1.
         25    2    1    2    0    0  0.35904476697E+02  0.36579783107E+02 -0.60619747807E+03  0.62108619479E+03  0.12508184107E+03 0.  0.
          5    1    3    3  502    0  0.49253363201E+01  0.53867902142E+02 -0.56032510498E+03  0.56294556174E+03  0.41800000000E+01 0.  1.
         -5    1    3    3    0  502  0.30979140377E+02 -0.17288119035E+02 -0.45872373092E+02  0.58140633049E+02  0.41800000000E+01 0.  1.
        -11    1    1    2    0    0 -0.69960449648E+02  0.76376706463E+02 -0.44441960589E+03  0.45632954310E+03  0.00000000000E+00 0.  1.
         11    1    1    2    0    0  0.34055972951E+02 -0.11295648957E+03 -0.27346603007E+02  0.12110662462E+03  0.00000000000E+00 0. -1.
</event>
<event>
 8    1  0.4205029E-010  0.1423368E+03  0.7561462E-02  0.1210219E+00
         -2   -1    0    0    0  501 -0.00000000000E+00  0.00000000000E+00  0.56170026609E+02  0.56170026609E+02  0.00000000000E+00 0.  1.
          2   -1    0    0  501    0  0.00000000000E+00 -0.00000000000E+00 -0.53937412814E+03  0.53937412814E+03  0.00000000000E+00 0. -1.
         25    2    1    2    0    0  0.11823288771E+03  0.36611942061E+02 -0.29015777826E+03  0.33935016610E+03  0.12509016313E+03 0.  0.
         23    2    1    2    0    0 -0.11823288771E+03 -0.36611942061E+02 -0.19304632327E+03  0.25619398865E+03  0.11423233717E+03 0.  0.
          5    1    3    3  502    0  0.29280556485E+02 -0.18607352642E+02 -0.19403869879E+03  0.19716002025E+03  0.41800000000E+01 0.  1.
         -5    1    3    3    0  502  0.88952331221E+02  0.55219294703E+02 -0.96119079474E+02  0.14219014585E+03  0.41800000000E+01 0.  1.
        -11    1    4    4    0    0 -0.54723004213E+02  0.21566326793E+02 -0.14743110223E+03  0.15873135654E+03  0.00000000000E+00 0.  1.
         11    1    4    4    0    0 -0.63509883492E+02 -0.58178268854E+02 -0.45615221037E+02  0.97462632113E+02  0.00000000000E+00 0. -1.
</event>
<event>
 7    1  0.4205029E-010  0.9383760E+02  0.7561462E-02  0.1293816E+00
         -1   -1    0    0    0  501 -0.00000000000E+00  0.00000000000E+00  0.43126335751E+03  0.43126335751E+03  0.00000000000E+00 0.  1.
          1   -1    0    0  501    0  0.00000000000E+00 -0.00000000000E+00 -0.23269184750E+02  0.23269184750E+02  0.00000000000E+00 0. -1.
         25    2    1    2    0    0  0.41869987017E+02 -0.40640872802E+02  0.31655264148E+03  0.34533757607E+03  0.12509072812E+03 0.  0.
          5    1    3    3  502    0  0.79302234143E+02 -0.96961571381E+01  0.25233898814E+03  0.26471739108E+03  0.41800000000E+01 0.  1.
         -5    1    3    3    0  502 -0.37432247126E+02 -0.30944715663E+02  0.64213653337E+02  0.80620184987E+02  0.41800000000E+01 0.  1.
        -11    1    1    2    0    0 -0.24046864640E+02  0.28844221820E+02  0.66295381253E+02  0.76192640110E+02  0.00000000000E+00 0.  1.
         11    1    1    2    0    0 -0.17823122378E+02  0.11796650982E+02  0.25146150024E+02  0.33002326080E+02  0.00000000000E+00 0. -1.
</event>
<event>
 8    1  0.4890773E-010  0.1041897E+03  0.7561462E-02  0.1271724E+00
          2   -1    0    0  501    0  0.00000000000E+00  0.00000000000E+00  0.76815052481E+03  0.76815052481E+03  0.00000000000E+00 0. -1.
         -2   -1    0    0    0  501 -0.00000000000E+00 -0.00000000000E+00 -0.17320136927E+02  0.17320136927E+02  0.00000000000E+00 0.  1.
         25    2    1    2    0    0  0.50870511460E+02 -0.77505482381E+01  0.37740666432E+03  0.40091296006E+03  0.12509009288E+03 0.  0.
         23    2    1    2    0    0 -0.50870511460E+02  0.77505482381E+01  0.37342372356E+03  0.38455770167E+03  0.76101699493E+02 0.  0.
          5    1    3    3  502    0  0.70462619943E+02  0.34265937896E+02  0.15547635154E+03  0.17415367810E+03  0.41800000000E+01 0. -1.
         -5    1    3    3    0  502 -0.19592108483E+02 -0.42016486134E+02  0.22193031278E+03  0.22675928196E+03  0.41800000000E+01 0. -1.
        -11    1    4    4    0    0 -0.49476843201E+02 -0.21598190768E+02  0.30991219645E+03  0.31457909874E+03  0.00000000000E+00 0. -1.
         11    1    4    4    0    0 -0.13936682593E+01  0.29348739006E+02  0.63511527112E+02  0.69978602934E+02  0.00000000000E+00 0.  1.
</event>
<event>
 8    1  0.4205029E-010  0.1139504E+03  0.7561462E-02  0.1253424E+00
          1   -1    0    0  501    0  0.00000000000E+00  0.00000000000E+00  0.99734934125E+03  0.99734934125E+03  0.00000000000E+00 0. -1.
         -1   -1    0    0    0  501 -0.00000000000E+00 -0.00000000000E+00 -0.20206897682E+02  0.20206897682E+02  0.00000000000E+00 0.  1.
         25    2    1    2    0    0  0.88185929215E+02  0.31588746229E+02  0.43758665864E+03  0.46465923933E+03  0.12510602651E+03 0.  0.
         23    2    1    2    0    0 -0.88185929215E+02 -0.31588746229E+02  0.53955578493E+03  0.55289699961E+03  0.76157994509E+02 0.  0.
          5    1    3    3  502    0  0.21744879824E+02  0.34810499141E+02  0.28415255856E+02  0.50095007879E+02  0.41800000000E+01 0. -1.
         -5    1    3    3    0  502  0.66441049391E+02 -0.32217529115E+01  0.40917140279E+03  0.41456423145E+03  0.41800000000E+01 0. -1.
        -11    1    4    4    0    0 -0.10187576706E+03 -0.25545629661E+02  0.49005559327E+03  0.50118433296E+03  0.00000000000E+00 0. -1.
         11    1    4    4    0    0  0.13689837840E+02 -0.60431165687E+01  0.49500191658E+02  0.51712666651E+02  0.00000000000E+00 0.  1.
</event>
<event>
 8    1  0.4205029E-010  0.1696756E+03  0.7561462E-02  0.1178187E+00
         -2   -1    0    0    0  501 -0.00000000000E+00  0.00000000000E+00  0.28209743645E+02  0.28209743645E+02  0.00000000000E+00 0.  1.
          2   -1    0    0  501    0  0.00000000000E+00 -0.00000000000E+00 -0.11504842369E+04  0.11504842369E+04  0.00000000000E+00 0. -1.
         25    2    1    2    0    0  0.11962008261E+03  0.35009593478E+02 -0.38620125326E+03  0.42465748013E+03  0.12509169282E+03 0.  0.
         23    2    1    2    0    0 -0.11962008261E+03 -0.35009593478E+02 -0.73607324002E+03  0.75403650044E+03  0.10598393050E+03 0.  0.
          5    1    3    3  502    0  0.39042991242E+02  0.75803799256E+02 -0.20784200831E+03  0.22469166421E+03  0.41800000000E+01 0.  1.
         -5    1    3    3    0  502  0.80577091365E+02 -0.40794205777E+02 -0.17835924496E+03  0.19996581593E+03  0.41800000000E+01 0.  1.
        -11    1    4    4    0    0 -0.10061109796E+03 -0.70812818579E+02 -0.56055635992E+03  0.57389936483E+03  0.00000000000E+00 0.  1.
         11    1    4    4    0    0 -0.19008984643E+02  0.35803225101E+02 -0.17551688010E+03  0.18013713561E+03  0.00000000000E+00 0. -1.
</event>
<event>
 8    1  0.4205029E-010  0.8388346E+02  0.7561462E-02  0.1318378E+00
          1   -1    0    0  501    0  0.00000000000E+00  0.00000000000E+00  0.18440986540E+03  0.18440986540E+03  0.00000000000E+00 0. -1.
         -1   -1    0    0    0  501 -0.00000000000E+00 -0.00000000000E+00 -0.60106768706E+02  0.60106768706E+02  0.00000000000E+00 0.  1.
         25    2    1    2    0    0 -0.84744389331E+01 -0.10519821946E+02  0.22545663025E+02  0.12782248846E+03  0.12509116223E+03 0.  0.
         23    2    1    2    0    0  0.84744389331E+01  0.10519821946E+02  0.10175743366E+03  0.11669414564E+03  0.55501941868E+02 0.  0.
          5    1    3    3  502    0  0.37713804260E+02 -0.40439877443E+02  0.41720122922E+02  0.69395646665E+02  0.41800000000E+01 0.  1.
         -5    1    3    3    0  502 -0.46188243193E+02  0.29920055497E+02 -0.19174459897E+02  0.58426841799E+02  0.41800000000E+01 0.  1.
        -11    1    4    4    0    0  0.26865902894E+02  0.22608492908E+02  0.62805206040E+02  0.71954253492E+02  0.00000000000E+00 0. -1.
         11    1    4    4    0    0 -0.18391463961E+02 -0.12088670962E+02  0.38952227624E+02  0.44739892145E+02  0.00000000000E+00 0.  1.
</event>
<event>
 8    1  0.4205029E-010  0.1037677E+03  0.7561462E-02  0.1272567E+00
          1   -1    0    0  501    0  0.00000000000E+00  0.00000000000E+00  0.37388819004E+02  0.37388819004E+02  0.00000000000E+00 0. -1.
         -1   -1    0    0    0  501 -0.00000000000E+00 -0.00000000000E+00 -0.30195164559E+03  0.30195164559E+03  0.00000000000E+00 0.  1.
         25    2    1    2    0    0  0.24805166067E+02  0.31866091834E+02 -0.14410987220E+03  0.19506411371E+03  0.12510639120E+03 0.  0.
         23    2    1    2    0    0 -0.24805166067E+02 -0.31866091834E+02 -0.12045295439E+03  0.14427635088E+03  0.68381336135E+02 0.  0.
          5    1    3    3  502    0  0.59647619120E+02 -0.23852030136E+02 -0.84611024974E+02  0.10631677081E+03  0.41800000000E+01 0.  1.
         -5    1    3    3    0  502 -0.34842453053E+02  0.55718121970E+02 -0.59498847227E+02  0.88747342901E+02  0.41800000000E+01 0.  1.
        -11    1    4    4    0    0 -0.46944342963E+02 -0.28498914269E+02 -0.69191850394E+02  0.88337260608E+02  0.00000000000E+00 0. -1.
         11    1    4    4    0    0  0.22139176896E+02 -0.33671775649E+01 -0.51261103992E+02  0.55939090276E+02  0.00000000000E+00 0.  1.
</event>
<event>
 8    1  0.4205029E-010  0.6807006E+02  0.7561462E-02  0.1366782E+00
          1   -1    0    0  501    0  0.00000000000E+00  0.00000000000E+00  0.10122418992E+03  0.10122418992E+03  0.00000000000E+00 0. -1.
         -1   -1    0    0    0  501 -0.00000000000E+00 -0.00000000000E+00 -0.17182840509E+03  0.17182840509E+03  0.00000000000E+00 0.  1.
         25    2    1    2    0    0 -0.34576883958E+02  0.91831757066E+01  0.45245248390E+02  0.13775159992E+03  0.12509388138E+03 0.  0.
         23    2    1    2    0    0  0.34576883958E+02 -0.91831757066E+01 -0.11584946356E+03  0.13530099509E+03  0.60044728707E+02 0.  0.
          5    1    3    3  502    0  0.27630260503E+02  0.69485344361E+01 -0.28936680933E+02  0.40823000008E+02  0.41800000000E+01 0. -1.
         -5    1    3    3    0  502 -0.62207144461E+02  0.22346412705E+01  0.74181929322E+02  0.96928599916E+02  0.41800000000E+01 0. -1.
        -11    1    4    4    0    0  0.12382443178E+02  0.97688200625E+01  0.61665749673E-01  0.15772081255E+02  0.00000000000E+00 0. -1.
         11    1    4    4    0    0  0.22194440780E+02 -0.18951995769E+02 -0.11591112931E+03  0.11952891384E+03  0.00000000000E+00 0.  1.
</event>
<event>
 8    1  0.4205029E-010  0.9537461E+02  0.7561462E-02  0.1290335E+00
          1   -1    0    0  501    0  0.00000000000E+00  0.00000000000E+00  0.24440281128E+03  0.24440281128E+03  0.00000000000E+00 0. -1.
         -1   -1    0    0    0  501 -0.00000000000E+00 -0.00000000000E+00 -0.58688096784E+02  0.58688096784E+02  0.00000000000E+00 0.  1.
         25    2    1    2    0    0 -0.14805444628E+02  0.15645434186E+02  0.10505423513E+03  0.16476603557E+03  0.12508986113E+03 0.  0.
         23    2    1    2    0    0  0.14805444628E+02 -0.15645434186E+02  0.80660479364E+02  0.13832487249E+03  0.11028905937E+03 0.  0.
          5    1    3    3  502    0  0.49388623862E+02 -0.19432411811E+02  0.50879355189E+02  0.73641265472E+02  0.41800000000E+01 0.  1.
         -5    1    3    3    0  502 -0.64194068491E+02  0.35077845997E+02  0.54174879940E+02  0.91124770099E+02  0.41800000000E+01 0.  1.
        -11    1    4    4    0    0  0.34125664285E+02 -0.25452230091E+02 -0.11137353984E+02  0.44004745577E+02  0.00000000000E+00 0.  1.
         11    1    4    4    0    0 -0.19320219657E+02  0.98067959051E+01  0.91797833349E+02  0.94320126914E+02  0.00000000000E+00 0. -1.
</event>
<event>
 8    1  0.4205029E-010  0.9558473E+02  0.7561462E-02  0.1289865E+00
         -3   -1    0    0    0  501 -0.00000000000E+00  0.00000000000E+00  0.14210649782E+03  0.14210649782E+03  0.00000000000E+00 0.  1.
          3   -1    0    0  501    0  0.00000000000E+00 -0.00000000000E+00 -0.81182875844E+02  0.81182875844E+02  0.00000000000E+00 0. -1.
         25    2    1    2    0    0 -0.11889979402E+02  0.94812575758E+01  0.26720637857E+01  0.12605098945E+03  0.12510174324E+03 0.  0.
         23    2    1    2    0    0  0.11889979402E+02 -0.94812575758E+01  0.58251558187E+02  0.97238384205E+02  0.76359632505E+02 0.  0.
          5    1    3    3  502    0 -0.45091238218E+02 -0.43600214990E+02  0.64252555113E+01  0.63189831616E+02  0.41800000000E+01 0.  1.
         -5    1    3    3    0  502  0.33201258816E+02  0.53081472566E+02 -0.37531917256E+01  0.62861157839E+02  0.41800000000E+01 0.  1.
        -11    1    4    4    0    0  0.32164051561E+01  0.27441971912E+02  0.51879835387E+02  0.58778604988E+02  0.00000000000E+00 0.  1.
         11    1    4    4    0    0  0.86735742459E+01 -0.36923229488E+02  0.63717227994E+01  0.38459779217E+02  0.00000000000E+00 0. -1.
</event>
<event>
 8    1  0.4205029E-010  0.1265404E+03  0.7561462E-02  0.1232681E+00
         -3   -1    0    0    0  501 -0.00000000000E+00  0.00000000000E+00  0.27672228386E+02  0.27672228386E+02  0.00000000000E+00 0.  1.
          3   -1    0    0  501    0  0.00000000000E+00 -0.00000000000E+00 -0.95063010687E+03  0.95063010687E+03  0.00000000000E+00 0. -1.
         25    2    1    2    0    0 -0.10554729131E+03 -0.18528469001E+02 -0.71378374181E+03  0.73254276308E+03  0.12509250497E+03 0.  0.
         23    2    1    2    0    0  0.10554729131E+03  0.18528469001E+02 -0.20917413667E+03  0.24575957217E+03  0.71836014627E+02 0.  0.
          5    1    3    3  502    0 -0.95638464573E+01 -0.42514347378E+02 -0.81138469294E+02  0.92194687979E+02  0.41800000000E+01 0. -1.
         -5    1    3    3    0  502 -0.95983444851E+02  0.23985878377E+02 -0.63264527252E+03  0.64034807510E+03  0.41800000000E+01 0. -1.
        -11    1    4    4    0    0  0.72374661225E+02  0.24828679668E+02 -0.74047464938E+02  0.10647808218E+03  0.00000000000E+00 0.  1.
         11    1    4    4    0    0  0.33172630084E+02 -0.63002106672E+01 -0.13512667173E+03  0.13928148999E+03  0.00000000000E+00 0. -1.
</event>
<event>
 8    1  0.4205029E-010  0.1150357E+03  0.7561462E-02  0.1251519E+00
          2   -1    0    0  501    0  0.00000000000E+00  0.00000000000E+00  0.75054484842E+03  0.75054484842E+03  0.00000000000E+00 0. -1.
         -2   -1    0    0    0  501 -0.00000000000E+00 -0.00000000000E+00 -0.24120492347E+02  0.24120492347E+02  0.00000000000E+00 0.  1.
         25    2    1    2    0    0  0.15034607627E+02 -0.75497340153E+02  0.56837561524E+03  0.58704801928E+03  0.12509456083E+03 0.  0.
         23    2    1    2    0    0 -0.15034607627E+02  0.75497340153E+02  0.15804874083E+03  0.18761732148E+03  0.65535998082E+02 0.  0.
          5    1    3    3  502    0  0.61663194385E+02 -0.69340088443E+02  0.28470186843E+03  0.29947124018E+03  0.41800000000E+01 0. -1.
         -5    1    3    3    0  502 -0.46628586758E+02 -0.61572517106E+01  0.28367374681E+03  0.28757677910E+03  0.41800000000E+01 0. -1.
        -11    1    4    4    0    0  0.15382200689E+02  0.41957675799E+02  0.35822029855E+02  0.57273697972E+02  0.00000000000E+00 0.  1.
         11    1    4    4    0    0 -0.30416808316E+02  0.33539664354E+02  0.12222671098E+03  0.13034362351E+03  0.00000000000E+00 0. -1.
</event>
<event>
 8    1  0.4205029E-010  0.1372759E+03  0.7561462E-02  0.1217042E+00
          2   -1    0    0  501    0  0.00000000000E+00  0.00000000000E+00  0.10805396068E+03  0.10805396068E+03  0.00000000000E+00 0. -1.
         -2   -1    0    0    0  501 -0.00000000000E+00 -0.00000000000E+00 -0.29056506689E+03  0.29056506689E+03  0.00000000000E+00 0.  1.
         25    2    1    2    0    0  0.26723260691E+02 -0.10376538517E+03 -0.50015127517E+01  0.16478457411E+03  0.12509017912E+03 0.  0.
         23    2    1    2    0    0 -0.26723260691E+02  0.10376538517E+03 -0.17750959346E+03  0.23383445346E+03  0.10810877871E+03 0.  0.
          5    1    3    3  502    0  0.20725196035E+02 -0.28214646939E+01  0.46549419906E+02  0.51203664979E+02  0.41800000000E+01 0.  1.
         -5    1    3    3    0  502  0.59980646568E+01 -0.10094392047E+03 -0.51550932657E+02  0.11358090913E+03  0.41800000000E+01 0.  1.
        -11    1    4    4    0    0  0.39574735840E+02  0.17646148785E+02 -0.56107929924E+02  0.70891791374E+02  0.00000000000E+00 0.  1.
         11    1    4    4    0    0 -0.66297996532E+02  0.86119236383E+02 -0.12140166353E+03  0.16294266209E+03  0.00000000000E+00 0. -1.
</event>
<event>
 8    1  0.4205029E-010  0.1236057E+03  0.7561462E-02  0.1237265E+00
         -2   -1    0    0    0  501 -0.00000000000E+00  0.00000000000E+00  0.29546765007E+03  0.29546765007E+03  0.00000000000E+00 0.  1.
          2   -1    0    0  501    0  0.00000000000E+00 -0.00000000000E+00 -0.73932244497E+02  0.73932244497E+02  0.00000000000E+00 0. -1.
         25    2    1    2    0    0 -0.59715540490E+02  0.71052881831E+02  0.19103077176E+03  0.24648916650E+03  0.12509874359E+03 0.  0.
         23    2    1    2    0    0  0.59715540490E+02 -0.71052881831E+02  0.30504633812E+02  0.12291072807E+03  0.74579196820E+02 0.  0.
          5    1    3    3  502    0 -0.68441964655E+01  0.75051852984E+02  0.17556005331E+03  0.19109795493E+03  0.41800000000E+01 0. -1.
         -5    1    3    3    0  502 -0.52871344025E+02 -0.39989711528E+01  0.15470718454E+02  0.55391211566E+02  0.41800000000E+01 0. -1.
        -11    1    4    4    0    0  0.51874164719E+02 -0.86705527267E+02  0.29993524363E+02  0.10539634210E+03  0.00000000000E+00 0.  1.
         11    1    4    4    0    0  0.78413757717E+01  0.15652645436E+02  0.51110944811E+00  0.17514385973E+02  0.00000000000E+00 0. -1.
</event>
<event>
 8    1  0.4205029E-010  0.1056996E+03  0.7561462E-02  0.1268747E+00
         -1   -1    0    0    0  501 -0.00000000000E+00  0.00000000000E+00  0.16463136143E+03  0.16463136143E+03  0.00000000000E+00 0.  1.
          1   -1    0    0  501    0  0.00000000000E+00 -0.00000000000E+00 -0.12008120566E+03  0.12008120566E+03  0.00000000000E+00 0. -1.
         25    2    1    2    0    0  0.39815700156E+02 -0.14375907842E+02 -0.35039731767E+02  0.13663083733E+03  0.12509295025E+03 0.  0.
         23    2    1    2    0    0 -0.39815700156E+02  0.14375907842E+02  0.79589887534E+02  0.14808172976E+03  0.11748060175E+03 0.  0.
          5    1    3    3  502    0 -0.52583733437E+01 -0.58003680546E+02  0.10068856661E+02  0.59253115712E+02  0.41800000000E+01 0. -1.
         -5    1    3    3    0  502  0.45074073500E+02  0.43627772704E+02 -0.45108588428E+02  0.77377721619E+02  0.41800000000E+01 0. -1.
        -11    1    4    4    0    0 -0.60509101730E+02 -0.63615229078E+01 -0.25274517790E+01  0.60895060377E+02  0.00000000000E+00 0. -1.
         11    1    4    4    0    0  0.20693401574E+02  0.20737430750E+02  0.82117339313E+02  0.87186669386E+02  0.00000000000E+00 0.  1.
</event>
<event>
 8    1  0.4205029E-010  0.9625295E+02  0.7561462E-02  0.1288379E+00
         -4   -1    0    0    0  501 -0.00000000000E+00  0.00000000000E+00  0.72587596180E+02  0.72587596180E+02  0.00000000000E+00 0.  1.
          4   -1    0    0  501    0  0.00000000000E+00 -0.00000000000E+00 -0.16601892499E+03  0.16601892499E+03  0.00000000000E+00 0. -1.
         25    2    1    2    0    0 -0.26181734496E+02 -0.19664632440E+02 -0.91569327292E+02  0.15844574320E+03  0.12509168977E+03 0.  0.
         23    2    1    2    0    0  0.26181734496E+02  0.19664632440E+02 -0.18620015234E+01  0.80160777972E+02  0.73144393395E+02 0.  0.
          5    1    3    3  502    0 -0.75485733242E+02 -0.17306719304E+02 -0.69781211803E+02  0.10432884729E+03  0.41800000000E+01 0. -1.
         -5    1    3    3    0  502  0.49303998746E+02 -0.23579131360E+01 -0.21788115489E+02  0.54116895913E+02  0.41800000000E+01 0. -1.
        -11    1    4    4    0    0  0.43244964125E+02  0.21418995020E+02  0.20114228879E+02  0.52282716774E+02  0.00000000000E+00 0.  1.
         11    1    4    4    0    0 -0.17063229630E+02 -0.17543625800E+01 -0.21976230402E+02  0.27878061198E+02  0.00000000000E+00 0. -1.
</event>
<event>
 8    1  0.4205029E-010  0.1294361E+03  0.7561462E-02  0.1228295E+00
          2   -1    0    0  501    0  0.00000000000E+00  0.00000000000E+00  0.27368450264E+03  0.27368450264E+03  0.00000000000E+00 0. -1.
         -2   -1    0    0    0  501 -0.00000000000E+00 -0.00000000000E+00 -0.11885697863E+03  0.11885697863E+03  0.00000000000E+00 0.  1.
         25    2    1    2    0    0 -0.33868226589E+02  0.10830499923E+03 -0.45254800374E+01  0.16895965087E+03  0.12509937659E+03 0.  0.
         23    2    1    2    0    0  0.33868226589E+02 -0.10830499923E+03  0.15935300406E+03  0.22358183040E+03  0.10825167598E+03 0.  0.
          5    1    3    3  502    0  0.25198763861E+02  0.47091985893E+02 -0.49243142994E+02  0.72766698203E+02  0.41800000000E+01 0.  1.
         -5    1    3    3    0  502 -0.59066990451E+02  0.61213013340E+02  0.44717662957E+02  0.96192952670E+02  0.41800000000E+01 0.  1.
        -11    1    4    4    0    0  0.37873822294E+02 -0.55594738674E+02  0.13723964589E+02  0.68655288124E+02  0.00000000000E+00 0.  1.
         11    1    4    4    0    0 -0.40055957042E+01 -0.52710260559E+02  0.14562903947E+03  0.15492654227E+03  0.00000000000E+00 0. -1.
</event>
<event>
 7    1  0.4205029E-010  0.1012355E+03  0.7561462E-02  0.1277719E+00
          1   -1    0    0  501    0  0.00000000000E+00  0.00000000000E+00  0.29479883653E+03  0.29479883653E+03  0.00000000000E+00 0. -1.
         -1   -1    0    0    0  501 -0.00000000000E+00 -0.00000000000E+00 -0.59135778877E+02  0.59135778877E+02  0.00000000000E+00 0.  1.
         25    2    1    2    0    0 -0.82601686743E+02  0.47559478953E+00  0.19876132069E+03  0.24895722250E+03  0.12510144358E+03 0.  0.
          5    1    3    3  502    0 -0.90623340138E+02  0.97477343321E+01  0.59130185497E+02  0.10872653466E+03  0.41800000000E+01 0. -1.
         -5    1    3    3    0  502  0.80216533949E+01 -0.92721395425E+01  0.13963113519E+03  0.14023068784E+03  0.41800000000E+01 0. -1.
        -11    1    1    2    0    0  0.29076000718E+02 -0.25972993274E+02  0.14968695665E+02  0.41762088636E+02  0.00000000000E+00 0.  1.
         11    1    1    2    0    0  0.53525686025E+02  0.25497398484E+02  0.21933041294E+02  0.63215304273E+02  0.00000000000E+00 0. -1.
</event>
<event>
 8    1  0.4205029E-010  0.9169435E+02  0.7561462E-02  0.1298800E+00
          1   -1    0    0  501    0  0.00000000000E+00  0.00000000000E+00  0.49618292902E+02  0.49618292902E+02  0.00000000000E+00 0. -1.
         -1   -1    0    0    0  501 -0.00000000000E+00 -0.00000000000E+00 -0.29753918881E+03  0.29753918881E+03  0.00000000000E+00 0.  1.
         25    2    1    2    0    0  0.11159543040E+01 -0.67490003004E+02 -0.11491156347E+03  0.18277943805E+03  0.12509000637E+03 0.  0.
         23    2    1    2    0    0 -0.11159543040E+01  0.67490003004E+02 -0.13300933244E+03  0.16437804367E+03  0.69083376177E+02 0.  0.
          5    1    3    3  502    0  0.41630387891E+02 -0.33964953602E+02  0.26179021683E+01  0.53953990408E+02  0.41800000000E+01 0. -1.
         -5    1    3    3    0  502 -0.40514433587E+02 -0.33525049401E+02 -0.11752946564E+03  0.12882544764E+03  0.41800000000E+01 0. -1.
        -11    1    4    4    0    0 -0.17192499304E+02  0.18826204910E+02 -0.10050676870E+03  0.10369001195E+03  0.00000000000E+00 0.  1.
         11    1    4    4    0    0  0.16076545000E+02  0.48663798094E+02 -0.32502563742E+02  0.60688031719E+02  0.00000000000E+00 0. -1.
</event>
<event>
 7    1  0.4205029E-010  0.1012754E+03  0.7561462E-02  0.1277637E+00
          2   -1    0    0  501    0  0.00000000000E+00  0.00000000000E+00  0.46367307833E+02  0.46367307833E+02  0.00000000000E+00 0. -1.
         -2   -1    0    0    0  501 -0.00000000000E+00 -0.00000000000E+00 -0.24240635743E+03  0.24240635743E+03  0.00000000000E+00 0.  1.
         25    2    1    2    0    0 -0.48464140602E+02 -0.38234569722E+02 -0.16601769125E+03  0.21684060437E+03  0.12508924274E+03 0.  0.
          5    1    3    3  502    0 -0.24492740658E+02  0.45743270392E+02 -0.62735723508E+02  0.81520454704E+02  0.41800000000E+01 0.  1.
         -5    1    3    3    0  502 -0.23971399944E+02 -0.83977840114E+02 -0.10328196774E+03  0.13532014967E+03  0.41800000000E+01 0.  1.
        -11    1    1    2    0    0  0.16327646245E+02  0.20987577747E+02 -0.34618248220E+01  0.26815194996E+02  0.00000000000E+00 0.  1.
         11    1    1    2    0    0  0.32136494357E+02  0.17246991975E+02 -0.26559533524E+02  0.45117865894E+02  0.00000000000E+00 0. -1.
</event>
<event>
 8    1  0.4205029E-010  0.2475885E+03  0.7561462E-02  0.1114838E+00
         -1   -1    0    0    0  501 -0.00000000000E+00  0.00000000000E+00  0.66844473973E+02  0.66844473973E+02  0.00000000000E+00 0. -1.
          1   -1    0    0  501    0  0.00000000000E+00 -0.00000000000E+00 -0.10322216378E+04  0.10322216378E+04  0.00000000000E+00 0.  1.
         25    2    1    2    0    0 -0.35637093758E+02 -0.22778274694E+03 -0.59329222414E+03  0.64869078539E+03  0.12509632115E+03 0.  0.
         23    2    1    2    0    0  0.35637093758E+02  0.22778274694E+03 -0.37208493970E+03  0.45037532640E+03  0.10599882086E+03 0.  0.
          5    1    3    3  502    0 -0.59005047483E+01 -0.20391840188E+03 -0.56588430242E+03  0.60154804189E+03  0.41800000000E+01 0. -1.
         -5    1    3    3    0  502 -0.29736589010E+02 -0.23864345058E+02 -0.27407921722E+02  0.47142743494E+02  0.41800000000E+01 0. -1.
        -11    1    4    4    0    0 -0.26913740926E+02  0.15268008200E+03 -0.24714483054E+03  0.29174667805E+03  0.00000000000E+00 0.  1.
         11    1    4    4    0    0  0.62550834684E+02  0.75102664940E+02 -0.12494010917E+03  0.15862864836E+03  0.00000000000E+00 0. -1.
</event>
<event>
 8    1  0.4205029E-010  0.1137484E+03  0.7561462E-02  0.1253782E+00
         -2   -1    0    0    0  501 -0.00000000000E+00  0.00000000000E+00  0.34461995277E+02  0.34461995277E+02  0.00000000000E+00 0. -1.
          2   -1    0    0  501    0  0.00000000000E+00 -0.00000000000E+00 -0.13487456302E+04  0.13487456302E+04  0.00000000000E+00 0.  1.
         25    2    1    2    0    0 -0.39937605101E+02 -0.61337356787E+02 -0.12493389326E+04  0.12577173756E+04  0.12509174546E+03 0.  0.
         23    2    1    2    0    0  0.39937605101E+02  0.61337356787E+02 -0.64944702334E+02  0.12549024987E+03  0.78566562939E+02 0.  0.
          5    1    3    3  502    0 -0.50165110732E+02 -0.83874963798E+02 -0.11786882445E+04  0.11827404610E+04  0.41800000000E+01 0. -1.
         -5    1    3    3    0  502  0.10227505631E+02  0.22537607011E+02 -0.70650688058E+02  0.74976914609E+02  0.41800000000E+01 0. -1.
        -11    1    4    4    0    0  0.80334711123E+01  0.70833659857E+02 -0.56984331503E+02  0.91264221158E+02  0.00000000000E+00 0. -1.
         11    1    4    4    0    0  0.31904133989E+02 -0.94963030694E+01 -0.79603708314E+01  0.34226028711E+02  0.00000000000E+00 0.  1.
</event>
<event>
 7    1  0.4205029E-010  0.7861297E+02  0.7561462E-02  0.1333034E+00
          2   -1    0    0  501    0  0.00000000000E+00  0.00000000000E+00  0.46364087955E+03  0.46364087955E+03  0.00000000000E+00 0. -1.
         -2   -1    0    0    0  501 -0.00000000000E+00 -0.00000000000E+00 -0.30729511209E+02  0.30729511209E+02  0.00000000000E+00 0.  1.
         25    2    1    2    0    0  0.20152003437E+02 -0.57701370248E+02  0.39206365742E+03  0.41604651052E+03  0.12508091810E+03 0.  0.
          5    1    3    3  502    0 -0.27205920115E+02 -0.25268140683E+02  0.26081776128E+02  0.45567230209E+02  0.41800000000E+01 0. -1.
         -5    1    3    3    0  502  0.47357923552E+02 -0.32433229565E+02  0.36598188130E+03  0.37047928031E+03  0.41800000000E+01 0. -1.
        -11    1    1    2    0    0 -0.90718376640E+01  0.42741559959E+02  0.14448017935E+02  0.46020478144E+02  0.00000000000E+00 0.  1.
         11    1    1    2    0    0 -0.11080165773E+02  0.14959810289E+02  0.26399692984E+02  0.32303402097E+02  0.00000000000E+00 0. -1.
</event>
<event>
 8    1  0.4205029E-010  0.1258176E+03  0.7561462E-02  0.1233797E+00
         -3   -1    0    0    0  501 -0.00000000000E+00  0.00000000000E+00  0.32248327728E+02  0.32248327728E+02  0.00000000000E+00 0.  1.
          3   -1    0    0  501    0  0.00000000000E+00 -0.00000000000E+00 -0.70140289579E+03  0.70140289579E+03  0.00000000000E+00 0. -1.
         25    2    1    2    0    0  0.65412751015E+02 -0.72004900517E+02 -0.35348099037E+03  0.38737486154E+03  0.12508772565E+03 0.  0.
         23    2    1    2    0    0 -0.65412751015E+02  0.72004900517E+02 -0.31567357769E+03  0.34627636197E+03  0.10389406872E+03 0.  0.
          5    1    3    3  502    0 -0.25134075005E+01 -0.77210322016E+02 -0.10981447354E+03  0.13432960226E+03  0.41800000000E+01 0.  1.
         -5    1    3    3    0  502  0.67926158515E+02  0.52054214985E+01 -0.24366651683E+03  0.25304525929E+03  0.41800000000E+01 0.  1.
        -11    1    4    4    0    0 -0.37812998710E+02  0.68436382208E+02 -0.30748056702E+03  0.31726591430E+03  0.00000000000E+00 0. -1.
         11    1    4    4    0    0 -0.27599752305E+02  0.35685183096E+01 -0.81930106645E+01  0.29010447669E+02  0.00000000000E+00 0.  1.
</event>
<event>
 7    1  0.4205029E-010  0.1206775E+03  0.7561462E-02  0.1241983E+00
          2   -1    0    0  501    0  0.00000000000E+00  0.00000000000E+00  0.22657497650E+02  0.22657497650E+02  0.00000000000E+00 0. -1.
         -2   -1    0    0    0  501 -0.00000000000E+00 -0.00000000000E+00 -0.69853259315E+03  0.69853259315E+03  0.00000000000E+00 0.  1.
         25    2    1    2    0    0  0.78100716403E+02  0.30472668080E+02 -0.44614160003E+03  0.47086983284E+03  0.12509103405E+03 0.  0.
          5    1    3    3  502    0  0.15573957861E+02 -0.44726987510E+02 -0.93498548858E+02  0.10489281488E+03  0.41800000000E+01 0.  1.
         -5    1    3    3    0  502  0.62526758542E+02  0.75199655590E+02 -0.35264305117E+03  0.36597701796E+03  0.41800000000E+01 0.  1.
        -11    1    1    2    0    0 -0.28731440685E+02  0.11670912110E+02 -0.46170896541E+02  0.55618859757E+02  0.00000000000E+00 0. -1.
         11    1    1    2    0    0 -0.49369275718E+02 -0.42143580190E+02 -0.18356259893E+03  0.19470139820E+03  0.00000000000E+00 0.  1.
</event>
<event>
 7    1  0.4205029E-010  0.1555725E+03  0.7561462E-02  0.1193788E+00
          1   -1    0    0  501    0  0.00000000000E+00  0.00000000000E+00  0.14622352002E+03  0.14622352002E+03  0.00000000000E+00 0. -1.
         -1   -1    0    0    0  501 -0.00000000000E+00 -0.00000000000E+00 -0.19369227958E+03  0.19369227958E+03  0.00000000000E+00 0.  1.
         25    2    1    2    0    0  0.66222986884E+02  0.11490138385E+03 -0.71906560193E+02  0.19597432350E+03  0.12509024771E+03 0.  0.
          5    1    3    3  502    0  0.70421325941E+02  0.13783429152E+03 -0.47491383006E+02  0.16195789244E+03  0.41800000000E+01 0.  1.
         -5    1    3    3    0  502 -0.41983390564E+01 -0.22932907669E+02 -0.24415177187E+02  0.34016431060E+02  0.41800000000E+01 0.  1.
        -11    1    1    2    0    0 -0.24807209252E+02 -0.43705521216E+02 -0.15242648003E+02  0.52515793184E+02  0.00000000000E+00 0.  1.
         11    1    1    2    0    0 -0.41415777633E+02 -0.71195862631E+02  0.39680448628E+02  0.91425682912E+02  0.00000000000E+00 0. -1.
</event>
<event>
 8    1  0.4205029E-010  0.1253158E+03  0.7561462E-02  0.1234577E+00
          1   -1    0    0  501    0  0.00000000000E+00  0.00000000000E+00  0.55433963792E+03  0.55433963792E+03  0.00000000000E+00 0. -1.
         -1   -1    0    0    0  501 -0.00000000000E+00 -0.00000000000E+00 -0.41243695264E+02  0.41243695264E+02  0.00000000000E+00 0.  1.
         25    2    1    2    0    0 -0.57884327016E+02 -0.35392113234E+02  0.14194182430E+03  0.20099238266E+03  0.12508900595E+03 0.  0.
         23    2    1    2    0    0  0.57884327016E+02  0.35392113234E+02  0.37115411836E+03  0.39459095052E+03  0.11551381591E+03 0.  0.
          5    1    3    3  502    0  0.29476502324E+02  0.39996959307E+01  0.43952726655E+00  0.30042092820E+02  0.41800000000E+01 0.  1.
         -5    1    3    3    0  502 -0.87360829340E+02 -0.39391809165E+02  0.14150229703E+03  0.17095028984E+03  0.41800000000E+01 0.  1.
        -11    1    4    4    0    0  0.23231913053E+02  0.71167834548E+02  0.28881381340E+03  0.29835884647E+03  0.00000000000E+00 0.  1.
         11    1    4    4    0    0  0.34652413964E+02 -0.35775721314E+02  0.82340304960E+02  0.96232104050E+02  0.00000000000E+00 0. -1.
</event>
<event>
 8    1  0.4205029E-010  0.7277701E+02  0.7561462E-02  0.1350896E+00
         -2   -1    0    0    0  501 -0.00000000000E+00  0.00000000000E+00  0.52601834726E+03  0.52601834726E+03  0.00000000000E+00 0. -1.
          2   -1    0    0  501    0  0.00000000000E+00 -0.00000000000E+00 -0.27588500401E+02  0.27588500401E+02  0.00000000000E+00 0.  1.
         25    2    1    2    0    0  0.18758018201E+02  0.22685540257E+02  0.42621130482E+03  0.44516836523E+03  0.12510915260E+03 0.  0.
         23    2    1    2    0    0 -0.18758018201E+02 -0.22685540257E+02  0.72218542042E+02  0.10843848243E+03  0.75345137026E+02 0.  0.
          5    1    3    3  502    0  0.11499517884E+02  0.50497704999E+02  0.67008451452E+02  0.84793054478E+02  0.41800000000E+01 0. -1.
         -5    1    3    3    0  502  0.72585003164E+01 -0.27812164742E+02  0.35920285337E+03  0.36037531075E+03  0.41800000000E+01 0. -1.
        -11    1    4    4    0    0 -0.18550505857E+02 -0.41644295414E+02  0.76450993049E+02  0.89011925865E+02  0.00000000000E+00 0. -1.
         11    1    4    4    0    0 -0.20751234410E+00  0.18958755157E+02 -0.42324510067E+01  0.19426556565E+02  0.00000000000E+00 0.  1.
</event>
<event>
 8    1  0.4205029E-010  0.1626699E+03  0.7561462E-02  0.1185715E+00
         -1   -1    0    0    0  501 -0.00000000000E+00  0.00000000000E+00  0.40301199440E+03  0.40301199440E+03  0.00000000000E+00 0.  1.
          1   -1    0    0  501    0  0.00000000000E+00 -0.00000000000E+00 -0.85618722956E+02  0.85618722956E+02  0.00000000000E+00 0. -1.
         25    2    1    2    0    0 -0.56396530672E+02 -0.10695824434E+03  0.68277466391E+02  0.18689815140E+03  0.12509385227E+03 0.  0.
         23    2    1    2    0    0  0.56396530672E+02  0.10695824434E+03  0.24911580505E+03  0.30173256595E+03  0.11984666173E+03 0.  0.
          5    1    3    3  502    0 -0.36801208207E+02 -0.13303416885E+03  0.40661241308E+02  0.14395564578E+03  0.41800000000E+01 0. -1.
         -5    1    3    3    0  502 -0.19595322465E+02  0.26075924505E+02  0.27616225083E+02  0.42942505622E+02  0.41800000000E+01 0. -1.
        -11    1    4    4    0    0  0.81690608648E+02  0.61182132887E+02  0.96713584449E+02  0.14060628131E+03  0.00000000000E+00 0. -1.
         11    1    4    4    0    0 -0.25294077976E+02  0.45776111454E+02  0.15240222060E+03  0.16112628465E+03  0.00000000000E+00 0.  1.
</event>
<event>
 8    1  0.4205029E-010  0.9139033E+02  0.7561462E-02  0.1299519E+00
         -4   -1    0    0    0  501 -0.00000000000E+00  0.00000000000E+00  0.11127877935E+03  0.11127877935E+03  0.00000000000E+00 0.  1.
          4   -1    0    0  501    0  0.00000000000E+00 -0.00000000000E+00 -0.11179920088E+03  0.11179920088E+03  0.00000000000E+00 0. -1.
         25    2    1    2    0    0  0.24592129762E+02  0.36939810560E+02 -0.12621881242E+02  0.13333273981E+03  0.12509590389E+03 0.  0.
         23    2    1    2    0    0 -0.24592129762E+02 -0.36939810560E+02  0.12101459711E+02  0.89745240415E+02  0.77061276913E+02 0.  0.
          5    1    3    3  502    0 -0.31104685744E+02  0.14461042624E+02  0.40360669002E+02  0.53132656919E+02  0.41800000000E+01 0.  1.
         -5    1    3    3    0  502  0.55696815507E+02  0.22478767937E+02 -0.52982550244E+02  0.80200082892E+02  0.41800000000E+01 0.  1.
        -11    1    4    4    0    0  0.22586919260E+02 -0.33907114858E+02 -0.76743896223E+00  0.40748623562E+02  0.00000000000E+00 0.  1.
         11    1    4    4    0    0 -0.47179049023E+02 -0.30326957020E+01  0.12868898673E+02  0.48996616852E+02  0.00000000000E+00 0. -1.
</event>
<event>
 8    1  0.4205029E-010  0.1194801E+03  0.7561462E-02  0.1243957E+00
         -1   -1    0    0    0  501 -0.00000000000E+00  0.00000000000E+00  0.11912125089E+03  0.11912125089E+03  0.00000000000E+00 0.  1.
          1   -1    0    0  501    0  0.00000000000E+00 -0.00000000000E+00 -0.18823930088E+03  0.18823930088E+03  0.00000000000E+00 0. -1.
         25    2    1    2    0    0 -0.43238225314E+02 -0.11013173622E+02  0.51045153014E+02  0.14228282562E+03  0.12509180908E+03 0.  0.
         23    2    1    2    0    0  0.43238225314E+02  0.11013173622E+02 -0.12016320301E+03  0.16507772615E+03  0.10402223893E+03 0.  0.
          5    1    3    3  502    0 -0.11743626076E+02 -0.64921778496E+02  0.85848687761E+01  0.66662751581E+02  0.41800000000E+01 0. -1.
         -5    1    3    3    0  502 -0.31494599239E+02  0.53908604874E+02  0.42460284238E+02  0.75620074043E+02  0.41800000000E+01 0. -1.
        -11    1    4    4    0    0  0.41745982290E+02 -0.40841911151E+02 -0.44894132498E+02  0.73663232868E+02  0.00000000000E+00 0. -1.
         11    1    4    4    0    0  0.14922430242E+01  0.51855084773E+02 -0.75269070513E+02  0.91414493281E+02  0.00000000000E+00 0.  1.
</event>
<event>
 8    1  0.4205029E-010  0.6064958E+02  0.7561462E-02  0.1395126E+00
          1   -1    0    0  501    0  0.00000000000E+00  0.00000000000E+00  0.26731205250E+02  0.26731205250E+02  0.00000000000E+00 0. -1.
         -1   -1    0    0    0  501 -0.00000000000E+00 -0.00000000000E+00 -0.48729801649E+03  0.48729801649E+03  0.00000000000E+00 0.  1.
         25    2    1    2    0    0  0.44928715253E+02  0.75037330655E+01 -0.21056982094E+03  0.24912291173E+03  0.12509068788E+03 0.  0.
         23    2    1    2    0    0 -0.44928715253E+02 -0.75037330655E+01 -0.24999699030E+03  0.26490631001E+03  0.74846258820E+02 0.  0.
          5    1    3    3  502    0  0.28853359921E+02  0.52741483409E+01  0.73772736280E+01  0.30532434977E+02  0.41800000000E+01 0.  1.
         -5    1    3    3    0  502  0.16075355332E+02  0.22295847247E+01 -0.21794709457E+03  0.21859047675E+03  0.41800000000E+01 0.  1.
        -11    1    4    4    0    0 -0.29945569031E+02 -0.33484080731E+02 -0.21090042843E+03  0.21563142507E+03  0.00000000000E+00 0.  1.
         11    1    4    4    0    0 -0.14983146223E+02  0.25980347665E+02 -0.39096561877E+02  0.49274884943E+02  0.00000000000E+00 0. -1.
</event>
<event>
 8    1  0.4205029E-010  0.1082408E+03  0.7561462E-02  0.1263863E+00
          2   -1    0    0  501    0  0.00000000000E+00  0.00000000000E+00  0.98461645685E+03  0.98461645685E+03  0.00000000000E+00 0. -1.
         -2   -1    0    0    0  501 -0.00000000000E+00 -0.00000000000E+00 -0.26882739239E+02  0.26882739239E+02  0.00000000000E+00 0.  1.
         25    2    1    2    0    0  0.72910640634E+02  0.22648474207E+02  0.84455914708E+03  0.85717934555E+03  0.12508941847E+03 0.  0.
         23    2    1    2    0    0 -0.72910640634E+02 -0.22648474207E+02  0.11317457053E+03  0.15431985054E+03  0.71952887050E+02 0.  0.
          5    1    3    3  502    0  0.58169440091E+02 -0.31471441247E+02  0.68104146407E+03  0.68425805333E+03  0.41800000000E+01 0.  1.
         -5    1    3    3    0  502  0.14741200543E+02  0.54119915455E+02  0.16351768302E+03  0.17292129222E+03  0.41800000000E+01 0.  1.
        -11    1    4    4    0    0 -0.17580984466E+02 -0.33266106775E+02  0.13783171048E+02  0.40071195127E+02  0.00000000000E+00 0.  1.
         11    1    4    4    0    0 -0.55329656168E+02  0.10617632568E+02  0.99391399478E+02  0.11424865541E+03  0.00000000000E+00 0. -1.
</event>
<event>
 8    1  0.4205029E-010  0.8491114E+02  0.7561462E-02  0.1315665E+00
         -1   -1    0    0    0  501 -0.00000000000E+00  0.00000000000E+00  0.65359824762E+02  0.65359824762E+02  0.00000000000E+00 0.  1.
          1   -1    0    0  501    0  0.00000000000E+00 -0.00000000000E+00 -0.19562696283E+03  0.19562696283E+03  0.00000000000E+00 0. -1.
         25    2    1    2    0    0 -0.16886192159E+02  0.45043677264E+02 -0.74334185912E+02  0.15325380291E+03  0.12508829107E+03 0.  0.
         23    2    1    2    0    0  0.16886192159E+02 -0.45043677264E+02 -0.55932952156E+02  0.10773298469E+03  0.78510028056E+02 0.  0.
          5    1    3    3  502    0 -0.25835655228E+02 -0.83659722863E+01 -0.92096572033E+02  0.96107864161E+02  0.41800000000E+01 0.  1.
         -5    1    3    3    0  502  0.89494630684E+01  0.53409649550E+02  0.17762386122E+02  0.57145938745E+02  0.41800000000E+01 0.  1.
        -11    1    4    4    0    0  0.10430498577E+02 -0.65631141475E+02 -0.27211383757E+02  0.71810176422E+02  0.00000000000E+00 0. -1.
         11    1    4    4    0    0  0.64556935825E+01  0.20587464210E+02 -0.28721568399E+02  0.35922808264E+02  0.00000000000E+00 0.  1.
</event>
<event>
 8    1  0.4205029E-010  0.9088609E+02  0.7561462E-02  0.1300720E+00
          2   -1    0    0  501    0  0.00000000000E+00  0.00000000000E+00  0.23391857325E+03  0.23391857325E+03  0.00000000000E+00 0. -1.
         -2   -1    0    0    0  501 -0.00000000000E+00 -0.00000000000E+00 -0.12681362937E+03  0.12681362937E+03  0.00000000000E+00 0.  1.
         25    2    1    2    0    0  0.31235061150E+02 -0.18183992080E+02  0.19921787483E+03  0.23799631541E+03  0.12509275711E+03 0.  0.
         23    2    1    2    0    0 -0.31235061150E+02  0.18183992080E+02 -0.92112930946E+02  0.12273588721E+03  0.72615558584E+02 0.  0.
          5    1    3    3  502    0 -0.24836939417E+01 -0.52369726261E+02  0.26920123187E+02  0.59084028271E+02  0.41800000000E+01 0.  1.
         -5    1    3    3    0  502  0.33718755092E+02  0.34185734181E+02  0.17229775164E+03  0.17891228714E+03  0.41800000000E+01 0.  1.
        -11    1    4    4    0    0  0.23766078567E+02  0.77410673595E+01 -0.25229448578E+02  0.35514443398E+02  0.00000000000E+00 0.  1.
         11    1    4    4    0    0 -0.55001139717E+02  0.10442924721E+02 -0.66883482368E+02  0.87221443811E+02  0.00000000000E+00 0. -1.
</event>
<event>
 8    1  0.4205029E-010  0.7494946E+02  0.7561462E-02  0.1344028E+00
         -2   -1    0    0    0  501 -0.00000000000E+00  0.00000000000E+00  0.49778454625E+02  0.49778454625E+02  0.00000000000E+00 0.  1.
          2   -1    0    0  501    0  0.00000000000E+00 -0.00000000000E+00 -0.37265404545E+03  0.37265404545E+03  0.00000000000E+00 0. -1.
         25    2    1    2    0    0 -0.57935011842E+01  0.55303028124E+02 -0.29250507803E+03  0.32295518493E+03  0.12509532854E+03 0.  0.
         23    2    1    2    0    0  0.57935011842E+01 -0.55303028124E+02 -0.30370512790E+02  0.99477315142E+02  0.76690146727E+02 0.  0.
          5    1    3    3  502    0  0.11491356092E+01  0.45967702307E+02 -0.20245843446E+02  0.50415441532E+02  0.41800000000E+01 0. -1.
         -5    1    3    3    0  502 -0.69426367934E+01  0.93353258173E+01 -0.27225923459E+03  0.27253974340E+03  0.41800000000E+01 0. -1.
        -11    1    4    4    0    0 -0.11515218170E+02 -0.68586717864E+02 -0.11218896921E+02  0.70445736315E+02  0.00000000000E+00 0.  1.
         11    1    4    4    0    0  0.17308719354E+02  0.13283689739E+02 -0.19151615870E+02  0.29031578827E+02  0.00000000000E+00 0. -1.
</event>
<event>
 8    1  0.4205029E-010  0.1028303E+03  0.7561462E-02  0.1274454E+00
          2   -1    0    0  501    0  0.00000000000E+00  0.00000000000E+00  0.80963793906E+03  0.80963793906E+03  0.00000000000E+00 0. -1.
         -2   -1    0    0    0  501 -0.00000000000E+00 -0.00000000000E+00 -0.21962551352E+02  0.21962551352E+02  0.00000000000E+00 0.  1.
         25    2    1    2    0    0  0.11174521996E+02 -0.22760362669E+02  0.58651554203E+03  0.60024321796E+03  0.12509410706E+03 0.  0.
         23    2    1    2    0    0 -0.11174521996E+02  0.22760362669E+02  0.20115984568E+03  0.23135727244E+03  0.11143608011E+03 0.  0.
          5    1    3    3  502    0 -0.47940416812E+02  0.20501791433E+02  0.19396457744E+03  0.20089384440E+03  0.41800000000E+01 0.  1.
         -5    1    3    3    0  502  0.59114938808E+02 -0.43262154102E+02  0.39255096459E+03  0.39934937356E+03  0.41800000000E+01 0.  1.
        -11    1    4    4    0    0  0.25957925282E+02  0.32497230562E+02  0.19955576559E+02  0.46131430879E+02  0.00000000000E+00 0.  1.
         11    1    4    4    0    0 -0.37132447277E+02 -0.97368678927E+01  0.18120426912E+03  0.18522584157E+03  0.00000000000E+00 0. -1.
</event>
<event>
 8    1  0.4205029E-010  0.1064119E+03  0.7561462E-02  0.1267362E+00
          2   -1    0    0  501    0  0.00000000000E+00  0.00000000000E+00  0.15739061253E+03  0.15739061253E+03  0.00000000000E+00 0.  1.
         -2   -1    0    0    0  501 -0.00000000000E+00 -0.00000000000E+00 -0.23093124089E+03  0.23093124089E+03  0.00000000000E+00 0. -1.
         25    2    1    2    0    0  0.28076107954E+02  0.87759020922E+02  0.81986339716E+02  0.17566790244E+03  0.12509012133E+03 0.  0.
         23    2    1    2    0    0 -0.28076107954E+02 -0.87759020922E+02 -0.15552696808E+03  0.21265395099E+03  0.11199621189E+03 0.  0.
          5    1    3    3  502    0  0.11054114737E+02  0.10157860922E+02  0.93935637837E+02  0.95219494049E+02  0.41800000000E+01 0.  1.
         -5    1    3    3    0  502  0.17021993217E+02  0.77601160000E+02 -0.11949298120E+02  0.80448408387E+02  0.41800000000E+01 0.  1.
        -11    1    4    4    0    0 -0.17846688150E+02 -0.10008656033E+03 -0.16517404136E+03  0.19395434456E+03  0.00000000000E+00 0. -1.
         11    1    4    4    0    0 -0.10229419804E+02  0.12327539412E+02  0.96470732768E+01  0.18699606421E+02  0.00000000000E+00 0.  1.
</event>
<event>
 7    1  0.4205029E-010  0.1368399E+03  0.7561462E-02  0.1217646E+00
          2   -1    0    0  501    0  0.00000000000E+00  0.00000000000E+00  0.16563012699E+03  0.16563012699E+03  0.00000000000E+00 0. -1.
         -2   -1    0    0    0  501 -0.00000000000E+00 -0.00000000000E+00 -0.14308993255E+03  0.14308993255E+03  0.00000000000E+00 0.  1.
         25    2    1    2    0    0  0.70441663888E+02  0.10314284950E+03  0.23505396360E+02  0.17832459028E+03  0.12508669164E+03 0.  0.
          5    1    3    3  502    0  0.78857074738E+02  0.49524906623E+02 -0.33925936993E+02  0.99194738838E+02  0.41800000000E+01 0.  1.
         -5    1    3    3    0  502 -0.84154108500E+01  0.53617942877E+02  0.57431333354E+02  0.79129851440E+02  0.41800000000E+01 0.  1.
        -11    1    1    2    0    0 -0.58954745782E+02 -0.73379055832E+02 -0.15397520657E+02  0.95379408299E+02  0.00000000000E+00 0.  1.
         11    1    1    2    0    0 -0.11486918106E+02 -0.29763793668E+02  0.14432318733E+02  0.35016060959E+02  0.00000000000E+00 0. -1.
</event>
<event>
 8    1  0.4205029E-010  0.1153080E+03  0.7561462E-02  0.1251044E+00
          2   -1    0    0  501    0  0.00000000000E+00  0.00000000000E+00  0.71176442794E+03  0.71176442794E+03  0.00000000000E+00 0. -1.
         -2   -1    0    0    0  501 -0.00000000000E+00 -0.00000000000E+00 -0.33746170609E+02  0.33746170609E+02  0.00000000000E+00 0.  1.
         25    2    1    2    0    0  0.16869378647E+02  0.17777420941E+02  0.59265220305E+03  0.60620524042E+03  0.12509015586E+03 0.  0.
         23    2    1    2    0    0 -0.16869378647E+02 -0.17777420941E+02  0.85366054275E+02  0.13930535813E+03  0.10732197794E+03 0.  0.
          5    1    3    3  502    0 -0.29775656227E+02 -0.37630990442E+02  0.14711039287E+03  0.15479541736E+03  0.41800000000E+01 0.  1.
         -5    1    3    3    0  502  0.46645034874E+02  0.55408411384E+02  0.44554181019E+03  0.45140982306E+03  0.41800000000E+01 0.  1.
        -11    1    4    4    0    0 -0.21182224446E+01  0.45183657770E+02  0.39137293892E+02  0.59814526404E+02  0.00000000000E+00 0. -1.
         11    1    4    4    0    0 -0.14751156202E+02 -0.62961078711E+02  0.46228760383E+02  0.79490831724E+02  0.00000000000E+00 0.  1.
</event>
<event>
 8    1  0.4205029E-010  0.1509434E+03  0.7561462E-02  0.1199319E+00
          2   -1    0    0  501    0  0.00000000000E+00  0.00000000000E+00  0.68197481146E+02  0.68197481146E+02  0.00000000000E+00 0. -1.
         -2   -1    0    0    0  501 -0.00000000000E+00 -0.00000000000E+00 -0.33649315431E+03  0.33649315431E+03  0.00000000000E+00 0.  1.
         25    2    1    2    0    0  0.11047982622E+03  0.98241259975E+01 -0.14740505216E+03  0.22288500357E+03  0.12508864841E+03 0.  0.
         23    2    1    2    0    0 -0.11047982622E+03 -0.98241259975E+01 -0.12089062100E+03  0.18180563189E+03  0.78335433150E+02 0.  0.
          5    1    3    3  502    0  0.31538878097E+02  0.63480015922E+02 -0.72515767458E+02  0.10149099558E+03  0.41800000000E+01 0. -1.
         -5    1    3    3    0  502  0.78940948118E+02 -0.53655889925E+02 -0.74889284703E+02  0.12139400799E+03  0.41800000000E+01 0. -1.
        -11    1    4    4    0    0 -0.47758809598E+02 -0.43105895004E+02 -0.50102038415E+02  0.81542849666E+02  0.00000000000E+00 0.  1.
         11    1    4    4    0    0 -0.62721016618E+02  0.33281769006E+02 -0.70788582588E+02  0.10026278222E+03  0.00000000000E+00 0. -1.
</event>
<event>
 7    1  0.4205029E-010  0.1757793E+03  0.7561462E-02  0.1171952E+00
          2   -1    0    0  501    0  0.00000000000E+00  0.00000000000E+00  0.44384344154E+03  0.44384344154E+03  0.00000000000E+00 0. -1.
         -2   -1    0    0    0  501 -0.00000000000E+00 -0.00000000000E+00 -0.10122305481E+03  0.10122305481E+03  0.00000000000E+00 0.  1.
         25    2    1    2    0    0  0.12125272708E+03  0.34405786491E+02  0.37234514620E+02  0.18143842718E+03  0.12509001483E+03 0.  0.
          5    1    3    3  502    0  0.14054955969E+03  0.13880779873E+02  0.50462897786E+02  0.15003609977E+03  0.41800000000E+01 0.  1.
         -5    1    3    3    0  502 -0.19296832618E+02  0.20525006618E+02 -0.13228383166E+02  0.31402327413E+02  0.41800000000E+01 0.  1.
        -11    1    1    2    0    0 -0.74704487744E+02 -0.84913275960E+02  0.25337948686E+03  0.27747466422E+03  0.00000000000E+00 0. -1.
         11    1    1    2    0    0 -0.46548239333E+02  0.50507489468E+02  0.52006385246E+02  0.86153404946E+02  0.00000000000E+00 0.  1.
</event>
<event>
 8    1  0.4205029E-010  0.7875676E+02  0.7561462E-02  0.1332617E+00
         -2   -1    0    0    0  501 -0.00000000000E+00  0.00000000000E+00  0.22572755943E+02  0.22572755943E+02  0.00000000000E+00 0.  1.
          2   -1    0    0  501    0  0.00000000000E+00 -0.00000000000E+00 -0.10156991569E+04  0.10156991569E+04  0.00000000000E+00 0. -1.
         25    2    1    2    0    0  0.58935749662E+02 -0.27230001258E+02 -0.86550182115E+03  0.87690101054E+03  0.12508830608E+03 0.  0.
         23    2    1    2    0    0 -0.58935749662E+02  0.27230001258E+02 -0.12762457977E+03  0.16137090226E+03  0.74415315490E+02 0.  0.
          5    1    3    3  502    0  0.52814537173E+02 -0.27618351125E+02 -0.86722544642E+03  0.86928107996E+03  0.41800000000E+01 0. -1.
         -5    1    3    3    0  502  0.61212124896E+01  0.38834986677E+00  0.17236252730E+01  0.76199305800E+01  0.41800000000E+01 0. -1.
        -11    1    4    4    0    0 -0.57349422046E+02  0.44756384968E+02 -0.69384286001E+02  0.10052994255E+03  0.00000000000E+00 0.  1.
         11    1    4    4    0    0 -0.15863276167E+01 -0.17526383710E+02 -0.58240293768E+02  0.60840959718E+02  0.00000000000E+00 0. -1.
</event>
<event>
 8    1  0.4205029E-010  0.1070180E+03  0.7561462E-02  0.1266194E+00
         -2   -1    0    0    0  501 -0.00000000000E+00  0.00000000000E+00  0.57818666759E+02  0.57818666759E+02  0.00000000000E+00 0.  1.
          2   -1    0    0  501    0  0.00000000000E+00 -0.00000000000E+00 -0.40819542823E+03  0.40819542823E+03  0.00000000000E+00 0. -1.
         25    2    1    2    0    0  0.39608072088E+02  0.30745156664E+02 -0.53645965978E+02  0.14505042570E+03  0.12509065631E+03 0.  0.
         23    2    1    2    0    0 -0.39608072088E+02 -0.30745156664E+02 -0.29673079549E+03  0.32096366929E+03  0.11159949811E+03 0.  0.
          5    1    3    3  502    0 -0.34254750077E+02 -0.86251009340E+00 -0.54597246212E+02  0.64594609066E+02  0.41800000000E+01 0.  1.
         -5    1    3    3    0  502  0.73862822164E+02  0.31607666757E+02  0.95128023396E+00  0.80455816632E+02  0.41800000000E+01 0.  1.
        -11    1    4    4    0    0 -0.19963885921E+02  0.29544360640E+02 -0.29396778418E+02  0.46212515275E+02  0.00000000000E+00 0.  1.
         11    1    4    4    0    0 -0.19644186166E+02 -0.60289517304E+02 -0.26733401707E+03  0.27475115401E+03  0.00000000000E+00 0. -1.
</event>
<event>
 8    1  0.4205029E-010  0.1140541E+03  0.7561462E-02  0.1253241E+00
          2   -1    0    0  501    0  0.00000000000E+00  0.00000000000E+00  0.24014170971E+03  0.24014170971E+03  0.00000000000E+00 0. -1.
         -2   -1    0    0    0  501 -0.00000000000E+00 -0.00000000000E+00 -0.55855387729E+02  0.55855387729E+02  0.00000000000E+00 0.  1.
         25    2    1    2    0    0 -0.59883030706E+01 -0.10230296594E+01  0.12201667853E+03  0.17485186907E+03  0.12509276525E+03 0.  0.
         23    2    1    2    0    0  0.59883030706E+01  0.10230296594E+01  0.62269643460E+02  0.12114522837E+03  0.10373886204E+03 0.  0.
          5    1    3    3  502    0 -0.41372412241E+02  0.48613425496E+02  0.57884962894E+02  0.86273303879E+02  0.41800000000E+01 0.  1.
         -5    1    3    3    0  502  0.35384109170E+02 -0.49636455156E+02  0.64131715632E+02  0.88578565195E+02  0.41800000000E+01 0.  1.
        -11    1    4    4    0    0  0.47568654757E+02 -0.25245425022E+02  0.24659139861E+02  0.59229904429E+02  0.00000000000E+00 0.  1.
         11    1    4    4    0    0 -0.41580351687E+02  0.26268454681E+02  0.37610503598E+02  0.61915323940E+02  0.00000000000E+00 0. -1.
</event>
<event>
 8    1  0.6136765E-010  0.7189514E+02  0.7561462E-02  0.1353765E+00
         -1   -1    0    0    0  501 -0.00000000000E+00  0.00000000000E+00  0.81838956036E+02  0.81838956036E+02  0.00000000000E+00 0.  1.
          1   -1    0    0  501    0  0.00000000000E+00 -0.00000000000E+00 -0.18116192318E+03  0.18116192318E+03  0.00000000000E+00 0. -1.
         25    2    1    2    0    0 -0.63197177019E+01  0.34633644850E+02 -0.36063062464E+02  0.13486223425E+03  0.12509136487E+03 0.  0.
         23    2    1    2    0    0  0.63197177019E+01 -0.34633644850E+02 -0.63259904676E+02  0.12813864497E+03  0.10572733141E+03 0.  0.
          5    1    3    3  502    0 -0.70061558831E+01  0.63195564450E+02  0.24103018810E+02  0.68126305509E+02  0.41800000000E+01 0.  1.
         -5    1    3    3    0  502  0.68643818115E+00 -0.28561919601E+02 -0.60166081275E+02  0.66735928739E+02  0.41800000000E+01 0.  1.
        -11    1    4    4    0    0 -0.15620419569E+02 -0.12231516806E+02  0.26474574597E+02  0.33083388747E+02  0.00000000000E+00 0.  1.
         11    1    4    4    0    0  0.21940137271E+02 -0.22402128044E+02 -0.89734479273E+02  0.95055256219E+02  0.00000000000E+00 0. -1.
</event>
<event>
 7    1  0.4205029E-010  0.1081181E+03  0.7561462E-02  0.1264095E+00
         -1   -1    0    0    0  501 -0.00000000000E+00  0.00000000000E+00  0.13709383069E+03  0.13709383069E+03  0.00000000000E+00 0.  1.
          1   -1    0    0  501    0  0.00000000000E+00 -0.00000000000E+00 -0.25826926265E+03  0.25826926265E+03  0.00000000000E+00 0. -1.
         25    2    1    2    0    0 -0.69233235631E+02 -0.43366890308E+02 -0.15865299603E+03  0.21792672365E+03  0.12508939061E+03 0.  0.
          5    1    3    3  502    0 -0.91941042051E+02 -0.18637305672E+02 -0.54851136239E+02  0.10875028240E+03  0.41800000000E+01 0. -1.
         -5    1    3    3    0  502  0.22707806419E+02 -0.24729584636E+02 -0.10380185979E+03  0.10917644125E+03  0.41800000000E+01 0. -1.
        -11    1    1    2    0    0  0.52102923447E+02  0.47904296191E+02  0.94304492592E+02  0.11791044716E+03  0.00000000000E+00 0.  1.
         11    1    1    2    0    0  0.17130312184E+02 -0.45374058839E+01 -0.56826928529E+02  0.59525922536E+02  0.00000000000E+00 0. -1.
</event>
<event>
 8    1  0.4205029E-010  0.8324900E+02  0.7561462E-02  0.1320076E+00
          2   -1    0    0  501    0  0.00000000000E+00  0.00000000000E+00  0.62402792728E+03  0.62402792728E+03  0.00000000000E+00 0.  1.
         -2   -1    0    0    0  501 -0.00000000000E+00 -0.00000000000E+00 -0.13897608586E+02  0.13897608586E+02  0.00000000000E+00 0. -1.
         25    2    1    2    0    0 -0.10646854043E+02 -0.84681681099E+00  0.37761694743E+03  0.39794501900E+03  0.12510638097E+03 0.  0.
         23    2    1    2    0    0  0.10646854043E+02  0.84681681099E+00  0.23251337126E+03  0.23998051686E+03  0.58430369328E+02 0.  0.
          5    1    3    3  502    0  0.49573705751E+02  0.25432653874E+01  0.26955292698E+03  0.27411726204E+03  0.41800000000E+01 0.  1.
         -5    1    3    3    0  502 -0.60220559794E+02 -0.33900821984E+01  0.10806402045E+03  0.12382775696E+03  0.41800000000E+01 0.  1.
        -11    1    4    4    0    0  0.23867632767E+02 -0.20266849816E+02  0.89630438876E+02  0.94942217524E+02  0.00000000000E+00 0.  1.
         11    1    4    4    0    0 -0.13220778724E+02  0.21113666627E+02  0.14288293238E+03  0.14503829934E+03  0.00000000000E+00 0. -1.
</event>
<event>
 8    1  0.4205029E-010  0.1070035E+03  0.7561462E-02  0.1266222E+00
         -1   -1    0    0    0  501 -0.00000000000E+00  0.00000000000E+00  0.71344705812E+02  0.71344705812E+02  0.00000000000E+00 0.  1.
          1   -1    0    0  501    0  0.00000000000E+00 -0.00000000000E+00 -0.24050893946E+03  0.24050893946E+03  0.00000000000E+00 0. -1.
         25    2    1    2    0    0  0.38616792548E+02  0.86160039622E+01 -0.36299203054E+02  0.13612716366E+03  0.12508988909E+03 0.  0.
         23    2    1    2    0    0 -0.38616792548E+02 -0.86160039622E+01 -0.13286503059E+03  0.17572648161E+03  0.10798697975E+03 0.  0.
          5    1    3    3  502    0  0.15779664877E+02  0.52612462334E+02 -0.59630874573E+02  0.81181171578E+02  0.41800000000E+01 0. -1.
         -5    1    3    3    0  502  0.22837127672E+02 -0.43996458372E+02  0.23331671518E+02  0.54945992078E+02  0.41800000000E+01 0. -1.
        -11    1    4    4    0    0 -0.50767989080E+02  0.36450431350E+02 -0.10247305804E+03  0.12002812289E+03  0.00000000000E+00 0. -1.
         11    1    4    4    0    0  0.12151196531E+02 -0.45066435312E+02 -0.30391972551E+02  0.55698358723E+02  0.00000000000E+00 0.  1.
</event>
<event>
 7    1  0.4205029E-010  0.1257224E+03  0.7561462E-02  0.1233945E+00
          1   -1    0    0  501    0  0.00000000000E+00  0.00000000000E+00  0.13563451314E+03  0.13563451314E+03  0.00000000000E+00 0. -1.
         -1   -1    0    0    0  501 -0.00000000000E+00 -0.00000000000E+00 -0.12887995420E+03  0.12887995420E+03  0.00000000000E+00 0.  1.
         25    2    1    2    0    0 -0.97012483645E+02 -0.18759884851E+02  0.13923215710E+02  0.16001271200E+03  0.12508739666E+03 0.  0.
          5    1    3    3  502    0 -0.67840096372E+02 -0.64344651969E+02 -0.20397079345E+02  0.95791576658E+02  0.41800000000E+01 0.  1.
         -5    1    3    3    0  502 -0.29172387272E+02  0.45584767118E+02  0.34320295054E+02  0.64221135345E+02  0.41800000000E+01 0.  1.
        -11    1    1    2    0    0  0.54574214079E+02 -0.52212262415E+01 -0.97699130044E+01  0.55687137168E+02  0.00000000000E+00 0.  1.
         11    1    1    2    0    0  0.42438269565E+02  0.23981111092E+02  0.26012562349E+01  0.48814618168E+02  0.00000000000E+00 0. -1.
</event>
<event>
 8    1  0.4205029E-010  0.8728147E+02  0.7561462E-02  0.1309572E+00
         -2   -1    0    0    0  501 -0.00000000000E+00  0.00000000000E+00  0.67725907280E+02  0.67725907280E+02  0.00000000000E+00 0.  1.
          2   -1    0    0  501    0  0.00000000000E+00 -0.00000000000E+00 -0.20727728685E+03  0.20727728685E+03  0.00000000000E+00 0. -1.
         25    2    1    2    0    0 -0.33557712035E+02 -0.32119953431E+02 -0.14709532163E+03  0.19860144486E+03  0.12509072232E+03 0.  0.
         23    2    1    2    0    0  0.33557712035E+02  0.32119953431E+02  0.75439420547E+01  0.76401749270E+02  0.60187247689E+02 0.  0.
          5    1    3    3  502    0 -0.46214711996E+02 -0.60759274624E+02 -0.38684933222E+02  0.85682469129E+02  0.41800000000E+01 0. -1.
         -5    1    3    3    0  502  0.12656999960E+02  0.28639321192E+02 -0.10841038840E+03  0.11291897573E+03  0.41800000000E+01 0. -1.
        -11    1    4    4    0    0 -0.26331905335E+01  0.30162802345E+02 -0.14927104624E+02  0.33757173907E+02  0.00000000000E+00 0. -1.
         11    1    4    4    0    0  0.36190902568E+02  0.19571510862E+01  0.22471046679E+02  0.42644575364E+02  0.00000000000E+00 0.  1.
</event>
<event>
 7    1  0.4205029E-010  0.1540517E+03  0.7561462E-02  0.1195581E+00
          4   -1    0    0  501    0  0.00000000000E+00  0.00000000000E+00  0.48891326182E+03  0.48891326182E+03  0.00000000000E+00 0.  1.
         -4   -1    0    0    0  501 -0.00000000000E+00 -0.00000000000E+00 -0.70509919967E+02  0.70509919967E+02  0.00000000000E+00 0. -1.
         25    2    1    2    0    0 -0.10434231787E+03 -0.70765304526E+02  0.80270717752E+02  0.19489809084E+03  0.12508728977E+03 0.  0.
          5    1    3    3  502    0 -0.77675954521E+02 -0.10465519636E+03  0.77031833068E+02  0.15145177365E+03  0.41800000000E+01 0.  1.
         -5    1    3    3    0  502 -0.26666363345E+02  0.33889891838E+02  0.32388846843E+01  0.43446317184E+02  0.41800000000E+01 0.  1.
        -11    1    1    2    0    0  0.59120557005E+02  0.12164608777E+02  0.18171583999E+03  0.19147810442E+03  0.00000000000E+00 0.  1.
         11    1    1    2    0    0  0.45221760861E+02  0.58600695749E+02  0.15641678411E+03  0.17304698654E+03  0.00000000000E+00 0. -1.
</event>
<event>
 8    1  0.4205029E-010  0.1005035E+03  0.7561462E-02  0.1279241E+00
         -1   -1    0    0    0  501 -0.00000000000E+00  0.00000000000E+00  0.99260058540E+03  0.99260058540E+03  0.00000000000E+00 0.  1.
          1   -1    0    0  501    0  0.00000000000E+00 -0.00000000000E+00 -0.12536039740E+02  0.12536039740E+02  0.00000000000E+00 0. -1.
         25    2    1    2    0    0  0.25217412104E+00  0.33025152986E+02  0.78244789239E+03  0.79307202914E+03  0.12509122581E+03 0.  0.
         23    2    1    2    0    0 -0.25217412104E+00 -0.33025152986E+02  0.19761665326E+03  0.21206459600E+03  0.69486163416E+02 0.  0.
          5    1    3    3  502    0 -0.19501487397E+01 -0.45508052879E+02  0.40062719602E+03  0.40322996981E+03  0.41800000000E+01 0. -1.
         -5    1    3    3    0  502  0.22023228608E+01  0.78533205865E+02  0.38182069637E+03  0.38984205933E+03  0.41800000000E+01 0. -1.
        -11    1    4    4    0    0  0.23405038712E+02  0.11570290830E+02  0.58135884144E+02  0.63729494680E+02  0.00000000000E+00 0.  1.
         11    1    4    4    0    0 -0.23657212833E+02 -0.44595443816E+02  0.13948076912E+03  0.14833510132E+03  0.00000000000E+00 0. -1.
</event>
<event>
 8    1  0.5363687E-010  0.1813271E+03  0.7561462E-02  0.1166525E+00
          2   -1    0    0  501    0  0.00000000000E+00  0.00000000000E+00  0.38881830030E+03  0.38881830030E+03  0.00000000000E+00 0. -1.
         -2   -1    0    0    0  501 -0.00000000000E+00 -0.00000000000E+00 -0.11384306709E+03  0.11384306709E+03  0.00000000000E+00 0.  1.
         25    2    1    2    0    0 -0.42170398065E+02 -0.16373302301E+03  0.20031944894E+03  0.29045700140E+03  0.12510212924E+03 0.  0.
         23    2    1    2    0    0  0.42170398065E+02  0.16373302301E+03  0.74655784269E+02  0.21220436599E+03  0.10426102590E+03 0.  0.
          5    1    3    3  502    0 -0.46277628356E+01 -0.65224558909E+02  0.16767014683E+03  0.18001780416E+03  0.41800000000E+01 0. -1.
         -5    1    3    3    0  502 -0.37542635229E+02 -0.98508464100E+02  0.32649302105E+02  0.11043919724E+03  0.41800000000E+01 0. -1.
        -11    1    4    4    0    0 -0.26523337394E+02  0.74078045722E+02  0.35987550894E+01  0.78765444978E+02  0.00000000000E+00 0.  1.
         11    1    4    4    0    0  0.68693735458E+02  0.89654977288E+02  0.71057029180E+02  0.13343892101E+03  0.00000000000E+00 0. -1.
</event>
<event>
 7    1  0.4205029E-010  0.1072362E+03  0.7561462E-02  0.1265775E+00
         -2   -1    0    0    0  501 -0.00000000000E+00  0.00000000000E+00  0.35669664636E+02  0.35669664636E+02  0.00000000000E+00 0.  1.
          2   -1    0    0  501    0  0.00000000000E+00 -0.00000000000E+00 -0.43550372874E+03  0.43550372874E+03  0.00000000000E+00 0. -1.
         25    2    1    2    0    0 -0.28906032265E+02 -0.53975969413E+02 -0.34788115402E+03  0.37472371015E+03  0.12509035796E+03 0.  0.
          5    1    3    3  502    0 -0.46127200196E+02  0.28705653111E+02 -0.14676518115E+03  0.15655422037E+03  0.41800000000E+01 0.  1.
         -5    1    3    3    0  502  0.17221167931E+02 -0.82681622523E+02 -0.20111597287E+03  0.21816948978E+03  0.41800000000E+01 0.  1.
        -11    1    1    2    0    0 -0.11136732347E+02  0.20071703272E+02 -0.49552565895E+00  0.22959652116E+02  0.00000000000E+00 0.  1.
         11    1    1    2    0    0  0.40042764612E+02  0.33904266140E+02 -0.51457384427E+02  0.73490031109E+02  0.00000000000E+00 0. -1.
</event>
<event>
 7    1  0.4205029E-010  0.2495044E+03  0.7561462E-02  0.1113618E+00
         -2   -1    0    0    0  501 -0.00000000000E+00  0.00000000000E+00  0.20954258573E+03  0.20954258573E+03  0.00000000000E+00 0.  1.
          2   -1    0    0  501    0  0.00000000000E+00 -0.00000000000E+00 -0.38544377053E+03  0.38544377053E+03  0.00000000000E+00 0. -1.
         25    2    1    2    0    0 -0.58505080551E+02  0.20858164563E+03 -0.68926051279E+02  0.25947292264E+03  0.12508496990E+03 0.  0.
          5    1    3    3  502    0 -0.80946526338E+02  0.13289902342E+03 -0.16575191132E+01  0.15567501509E+03  0.41800000000E+01 0.  1.
         -5    1    3    3    0  502  0.22441445787E+02  0.75682622212E+02 -0.67268532166E+02  0.10379790756E+03  0.41800000000E+01 0.  1.
        -11    1    1    2    0    0 -0.51706226094E+02 -0.58235608519E+02 -0.12600599015E+03  0.14812977240E+03  0.00000000000E+00 0. -1.
         11    1    1    2    0    0  0.11021130664E+03 -0.15034603711E+03  0.19030856625E+02  0.18738366122E+03  0.00000000000E+00 0.  1.
</event>
<event>
 8    1  0.4205029E-010  0.1817765E+03  0.7561462E-02  0.1166095E+00
         -1   -1    0    0    0  501 -0.00000000000E+00  0.00000000000E+00  0.34782191167E+03  0.34782191167E+03  0.00000000000E+00 0.  1.
          1   -1    0    0  501    0  0.00000000000E+00 -0.00000000000E+00 -0.14805715668E+03  0.14805715668E+03  0.00000000000E+00 0. -1.
         25    2    1    2    0    0  0.80258642196E+02  0.13443749904E+03  0.22946186055E+03  0.30465431166E+03  0.12508642361E+03 0.  0.
         23    2    1    2    0    0 -0.80258642196E+02 -0.13443749904E+03 -0.29697105559E+02  0.19122475669E+03  0.10568868766E+03 0.  0.
          5    1    3    3  502    0  0.61743855320E+02  0.21036558687E+02  0.24805943764E+02  0.69911713734E+02  0.41800000000E+01 0.  1.
         -5    1    3    3    0  502  0.18514786876E+02  0.11340094035E+03  0.20465591679E+03  0.23474259792E+03  0.41800000000E+01 0.  1.
        -11    1    4    4    0    0 -0.49104709023E+02 -0.14275667035E+03 -0.57784793753E+01  0.15107657066E+03  0.00000000000E+00 0.  1.
         11    1    4    4    0    0 -0.31153933173E+02  0.83191713107E+01 -0.23918626183E+02  0.40148186035E+02  0.00000000000E+00 0. -1.
</event>
<event>
 7    1  0.4205029E-010  0.1164164E+03  0.7561462E-02  0.1249129E+00
         -1   -1    0    0    0  501 -0.00000000000E+00  0.00000000000E+00  0.22969663094E+02  0.22969663094E+02  0.00000000000E+00 0.  1.
          1   -1    0    0  501    0  0.00000000000E+00 -0.00000000000E+00 -0.63976518279E+03  0.63976518279E+03  0.00000000000E+00 0. -1.
         25    2    1    2    0    0 -0.83489474493E+02  0.14215479618E+01 -0.41929519068E+03  0.44545196169E+03  0.12508589088E+03 0.  0.
          5    1    3    3  502    0 -0.52189780995E+02  0.61761355266E+02 -0.25682061213E+03  0.26928152083E+03  0.41800000000E+01 0.  1.
         -5    1    3    3    0  502 -0.31299693498E+02 -0.60339807304E+02 -0.16247457855E+03  0.17617044086E+03  0.41800000000E+01 0.  1.
        -11    1    1    2    0    0  0.18625107073E+02  0.24338660458E+01 -0.16603880310E+02  0.25070045049E+02  0.00000000000E+00 0.  1.
         11    1    1    2    0    0  0.64864367419E+02 -0.38554140076E+01 -0.18089644870E+03  0.19221283914E+03  0.00000000000E+00 0. -1.
</event>
<event>
 8    1  0.4205029E-010  0.5528444E+02  0.7561462E-02  0.1418759E+00
          2   -1    0    0  501    0  0.00000000000E+00  0.00000000000E+00  0.71869949389E+02  0.71869949389E+02  0.00000000000E+00 0. -1.
         -2   -1    0    0    0  501 -0.00000000000E+00 -0.00000000000E+00 -0.16312971355E+03  0.16312971355E+03  0.00000000000E+00 0.  1.
         25    2    1    2    0    0 -0.31658583800E+02 -0.25545588131E+02 -0.30269206020E+02  0.13497834435E+03  0.12509230836E+03 0.  0.
         23    2    1    2    0    0  0.31658583800E+02  0.25545588131E+02 -0.60990558141E+02  0.10002131859E+03  0.68040965515E+02 0.  0.
          5    1    3    3  502    0 -0.26080239692E+02 -0.35790926247E+02 -0.75747176284E+02  0.87842338419E+02  0.41800000000E+01 0. -1.
         -5    1    3    3    0  502 -0.55783441076E+01  0.10245338116E+02  0.45477970264E+02  0.47136005934E+02  0.41800000000E+01 0. -1.
        -11    1    4    4    0    0  0.32740443348E+02  0.49987613937E+01 -0.70091938939E+02  0.77522926611E+02  0.00000000000E+00 0.  1.
         11    1    4    4    0    0 -0.10818595484E+01  0.20546826737E+02  0.91013807978E+01  0.22498391975E+02  0.00000000000E+00 0. -1.
</event>
<event>
 8    1  0.4205029E-010  0.1061634E+03  0.7561462E-02  0.1267844E+00
         -2   -1    0    0    0  501 -0.00000000000E+00  0.00000000000E+00  0.18385691834E+03  0.18385691834E+03  0.00000000000E+00 0.  1.
          2   -1    0    0  501    0  0.00000000000E+00 -0.00000000000E+00 -0.10488805638E+03  0.10488805638E+03  0.00000000000E+00 0. -1.
         25    2    1    2    0    0 -0.12453802584E+02 -0.49430385644E+02  0.98480149040E+02  0.16716403267E+03  0.12508802437E+03 0.  0.
         23    2    1    2    0    0  0.12453802584E+02  0.49430385644E+02 -0.19511287087E+02  0.12158094205E+03  0.10864057677E+03 0.  0.
          5    1    3    3  502    0 -0.52026625095E+02 -0.47569190067E+02  0.10526010275E+03  0.12675472059E+03  0.41800000000E+01 0.  1.
         -5    1    3    3    0  502  0.39572822511E+02 -0.18611955775E+01 -0.67799537084E+01  0.40409312080E+02  0.41800000000E+01 0.  1.
        -11    1    4    4    0    0 -0.36364182237E+02  0.36158040053E+02 -0.41934780718E+02  0.66244120072E+02  0.00000000000E+00 0.  1.
         11    1    4    4    0    0  0.48817984821E+02  0.13272345591E+02  0.22423493631E+02  0.55336821973E+02  0.00000000000E+00 0. -1.
</event>
<event>
 8    1  0.4205029E-010  0.1138894E+03  0.7561462E-02  0.1253532E+00
         -1   -1    0    0    0  501 -0.00000000000E+00  0.00000000000E+00  0.32157657312E+03  0.32157657312E+03  0.00000000000E+00 0.  1.
          1   -1    0    0  501    0  0.00000000000E+00 -0.00000000000E+00 -0.51546318093E+02  0.51546318093E+02  0.00000000000E+00 0. -1.
         25    2    1    2    0    0 -0.52586279612E+02  0.89050589820E+00  0.16494484800E+03  0.21358929889E+03  0.12508987135E+03 0.  0.
         23    2    1    2    0    0  0.52586279612E+02 -0.89050589820E+00  0.10508540702E+03  0.15953359232E+03  0.10789770389E+03 0.  0.
          5    1    3    3  502    0 -0.79913612565E+01  0.60385660708E+02  0.79659472583E+02  0.10036629836E+03  0.41800000000E+01 0. -1.
         -5    1    3    3    0  502 -0.44594918356E+02 -0.59495154810E+02  0.85285375417E+02  0.11322300053E+03  0.41800000000E+01 0. -1.
        -11    1    4    4    0    0 -0.19786998945E+02  0.14668645398E+01 -0.11021528920E+02  0.22696940731E+02  0.00000000000E+00 0. -1.
         11    1    4    4    0    0  0.72373278557E+02 -0.23573704380E+01  0.11610693594E+03  0.13683665159E+03  0.00000000000E+00 0.  1.
</event>
<event>
 8    1  0.4205029E-010  0.1263103E+03  0.7561462E-02  0.1233036E+00
         -1   -1    0    0    0  501 -0.00000000000E+00  0.00000000000E+00  0.45039056076E+02  0.45039056076E+02  0.00000000000E+00 0.  1.
          1   -1    0    0  501    0  0.00000000000E+00 -0.00000000000E+00 -0.53461935182E+03  0.53461935182E+03  0.00000000000E+00 0. -1.
         25    2    1    2    0    0  0.57134457177E+02 -0.17593776147E+02 -0.41569440374E+03  0.43820453298E+03  0.12508992074E+03 0.  0.
         23    2    1    2    0    0 -0.57134457177E+02  0.17593776147E+02 -0.73885892005E+02  0.14145387491E+03  0.10476729707E+03 0.  0.
          5    1    3    3  502    0  0.16277600608E+02 -0.66994168996E+02 -0.27492779093E+03  0.28347123591E+03  0.41800000000E+01 0.  1.
         -5    1    3    3    0  502  0.40856856569E+02  0.49400392849E+02 -0.14076661280E+03  0.15473329707E+03  0.41800000000E+01 0.  1.
        -11    1    4    4    0    0  0.24223043906E+02  0.28297455853E+02 -0.33042112061E+02  0.49792399353E+02  0.00000000000E+00 0. -1.
         11    1    4    4    0    0 -0.81357501084E+02 -0.10703679705E+02 -0.40843779943E+02  0.91661475560E+02  0.00000000000E+00 0.  1.
</event>
<event>
 8    1  0.4311117E-010  0.1443326E+03  0.7561462E-02  0.1207615E+00
         -3   -1    0    0    0  501 -0.00000000000E+00  0.00000000000E+00  0.25059193602E+02  0.25059193602E+02  0.00000000000E+00 0.  1.
          3   -1    0    0  501    0  0.00000000000E+00 -0.00000000000E+00 -0.99518936724E+03  0.99518936724E+03  0.00000000000E+00 0. -1.
         25    2    1    2    0    0 -0.36551172067E+02  0.10009828946E+03 -0.51885310693E+03  0.54425288331E+03  0.12508796379E+03 0.  0.
         23    2    1    2    0    0  0.36551172067E+02 -0.10009828946E+03 -0.45127706671E+03  0.47599567754E+03  0.10754179822E+03 0.  0.
          5    1    3    3  502    0 -0.76203324882E+02  0.64485886226E+02 -0.42156997958E+03  0.43324830793E+03  0.41800000000E+01 0. -1.
         -5    1    3    3    0  502  0.39652152814E+02  0.35612403230E+02 -0.97283127349E+02  0.11100457537E+03  0.41800000000E+01 0. -1.
        -11    1    4    4    0    0  0.62527112438E+02 -0.55136690824E+02 -0.16301856875E+03  0.18309764669E+03  0.00000000000E+00 0.  1.
         11    1    4    4    0    0 -0.25975940371E+02 -0.44961598631E+02 -0.28825849796E+03  0.29289803085E+03  0.00000000000E+00 0. -1.
</event>
<event>
 8    1  0.4205029E-010  0.7717323E+02  0.7561462E-02  0.1337270E+00
          2   -1    0    0  501    0  0.00000000000E+00  0.00000000000E+00  0.20634343557E+03  0.20634343557E+03  0.00000000000E+00 0. -1.
         -2   -1    0    0    0  501 -0.00000000000E+00 -0.00000000000E+00 -0.67087072407E+02  0.67087072407E+02  0.00000000000E+00 0.  1.
         25    2    1    2    0    0 -0.18501130142E+02  0.39025353444E+01  0.69540521886E+02  0.14436236523E+03  0.12508831565E+03 0.  0.
         23    2    1    2    0    0  0.18501130142E+02 -0.39025353444E+01  0.69715841277E+02  0.12906814275E+03  0.10696151340E+03 0.  0.
          5    1    3    3  502    0 -0.12840935888E+02 -0.23632144016E+02 -0.30197868535E+02  0.40654046900E+02  0.41800000000E+01 0. -1.
         -5    1    3    3    0  502 -0.56601942539E+01  0.27534679361E+02  0.99738390421E+02  0.10370831833E+03  0.41800000000E+01 0. -1.
        -11    1    4    4    0    0  0.53188582891E+02  0.19736271407E+02  0.65843994745E+02  0.86913620354E+02  0.00000000000E+00 0. -1.
         11    1    4    4    0    0 -0.34687452750E+02 -0.23638806751E+02  0.38718465326E+01  0.42154522396E+02  0.00000000000E+00 0.  1.
</event>
<event>
 8    1  0.4205029E-010  0.1037823E+03  0.7561462E-02  0.1272538E+00
          2   -1    0    0  501    0  0.00000000000E+00  0.00000000000E+00  0.45537533250E+03  0.45537533250E+03  0.00000000000E+00 0. -1.
         -2   -1    0    0    0  501 -0.00000000000E+00 -0.00000000000E+00 -0.66208530406E+02  0.66208530406E+02  0.00000000000E+00 0.  1.
         25    2    1    2    0    0 -0.10709921589E+02  0.25230302263E+02  0.39132200623E+03  0.41174277778E+03  0.12509169405E+03 0.  0.
         23    2    1    2    0    0  0.10709921589E+02 -0.25230302263E+02 -0.21552041362E+01  0.10984108513E+03  0.10634448037E+03 0.  0.
          5    1    3    3  502    0  0.11587346746E+01 -0.38923151527E+02  0.27935567690E+03  0.28208761229E+03  0.41800000000E+01 0.  1.
         -5    1    3    3    0  502 -0.11868656264E+02  0.64153453791E+02  0.11196632933E+03  0.12965516549E+03  0.41800000000E+01 0.  1.
        -11    1    4    4    0    0  0.21443706151E+02  0.35434305483E+02  0.17803278824E+02  0.45081917389E+02  0.00000000000E+00 0. -1.
         11    1    4    4    0    0 -0.10733784562E+02 -0.60664607746E+02 -0.19958482960E+02  0.64759167738E+02  0.00000000000E+00 0.  1.
</event>
<event>
 8    1  0.4205029E-010  0.1077890E+03  0.7561462E-02  0.1264720E+00
          2   -1    0    0  501    0  0.00000000000E+00  0.00000000000E+00  0.18312779789E+03  0.18312779789E+03  0.00000000000E+00 0. -1.
         -2   -1    0    0    0  501 -0.00000000000E+00 -0.00000000000E+00 -0.10267852992E+03  0.10267852992E+03  0.00000000000E+00 0.  1.
         25    2    1    2    0    0  0.48615575725E+02 -0.76025605963E+02  0.32255910283E+02  0.15758054215E+03  0.12509123291E+03 0.  0.
         23    2    1    2    0    0 -0.48615575725E+02  0.76025605963E+02  0.48193357686E+02  0.12822578566E+03  0.77303851246E+02 0.  0.
          5    1    3    3  502    0  0.12137539145E+02 -0.84491125120E+02 -0.24996458101E+02  0.89041369026E+02  0.41800000000E+01 0. -1.
         -5    1    3    3    0  502  0.36478036580E+02  0.84655191563E+01  0.57252368384E+02  0.68539173127E+02  0.41800000000E+01 0. -1.
        -11    1    4    4    0    0 -0.35478261199E+02  0.68885333395E+02  0.68217314778E+02  0.10323515976E+03  0.00000000000E+00 0. -1.
         11    1    4    4    0    0 -0.13137314526E+02  0.71402725688E+01 -0.20023957092E+02  0.24990625901E+02  0.00000000000E+00 0.  1.
</event>
<event>
 8    1  0.4205029E-010  0.2574012E+03  0.7561462E-02  0.1108715E+00
          1   -1    0    0  501    0  0.00000000000E+00  0.00000000000E+00  0.45923520236E+03  0.45923520236E+03  0.00000000000E+00 0. -1.
         -1   -1    0    0    0  501 -0.00000000000E+00 -0.00000000000E+00 -0.18837069166E+03  0.18837069166E+03  0.00000000000E+00 0.  1.
         25    2    1    2    0    0 -0.38723399278E+02  0.24369141071E+03  0.14740880043E+02  0.27703712429E+03  0.12508904581E+03 0.  0.
         23    2    1    2    0    0  0.38723399278E+02 -0.24369141071E+03  0.25612363065E+03  0.37056876973E+03  0.10410040162E+03 0.  0.
          5    1    3    3  502    0  0.25336201989E+02  0.67753327567E+02  0.47875520960E+02  0.86844541768E+02  0.41800000000E+01 0.  1.
         -5    1    3    3    0  502 -0.64059601267E+02  0.17593808315E+03 -0.33134640918E+02  0.19019258252E+03  0.41800000000E+01 0.  1.
        -11    1    4    4    0    0 -0.11954655393E+02 -0.90061006313E+01 -0.50584227116E+01  0.15799090939E+02  0.00000000000E+00 0.  1.
         11    1    4    4    0    0  0.50678054671E+02 -0.23468531008E+03  0.26118205336E+03  0.35476967880E+03  0.00000000000E+00 0. -1.
</event>
<event>
 8    1  0.4205029E-010  0.1061704E+03  0.7561462E-02  0.1267831E+00
         -2   -1    0    0    0  501 -0.00000000000E+00  0.00000000000E+00  0.43773010789E+02  0.43773010789E+02  0.00000000000E+00 0.  1.
          2   -1    0    0  501    0  0.00000000000E+00 -0.00000000000E+00 -0.89635919685E+03  0.89635919685E+03  0.00000000000E+00 0. -1.
         25    2    1    2    0    0  0.59588099711E+02 -0.78664834032E+02 -0.78768125802E+03  0.80363357675E+03  0.12508502590E+03 0.  0.
         23    2    1    2    0    0 -0.59588099711E+02  0.78664834032E+02 -0.64904928038E+02  0.13649863088E+03  0.68412928671E+02 0.  0.
          5    1    3    3  502    0  0.59330017123E+02 -0.33529072704E+02 -0.15549986961E+03  0.16982912440E+03  0.41800000000E+01 0.  1.
         -5    1    3    3    0  502  0.25808258817E+00 -0.45135761328E+02 -0.63218138842E+03  0.63380445235E+03  0.41800000000E+01 0.  1.
        -11    1    4    4    0    0 -0.33672106731E+02  0.46976826252E+02 -0.74658304186E+02  0.94416605321E+02  0.00000000000E+00 0. -1.
         11    1    4    4    0    0 -0.25915992981E+02  0.31688007781E+02  0.97533761483E+01  0.42082025564E+02  0.00000000000E+00 0.  1.
</event>
<event>
 8    1  0.4205029E-010  0.8290995E+02  0.7561462E-02  0.1320991E+00
         -1   -1    0    0    0  501 -0.00000000000E+00  0.00000000000E+00  0.34380734956E+02  0.34380734956E+02  0.00000000000E+00 0. -1.
          1   -1    0    0  501    0  0.00000000000E+00 -0.00000000000E+00 -0.50884766917E+03  0.50884766917E+03  0.00000000000E+00 0.  1.
         25    2    1    2    0    0  0.61926983919E+00  0.31599631428E+02 -0.42822039678E+03  0.44723456136E+03  0.12508846653E+03 0.  0.
         23    2    1    2    0    0 -0.61926983919E+00 -0.31599631428E+02 -0.46246537439E+02  0.95993842767E+02  0.77956112157E+02 0.  0.
          5    1    3    3  502    0  0.30175244351E+02  0.44287301818E+02 -0.40185957727E+03  0.40543865469E+03  0.41800000000E+01 0.  1.
         -5    1    3    3    0  502 -0.29555974512E+02 -0.12687670391E+02 -0.26360819506E+02  0.41795906669E+02  0.41800000000E+01 0.  1.
        -11    1    4    4    0    0  0.12188879954E+02 -0.53168164666E+02 -0.16303244904E+02  0.56931698753E+02  0.00000000000E+00 0. -1.
         11    1    4    4    0    0 -0.12808149793E+02  0.21568533238E+02 -0.29943292535E+02  0.39062144015E+02  0.00000000000E+00 0.  1.
</event>
<event>
 8    1  0.4205029E-010  0.1027990E+03  0.7561462E-02  0.1274518E+00
          1   -1    0    0  501    0  0.00000000000E+00  0.00000000000E+00  0.28691281877E+03  0.28691281877E+03  0.00000000000E+00 0. -1.
         -1   -1    0    0    0  501 -0.00000000000E+00 -0.00000000000E+00 -0.52616835624E+02  0.52616835624E+02  0.00000000000E+00 0.  1.
         25    2    1    2    0    0  0.56126909778E+02  0.25287504815E+00  0.20231287254E+03  0.24439461275E+03  0.12509170396E+03 0.  0.
         23    2    1    2    0    0 -0.56126909778E+02 -0.25287504815E+00  0.31983110605E+02  0.95135041642E+02  0.69838834736E+02 0.  0.
          5    1    3    3  502    0 -0.38389339430E+02 -0.14678624643E+02  0.62635714883E+02  0.75032716745E+02  0.41800000000E+01 0.  1.
         -5    1    3    3    0  502  0.94516249208E+02  0.14931499691E+02  0.13967715765E+03  0.16936189600E+03  0.41800000000E+01 0.  1.
        -11    1    4    4    0    0 -0.51617672842E+02 -0.14456790988E+02 -0.63769516929E+01  0.53981927237E+02  0.00000000000E+00 0.  1.
         11    1    4    4    0    0 -0.45092369362E+01  0.14203915940E+02  0.38360062298E+02  0.41153114406E+02  0.00000000000E+00 0. -1.
</event>
<event>
 8    1  0.4205029E-010  0.1118230E+03  0.7561462E-02  0.1257231E+00
          1   -1    0    0  501    0  0.00000000000E+00  0.00000000000E+00  0.47631335364E+03  0.47631335364E+03  0.00000000000E+00 0. -1.
         -1   -1    0    0    0  501 -0.00000000000E+00 -0.00000000000E+00 -0.28683986973E+02  0.28683986973E+02  0.00000000000E+00 0.  1.
         25    2    1    2    0    0 -0.81637125344E+01  0.13122547456E+02  0.24897687156E+03  0.27906282790E+03  0.12509089450E+03 0.  0.
         23    2    1    2    0    0  0.81637125344E+01 -0.13122547456E+02  0.19865249511E+03  0.22593451272E+03  0.10651170250E+03 0.  0.
          5    1    3    3  502    0  0.24615953320E+02 -0.46248568048E+02  0.69363288025E+02  0.87026509352E+02  0.41800000000E+01 0. -1.
         -5    1    3    3    0  502 -0.32779665854E+02  0.59371115505E+02  0.17961358353E+03  0.19203631854E+03  0.41800000000E+01 0. -1.
        -11    1    4    4    0    0 -0.46161417869E+02  0.35944325477E+01  0.12212935136E+03  0.13061154202E+03  0.00000000000E+00 0. -1.
         11    1    4    4    0    0  0.54325130403E+02 -0.16716980004E+02  0.76523143752E+02  0.95322970702E+02  0.00000000000E+00 0.  1.
</event>
<event>
 8    1  0.4205029E-010  0.1342599E+03  0.7561462E-02  0.1221268E+00
         -1   -1    0    0    0  501 -0.00000000000E+00  0.00000000000E+00  0.62916170507E+03  0.62916170507E+03  0.00000000000E+00 0.  1.
          1   -1    0    0  501    0  0.00000000000E+00 -0.00000000000E+00 -0.45698542742E+02  0.45698542742E+02  0.00000000000E+00 0. -1.
         25    2    1    2    0    0  0.81232642281E+02 -0.61263223911E+02  0.16611504239E+03  0.23150327499E+03  0.12509050422E+03 0.  0.
         23    2    1    2    0    0 -0.81232642281E+02  0.61263223911E+02  0.41734811994E+03  0.44335697283E+03  0.10969971450E+03 0.  0.
          5    1    3    3  502    0 -0.10941066393E+02 -0.34849944687E+02  0.11907310868E+03  0.12461983466E+03  0.41800000000E+01 0.  1.
         -5    1    3    3    0  502  0.92173708674E+02 -0.26413279224E+02  0.47041933711E+02  0.10688344033E+03  0.41800000000E+01 0.  1.
        -11    1    4    4    0    0 -0.10089210575E+03  0.45965359898E+02  0.39368663191E+03  0.40900023895E+03  0.00000000000E+00 0.  1.
         11    1    4    4    0    0  0.19659463467E+02  0.15297864013E+02  0.23661488025E+02  0.34356733878E+02  0.00000000000E+00 0. -1.
</event>
<event>
 8    1  0.4205029E-010  0.1411158E+03  0.7561462E-02  0.1211835E+00
         -2   -1    0    0    0  501 -0.00000000000E+00  0.00000000000E+00  0.13558700596E+03  0.13558700596E+03  0.00000000000E+00 0.  1.
          2   -1    0    0  501    0  0.00000000000E+00 -0.00000000000E+00 -0.21044525966E+03  0.21044525966E+03  0.00000000000E+00 0. -1.
         25    2    1    2    0    0 -0.11122243590E+03  0.55679321944E+02  0.93971525356E+01  0.17665334394E+03  0.12508988892E+03 0.  0.
         23    2    1    2    0    0  0.11122243590E+03 -0.55679321944E+02 -0.84255406230E+02  0.16937892169E+03  0.78228054389E+02 0.  0.
          5    1    3    3  502    0 -0.12321783025E+03  0.42657527211E+02 -0.29463506149E+02  0.13374553792E+03  0.41800000000E+01 0.  1.
         -5    1    3    3    0  502  0.11995394353E+02  0.13021794733E+02  0.38860658685E+02  0.42907806017E+02  0.41800000000E+01 0.  1.
        -11    1    4    4    0    0  0.73366256544E+01 -0.23812192402E+02 -0.49287203212E+02  0.55227483950E+02  0.00000000000E+00 0.  1.
         11    1    4    4    0    0  0.10388581024E+03 -0.31867129542E+02 -0.34968203018E+02  0.11415143774E+03  0.00000000000E+00 0. -1.
</event>
<event>
 8    1  0.4205029E-010  0.8347353E+02  0.7561462E-02  0.1319473E+00
          2   -1    0    0  501    0  0.00000000000E+00  0.00000000000E+00  0.44387590981E+03  0.44387590981E+03  0.00000000000E+00 0. -1.
         -2   -1    0    0    0  501 -0.00000000000E+00 -0.00000000000E+00 -0.23450869859E+02  0.23450869859E+02  0.00000000000E+00 0.  1.
         25    2    1    2    0    0  0.15699233268E+02 -0.81115373521E+01  0.22553712092E+03  0.25850680710E+03  0.12508602416E+03 0.  0.
         23    2    1    2    0    0 -0.15699233268E+02  0.81115373521E+01  0.19488791903E+03  0.20881997257E+03  0.72884957271E+02 0.  0.
          5    1    3    3  502    0  0.16575136860E+02 -0.58342292851E+02  0.18203953910E+03  0.19192296499E+03  0.41800000000E+01 0. -1.
         -5    1    3    3    0  502 -0.87590359198E+00  0.50230755499E+02  0.43497581822E+02  0.66583842105E+02  0.41800000000E+01 0. -1.
        -11    1    4    4    0    0  0.10698711379E+02 -0.16489363578E+02  0.13422661753E+02  0.23801877760E+02  0.00000000000E+00 0.  1.
         11    1    4    4    0    0 -0.26397944646E+02  0.24600900930E+02  0.18146525728E+03  0.18501809481E+03  0.00000000000E+00 0. -1.
</event>
<event>
 8    1  0.4205029E-010  0.9577755E+02  0.7561462E-02  0.1289434E+00
          2   -1    0    0  501    0  0.00000000000E+00  0.00000000000E+00  0.86712333762E+03  0.86712333762E+03  0.00000000000E+00 0. -1.
         -2   -1    0    0    0  501 -0.00000000000E+00 -0.00000000000E+00 -0.18067259699E+02  0.18067259699E+02  0.00000000000E+00 0.  1.
         25    2    1    2    0    0 -0.20433813964E+02 -0.16221496150E+01  0.40323652668E+03  0.42269068141E+03  0.12509014182E+03 0.  0.
         23    2    1    2    0    0  0.20433813964E+02  0.16221496150E+01  0.44581955124E+03  0.46249991591E+03  0.12137103370E+03 0.  0.
          5    1    3    3  502    0 -0.44290748672E+02 -0.12561329202E+02  0.48651427493E+02  0.67111036397E+02  0.41800000000E+01 0. -1.
         -5    1    3    3    0  502  0.23856934708E+02  0.10939179587E+02  0.35458509918E+03  0.35557964501E+03  0.41800000000E+01 0. -1.
        -11    1    4    4    0    0 -0.40830666090E+02 -0.29174445839E+02  0.13061836643E+03  0.13992658515E+03  0.00000000000E+00 0.  1.
         11    1    4    4    0    0  0.61264480054E+02  0.30796595454E+02  0.31520118481E+03  0.32257333076E+03  0.00000000000E+00 0. -1.
</event>
<event>
 8    1  0.4205029E-010  0.1199316E+03  0.7561462E-02  0.1243210E+00
          1   -1    0    0  501    0  0.00000000000E+00  0.00000000000E+00  0.30048285480E+03  0.30048285480E+03  0.00000000000E+00 0. -1.
         -1   -1    0    0    0  501 -0.00000000000E+00 -0.00000000000E+00 -0.57284946566E+02  0.57284946566E+02  0.00000000000E+00 0.  1.
         25    2    1    2    0    0  0.37027450226E+02  0.18918043233E+02  0.18429770156E+03  0.22658606791E+03  0.12508668571E+03 0.  0.
         23    2    1    2    0    0 -0.37027450226E+02 -0.18918043233E+02  0.58900206670E+02  0.13118173345E+03  0.10959237389E+03 0.  0.
          5    1    3    3  502    0  0.38594450593E+02  0.70061604982E+02  0.10379666890E+03  0.13110827961E+03  0.41800000000E+01 0. -1.
         -5    1    3    3    0  502 -0.15670003668E+01 -0.51143561749E+02  0.80501032666E+02  0.95477788301E+02  0.41800000000E+01 0. -1.
        -11    1    4    4    0    0  0.16126426506E+01  0.38874321610E+02  0.46388261171E+02  0.60544894677E+02  0.00000000000E+00 0. -1.
         11    1    4    4    0    0 -0.38640092877E+02 -0.57792364843E+02  0.12511945499E+02  0.70636838773E+02  0.00000000000E+00 0.  1.
</event>
<event>
 8    1  0.4205029E-010  0.8125680E+02  0.7561462E-02  0.1325522E+00
          3   -1    0    0  501    0  0.00000000000E+00  0.00000000000E+00  0.19728462753E+03  0.19728462753E+03  0.00000000000E+00 0. -1.
         -3   -1    0    0    0  501 -0.00000000000E+00 -0.00000000000E+00 -0.78911570180E+02  0.78911570180E+02  0.00000000000E+00 0.  1.
         25    2    1    2    0    0  0.30785118864E+02  0.35590412237E+01  0.14129639995E+03  0.19124084481E+03  0.12509195725E+03 0.  0.
         23    2    1    2    0    0 -0.30785118864E+02 -0.35590412237E+01 -0.22923342595E+02  0.84955352902E+02  0.75706948380E+02 0.  0.
          5    1    3    3  502    0  0.75380743590E+02 -0.12642820269E+02  0.61001783809E+02  0.97881496905E+02  0.41800000000E+01 0. -1.
         -5    1    3    3    0  502 -0.44595624726E+02  0.16201861493E+02  0.80294616141E+02  0.93359347908E+02  0.41800000000E+01 0. -1.
        -11    1    4    4    0    0 -0.25069901283E+02  0.72588621090E+01  0.24610047053E+02  0.35872628080E+02  0.00000000000E+00 0. -1.
         11    1    4    4    0    0 -0.57152175815E+01 -0.10817903333E+02 -0.47533389648E+02  0.49082724822E+02  0.00000000000E+00 0.  1.
</event>
<event>
 8    1  0.4205029E-010  0.9727227E+02  0.7561462E-02  0.1286139E+00
          2   -1    0    0  501    0  0.00000000000E+00  0.00000000000E+00  0.62426404588E+02  0.62426404588E+02  0.00000000000E+00 0. -1.
         -2   -1    0    0    0  501 -0.00000000000E+00 -0.00000000000E+00 -0.26953441951E+03  0.26953441951E+03  0.00000000000E+00 0.  1.
         25    2    1    2    0    0 -0.51543977402E+02 -0.68049131866E+02 -0.12437587737E+03  0.19596667455E+03  0.12508442233E+03 0.  0.
         23    2    1    2    0    0  0.51543977402E+02  0.68049131866E+02 -0.82732137547E+02  0.13599414954E+03  0.66047983866E+02 0.  0.
          5    1    3    3  502    0 -0.45700975267E+02 -0.54239805744E+02 -0.15000510885E+03  0.16598054329E+03  0.41800000000E+01 0.  1.
         -5    1    3    3    0  502 -0.58430021348E+01 -0.13809326123E+02  0.25629231481E+02  0.29986131265E+02  0.41800000000E+01 0.  1.
        -11    1    4    4    0    0 -0.70513647699E+01  0.44047477721E+02 -0.33526941977E+02  0.55802848288E+02  0.00000000000E+00 0.  1.
         11    1    4    4    0    0  0.58595342172E+02  0.24001654145E+02 -0.49205195569E+02  0.80191301255E+02  0.00000000000E+00 0. -1.
</event>
<event>
 8    1  0.4205029E-010  0.8342098E+02  0.7561462E-02  0.1319614E+00
         -1   -1    0    0    0  501 -0.00000000000E+00  0.00000000000E+00  0.12723562411E+03  0.12723562411E+03  0.00000000000E+00 0.  1.
          1   -1    0    0  501    0  0.00000000000E+00 -0.00000000000E+00 -0.12075223572E+03  0.12075223572E+03  0.00000000000E+00 0. -1.
         25    2    1    2    0    0 -0.25824442158E+02  0.27444505901E+02 -0.19833013953E+02  0.13214071626E+03  0.12509083793E+03 0.  0.
         23    2    1    2    0    0  0.25824442158E+02 -0.27444505901E+02  0.26316402343E+02  0.11584714357E+03  0.10633863327E+03 0.  0.
          5    1    3    3  502    0 -0.24962267146E+02 -0.47249761502E+01 -0.68764322161E+02  0.73426456969E+02  0.41800000000E+01 0.  1.
         -5    1    3    3    0  502 -0.86217501179E+00  0.32169482051E+02  0.48931308208E+02  0.58714259291E+02  0.41800000000E+01 0.  1.
        -11    1    4    4    0    0 -0.36008912166E+02 -0.29836546327E+02  0.26931468704E+02  0.53964481454E+02  0.00000000000E+00 0.  1.
         11    1    4    4    0    0  0.61833354323E+02  0.23920404259E+01 -0.61506636157E+00  0.61882662119E+02  0.00000000000E+00 0. -1.
</event>
<event>
 8    1  0.4205029E-010  0.1006708E+03  0.7561462E-02  0.1278892E+00
          1   -1    0    0  501    0  0.00000000000E+00  0.00000000000E+00  0.44525814928E+03  0.44525814928E+03  0.00000000000E+00 0. -1.
         -1   -1    0    0    0  501 -0.00000000000E+00 -0.00000000000E+00 -0.25771593119E+02  0.25771593119E+02  0.00000000000E+00 0.  1.
         25    2    1    2    0    0 -0.39278870029E+02  0.90489276680E+01  0.30547181890E+03  0.33254401458E+03  0.12509107389E+03 0.  0.
         23    2    1    2    0    0  0.39278870029E+02 -0.90489276680E+01  0.11401473726E+03  0.13848572782E+03  0.67484989255E+02 0.  0.
          5    1    3    3  502    0  0.15843065031E+02 -0.48713685444E+02  0.12511255988E+03  0.13525772029E+03  0.41800000000E+01 0.  1.
         -5    1    3    3    0  502 -0.55121935059E+02  0.57762613112E+02  0.18035925902E+03  0.19728629429E+03  0.41800000000E+01 0.  1.
        -11    1    4    4    0    0 -0.12785884502E+02  0.81489572461E+01  0.58596099904E+02  0.60525922303E+02  0.00000000000E+00 0. -1.
         11    1    4    4    0    0  0.52064754531E+02 -0.17197884914E+02  0.55418637355E+02  0.77959805517E+02  0.00000000000E+00 0.  1.
</event>
<event>
 8    1  0.4205029E-010  0.1408006E+03  0.7561462E-02  0.1212256E+00
          2   -1    0    0  501    0  0.00000000000E+00  0.00000000000E+00  0.31391639753E+03  0.31391639753E+03  0.00000000000E+00 0. -1.
         -2   -1    0    0    0  501 -0.00000000000E+00 -0.00000000000E+00 -0.70958174201E+02  0.70958174201E+02  0.00000000000E+00 0.  1.
         25    2    1    2    0    0 -0.34681054365E+02 -0.10520974057E+03  0.11254049040E+03  0.20145646593E+03  0.12508989026E+03 0.  0.
         23    2    1    2    0    0  0.34681054365E+02  0.10520974057E+03  0.13041773293E+03  0.18341810580E+03  0.66042042888E+02 0.  0.
          5    1    3    3  502    0 -0.43127213354E+02 -0.13154647173E+03  0.86851560671E+02  0.16347812315E+03  0.41800000000E+01 0. -1.
         -5    1    3    3    0  502  0.84461589886E+01  0.26336731167E+02  0.25688929726E+02  0.37978342785E+02  0.41800000000E+01 0. -1.
        -11    1    4    4    0    0  0.98016605061E+01  0.76564323740E+02  0.43552740351E+02  0.88628490964E+02  0.00000000000E+00 0.  1.
         11    1    4    4    0    0  0.24879393859E+02  0.28645416828E+02  0.86864992583E+02  0.94789614834E+02  0.00000000000E+00 0. -1.
</event>
<event>
 8    1  0.4205029E-010  0.1146774E+03  0.7561462E-02  0.1252145E+00
         -1   -1    0    0    0  501 -0.00000000000E+00  0.00000000000E+00  0.13399343383E+02  0.13399343383E+02  0.00000000000E+00 0.  1.
          1   -1    0    0  501    0  0.00000000000E+00 -0.00000000000E+00 -0.18096096758E+04  0.18096096758E+04  0.00000000000E+00 0. -1.
         25    2    1    2    0    0  0.69259321867E+02  0.26254469403E+02 -0.13504741696E+04  0.13582761722E+04  0.12509007320E+03 0.  0.
         23    2    1    2    0    0 -0.69259321867E+02 -0.26254469403E+02 -0.44573616279E+03  0.46473284694E+03  0.10867263400E+03 0.  0.
          5    1    3    3  502    0  0.94476440402E+02 -0.63906392071E+01 -0.11277102874E+04  0.11316866186E+04  0.41800000000E+01 0.  1.
         -5    1    3    3    0  502 -0.25217118536E+02  0.32645108610E+02 -0.22276388223E+03  0.22658955362E+03  0.41800000000E+01 0.  1.
        -11    1    4    4    0    0 -0.62930729712E+02 -0.42322890704E+02 -0.44007051539E+03  0.44655745693E+03  0.00000000000E+00 0. -1.
         11    1    4    4    0    0 -0.63285921546E+01  0.16068421301E+02 -0.56656473949E+01  0.18175390014E+02  0.00000000000E+00 0.  1.
</event>
<event>
 8    1  0.4205029E-010  0.8810174E+02  0.7561462E-02  0.1307515E+00
         -2   -1    0    0    0  501 -0.00000000000E+00  0.00000000000E+00  0.23380649295E+02  0.23380649295E+02  0.00000000000E+00 0.  1.
          2   -1    0    0  501    0  0.00000000000E+00 -0.00000000000E+00 -0.38674083399E+03  0.38674083399E+03  0.00000000000E+00 0. -1.
         25    2    1    2    0    0  0.18394513043E+02 -0.18136881108E+02 -0.26362237878E+03  0.29293735689E+03  0.12509289308E+03 0.  0.
         23    2    1    2    0    0 -0.18394513043E+02  0.18136881108E+02 -0.99737805908E+02  0.11718412639E+03  0.55831756056E+02 0.  0.
          5    1    3    3  502    0 -0.39854878761E+02 -0.37906951252E+02 -0.66514900335E+02  0.86412109573E+02  0.41800000000E+01 0. -1.
         -5    1    3    3    0  502  0.58249391803E+02  0.19770070144E+02 -0.19710747845E+03  0.20652524732E+03  0.41800000000E+01 0. -1.
        -11    1    4    4    0    0  0.14590765351E+02 -0.85909976860E+01 -0.43807324154E+02  0.46965703703E+02  0.00000000000E+00 0. -1.
         11    1    4    4    0    0 -0.32985278394E+02  0.26727878794E+02 -0.55930481754E+02  0.70218422688E+02  0.00000000000E+00 0.  1.
</event>
<event>
 8    1  0.4205029E-010  0.1185523E+03  0.7561462E-02  0.1245505E+00
          1   -1    0    0  501    0  0.00000000000E+00  0.00000000000E+00  0.16919746644E+03  0.16919746644E+03  0.00000000000E+00 0. -1.
         -1   -1    0    0    0  501 -0.00000000000E+00 -0.00000000000E+00 -0.12828921282E+03  0.12828921282E+03  0.00000000000E+00 0.  1.
         25    2    1    2    0    0 -0.26756161421E+02  0.70069606272E+02 -0.96914603763E+01  0.14617410875E+03  0.12508918326E+03 0.  0.
         23    2    1    2    0    0  0.26756161421E+02 -0.70069606272E+02  0.50599713999E+02  0.15131257051E+03  0.12128281428E+03 0.  0.
          5    1    3    3  502    0 -0.53694862503E+02  0.92317561415E+02 -0.21573960464E+02  0.10903475856E+03  0.41800000000E+01 0. -1.
         -5    1    3    3    0  502  0.26938701081E+02 -0.22247955143E+02  0.11882500088E+02  0.37139350187E+02  0.41800000000E+01 0. -1.
        -11    1    4    4    0    0  0.70871841498E+01  0.10185195606E+02  0.66088725903E+02  0.67243483552E+02  0.00000000000E+00 0. -1.
         11    1    4    4    0    0  0.19668977272E+02 -0.80254801878E+02 -0.15489011904E+02  0.84069086953E+02  0.00000000000E+00 0.  1.
</event>
<event>
 8    1  0.4205029E-010  0.9001785E+02  0.7561462E-02  0.1302808E+00
         -3   -1    0    0    0  501 -0.00000000000E+00  0.00000000000E+00  0.17364934732E+03  0.17364934732E+03  0.00000000000E+00 0.  1.
          3   -1    0    0  501    0  0.00000000000E+00 -0.00000000000E+00 -0.86538902808E+02  0.86538902808E+02  0.00000000000E+00 0. -1.
         25    2    1    2    0    0  0.12467713463E+02 -0.41552878659E+02 -0.13207522054E+02  0.13305433852E+03  0.12508770026E+03 0.  0.
         23    2    1    2    0    0 -0.12467713463E+02  0.41552878659E+02  0.10031796657E+03  0.12713391161E+03  0.64940368496E+02 0.  0.
          5    1    3    3  502    0  0.57161840696E+02 -0.60376585506E+02 -0.29000583718E+01  0.83298804599E+02  0.41800000000E+01 0.  1.
         -5    1    3    3    0  502 -0.44694127232E+02  0.18823706848E+02 -0.10307463682E+02  0.49755533924E+02  0.41800000000E+01 0.  1.
        -11    1    4    4    0    0 -0.18736875532E+01  0.36187578168E+02  0.10737197916E+03  0.11332163707E+03  0.00000000000E+00 0.  1.
         11    1    4    4    0    0 -0.10594025910E+02  0.53653004908E+01 -0.70540125918E+01  0.13812274541E+02  0.00000000000E+00 0. -1.
</event>
<event>
 8    1  0.4205029E-010  0.9978357E+02  0.7561462E-02  0.1280752E+00
         -2   -1    0    0    0  501 -0.00000000000E+00  0.00000000000E+00  0.13427826240E+02  0.13427826240E+02  0.00000000000E+00 0.  1.
          2   -1    0    0  501    0  0.00000000000E+00 -0.00000000000E+00 -0.88259529930E+03  0.88259529930E+03  0.00000000000E+00 0. -1.
         25    2    1    2    0    0  0.27928341123E+02 -0.43961460757E+02 -0.58283095719E+03  0.59837402293E+03  0.12508774675E+03 0.  0.
         23    2    1    2    0    0 -0.27928341123E+02  0.43961460757E+02 -0.28633651588E+03  0.29764910262E+03  0.62400205884E+02 0.  0.
          5    1    3    3  502    0 -0.15363040593E+01 -0.75433684501E+02 -0.21283418984E+03  0.22585053853E+03  0.41800000000E+01 0. -1.
         -5    1    3    3    0  502  0.29464645182E+02  0.31472223744E+02 -0.36999676734E+03  0.37252348440E+03  0.41800000000E+01 0. -1.
        -11    1    4    4    0    0 -0.10112156089E+02 -0.15559904495E+02 -0.82111040988E+02  0.84181882735E+02  0.00000000000E+00 0.  1.
         11    1    4    4    0    0 -0.17816185034E+02  0.59521365252E+02 -0.20422547489E+03  0.21346721988E+03  0.00000000000E+00 0. -1.
</event>
<event>
 8    1  0.4205029E-010  0.1261077E+03  0.7561462E-02  0.1233348E+00
         -2   -1    0    0    0  501 -0.00000000000E+00  0.00000000000E+00  0.59638014599E+03  0.59638014599E+03  0.00000000000E+00 0. -1.
          2   -1    0    0  501    0  0.00000000000E+00 -0.00000000000E+00 -0.48893577245E+02  0.48893577245E+02  0.00000000000E+00 0.  1.
         25    2    1    2    0    0 -0.99036387998E+02 -0.31141486016E+02  0.14862434482E+03  0.22026185193E+03  0.12509232287E+03 0.  0.
         23    2    1    2    0    0  0.99036387998E+02  0.31141486016E+02  0.39886222392E+03  0.42501187131E+03  0.10375942743E+03 0.  0.
          5    1    3    3  502    0 -0.47874327066E+02  0.19788293021E+02  0.13763538594E+03  0.14712069738E+03  0.41800000000E+01 0. -1.
         -5    1    3    3    0  502 -0.51162060932E+02 -0.50929779037E+02  0.10988958878E+02  0.73141154549E+02  0.41800000000E+01 0. -1.
        -11    1    4    4    0    0  0.81632363205E+02 -0.10970925957E+02  0.34385600951E+03  0.35358331298E+03  0.00000000000E+00 0. -1.
         11    1    4    4    0    0  0.17404024793E+02  0.42112411973E+02  0.55006214407E+02  0.71428558326E+02  0.00000000000E+00 0.  1.
</event>
<event>
 8    1  0.6181256E-010  0.6955906E+02  0.7561462E-02  0.1361599E+00
         -1   -1    0    0    0  501 -0.00000000000E+00  0.00000000000E+00  0.75845698894E+02  0.75845698894E+02  0.00000000000E+00 0.  1.
          1   -1    0    0  501    0  0.00000000000E+00 -0.00000000000E+00 -0.19819314230E+03  0.19819314230E+03  0.00000000000E+00 0. -1.
         25    2    1    2    0    0  0.15371688234E+02 -0.34808861728E+02 -0.13242424691E+03  0.18609546351E+03  0.12508954678E+03 0.  0.
         23    2    1    2    0    0 -0.15371688234E+02  0.34808861728E+02  0.10076803500E+02  0.87943377690E+02  0.78641910308E+02 0.  0.
          5    1    3    3  502    0 -0.30215855906E+02 -0.65278742180E+01  0.10867628920E+02  0.33033147720E+02  0.41800000000E+01 0. -1.
         -5    1    3    3    0  502  0.45587544141E+02 -0.28280987510E+02 -0.14329187583E+03  0.15306231579E+03  0.41800000000E+01 0. -1.
        -11    1    4    4    0    0 -0.28400584069E+02  0.24166731723E+02  0.39329655284E+02  0.54198209218E+02  0.00000000000E+00 0.  1.
         11    1    4    4    0    0  0.13028895835E+02  0.10642130005E+02 -0.29252851785E+02  0.33745168473E+02  0.00000000000E+00 0. -1.
</event>
<event>
 8    1  0.4205029E-010  0.1086215E+03  0.7561462E-02  0.1263144E+00
         -1   -1    0    0    0  501 -0.00000000000E+00  0.00000000000E+00  0.28723992722E+03  0.28723992722E+03  0.00000000000E+00 0.  1.
          1   -1    0    0  501    0  0.00000000000E+00 -0.00000000000E+00 -0.60066615345E+02  0.60066615345E+02  0.00000000000E+00 0. -1.
         25    2    1    2    0    0 -0.67592232596E+01  0.43719410923E+02  0.62825630664E+02  0.14680452760E+03  0.12508970966E+03 0.  0.
         23    2    1    2    0    0  0.67592232596E+01 -0.43719410923E+02  0.16434768122E+03  0.20050201497E+03  0.10598973392E+03 0.  0.
          5    1    3    3  502    0  0.57908452815E+02  0.11287918703E+02  0.19025772538E+02  0.62130978076E+02  0.41800000000E+01 0.  1.
         -5    1    3    3    0  502 -0.64667676075E+02  0.32431492220E+02  0.43799858126E+02  0.84673549520E+02  0.41800000000E+01 0.  1.
        -11    1    4    4    0    0  0.24061957050E+02  0.12284007921E+02  0.12954726631E+03  0.13233430710E+03  0.00000000000E+00 0.  1.
         11    1    4    4    0    0 -0.17302733790E+02 -0.56003418843E+02  0.34800414906E+02  0.68167707871E+02  0.00000000000E+00 0. -1.
</event>
<event>
 8    1  0.4205029E-010  0.3459108E+03  0.7561462E-02  0.1064306E+00
          2   -1    0    0  501    0  0.00000000000E+00  0.00000000000E+00  0.28825124102E+03  0.28825124102E+03  0.00000000000E+00 0. -1.
         -2   -1    0    0    0  501 -0.00000000000E+00 -0.00000000000E+00 -0.43323474951E+03  0.43323474951E+03  0.00000000000E+00 0.  1.
         25    2    1    2    0    0 -0.15601907853E+03  0.28819973554E+03 -0.13719552213E+02  0.35105096013E+03  0.12509000785E+03 0.  0.
         23    2    1    2    0    0  0.15601907853E+03 -0.28819973554E+03 -0.13126395628E+03  0.37043503039E+03  0.11220893500E+03 0.  0.
          5    1    3    3  502    0 -0.17310583950E+03  0.25973204892E+03  0.59835921078E+01  0.31221730362E+03  0.41800000000E+01 0. -1.
         -5    1    3    3    0  502  0.17086760967E+02  0.28467686618E+02 -0.19703144320E+02  0.38833656508E+02  0.41800000000E+01 0. -1.
        -11    1    4    4    0    0  0.42682997099E+01 -0.11836967916E+03 -0.50917223522E+02  0.12892696761E+03  0.00000000000E+00 0.  1.
         11    1    4    4    0    0  0.15175077882E+03 -0.16983005638E+03 -0.80346732754E+02  0.24150806278E+03  0.00000000000E+00 0. -1.
</event>
<event>
 8    1  0.4205029E-010  0.1014562E+03  0.7561462E-02  0.1277263E+00
          1   -1    0    0  501    0  0.00000000000E+00  0.00000000000E+00  0.30920016362E+03  0.30920016362E+03  0.00000000000E+00 0. -1.
         -1   -1    0    0    0  501 -0.00000000000E+00 -0.00000000000E+00 -0.50687856763E+02  0.50687856763E+02  0.00000000000E+00 0.  1.
         25    2    1    2    0    0 -0.39425373797E+02  0.41118391709E+02  0.83784335643E+02  0.16097102002E+03  0.12508705829E+03 0.  0.
         23    2    1    2    0    0  0.39425373797E+02 -0.41118391709E+02  0.17472797121E+03  0.19891700036E+03  0.76111936472E+02 0.  0.
          5    1    3    3  502    0 -0.59880683978E+02 -0.95034864000E+01 -0.12597531709E+00  0.60774179033E+02  0.41800000000E+01 0.  1.
         -5    1    3    3    0  502  0.20455310181E+02  0.50621878109E+02  0.83910310960E+02  0.10019684098E+03  0.41800000000E+01 0.  1.
        -11    1    4    4    0    0 -0.10387006566E+02  0.11107818595E+02  0.78791011814E+01  0.17127573523E+02  0.00000000000E+00 0.  1.
         11    1    4    4    0    0  0.49812380363E+02 -0.52226210304E+02  0.16684887003E+03  0.18178942684E+03  0.00000000000E+00 0. -1.
</event>
<event>
 8    1  0.4205029E-010  0.1441856E+03  0.7561462E-02  0.1207805E+00
         -1   -1    0    0    0  501 -0.00000000000E+00  0.00000000000E+00  0.15794338395E+03  0.15794338395E+03  0.00000000000E+00 0.  1.
          1   -1    0    0  501    0  0.00000000000E+00 -0.00000000000E+00 -0.19351304673E+03  0.19351304673E+03  0.00000000000E+00 0. -1.
         25    2    1    2    0    0 -0.18524269926E+02 -0.13191014625E+03  0.28491009287E+02  0.18493969605E+03  0.12509004079E+03 0.  0.
         23    2    1    2    0    0  0.18524269926E+02  0.13191014625E+03 -0.64060672066E+02  0.16651673464E+03  0.76685187291E+02 0.  0.
          5    1    3    3  502    0  0.21020351320E+02 -0.82072737632E+02  0.69048785996E+02  0.10937548482E+03  0.41800000000E+01 0. -1.
         -5    1    3    3    0  502 -0.39544621246E+02 -0.49837408616E+02 -0.40557776709E+02  0.75564211229E+02  0.41800000000E+01 0. -1.
        -11    1    4    4    0    0 -0.24303912103E+01  0.10787207576E+03 -0.76521473801E+02  0.13227935396E+03  0.00000000000E+00 0.  1.
         11    1    4    4    0    0  0.20954661136E+02  0.24038070484E+02  0.12460801736E+02  0.34237380680E+02  0.00000000000E+00 0. -1.
</event>
<event>
 8    1  0.4205029E-010  0.1389725E+03  0.7561462E-02  0.1214718E+00
          2   -1    0    0  501    0  0.00000000000E+00  0.00000000000E+00  0.14927391365E+03  0.14927391365E+03  0.00000000000E+00 0. -1.
         -2   -1    0    0    0  501 -0.00000000000E+00 -0.00000000000E+00 -0.21513300737E+03  0.21513300737E+03  0.00000000000E+00 0.  1.
         25    2    1    2    0    0  0.74499557061E+02  0.77257275420E+02  0.66218604677E+02  0.17762730623E+03  0.12509070991E+03 0.  0.
         23    2    1    2    0    0 -0.74499557061E+02 -0.77257275420E+02 -0.13207769839E+03  0.18677961478E+03  0.76962558942E+02 0.  0.
          5    1    3    3  502    0  0.29883526251E+02 -0.24906266920E+02  0.52133867754E+02  0.65182511765E+02  0.41800000000E+01 0.  1.
         -5    1    3    3    0  502  0.44616030810E+02  0.10216354234E+03  0.14084736923E+02  0.11244479447E+03  0.41800000000E+01 0.  1.
        -11    1    4    4    0    0  0.13312324344E+02 -0.99199174452E+01 -0.38249028918E+02  0.41696653999E+02  0.00000000000E+00 0.  1.
         11    1    4    4    0    0 -0.87811881405E+02 -0.67337357975E+02 -0.93828669473E+02  0.14508296078E+03  0.00000000000E+00 0. -1.
</event>
<event>
 7    1  0.4205029E-010  0.9415012E+02  0.7561462E-02  0.1293102E+00
         -2   -1    0    0    0  501 -0.00000000000E+00  0.00000000000E+00  0.17360756843E+03  0.17360756843E+03  0.00000000000E+00 0.  1.
          2   -1    0    0  501    0  0.00000000000E+00 -0.00000000000E+00 -0.12195957034E+03  0.12195957034E+03  0.00000000000E+00 0. -1.
         25    2    1    2    0    0  0.29008510534E+01  0.88243737090E+02  0.10121720470E+03  0.18354309106E+03  0.12509105355E+03 0.  0.
          5    1    3    3  502    0 -0.16614047243E+02  0.18600821937E+02  0.10786777434E+03  0.11079235661E+03  0.41800000000E+01 0.  1.
         -5    1    3    3    0  502  0.19514898296E+02  0.69642915153E+02 -0.66505696414E+01  0.72750734451E+02  0.41800000000E+01 0.  1.
        -11    1    1    2    0    0 -0.11410796803E+02 -0.40825226603E+02  0.70174350177E+00  0.42395729205E+02  0.00000000000E+00 0.  1.
         11    1    1    2    0    0  0.85099457495E+01 -0.47418510487E+02 -0.50270950112E+02  0.69628318511E+02  0.00000000000E+00 0. -1.
</event>
<event>
 8    1  0.4205029E-010  0.1456283E+03  0.7561462E-02  0.1205950E+00
          2   -1    0    0  501    0  0.00000000000E+00  0.00000000000E+00  0.34708255594E+02  0.34708255594E+02  0.00000000000E+00 0. -1.
         -2   -1    0    0    0  501 -0.00000000000E+00 -0.00000000000E+00 -0.95431563891E+03  0.95431563891E+03  0.00000000000E+00 0.  1.
         25    2    1    2    0    0  0.55785430252E+02  0.82478467994E+02 -0.73622314971E+03  0.75338466174E+03  0.12509680438E+03 0.  0.
         23    2    1    2    0    0 -0.55785430252E+02 -0.82478467994E+02 -0.18338423360E+03  0.23563923276E+03  0.10945939417E+03 0.  0.
          5    1    3    3  502    0  0.35248473781E+02  0.11276229308E+03 -0.62900569188E+03  0.64001829853E+03  0.41800000000E+01 0. -1.
         -5    1    3    3    0  502  0.20536956472E+02 -0.30283825081E+02 -0.10721745784E+03  0.11336636321E+03  0.41800000000E+01 0. -1.
        -11    1    4    4    0    0 -0.77284121120E+02 -0.84625920365E+02 -0.18054501013E+03  0.21384780209E+03  0.00000000000E+00 0. -1.
         11    1    4    4    0    0  0.21498690868E+02  0.21474523709E+01 -0.28392234685E+01  0.21791430670E+02  0.00000000000E+00 0.  1.
</event>
<event>
 8    1  0.4205029E-010  0.1006511E+03  0.7561462E-02  0.1278933E+00
         -1   -1    0    0    0  501 -0.00000000000E+00  0.00000000000E+00  0.10345452171E+02  0.10345452171E+02  0.00000000000E+00 0.  1.
          1   -1    0    0  501    0  0.00000000000E+00 -0.00000000000E+00 -0.10895609833E+04  0.10895609833E+04  0.00000000000E+00 0. -1.
         25    2    1    2    0    0  0.28321737409E+02 -0.22796830924E+02 -0.74421761942E+03  0.75553378248E+03  0.12509842167E+03 0.  0.
         23    2    1    2    0    0 -0.28321737409E+02  0.22796830924E+02 -0.33499791173E+03  0.34437265301E+03  0.71042993802E+02 0.  0.
          5    1    3    3  502    0 -0.21225141822E+02 -0.62585383675E+02 -0.35076933838E+03  0.35696503757E+03  0.41800000000E+01 0. -1.
         -5    1    3    3    0  502  0.49546879231E+02  0.39788552751E+02 -0.39344828104E+03  0.39856874491E+03  0.41800000000E+01 0. -1.
        -11    1    4    4    0    0 -0.32734097146E+02  0.41117412235E+02 -0.30051915414E+03  0.30508019390E+03  0.00000000000E+00 0. -1.
         11    1    4    4    0    0  0.44123597367E+01 -0.18320581311E+02 -0.34478757584E+02  0.39292459105E+02  0.00000000000E+00 0.  1.
</event>
<event>
 7    1  0.4205029E-010  0.8925227E+02  0.7561462E-02  0.1304673E+00
          3   -1    0    0  501    0  0.00000000000E+00  0.00000000000E+00  0.11435696128E+03  0.11435696128E+03  0.00000000000E+00 0. -1.
         -3   -1    0    0    0  501 -0.00000000000E+00 -0.00000000000E+00 -0.88014502570E+02  0.88014502570E+02  0.00000000000E+00 0.  1.
         25    2    1    2    0    0  0.38472408456E+01 -0.31780067048E+02  0.52108222099E+02  0.13922249956E+03  0.12507143418E+03 0.  0.
          5    1    3    3  502    0  0.59279421897E+02 -0.26504142661E+02  0.34553803759E+01  0.65160812550E+02  0.41800000000E+01 0. -1.
         -5    1    3    3    0  502 -0.55432181052E+02 -0.52759243871E+01  0.48652841723E+02  0.74061687005E+02  0.41800000000E+01 0. -1.
        -11    1    1    2    0    0 -0.85128727310E+01 -0.11364839687E+02 -0.75796662155E+01  0.16095959840E+02  0.00000000000E+00 0.  1.
         11    1    1    2    0    0  0.46656318854E+01  0.43144906735E+02 -0.18186097172E+02  0.47053004457E+02  0.00000000000E+00 0. -1.
</event>
<event>
 8    1  0.4205029E-010  0.9356136E+02  0.7561462E-02  0.1294450E+00
          1   -1    0    0  501    0  0.00000000000E+00  0.00000000000E+00  0.15122913620E+03  0.15122913620E+03  0.00000000000E+00 0. -1.
         -1   -1    0    0    0  501 -0.00000000000E+00 -0.00000000000E+00 -0.10705083028E+03  0.10705083028E+03  0.00000000000E+00 0.  1.
         25    2    1    2    0    0 -0.26934244694E+01  0.36549553680E+02  0.28269809670E+02  0.13338372587E+03  0.12509561055E+03 0.  0.
         23    2    1    2    0    0  0.26934244694E+01 -0.36549553680E+02  0.15908496250E+02  0.12489624060E+03  0.11833370718E+03 0.  0.
          5    1    3    3  502    0 -0.58639690890E+02  0.37313953836E+01 -0.71900081482E+01  0.59343957370E+02  0.41800000000E+01 0.  1.
         -5    1    3    3    0  502  0.55946266421E+02  0.32818158296E+02  0.35459817819E+02  0.74039768504E+02  0.41800000000E+01 0.  1.
        -11    1    4    4    0    0  0.22198340224E+02 -0.46742426137E+00 -0.45743142785E+02  0.50847024554E+02  0.00000000000E+00 0.  1.
         11    1    4    4    0    0 -0.19504915755E+02 -0.36082129419E+02  0.61651639035E+02  0.74049216050E+02  0.00000000000E+00 0. -1.
</event>
<event>
 8    1  0.4205029E-010  0.1518924E+03  0.7561462E-02  0.1198167E+00
          2   -1    0    0  501    0  0.00000000000E+00  0.00000000000E+00  0.81762399121E+03  0.81762399121E+03  0.00000000000E+00 0. -1.
         -2   -1    0    0    0  501 -0.00000000000E+00 -0.00000000000E+00 -0.39606924729E+02  0.39606924729E+02  0.00000000000E+00 0.  1.
         25    2    1    2    0    0  0.10327904314E+03 -0.76444275919E+02  0.38644581159E+03  0.42602379806E+03  0.12508246539E+03 0.  0.
         23    2    1    2    0    0 -0.10327904314E+03  0.76444275919E+02  0.39157125489E+03  0.43120711788E+03  0.12689067254E+03 0.  0.
          5    1    3    3  502    0  0.31623289069E+02 -0.95611209064E+02  0.17558059358E+03  0.20245382919E+03  0.41800000000E+01 0.  1.
         -5    1    3    3    0  502  0.71655754067E+02  0.19166933145E+02  0.21086521801E+03  0.22356996887E+03  0.41800000000E+01 0.  1.
        -11    1    4    4    0    0 -0.43422847382E+02  0.36658569862E+02  0.33443098157E+02  0.65938116696E+02  0.00000000000E+00 0.  1.
         11    1    4    4    0    0 -0.59856195754E+02  0.39785706057E+02  0.35812815673E+03  0.36526900118E+03  0.00000000000E+00 0. -1.
</event>
<event>
 8    1  0.4205029E-010  0.9870538E+02  0.7561462E-02  0.1283042E+00
         -1   -1    0    0    0  501 -0.00000000000E+00  0.00000000000E+00  0.27842098870E+02  0.27842098870E+02  0.00000000000E+00 0.  1.
          1   -1    0    0  501    0  0.00000000000E+00 -0.00000000000E+00 -0.82669449395E+03  0.82669449395E+03  0.00000000000E+00 0. -1.
         25    2    1    2    0    0  0.60225840404E+02  0.62957174177E+02 -0.67975108863E+03  0.69663455456E+03  0.12508957782E+03 0.  0.
         23    2    1    2    0    0 -0.60225840404E+02 -0.62957174177E+02 -0.11910130644E+03  0.15790203826E+03  0.56188743143E+02 0.  0.
          5    1    3    3  502    0 -0.13969890487E+01  0.23280573523E+02 -0.52309195085E+03  0.52362830150E+03  0.41800000000E+01 0.  1.
         -5    1    3    3    0  502  0.61622829453E+02  0.39676600653E+02 -0.15665913778E+03  0.17300625306E+03  0.41800000000E+01 0.  1.
        -11    1    4    4    0    0  0.43738110927E+01 -0.25001934002E+02 -0.14488051297E+02  0.29225512103E+02  0.00000000000E+00 0.  1.
         11    1    4    4    0    0 -0.64599651497E+02 -0.37955240175E+02 -0.10461325515E+03  0.12867652615E+03  0.00000000000E+00 0. -1.
</event>
<event>
 8    1  0.4205029E-010  0.1558292E+03  0.7561462E-02  0.1193488E+00
          4   -1    0    0  501    0  0.00000000000E+00  0.00000000000E+00  0.42131430165E+02  0.42131430165E+02  0.00000000000E+00 0. -1.
         -4   -1    0    0    0  501 -0.00000000000E+00 -0.00000000000E+00 -0.76734957864E+03  0.76734957864E+03  0.00000000000E+00 0.  1.
         25    2    1    2    0    0 -0.91180877150E+02  0.95102091108E+02 -0.29176424855E+03  0.34370254378E+03  0.12508677701E+03 0.  0.
         23    2    1    2    0    0  0.91180877150E+02 -0.95102091108E+02 -0.43345389993E+03  0.46577846502E+03  0.10820783254E+03 0.  0.
          5    1    3    3  502    0 -0.11719788469E+02  0.55949380687E+02 -0.24904083735E+02  0.62492979027E+02  0.41800000000E+01 0.  1.
         -5    1    3    3    0  502 -0.79461088681E+02  0.39152710421E+02 -0.26686016481E+03  0.28120956476E+03  0.41800000000E+01 0.  1.
        -11    1    4    4    0    0  0.11311446189E+03 -0.73640646134E+02 -0.38908719228E+03  0.41183330298E+03  0.00000000000E+00 0.  1.
         11    1    4    4    0    0 -0.21933584735E+02 -0.21461444974E+02 -0.44366707654E+02  0.53945162042E+02  0.00000000000E+00 0. -1.
</event>
<event>
 7    1  0.4205029E-010  0.1100199E+03  0.7561462E-02  0.1260533E+00
          1   -1    0    0  501    0  0.00000000000E+00  0.00000000000E+00  0.67158821457E+02  0.67158821457E+02  0.00000000000E+00 0. -1.
         -1   -1    0    0    0  501 -0.00000000000E+00 -0.00000000000E+00 -0.25205141371E+03  0.25205141371E+03  0.00000000000E+00 0.  1.
         25    2    1    2    0    0  0.34083702207E+02  0.60028483343E+02 -0.35175399970E+02  0.14713568166E+03  0.12508590043E+03 0.  0.
          5    1    3    3  502    0 -0.35990076832E+02  0.59215959345E+02 -0.19032360377E+01  0.69447175457E+02  0.41800000000E+01 0. -1.
         -5    1    3    3    0  502  0.70073779039E+02  0.81252399741E+00 -0.33272163932E+02  0.77688506208E+02  0.41800000000E+01 0. -1.
        -11    1    1    2    0    0 -0.34873049637E+02 -0.19647278187E+02 -0.47192282952E+02  0.61880988206E+02  0.00000000000E+00 0. -1.
         11    1    1    2    0    0  0.78934743002E+00 -0.40381205156E+02 -0.10252490933E+03  0.11019356530E+03  0.00000000000E+00 0.  1.
</event>
<event>
 7    1  0.4205029E-010  0.4821970E+03  0.7561462E-02  0.1018533E+00
         -1   -1    0    0    0  501 -0.00000000000E+00  0.00000000000E+00  0.13294618361E+04  0.13294618361E+04  0.00000000000E+00 0.  1.
          1   -1    0    0  501    0  0.00000000000E+00 -0.00000000000E+00 -0.28006511009E+03  0.28006511009E+03  0.00000000000E+00 0. -1.
         25    2    1    2    0    0  0.29279760409E+03 -0.37568493597E+03  0.98930419041E+03  0.11050970331E+04  0.12508822204E+03 0.  0.
          5    1    3    3  502    0  0.95438005156E+02 -0.19912733855E+03  0.36019021665E+03  0.42250985120E+03  0.41800000000E+01 0.  1.
         -5    1    3    3    0  502  0.19735959894E+03 -0.17655759741E+03  0.62911397376E+03  0.68258718189E+03  0.41800000000E+01 0.  1.
        -11    1    1    2    0    0 -0.89365546827E+02  0.80993643119E+02 -0.48866423744E+02  0.13013108220E+03  0.00000000000E+00 0. -1.
         11    1    1    2    0    0 -0.20343205727E+03  0.29469129285E+03  0.10895895937E+03  0.37429883092E+03  0.00000000000E+00 0.  1.
</event>
<event>
 8    1  0.4205029E-010  0.1526597E+03  0.7561462E-02  0.1197242E+00
          1   -1    0    0  501    0  0.00000000000E+00  0.00000000000E+00  0.11999680996E+04  0.11999680996E+04  0.00000000000E+00 0. -1.
         -1   -1    0    0    0  501 -0.00000000000E+00 -0.00000000000E+00 -0.27298310629E+02  0.27298310629E+02  0.00000000000E+00 0.  1.
         25    2    1    2    0    0 -0.25338567305E+01 -0.15138949382E+03  0.63093762554E+03  0.66079844279E+03  0.12508835037E+03 0.  0.
         23    2    1    2    0    0  0.25338567305E+01  0.15138949382E+03  0.54173216347E+03  0.56646796748E+03  0.66985236993E+02 0.  0.
          5    1    3    3  502    0  0.56125416365E+01 -0.69163590847E+02  0.50724975103E+03  0.51199109879E+03  0.41800000000E+01 0.  1.
         -5    1    3    3    0  502 -0.81463983670E+01 -0.82225902973E+02  0.12368787451E+03  0.14880734399E+03  0.41800000000E+01 0.  1.
        -11    1    4    4    0    0 -0.99727493580E+01  0.75431143554E+02  0.16156286903E+03  0.17858296054E+03  0.00000000000E+00 0.  1.
         11    1    4    4    0    0  0.12506606088E+02  0.75958350266E+02  0.38016929444E+03  0.38788500694E+03  0.00000000000E+00 0. -1.
</event>
<event>
 8    1  0.5417473E-010  0.9323462E+02  0.7561462E-02  0.1295202E+00
         -2   -1    0    0    0  501 -0.00000000000E+00  0.00000000000E+00  0.30038065188E+02  0.30038065188E+02  0.00000000000E+00 0.  1.
          2   -1    0    0  501    0  0.00000000000E+00 -0.00000000000E+00 -0.45355485650E+03  0.45355485650E+03  0.00000000000E+00 0. -1.
         25    2    1    2    0    0  0.14504345982E+02 -0.52962993476E+02 -0.22750370675E+03  0.26536590943E+03  0.12508267094E+03 0.  0.
         23    2    1    2    0    0 -0.14504345982E+02  0.52962993476E+02 -0.19601308456E+03  0.21822701226E+03  0.78653956237E+02 0.  0.
          5    1    3    3  502    0  0.38924236485E+02 -0.62627522089E+02 -0.22705898279E+03  0.23876883544E+03  0.41800000000E+01 0.  1.
         -5    1    3    3    0  502 -0.24419890503E+02  0.96645286128E+01 -0.44472396012E+00  0.26597073991E+02  0.41800000000E+01 0.  1.
        -11    1    4    4    0    0 -0.40624488365E+02  0.39380407748E+02 -0.16918979217E+03  0.17839941520E+03  0.00000000000E+00 0.  1.
         11    1    4    4    0    0  0.26120142383E+02  0.13582585728E+02 -0.26823292394E+02  0.39827597065E+02  0.00000000000E+00 0. -1.
</event>
<event>
 8    1  0.4205029E-010  0.7957777E+02  0.7561462E-02  0.1330254E+00
         -1   -1    0    0    0  501 -0.00000000000E+00  0.00000000000E+00  0.24454182986E+03  0.24454182986E+03  0.00000000000E+00 0.  1.
          1   -1    0    0  501    0  0.00000000000E+00 -0.00000000000E+00 -0.43473287916E+02  0.43473287916E+02  0.00000000000E+00 0. -1.
         25    2    1    2    0    0  0.36917660545E+02 -0.17695199248E+02  0.12666681774E+03  0.18266945049E+03  0.12509041406E+03 0.  0.
         23    2    1    2    0    0 -0.36917660545E+02  0.17695199248E+02  0.74401724210E+02  0.10534566729E+03  0.62338265251E+02 0.  0.
          5    1    3    3  502    0  0.64694949084E+02 -0.20715208617E+02  0.13668660945E+03  0.15269334599E+03  0.41800000000E+01 0. -1.
         -5    1    3    3    0  502 -0.27777288539E+02  0.30200093691E+01 -0.10019791716E+02  0.29976104504E+02  0.41800000000E+01 0. -1.
        -11    1    4    4    0    0  0.88237509675E+01 -0.66303267784E+01  0.43813143503E+02  0.45181980456E+02  0.00000000000E+00 0.  1.
         11    1    4    4    0    0 -0.45741411512E+02  0.24325526026E+02  0.30588580707E+02  0.60163686832E+02  0.00000000000E+00 0. -1.
</event>
<event>
 8    1  0.4205029E-010  0.9456093E+02  0.7561462E-02  0.1292168E+00
          3   -1    0    0  501    0  0.00000000000E+00  0.00000000000E+00  0.14962470202E+03  0.14962470202E+03  0.00000000000E+00 0. -1.
         -3   -1    0    0    0  501 -0.00000000000E+00 -0.00000000000E+00 -0.74955931249E+02  0.74955931249E+02  0.00000000000E+00 0.  1.
         25    2    1    2    0    0  0.25632626612E+02 -0.17991825082E+02  0.48301061982E+02  0.13769980945E+03  0.12508999807E+03 0.  0.
         23    2    1    2    0    0 -0.25632626612E+02  0.17991825082E+02  0.26367708794E+02  0.86880823824E+02  0.76630830379E+02 0.  0.
          5    1    3    3  502    0 -0.28300684499E+02  0.36320255984E+02  0.38992322445E+02  0.60481099094E+02  0.41800000000E+01 0.  1.
         -5    1    3    3    0  502  0.53933311112E+02 -0.54312081066E+02  0.93087395368E+01  0.77218710355E+02  0.41800000000E+01 0.  1.
        -11    1    4    4    0    0  0.10136418714E+02  0.27426848582E+02 -0.13749383934E+02  0.32311368990E+02  0.00000000000E+00 0.  1.
         11    1    4    4    0    0 -0.35769045326E+02 -0.94350235002E+01  0.40117092727E+02  0.54569454834E+02  0.00000000000E+00 0. -1.
</event>
<event>
 8    1  0.4205029E-010  0.1076355E+03  0.7561462E-02  0.1265012E+00
          1   -1    0    0  501    0  0.00000000000E+00  0.00000000000E+00  0.47226430682E+03  0.47226430682E+03  0.00000000000E+00 0. -1.
         -1   -1    0    0    0  501 -0.00000000000E+00 -0.00000000000E+00 -0.32432877855E+02  0.32432877855E+02  0.00000000000E+00 0.  1.
         25    2    1    2    0    0 -0.35544740825E+02 -0.10842887361E+02  0.26627721883E+03  0.29653316147E+03  0.12508941513E+03 0.  0.
         23    2    1    2    0    0  0.35544740825E+02  0.10842887361E+02  0.17355421014E+03  0.20816402321E+03  0.10876672237E+03 0.  0.
          5    1    3    3  502    0 -0.80529057065E+02  0.36618159644E+01  0.19340975512E+03  0.20957849055E+03  0.41800000000E+01 0.  1.
         -5    1    3    3    0  502  0.44984316240E+02 -0.14504703325E+02  0.72867463707E+02  0.86954670911E+02  0.41800000000E+01 0.  1.
        -11    1    4    4    0    0 -0.24982925345E+01  0.39433295078E+02  0.14990125228E+03  0.15502132647E+03  0.00000000000E+00 0. -1.
         11    1    4    4    0    0  0.38043033360E+02 -0.28590407718E+02  0.23652957855E+02  0.53142696732E+02  0.00000000000E+00 0.  1.
</event>
<event>
 8    1  0.4205029E-010  0.1072176E+03  0.7561462E-02  0.1265811E+00
         -1   -1    0    0    0  501 -0.00000000000E+00  0.00000000000E+00  0.39407959233E+02  0.39407959233E+02  0.00000000000E+00 0.  1.
          1   -1    0    0  501    0  0.00000000000E+00 -0.00000000000E+00 -0.31885193756E+03  0.31885193756E+03  0.00000000000E+00 0. -1.
         25    2    1    2    0    0  0.28610623612E+02 -0.42735086478E+02 -0.19441220336E+03  0.23682956147E+03  0.12508909213E+03 0.  0.
         23    2    1    2    0    0 -0.28610623612E+02  0.42735086478E+02 -0.85031774967E+02  0.12143033532E+03  0.69785873808E+02 0.  0.
          5    1    3    3  502    0 -0.75778606101E+00  0.39842658176E+02 -0.10106101144E+03  0.10871436006E+03  0.41800000000E+01 0. -1.
         -5    1    3    3    0  502  0.29368409673E+02 -0.82577744654E+02 -0.93351191923E+02  0.12811520141E+03  0.41800000000E+01 0. -1.
        -11    1    4    4    0    0 -0.32335211633E+02 -0.99301655616E+01 -0.30903471826E+02  0.45817012891E+02  0.00000000000E+00 0.  1.
         11    1    4    4    0    0  0.37245880213E+01  0.52665252040E+02 -0.54128303141E+02  0.75613322433E+02  0.00000000000E+00 0. -1.
</event>
<event>
 8    1  0.4205029E-010  0.1201172E+03  0.7561462E-02  0.1242904E+00
         -3   -1    0    0    0  501 -0.00000000000E+00  0.00000000000E+00  0.25860000444E+03  0.25860000444E+03  0.00000000000E+00 0.  1.
          3   -1    0    0  501    0  0.00000000000E+00 -0.00000000000E+00 -0.81889521830E+02  0.81889521830E+02  0.00000000000E+00 0. -1.
         25    2    1    2    0    0 -0.19231144029E+02  0.63087890057E+02  0.49372622177E+02  0.14978306292E+03  0.12508953331E+03 0.  0.
         23    2    1    2    0    0  0.19231144029E+02 -0.63087890057E+02  0.12733786043E+03  0.19070646336E+03  0.12571438141E+03 0.  0.
          5    1    3    3  502    0  0.45441192904E+02 -0.65690922475E+01  0.12733121075E+02  0.47829486280E+02  0.41800000000E+01 0.  1.
         -5    1    3    3    0  502 -0.64672336933E+02  0.69656982305E+02  0.36639501103E+02  0.10195357664E+03  0.41800000000E+01 0.  1.
        -11    1    4    4    0    0 -0.27612446264E+02 -0.34192601753E+02  0.12834201500E+03  0.13565859360E+03  0.00000000000E+00 0.  1.
         11    1    4    4    0    0  0.46843590293E+02 -0.28895288304E+02 -0.10041545694E+01  0.55047869751E+02  0.00000000000E+00 0. -1.
</event>
<event>
 8    1  0.5744690E-010  0.1566541E+03  0.7561462E-02  0.1192527E+00
          1   -1    0    0  501    0  0.00000000000E+00  0.00000000000E+00  0.13557124917E+04  0.13557124917E+04  0.00000000000E+00 0. -1.
         -1   -1    0    0    0  501 -0.00000000000E+00 -0.00000000000E+00 -0.19582741633E+02  0.19582741633E+02  0.00000000000E+00 0.  1.
         25    2    1    2    0    0 -0.62190175441E+02 -0.95703593011E+02  0.62419122833E+03  0.64675334696E+03  0.12509359152E+03 0.  0.
         23    2    1    2    0    0  0.62190175441E+02  0.95703593011E+02  0.71193852172E+03  0.72854188636E+03  0.10435528656E+03 0.  0.
          5    1    3    3  502    0 -0.22549716413E+02 -0.11759805896E+03  0.38268703053E+03  0.40100452481E+03  0.41800000000E+01 0.  1.
         -5    1    3    3    0  502 -0.39640459029E+02  0.21894465953E+02  0.24150419781E+03  0.24574882215E+03  0.41800000000E+01 0.  1.
        -11    1    4    4    0    0 -0.25292085349E+02  0.18440526644E+02  0.79812494674E+02  0.85730839902E+02  0.00000000000E+00 0. -1.
         11    1    4    4    0    0  0.87482260790E+02  0.77263066368E+02  0.63212602705E+03  0.64281104646E+03  0.00000000000E+00 0.  1.
</event>
<event>
 8    1  0.4205029E-010  0.8450038E+02  0.7561462E-02  0.1316744E+00
          1   -1    0    0  501    0  0.00000000000E+00  0.00000000000E+00  0.24064336804E+02  0.24064336804E+02  0.00000000000E+00 0. -1.
         -1   -1    0    0    0  501 -0.00000000000E+00 -0.00000000000E+00 -0.44703683451E+03  0.44703683451E+03  0.00000000000E+00 0.  1.
         25    2    1    2    0    0 -0.11141286793E+02  0.78911747225E+01 -0.30381178875E+03  0.32883805731E+03  0.12508583469E+03 0.  0.
         23    2    1    2    0    0  0.11141286793E+02 -0.78911747225E+01 -0.11916070896E+03  0.14226311401E+03  0.76505686968E+02 0.  0.
          5    1    3    3  502    0  0.33864982131E+02  0.30326070757E+02 -0.25351041156E+03  0.25758786608E+03  0.41800000000E+01 0.  1.
         -5    1    3    3    0  502 -0.45006268924E+02 -0.22434896034E+02 -0.50301377189E+02  0.71250191226E+02  0.41800000000E+01 0.  1.
        -11    1    4    4    0    0  0.35827400603E+02  0.15355839352E+02 -0.87848715585E+02  0.96108278863E+02  0.00000000000E+00 0.  1.
         11    1    4    4    0    0 -0.24686113810E+02 -0.23247014074E+02 -0.31311993374E+02  0.46154835147E+02  0.00000000000E+00 0. -1.
</event>
<event>
 8    1  0.4205029E-010  0.1163192E+03  0.7561462E-02  0.1249296E+00
         -2   -1    0    0    0  501 -0.00000000000E+00  0.00000000000E+00  0.31684383794E+03  0.31684383794E+03  0.00000000000E+00 0.  1.
          2   -1    0    0  501    0  0.00000000000E+00 -0.00000000000E+00 -0.74590836391E+02  0.74590836391E+02  0.00000000000E+00 0. -1.
         25    2    1    2    0    0  0.49369857796E+02  0.69008158929E+02  0.23176675584E+03  0.27669315928E+03  0.12507504317E+03 0.  0.
         23    2    1    2    0    0 -0.49369857796E+02 -0.69008158929E+02  0.10486245714E+02  0.11474151505E+03  0.76525453736E+02 0.  0.
          5    1    3    3  502    0 -0.22562565557E+02 -0.10573873760E+02  0.49398017827E+01  0.25743935450E+02  0.41800000000E+01 0.  1.
         -5    1    3    3    0  502  0.71932423352E+02  0.79582032689E+02  0.22682695406E+03  0.25094922383E+03  0.41800000000E+01 0.  1.
        -11    1    4    4    0    0 -0.20238912763E+02 -0.67915077098E+02 -0.18905373289E+02  0.73344968650E+02  0.00000000000E+00 0. -1.
         11    1    4    4    0    0 -0.29130945033E+02 -0.10930818315E+01  0.29391619003E+02  0.41396546402E+02  0.00000000000E+00 0.  1.
</event>
<event>
 8    1  0.4205029E-010  0.1480764E+03  0.7561462E-02  0.1202857E+00
          2   -1    0    0  501    0  0.00000000000E+00  0.00000000000E+00  0.19427812155E+03  0.19427812155E+03  0.00000000000E+00 0. -1.
         -2   -1    0    0    0  501 -0.00000000000E+00 -0.00000000000E+00 -0.14294667027E+03  0.14294667027E+03  0.00000000000E+00 0.  1.
         25    2    1    2    0    0 -0.86084358894E+02 -0.97860067993E+02  0.40673591050E+02  0.18517312974E+03  0.12509051609E+03 0.  0.
         23    2    1    2    0    0  0.86084358894E+02  0.97860067993E+02  0.10657860232E+02  0.15205166207E+03  0.77582267311E+02 0.  0.
          5    1    3    3  502    0  0.11629864738E+02  0.34152747941E+01  0.42477246628E+02  0.44370110850E+02  0.41800000000E+01 0.  1.
         -5    1    3    3    0  502 -0.97714223631E+02 -0.10127534279E+03 -0.18036555775E+01  0.14080301889E+03  0.41800000000E+01 0.  1.
        -11    1    4    4    0    0  0.46250601566E+02  0.91056301008E+02 -0.16373868030E+02  0.10343341652E+03  0.00000000000E+00 0.  1.
         11    1    4    4    0    0  0.39833757328E+02  0.68037669847E+01  0.27031728262E+02  0.48618245555E+02  0.00000000000E+00 0. -1.
</event>
<event>
 8    1  0.4205029E-010  0.1270801E+03  0.7561462E-02  0.1231854E+00
          1   -1    0    0  501    0  0.00000000000E+00  0.00000000000E+00  0.85687586881E+03  0.85687586881E+03  0.00000000000E+00 0.  1.
         -1   -1    0    0    0  501 -0.00000000000E+00 -0.00000000000E+00 -0.21869803960E+02  0.21869803960E+02  0.00000000000E+00 0. -1.
         25    2    1    2    0    0  0.60439918692E+02  0.27160945586E+02  0.34856358089E+03  0.37621128735E+03  0.12509061543E+03 0.  0.
         23    2    1    2    0    0 -0.60439918692E+02 -0.27160945586E+02  0.48644248397E+03  0.50253438543E+03  0.10734904561E+03 0.  0.
          5    1    3    3  502    0  0.34276407153E+02 -0.42173107358E+02  0.22968472392E+03  0.23606352508E+03  0.41800000000E+01 0. -1.
         -5    1    3    3    0  502  0.26163511539E+02  0.69334052945E+02  0.11887885696E+03  0.14014776226E+03  0.41800000000E+01 0. -1.
        -11    1    4    4    0    0 -0.51666672095E+02  0.35159436118E+02  0.21551888244E+03  0.22439701344E+03  0.00000000000E+00 0.  1.
         11    1    4    4    0    0 -0.87732465964E+01 -0.62320381704E+02  0.27092360153E+03  0.27813737199E+03  0.00000000000E+00 0. -1.
</event>
<event>
 8    1  0.4205029E-010  0.1253162E+03  0.7561462E-02  0.1234576E+00
          2   -1    0    0  501    0  0.00000000000E+00  0.00000000000E+00  0.10205775499E+04  0.10205775499E+04  0.00000000000E+00 0. -1.
         -2   -1    0    0    0  501 -0.00000000000E+00 -0.00000000000E+00 -0.16975259837E+02  0.16975259837E+02  0.00000000000E+00 0.  1.
         25    2    1    2    0    0 -0.56193241370E-01 -0.53796960697E+02  0.60660499282E+03  0.62169973963E+03  0.12508730071E+03 0.  0.
         23    2    1    2    0    0  0.56193241370E-01  0.53796960697E+02  0.39699729722E+03  0.41585307009E+03  0.11150249219E+03 0.  0.
          5    1    3    3  502    0 -0.44292169782E+01  0.37424576915E+02  0.27946807176E+03  0.28202853128E+03  0.41800000000E+01 0.  1.
         -5    1    3    3    0  502  0.43730237368E+01 -0.91221537612E+02  0.32713692106E+03  0.33967120835E+03  0.41800000000E+01 0.  1.
        -11    1    4    4    0    0 -0.37272555333E+02  0.71002109206E+02  0.22038742006E+03  0.23452325644E+03  0.00000000000E+00 0.  1.
         11    1    4    4    0    0  0.37328748575E+02 -0.17205148510E+02  0.17660987716E+03  0.18132981364E+03  0.00000000000E+00 0. -1.
</event>
<event>
 7    1  0.4205029E-010  0.9619842E+02  0.7561462E-02  0.1288500E+00
          2   -1    0    0  501    0  0.00000000000E+00  0.00000000000E+00  0.16491603968E+03  0.16491603968E+03  0.00000000000E+00 0. -1.
         -2   -1    0    0    0  501 -0.00000000000E+00 -0.00000000000E+00 -0.64379619803E+02  0.64379619803E+02  0.00000000000E+00 0.  1.
         25    2    1    2    0    0 -0.16928894754E+02 -0.54109215376E+02  0.75644348001E+02  0.15679460240E+03  0.12509230708E+03 0.  0.
          5    1    3    3  502    0  0.38011674256E+02  0.10849086236E+02  0.57176390640E+02  0.69636212551E+02  0.41800000000E+01 0. -1.
         -5    1    3    3    0  502 -0.54940569010E+02 -0.64958301612E+02  0.18467957362E+02  0.87158389847E+02  0.41800000000E+01 0. -1.
        -11    1    1    2    0    0 -0.10948990346E+02  0.24305126324E+02  0.50842456013E+01  0.27137964341E+02  0.00000000000E+00 0.  1.
         11    1    1    2    0    0  0.27877885100E+02  0.29804089052E+02  0.19807826279E+02  0.45363092749E+02  0.00000000000E+00 0. -1.
</event>
<event>
 8    1  0.4205029E-010  0.1492660E+03  0.7561462E-02  0.1201378E+00
         -2   -1    0    0    0  501 -0.00000000000E+00  0.00000000000E+00  0.34784061551E+02  0.34784061551E+02  0.00000000000E+00 0.  1.
          2   -1    0    0  501    0  0.00000000000E+00 -0.00000000000E+00 -0.88541822355E+03  0.88541822355E+03  0.00000000000E+00 0. -1.
         25    2    1    2    0    0 -0.77779066090E+02  0.12019520833E+03 -0.45086463189E+03  0.48930826413E+03  0.12508872783E+03 0.  0.
         23    2    1    2    0    0  0.77779066090E+02 -0.12019520833E+03 -0.39976953012E+03  0.43089402098E+03  0.73195005836E+02 0.  0.
          5    1    3    3  502    0 -0.75515666079E+02  0.12494910879E+03 -0.25914003837E+03  0.29746584257E+03  0.41800000000E+01 0.  1.
         -5    1    3    3    0  502 -0.22634000111E+01 -0.47539004604E+01 -0.19172459352E+03  0.19184242156E+03  0.41800000000E+01 0.  1.
        -11    1    4    4    0    0  0.62281912933E+02 -0.72371678970E+02 -0.16352382482E+03  0.18935875443E+03  0.00000000000E+00 0.  1.
         11    1    4    4    0    0  0.15497153158E+02 -0.47823529355E+02 -0.23624570529E+03  0.24153526654E+03  0.00000000000E+00 0. -1.
</event>
<event>
 8    1  0.4205029E-010  0.1414985E+03  0.7561462E-02  0.1211327E+00
          2   -1    0    0  501    0  0.00000000000E+00  0.00000000000E+00  0.87857914222E+03  0.87857914222E+03  0.00000000000E+00 0.  1.
         -2   -1    0    0    0  501 -0.00000000000E+00 -0.00000000000E+00 -0.36210220950E+02  0.36210220950E+02  0.00000000000E+00 0. -1.
         25    2    1    2    0    0  0.49966028248E+02 -0.94755733359E+02  0.19312718495E+03  0.25381045742E+03  0.12508551373E+03 0.  0.
         23    2    1    2    0    0 -0.49966028248E+02  0.94755733359E+02  0.64924173632E+03  0.66097890575E+03  0.62474224152E+02 0.  0.
          5    1    3    3  502    0 -0.10273589314E+02 -0.97914245027E+02  0.15026191476E+03  0.17969101660E+03  0.41800000000E+01 0. -1.
         -5    1    3    3    0  502  0.60239617563E+02  0.31585116687E+01  0.42865270187E+02  0.74119440825E+02  0.41800000000E+01 0. -1.
        -11    1    4    4    0    0 -0.57991971182E+02  0.44502711998E+02  0.37696375417E+03  0.38398597899E+03  0.00000000000E+00 0.  1.
         11    1    4    4    0    0  0.80259429338E+01  0.50253021361E+02  0.27227798214E+03  0.27699292676E+03  0.00000000000E+00 0. -1.
</event>
<event>
 8    1  0.4205029E-010  0.1173346E+03  0.7561462E-02  0.1247560E+00
          2   -1    0    0  501    0  0.00000000000E+00  0.00000000000E+00  0.21707337815E+03  0.21707337815E+03  0.00000000000E+00 0. -1.
         -2   -1    0    0    0  501 -0.00000000000E+00 -0.00000000000E+00 -0.11890750881E+03  0.11890750881E+03  0.00000000000E+00 0.  1.
         25    2    1    2    0    0  0.27434977858E+01 -0.86315183739E+02 -0.14087982374E+02  0.15265637484E+03  0.12509060640E+03 0.  0.
         23    2    1    2    0    0 -0.27434977858E+01  0.86315183739E+02  0.11225385171E+03  0.18332451212E+03  0.11640065204E+03 0.  0.
          5    1    3    3  502    0  0.11120973160E+02 -0.69504372806E+02 -0.66438335237E+02  0.96881673563E+02  0.41800000000E+01 0.  1.
         -5    1    3    3    0  502 -0.83774753741E+01 -0.16810810933E+02  0.52350352864E+02  0.55774701279E+02  0.41800000000E+01 0.  1.
        -11    1    4    4    0    0  0.54639255059E+02  0.22489996362E+02  0.47378715697E+02  0.75736324382E+02  0.00000000000E+00 0.  1.
         11    1    4    4    0    0 -0.57382752845E+02  0.63825187376E+02  0.64875136011E+02  0.10758818774E+03  0.00000000000E+00 0. -1.
</event>
<event>
 8    1  0.4205029E-010  0.1091383E+03  0.7561462E-02  0.1262174E+00
          2   -1    0    0  501    0  0.00000000000E+00  0.00000000000E+00  0.11543113133E+04  0.11543113133E+04  0.00000000000E+00 0.  1.
         -2   -1    0    0    0  501 -0.00000000000E+00 -0.00000000000E+00 -0.14406933991E+02  0.14406933991E+02  0.00000000000E+00 0. -1.
         25    2    1    2    0    0  0.21760860474E+02  0.42059610357E+02  0.75017515505E+03  0.76200453430E+03  0.12508237753E+03 0.  0.
         23    2    1    2    0    0 -0.21760860474E+02 -0.42059610357E+02  0.38972922425E+03  0.40671371298E+03  0.10622914017E+03 0.  0.
          5    1    3    3  502    0  0.37973297179E+01  0.73838808036E+02  0.25683886954E+03  0.26730182676E+03  0.41800000000E+01 0. -1.
         -5    1    3    3    0  502  0.17963530756E+02 -0.31779197679E+02  0.49333628552E+03  0.49470270754E+03  0.41800000000E+01 0. -1.
        -11    1    4    4    0    0 -0.38698739163E+02  0.19710036259E+02  0.23941923003E+03  0.24332621242E+03  0.00000000000E+00 0.  1.
         11    1    4    4    0    0  0.16937878689E+02 -0.61769646615E+02  0.15030999421E+03  0.16338750055E+03  0.00000000000E+00 0. -1.
</event>
<event>
 7    1  0.4205029E-010  0.1633117E+03  0.7561462E-02  0.1185008E+00
          2   -1    0    0  501    0  0.00000000000E+00  0.00000000000E+00  0.14673899255E+03  0.14673899255E+03  0.00000000000E+00 0. -1.
         -2   -1    0    0    0  501 -0.00000000000E+00 -0.00000000000E+00 -0.34246094222E+03  0.34246094222E+03  0.00000000000E+00 0.  1.
         25    2    1    2    0    0 -0.28435638525E+02  0.72276096179E+02  0.56091913542E+02  0.15756289194E+03  0.12508933822E+03 0.  0.
          5    1    3    3  502    0 -0.40949709899E+02  0.92420966706E+02  0.52532298495E+01  0.10130934138E+03  0.41800000000E+01 0.  1.
         -5    1    3    3    0  502  0.12514071374E+02 -0.20144870527E+02  0.50838683692E+02  0.56253550559E+02  0.41800000000E+01 0.  1.
        -11    1    1    2    0    0  0.75198406116E+02 -0.11541269734E+03 -0.22226593947E+03  0.26149003583E+03  0.00000000000E+00 0.  1.
         11    1    1    2    0    0 -0.46762767591E+02  0.43136601165E+02 -0.29547923742E+02  0.70147006994E+02  0.00000000000E+00 0. -1.
</event>
<event>
 8    1  0.4205029E-010  0.1393308E+03  0.7561462E-02  0.1214232E+00
          1   -1    0    0  501    0  0.00000000000E+00  0.00000000000E+00  0.43407769888E+02  0.43407769888E+02  0.00000000000E+00 0. -1.
         -1   -1    0    0    0  501 -0.00000000000E+00 -0.00000000000E+00 -0.51882005860E+03  0.51882005860E+03  0.00000000000E+00 0.  1.
         25    2    1    2    0    0 -0.94131904563E+02 -0.54764646848E+02 -0.25469473043E+03  0.30393899350E+03  0.12509805779E+03 0.  0.
         23    2    1    2    0    0  0.94131904563E+02  0.54764646848E+02 -0.22071755828E+03  0.25828883498E+03  0.78338366991E+02 0.  0.
          5    1    3    3  502    0  0.17055886180E+02  0.19900588348E+02 -0.18399093456E+02  0.32294515169E+02  0.41800000000E+01 0.  1.
         -5    1    3    3    0  502 -0.11118779074E+03 -0.74665235196E+02 -0.23629563697E+03  0.27164447833E+03  0.41800000000E+01 0.  1.
        -11    1    4    4    0    0  0.21563095406E+02  0.37926185062E+02 -0.28426360460E+02  0.52071302709E+02  0.00000000000E+00 0. -1.
         11    1    4    4    0    0  0.72568809157E+02  0.16838461786E+02 -0.19229119782E+03  0.20621753227E+03  0.00000000000E+00 0.  1.
</event>
<event>
 8    1  0.4205029E-010  0.2088906E+03  0.7561462E-02  0.1142448E+00
          1   -1    0    0  501    0  0.00000000000E+00  0.00000000000E+00  0.14787321380E+04  0.14787321380E+04  0.00000000000E+00 0. -1.
         -1   -1    0    0    0  501 -0.00000000000E+00 -0.00000000000E+00 -0.31994192219E+02  0.31994192219E+02  0.00000000000E+00 0.  1.
         25    2    1    2    0    0  0.98191108329E+02 -0.15946649656E+03  0.90372873009E+03  0.93136669274E+03  0.12508893428E+03 0.  0.
         23    2    1    2    0    0 -0.98191108329E+02  0.15946649656E+03  0.54300921564E+03  0.57935963743E+03  0.75680406487E+02 0.  0.
          5    1    3    3  502    0  0.42879311559E+02  0.64413276354E+01  0.28777247775E+03  0.29105085022E+03  0.41800000000E+01 0. -1.
         -5    1    3    3    0  502  0.55311796770E+02 -0.16590782420E+03  0.61595625234E+03  0.64031584253E+03  0.41800000000E+01 0. -1.
        -11    1    4    4    0    0 -0.64364584487E+02  0.41546491854E+02  0.16443268925E+03  0.18140292174E+03  0.00000000000E+00 0. -1.
         11    1    4    4    0    0 -0.33826523842E+02  0.11792000471E+03  0.37857652639E+03  0.39795671568E+03  0.00000000000E+00 0.  1.
</event>
<event>
 8    1  0.4205029E-010  0.1733754E+03  0.7561462E-02  0.1174373E+00
          2   -1    0    0  501    0  0.00000000000E+00  0.00000000000E+00  0.40693277379E+03  0.40693277379E+03  0.00000000000E+00 0. -1.
         -2   -1    0    0    0  501 -0.00000000000E+00 -0.00000000000E+00 -0.83617295852E+02  0.83617295852E+02  0.00000000000E+00 0.  1.
         25    2    1    2    0    0  0.14136314223E+03 -0.12422600351E+02  0.19452617421E+03  0.27134378333E+03  0.12509659195E+03 0.  0.
         23    2    1    2    0    0 -0.14136314223E+03  0.12422600351E+02  0.12878930373E+03  0.21920628632E+03  0.10642768543E+03 0.  0.
          5    1    3    3  502    0  0.57539375616E+02  0.56316677321E+02  0.79340658636E+02  0.11311392666E+03  0.41800000000E+01 0.  1.
         -5    1    3    3    0  502  0.83823766611E+02 -0.68739277672E+02  0.11518551557E+03  0.15822985667E+03  0.41800000000E+01 0.  1.
        -11    1    4    4    0    0 -0.12923374092E+03 -0.12590382051E+02  0.56218605092E+02  0.14149349480E+03  0.00000000000E+00 0.  1.
         11    1    4    4    0    0 -0.12129401311E+02  0.25012982402E+02  0.72570698638E+02  0.77712791519E+02  0.00000000000E+00 0. -1.
</event>
<event>
 8    1  0.4205029E-010  0.6204730E+02  0.7561462E-02  0.1389436E+00
          1   -1    0    0  501    0  0.00000000000E+00  0.00000000000E+00  0.44953441750E+03  0.44953441750E+03  0.00000000000E+00 0. -1.
         -1   -1    0    0    0  501 -0.00000000000E+00 -0.00000000000E+00 -0.35971082842E+02  0.35971082842E+02  0.00000000000E+00 0.  1.
         25    2    1    2    0    0 -0.19948325817E+02 -0.17692711541E+02  0.30188805854E+03  0.32786468429E+03  0.12509150080E+03 0.  0.
         23    2    1    2    0    0  0.19948325817E+02  0.17692711541E+02  0.11167527611E+03  0.15764081604E+03  0.10801986782E+03 0.  0.
          5    1    3    3  502    0 -0.83828260915E+01 -0.23205891843E+02 -0.64319006267E+00  0.25033403343E+02  0.41800000000E+01 0. -1.
         -5    1    3    3    0  502 -0.11565499726E+02  0.55131803020E+01  0.30253124860E+03  0.30283128095E+03  0.41800000000E+01 0. -1.
        -11    1    4    4    0    0 -0.31718740522E+02  0.29083562397E+01 -0.19875268624E+01  0.31913747811E+02  0.00000000000E+00 0. -1.
         11    1    4    4    0    0  0.51667066339E+02  0.14784355301E+02  0.11366280298E+03  0.12572706823E+03  0.00000000000E+00 0.  1.
</event>
<event>
 8    1  0.4205029E-010  0.7902405E+02  0.7561462E-02  0.1331844E+00
          2   -1    0    0  501    0  0.00000000000E+00  0.00000000000E+00  0.21810836812E+03  0.21810836812E+03  0.00000000000E+00 0. -1.
         -2   -1    0    0    0  501 -0.00000000000E+00 -0.00000000000E+00 -0.79780503232E+02  0.79780503232E+02  0.00000000000E+00 0.  1.
         25    2    1    2    0    0  0.89701423534E+01 -0.47582690996E+01  0.67071250980E+01  0.12568151825E+03  0.12509098259E+03 0.  0.
         23    2    1    2    0    0 -0.89701423534E+01  0.47582690996E+01  0.13162073979E+03  0.17220735310E+03  0.11058141227E+03 0.  0.
          5    1    3    3  502    0 -0.18744821277E+02  0.11662646980E+01 -0.54665097848E+02  0.57952340943E+02  0.41800000000E+01 0.  1.
         -5    1    3    3    0  502  0.27714963630E+02 -0.59245337975E+01  0.61372222946E+02  0.67729177310E+02  0.41800000000E+01 0.  1.
        -11    1    4    4    0    0  0.47182194434E+02  0.21089158722E+02  0.72653659386E+02  0.89159779662E+02  0.00000000000E+00 0. -1.
         11    1    4    4    0    0 -0.56152336788E+02 -0.16330889623E+02  0.58967080406E+02  0.83047573440E+02  0.00000000000E+00 0.  1.
</event>
<event>
 7    1  0.4205029E-010  0.1012052E+03  0.7561462E-02  0.1277782E+00
          2   -1    0    0  501    0  0.00000000000E+00  0.00000000000E+00  0.26094135793E+03  0.26094135793E+03  0.00000000000E+00 0. -1.
         -2   -1    0    0    0  501 -0.00000000000E+00 -0.00000000000E+00 -0.48573845223E+02  0.48573845223E+02  0.00000000000E+00 0.  1.
         25    2    1    2    0    0  0.88632573523E+01 -0.57370981111E+02  0.91155117912E+02  0.16530797585E+03  0.12508990589E+03 0.  0.
          5    1    3    3  502    0  0.59463536150E+02 -0.47904223636E+02  0.83276759599E+02  0.11306289340E+03  0.41800000000E+01 0. -1.
         -5    1    3    3    0  502 -0.50600278797E+02 -0.94667574756E+01  0.78783583132E+01  0.52245082459E+02  0.41800000000E+01 0. -1.
        -11    1    1    2    0    0  0.16749397334E+02  0.77660685255E+01  0.13448195741E+02  0.22840930368E+02  0.00000000000E+00 0.  1.
         11    1    1    2    0    0 -0.25612654687E+02  0.49604912586E+02  0.10776419906E+03  0.12136629693E+03  0.00000000000E+00 0. -1.
</event>
<event>
 8    1  0.4205029E-010  0.9506479E+02  0.7561462E-02  0.1291030E+00
         -2   -1    0    0    0  501 -0.00000000000E+00  0.00000000000E+00  0.25349562864E+03  0.25349562864E+03  0.00000000000E+00 0.  1.
          2   -1    0    0  501    0  0.00000000000E+00 -0.00000000000E+00 -0.64840617990E+02  0.64840617990E+02  0.00000000000E+00 0. -1.
         25    2    1    2    0    0  0.64925848261E+02  0.45877940903E+02  0.10693520404E+03  0.18276382847E+03  0.12508927972E+03 0.  0.
         23    2    1    2    0    0 -0.64925848261E+02 -0.45877940903E+02  0.81719806610E+02  0.13557241816E+03  0.73359406614E+02 0.  0.
          5    1    3    3  502    0  0.42694042637E+02  0.18740344610E+02  0.13159877404E+03  0.13967709734E+03  0.41800000000E+01 0. -1.
         -5    1    3    3    0  502  0.22231805624E+02  0.27137596293E+02 -0.24663570004E+02  0.43086731127E+02  0.41800000000E+01 0. -1.
        -11    1    4    4    0    0  0.16356262466E+02 -0.97102402955E+01  0.11442635778E+02  0.22197972925E+02  0.00000000000E+00 0. -1.
         11    1    4    4    0    0 -0.81282110727E+02 -0.36167700607E+02  0.70277170832E+02  0.11337444523E+03  0.00000000000E+00 0.  1.
</event>
<event>
 8    1  0.4205029E-010  0.1027648E+03  0.7561462E-02  0.1274587E+00
         -4   -1    0    0    0  501 -0.00000000000E+00  0.00000000000E+00  0.28309392127E+03  0.28309392127E+03  0.00000000000E+00 0.  1.
          4   -1    0    0  501    0  0.00000000000E+00 -0.00000000000E+00 -0.52978582481E+02  0.52978582481E+02  0.00000000000E+00 0. -1.
         25    2    1    2    0    0 -0.33819469659E+02 -0.20570216247E+02  0.20816225110E+03  0.24606162755E+03  0.12509161221E+03 0.  0.
         23    2    1    2    0    0  0.33819469659E+02  0.20570216247E+02  0.21953087688E+02  0.90010876200E+02  0.77801860201E+02 0.  0.
          5    1    3    3  502    0 -0.30448769411E+02  0.45121746513E+02  0.47354861045E+02  0.72270705211E+02  0.41800000000E+01 0.  1.
         -5    1    3    3    0  502 -0.33707002479E+01 -0.65691962760E+02  0.16080739005E+03  0.17379092234E+03  0.41800000000E+01 0.  1.
        -11    1    4    4    0    0 -0.23848151172E+02  0.12084771883E+02 -0.23929215083E+01  0.26842170164E+02  0.00000000000E+00 0. -1.
         11    1    4    4    0    0  0.57667620831E+02  0.84854443643E+01  0.24346009197E+02  0.63168706035E+02  0.00000000000E+00 0.  1.
</event>
<event>
 8    1  0.4205029E-010  0.7251151E+02  0.7561462E-02  0.1351755E+00
          1   -1    0    0  501    0  0.00000000000E+00  0.00000000000E+00  0.29647609075E+03  0.29647609075E+03  0.00000000000E+00 0. -1.
         -1   -1    0    0    0  501 -0.00000000000E+00 -0.00000000000E+00 -0.32481715058E+02  0.32481715058E+02  0.00000000000E+00 0.  1.
         25    2    1    2    0    0  0.17788636331E+02  0.23082209826E+02  0.19001241807E+03  0.22935511790E+03  0.12509926895E+03 0.  0.
         23    2    1    2    0    0 -0.17788636331E+02 -0.23082209826E+02  0.73981957617E+02  0.99602687904E+02  0.59984509599E+02 0.  0.
          5    1    3    3  502    0 -0.22921989740E+02  0.57518041984E+02  0.15069664116E+03  0.16297451587E+03  0.41800000000E+01 0.  1.
         -5    1    3    3    0  502  0.40710626071E+02 -0.34435832158E+02  0.39315776917E+02  0.66380602032E+02  0.41800000000E+01 0.  1.
        -11    1    4    4    0    0 -0.86921668240E+01 -0.14873078602E+02  0.82757425101E+02  0.84531376663E+02  0.00000000000E+00 0. -1.
         11    1    4    4    0    0 -0.90964695073E+01 -0.82091312231E+01 -0.87754674841E+01  0.15071311240E+02  0.00000000000E+00 0.  1.
</event>
<event>
 8    1  0.4205029E-010  0.1180541E+03  0.7561462E-02  0.1246342E+00
          2   -1    0    0  501    0  0.00000000000E+00  0.00000000000E+00  0.88783381515E+02  0.88783381515E+02  0.00000000000E+00 0. -1.
         -2   -1    0    0    0  501 -0.00000000000E+00 -0.00000000000E+00 -0.20543199122E+03  0.20543199122E+03  0.00000000000E+00 0.  1.
         25    2    1    2    0    0  0.36131923766E+02 -0.87120134179E+02 -0.65653439320E+02  0.16986359980E+03  0.12509130564E+03 0.  0.
         23    2    1    2    0    0 -0.36131923766E+02  0.87120134179E+02 -0.50995170388E+02  0.12435177294E+03  0.62987477617E+02 0.  0.
          5    1    3    3  502    0  0.40010919555E+02  0.88093944560E+01  0.15580379057E+02  0.44030668015E+02  0.41800000000E+01 0. -1.
         -5    1    3    3    0  502 -0.38789957886E+01 -0.95929528635E+02 -0.81233818376E+02  0.12583293178E+03  0.41800000000E+01 0. -1.
        -11    1    4    4    0    0 -0.30636104199E+02  0.35399598099E+02 -0.54951490226E+02  0.72189810251E+02  0.00000000000E+00 0.  1.
         11    1    4    4    0    0 -0.54958195674E+01  0.51720536080E+02  0.39563198377E+01  0.52161962691E+02  0.00000000000E+00 0. -1.
</event>
<event>
 8    1  0.4205029E-010  0.1067675E+03  0.7561462E-02  0.1266676E+00
         -2   -1    0    0    0  501 -0.00000000000E+00  0.00000000000E+00  0.46568723039E+02  0.46568723039E+02  0.00000000000E+00 0.  1.
          2   -1    0    0  501    0  0.00000000000E+00 -0.00000000000E+00 -0.35106393847E+03  0.35106393847E+03  0.00000000000E+00 0. -1.
         25    2    1    2    0    0  0.24723921206E+02  0.73083105802E+02 -0.15503811591E+03  0.21362379686E+03  0.12508355834E+03 0.  0.
         23    2    1    2    0    0 -0.24723921206E+02 -0.73083105802E+02 -0.14945709953E+03  0.18400886465E+03  0.74628580569E+02 0.  0.
          5    1    3    3  502    0 -0.87652724163E+01  0.74966605357E+02 -0.25546120856E+02  0.79792848114E+02  0.41800000000E+01 0.  1.
         -5    1    3    3    0  502  0.33489193623E+02 -0.18834995555E+01 -0.12949199505E+03  0.13383094875E+03  0.41800000000E+01 0.  1.
        -11    1    4    4    0    0 -0.11053042909E+02 -0.85175077260E+02 -0.10310173665E+03  0.13418990888E+03  0.00000000000E+00 0.  1.
         11    1    4    4    0    0 -0.13670878298E+02  0.12091971458E+02 -0.46355362873E+02  0.49818955773E+02  0.00000000000E+00 0. -1.
</event>
<event>
 7    1  0.4205029E-010  0.6707421E+02  0.7561462E-02  0.1370335E+00
         -2   -1    0    0    0  501 -0.00000000000E+00  0.00000000000E+00  0.28190411082E+02  0.28190411082E+02  0.00000000000E+00 0.  1.
          2   -1    0    0  501    0  0.00000000000E+00 -0.00000000000E+00 -0.34007836937E+03  0.34007836937E+03  0.00000000000E+00 0. -1.
         25    2    1    2    0    0  0.21026024989E+02  0.37418536735E+02 -0.24920026583E+03  0.28211830205E+03  0.12509085995E+03 0.  0.
          5    1    3    3  502    0  0.13600432044E+02 -0.17195559585E+02  0.42420206265E+01  0.22718410160E+02  0.41800000000E+01 0. -1.
         -5    1    3    3    0  502  0.74255929443E+01  0.54614096320E+02 -0.25344228646E+03  0.25939989189E+03  0.41800000000E+01 0. -1.
        -11    1    1    2    0    0 -0.22657926004E+02 -0.38935598107E+01 -0.13685197778E+02  0.26754925846E+02  0.00000000000E+00 0.  1.
         11    1    1    2    0    0  0.16319010151E+01 -0.33524976924E+02 -0.49002494675E+02  0.59395552553E+02  0.00000000000E+00 0. -1.
</event>
<event>
 8    1  0.4205029E-010  0.1259747E+03  0.7561462E-02  0.1233554E+00
         -2   -1    0    0    0  501 -0.00000000000E+00  0.00000000000E+00  0.11944165605E+02  0.11944165605E+02  0.00000000000E+00 0.  1.
          2   -1    0    0  501    0  0.00000000000E+00 -0.00000000000E+00 -0.16009499471E+04  0.16009499471E+04  0.00000000000E+00 0. -1.
         25    2    1    2    0    0 -0.42601805773E+02 -0.61914294696E+02 -0.84199755358E+03  0.85454983759E+03  0.12508897214E+03 0.  0.
         23    2    1    2    0    0  0.42601805773E+02  0.61914294696E+02 -0.74700822794E+03  0.75834427514E+03  0.10684780429E+03 0.  0.
          5    1    3    3  502    0 -0.19279240239E+02 -0.85613784487E+02 -0.33122204142E+03  0.34267611869E+03  0.41800000000E+01 0. -1.
         -5    1    3    3    0  502 -0.23322565534E+02  0.23699489792E+02 -0.51077551216E+03  0.51187371890E+03  0.41800000000E+01 0. -1.
        -11    1    4    4    0    0 -0.11029601428E+02  0.74647161634E+02 -0.44222415159E+03  0.44861570536E+03  0.00000000000E+00 0.  1.
         11    1    4    4    0    0  0.53631407201E+02 -0.12732866938E+02 -0.30478407636E+03  0.30972856978E+03  0.00000000000E+00 0. -1.
</event>
<event>
 8    1  0.4205029E-010  0.1772554E+03  0.7561462E-02  0.1170486E+00
          2   -1    0    0  501    0  0.00000000000E+00  0.00000000000E+00  0.62702514791E+03  0.62702514791E+03  0.00000000000E+00 0. -1.
         -2   -1    0    0    0  501 -0.00000000000E+00 -0.00000000000E+00 -0.56360728155E+02  0.56360728155E+02  0.00000000000E+00 0.  1.
         25    2    1    2    0    0  0.11750129160E+03 -0.10434211084E+03  0.30279126301E+03  0.36335161962E+03  0.12509204970E+03 0.  0.
         23    2    1    2    0    0 -0.11750129160E+03  0.10434211084E+03  0.26787315674E+03  0.32003425645E+03  0.77279153586E+02 0.  0.
          5    1    3    3  502    0  0.13217694012E+03 -0.85601332445E+02  0.18443537386E+03  0.24255352223E+03  0.41800000000E+01 0.  1.
         -5    1    3    3    0  502 -0.14675648521E+02 -0.18740778395E+02  0.11835588916E+03  0.12079809739E+03  0.41800000000E+01 0.  1.
        -11    1    4    4    0    0 -0.10536507677E+03  0.49082434427E+02  0.20328947458E+03  0.23417407040E+03  0.00000000000E+00 0. -1.
         11    1    4    4    0    0 -0.12136214826E+02  0.55259676413E+02  0.64583682160E+02  0.85860186052E+02  0.00000000000E+00 0.  1.
</event>
<event>
 8    1  0.5192443E-010  0.1175079E+03  0.7561462E-02  0.1247266E+00
         -2   -1    0    0    0  501 -0.00000000000E+00  0.00000000000E+00  0.11382585881E+02  0.11382585881E+02  0.00000000000E+00 0.  1.
          2   -1    0    0  501    0  0.00000000000E+00 -0.00000000000E+00 -0.15595146514E+04  0.15595146514E+04  0.00000000000E+00 0. -1.
         25    2    1    2    0    0  0.26017537699E+02  0.76781729805E+02 -0.10217507608E+04  0.10325670044E+04  0.12509058803E+03 0.  0.
         23    2    1    2    0    0 -0.26017537699E+02 -0.76781729805E+02 -0.52638130476E+03  0.53833023286E+03  0.78420758136E+02 0.  0.
          5    1    3    3  502    0  0.29856454237E+02  0.10250525798E+03 -0.56227636687E+03  0.57233811765E+03  0.41800000000E+01 0. -1.
         -5    1    3    3    0  502 -0.38389165373E+01 -0.25723528177E+02 -0.45947439391E+03  0.46022888679E+03  0.41800000000E+01 0. -1.
        -11    1    4    4    0    0 -0.15473695598E+02  0.72841861613E+01 -0.28085707930E+02  0.32883150905E+02  0.00000000000E+00 0.  1.
         11    1    4    4    0    0 -0.10543842102E+02 -0.84065915967E+02 -0.49829559683E+03  0.50544708195E+03  0.00000000000E+00 0. -1.
</event>
<event>
 8    1  0.4205029E-010  0.1137649E+03  0.7561462E-02  0.1253753E+00
         -1   -1    0    0    0  501 -0.00000000000E+00  0.00000000000E+00  0.71497716111E+02  0.71497716111E+02  0.00000000000E+00 0.  1.
          1   -1    0    0  501    0  0.00000000000E+00 -0.00000000000E+00 -0.37302527589E+03  0.37302527589E+03  0.00000000000E+00 0. -1.
         25    2    1    2    0    0 -0.66315732893E+02 -0.63982817498E+02 -0.23417227433E+03  0.28102594052E+03  0.12508935933E+03 0.  0.
         23    2    1    2    0    0  0.66315732893E+02  0.63982817498E+02 -0.67355285447E+02  0.16349705148E+03  0.11705970272E+03 0.  0.
          5    1    3    3  502    0 -0.72443665687E+02 -0.59330245966E+02 -0.24773962982E+03  0.26487838600E+03  0.41800000000E+01 0.  1.
         -5    1    3    3    0  502  0.61279327939E+01 -0.46525715323E+01  0.13567355490E+02  0.16147554526E+02  0.41800000000E+01 0.  1.
        -11    1    4    4    0    0 -0.60582960830E+01  0.51188404909E+02  0.14442553625E+02  0.53530767824E+02  0.00000000000E+00 0.  1.
         11    1    4    4    0    0  0.72374028976E+02  0.12794412589E+02 -0.81797839071E+02  0.10996628365E+03  0.00000000000E+00 0. -1.
</event>
<event>
 7    1  0.4205029E-010  0.1529799E+03  0.7561462E-02  0.1196858E+00
         -2   -1    0    0    0  501 -0.00000000000E+00  0.00000000000E+00  0.77593437934E+02  0.77593437934E+02  0.00000000000E+00 0. -1.
          2   -1    0    0  501    0  0.00000000000E+00 -0.00000000000E+00 -0.40531008603E+03  0.40531008603E+03  0.00000000000E+00 0.  1.
         25    2    1    2    0    0 -0.44017749678E+01  0.71401785271E+02 -0.15262554218E+03  0.20990612562E+03  0.12509370442E+03 0.  0.
          5    1    3    3  502    0 -0.41131881958E+02  0.30960290225E+02 -0.14581546152E+03  0.15469322061E+03  0.41800000000E+01 0. -1.
         -5    1    3    3    0  502  0.36730106990E+02  0.40441495047E+02 -0.68100806597E+01  0.55212905011E+02  0.41800000000E+01 0. -1.
        -11    1    1    2    0    0  0.29620418760E+02  0.59363208851E+02 -0.21565811479E+02  0.69759902504E+02  0.00000000000E+00 0. -1.
         11    1    1    2    0    0 -0.25218643793E+02 -0.13076499412E+03 -0.15352529443E+03  0.20323749583E+03  0.00000000000E+00 0.  1.
</event>
<event>
 8    1  0.4205029E-010  0.1068648E+03  0.7561462E-02  0.1266488E+00
         -1   -1    0    0    0  501 -0.00000000000E+00  0.00000000000E+00  0.50193429307E+02  0.50193429307E+02  0.00000000000E+00 0.  1.
          1   -1    0    0  501    0  0.00000000000E+00 -0.00000000000E+00 -0.32061413773E+03  0.32061413773E+03  0.00000000000E+00 0. -1.
         25    2    1    2    0    0  0.24420755863E+00 -0.38157996965E+02 -0.19168308095E+03  0.23204431529E+03  0.12508424508E+03 0.  0.
         23    2    1    2    0    0 -0.24420755863E+00  0.38157996965E+02 -0.78737627471E+02  0.13876325175E+03  0.10770113131E+03 0.  0.
          5    1    3    3  502    0 -0.38678238536E+02  0.11496275262E+02 -0.15216867948E+03  0.15748317338E+03  0.41800000000E+01 0. -1.
         -5    1    3    3    0  502  0.38922446095E+02 -0.49654272227E+02 -0.39514401471E+02  0.74561141917E+02  0.41800000000E+01 0. -1.
        -11    1    4    4    0    0 -0.26779429206E+02 -0.27944154412E+02 -0.46718472380E+02  0.60668189819E+02  0.00000000000E+00 0.  1.
         11    1    4    4    0    0  0.26535221648E+02  0.66102151377E+02 -0.32019155091E+02  0.78095061926E+02  0.00000000000E+00 0. -1.
</event>
<event>
 7    1  0.4205029E-010  0.6657409E+02  0.7561462E-02  0.1372146E+00
          2   -1    0    0  501    0  0.00000000000E+00  0.00000000000E+00  0.93923574873E+02  0.93923574873E+02  0.00000000000E+00 0.  1.
         -2   -1    0    0    0  501 -0.00000000000E+00 -0.00000000000E+00 -0.10353033103E+03  0.10353033103E+03  0.00000000000E+00 0. -1.
         25    2    1    2    0    0  0.23497843146E+02 -0.22754000893E+02  0.29339779326E+02  0.13256762047E+03  0.12507381084E+03 0.  0.
          5    1    3    3  502    0 -0.28226055595E+02  0.51595918715E+01  0.59635823762E+02  0.66311654168E+02  0.41800000000E+01 0. -1.
         -5    1    3    3    0  502  0.51723898741E+02 -0.27913592764E+02 -0.30296044437E+02  0.66255966301E+02  0.41800000000E+01 0. -1.
        -11    1    1    2    0    0 -0.90936353934E+01  0.28351568989E+02 -0.39449646776E+02  0.49424490888E+02  0.00000000000E+00 0. -1.
         11    1    1    2    0    0 -0.14404207753E+02 -0.55975680964E+01  0.50311129255E+00  0.15461794545E+02  0.00000000000E+00 0.  1.
</event>
<event>
 8    1  0.4205029E-010  0.1146400E+03  0.7561462E-02  0.1252211E+00
          2   -1    0    0  501    0  0.00000000000E+00  0.00000000000E+00  0.11421782414E+03  0.11421782414E+03  0.00000000000E+00 0. -1.
         -2   -1    0    0    0  501 -0.00000000000E+00 -0.00000000000E+00 -0.12421162068E+03  0.12421162068E+03  0.00000000000E+00 0.  1.
         25    2    1    2    0    0 -0.62813473223E+02  0.20285329429E+02  0.21514352247E+02  0.14306496542E+03  0.12509072695E+03 0.  0.
         23    2    1    2    0    0  0.62813473223E+02 -0.20285329429E+02 -0.31508148783E+02  0.95364479400E+02  0.61193083622E+02 0.  0.
          5    1    3    3  502    0 -0.65689352044E+01  0.66965216416E+02  0.17957733225E+02  0.69767067460E+02  0.41800000000E+01 0.  1.
         -5    1    3    3    0  502 -0.56244538019E+02 -0.46679886987E+02  0.35566190223E+01  0.73297897957E+02  0.41800000000E+01 0.  1.
        -11    1    4    4    0    0  0.49224397473E+02  0.14492637453E+02 -0.26311364642E+02  0.57665984395E+02  0.00000000000E+00 0.  1.
         11    1    4    4    0    0  0.13589075750E+02 -0.34777966882E+02 -0.51967841412E+01  0.37698495005E+02  0.00000000000E+00 0. -1.
</event>
<event>
 8    1  0.4205029E-010  0.1674104E+03  0.7561462E-02  0.1180576E+00
          1   -1    0    0  501    0  0.00000000000E+00  0.00000000000E+00  0.66324616901E+03  0.66324616901E+03  0.00000000000E+00 0. -1.
         -1   -1    0    0    0  501 -0.00000000000E+00 -0.00000000000E+00 -0.42840276429E+02  0.42840276429E+02  0.00000000000E+00 0.  1.
         25    2    1    2    0    0 -0.24283813594E+02  0.11910057055E+03  0.29460041501E+03  0.34236581075E+03  0.12510113642E+03 0.  0.
         23    2    1    2    0    0  0.24283813594E+02 -0.11910057055E+03  0.32580547757E+03  0.36372063469E+03  0.10662476907E+03 0.  0.
          5    1    3    3  502    0 -0.75141743547E+02  0.68256615659E+02  0.18820487306E+03  0.21387798823E+03  0.41800000000E+01 0. -1.
         -5    1    3    3    0  502  0.50857929953E+02  0.50843954892E+02  0.10639554195E+03  0.12848782252E+03  0.41800000000E+01 0. -1.
        -11    1    4    4    0    0 -0.15910835449E+02 -0.11993041604E+03  0.23159082490E+03  0.26128675733E+03  0.00000000000E+00 0. -1.
         11    1    4    4    0    0  0.40194649043E+02  0.82984548795E+00  0.94214652661E+02  0.10243387736E+03  0.00000000000E+00 0.  1.
</event>
<event>
 8    1  0.5454447E-010  0.9226724E+02  0.7561462E-02  0.1297452E+00
         -1   -1    0    0    0  501 -0.00000000000E+00  0.00000000000E+00  0.35146676003E+02  0.35146676003E+02  0.00000000000E+00 0.  1.
          1   -1    0    0  501    0  0.00000000000E+00 -0.00000000000E+00 -0.58426089361E+03  0.58426089361E+03  0.00000000000E+00 0. -1.
         25    2    1    2    0    0 -0.71371173316E+02 -0.39891156229E+01 -0.39367223673E+03  0.41920828263E+03  0.12509195349E+03 0.  0.
         23    2    1    2    0    0  0.71371173316E+02  0.39891156229E+01 -0.15544198088E+03  0.20019928699E+03  0.10396051013E+03 0.  0.
          5    1    3    3  502    0 -0.51489932312E+02 -0.14973621229E+02 -0.39240951804E+03  0.39607843252E+03  0.41800000000E+01 0.  1.
         -5    1    3    3    0  502 -0.19881241004E+02  0.10984505606E+02 -0.12627186894E+01  0.23129850102E+02  0.41800000000E+01 0.  1.
        -11    1    4    4    0    0 -0.96257924298E+01  0.22583695999E+02 -0.70672617211E+00  0.24559695983E+02  0.00000000000E+00 0.  1.
         11    1    4    4    0    0  0.80996965745E+02 -0.18594580377E+02 -0.15473525471E+03  0.17563959101E+03  0.00000000000E+00 0. -1.
</event>
<event>
 8    1  0.4205029E-010  0.2306962E+03  0.7561462E-02  0.1126151E+00
         -1   -1    0    0    0  501 -0.00000000000E+00  0.00000000000E+00  0.11213049830E+03  0.11213049830E+03  0.00000000000E+00 0.  1.
          1   -1    0    0  501    0  0.00000000000E+00 -0.00000000000E+00 -0.61037131055E+03  0.61037131055E+03  0.00000000000E+00 0. -1.
         25    2    1    2    0    0  0.18865161319E+03  0.82293517677E+02 -0.10671268102E+03  0.26343451930E+03  0.12509394653E+03 0.  0.
         23    2    1    2    0    0 -0.18865161319E+03 -0.82293517677E+02 -0.39152813124E+03  0.45906728955E+03  0.12282851696E+03 0.  0.
          5    1    3    3  502    0  0.56141954977E+02 -0.29062757364E+02 -0.51681481222E+02  0.81761915801E+02  0.41800000000E+01 0. -1.
         -5    1    3    3    0  502  0.13250965821E+03  0.11135627504E+03 -0.55031199797E+02  0.18167260350E+03  0.41800000000E+01 0. -1.
        -11    1    4    4    0    0 -0.96549615481E+02 -0.90627433401E+02 -0.14811449700E+03  0.19867829312E+03  0.00000000000E+00 0. -1.
         11    1    4    4    0    0 -0.92101997707E+02  0.83339157239E+01 -0.24341363423E+03  0.26038899643E+03  0.00000000000E+00 0.  1.
</event>
<event>
 8    1  0.4205029E-010  0.1054803E+03  0.7561462E-02  0.1269176E+00
         -2   -1    0    0    0  501 -0.00000000000E+00  0.00000000000E+00  0.14663463296E+02  0.14663463296E+02  0.00000000000E+00 0. -1.
          2   -1    0    0  501    0  0.00000000000E+00 -0.00000000000E+00 -0.11173923929E+04  0.11173923929E+04  0.00000000000E+00 0.  1.
         25    2    1    2    0    0 -0.28901931544E+02  0.38945923499E+01 -0.63016798290E+03  0.64312542333E+03  0.12509250164E+03 0.  0.
         23    2    1    2    0    0  0.28901931544E+02 -0.38945923499E+01 -0.47256094675E+03  0.48893043291E+03  0.12201897531E+03 0.  0.
          5    1    3    3  502    0 -0.53848929847E+02  0.17976966263E+02 -0.59435297983E+03  0.59707270545E+03  0.41800000000E+01 0.  1.
         -5    1    3    3    0  502  0.24946998304E+02 -0.14082373913E+02 -0.35815003073E+02  0.46052717884E+02  0.41800000000E+01 0.  1.
        -11    1    4    4    0    0 -0.45984329903E+02  0.14044005318E+02 -0.20021541905E+03  0.20590776262E+03  0.00000000000E+00 0. -1.
         11    1    4    4    0    0  0.74886261447E+02 -0.17938597668E+02 -0.27234552770E+03  0.28302267029E+03  0.00000000000E+00 0.  1.
</event>
<event>
 8    1  0.4205029E-010  0.1244578E+03  0.7561462E-02  0.1235919E+00
          2   -1    0    0  501    0  0.00000000000E+00  0.00000000000E+00  0.16146888255E+03  0.16146888255E+03  0.00000000000E+00 0. -1.
         -2   -1    0    0    0  501 -0.00000000000E+00 -0.00000000000E+00 -0.12738423753E+03  0.12738423753E+03  0.00000000000E+00 0.  1.
         25    2    1    2    0    0  0.34621478522E+02 -0.98998359153E+02  0.31243163278E+01  0.16326937492E+03  0.12509118892E+03 0.  0.
         23    2    1    2    0    0 -0.34621478522E+02  0.98998359153E+02  0.30960328699E+02  0.12558374516E+03  0.61752839658E+02 0.  0.
          5    1    3    3  502    0 -0.16554999529E+01  0.19448027992E+02  0.30389018952E+02  0.36358373805E+02  0.41800000000E+01 0. -1.
         -5    1    3    3    0  502  0.36276978475E+02 -0.11844638714E+03 -0.27264702624E+02  0.12691100112E+03  0.41800000000E+01 0. -1.
        -11    1    4    4    0    0 -0.21697849174E+02  0.54201063372E+02 -0.14827104163E+02  0.60236159799E+02  0.00000000000E+00 0.  1.
         11    1    4    4    0    0 -0.12923629348E+02  0.44797295781E+02  0.45787432862E+02  0.65347585364E+02  0.00000000000E+00 0. -1.
</event>
<event>
 8    1  0.4205029E-010  0.1795430E+03  0.7561462E-02  0.1168246E+00
          1   -1    0    0  501    0  0.00000000000E+00  0.00000000000E+00  0.78965698216E+03  0.78965698216E+03  0.00000000000E+00 0. -1.
         -1   -1    0    0    0  501 -0.00000000000E+00 -0.00000000000E+00 -0.55422240572E+02  0.55422240572E+02  0.00000000000E+00 0.  1.
         25    2    1    2    0    0  0.15281345595E+03  0.52564449463E+02  0.57013413454E+03  0.60564985153E+03  0.12507532781E+03 0.  0.
         23    2    1    2    0    0 -0.15281345595E+03 -0.52564449463E+02  0.16410060705E+03  0.23942937120E+03  0.65440361329E+02 0.  0.
          5    1    3    3  502    0  0.16474525918E+03  0.51683885680E+02  0.56682144558E+03  0.59255062908E+03  0.41800000000E+01 0.  1.
         -5    1    3    3    0  502 -0.11931803222E+02  0.88056378301E+00  0.33126889647E+01  0.13099222454E+02  0.41800000000E+01 0.  1.
        -11    1    4    4    0    0 -0.12686065670E+03 -0.14579897576E+02  0.12946732961E+03  0.18184605870E+03  0.00000000000E+00 0. -1.
         11    1    4    4    0    0 -0.25952799255E+02 -0.37984551888E+02  0.34633277446E+02  0.57583312495E+02  0.00000000000E+00 0.  1.
</event>
<event>
 8    1  0.4205029E-010  0.1645007E+03  0.7561462E-02  0.1183707E+00
         -1   -1    0    0    0  501 -0.00000000000E+00  0.00000000000E+00  0.50505476287E+02  0.50505476287E+02  0.00000000000E+00 0.  1.
          1   -1    0    0  501    0  0.00000000000E+00 -0.00000000000E+00 -0.69168612013E+03  0.69168612013E+03  0.00000000000E+00 0. -1.
         25    2    1    2    0    0  0.92159582569E+02  0.12447188164E+03 -0.37947763125E+03  0.42852994165E+03  0.12509196732E+03 0.  0.
         23    2    1    2    0    0 -0.92159582569E+02 -0.12447188164E+03 -0.26170301259E+03  0.31366165477E+03  0.76866955808E+02 0.  0.
          5    1    3    3  502    0  0.41616750291E+02  0.77952190677E+02 -0.73814392094E+02  0.11521516748E+03  0.41800000000E+01 0. -1.
         -5    1    3    3    0  502  0.50542832278E+02  0.46519690965E+02 -0.30566323916E+03  0.31331477417E+03  0.41800000000E+01 0. -1.
        -11    1    4    4    0    0 -0.10424285020E+03 -0.11969375910E+03 -0.23051919879E+03  0.27987902529E+03  0.00000000000E+00 0.  1.
         11    1    4    4    0    0  0.12083267630E+02 -0.47781225462E+01 -0.31183813805E+02  0.33782629488E+02  0.00000000000E+00 0. -1.
</event>
<event>
 8    1  0.4205029E-010  0.1040753E+03  0.7561462E-02  0.1271952E+00
          2   -1    0    0  501    0  0.00000000000E+00  0.00000000000E+00  0.53528394506E+03  0.53528394506E+03  0.00000000000E+00 0. -1.
         -2   -1    0    0    0  501 -0.00000000000E+00 -0.00000000000E+00 -0.23833251524E+02  0.23833251524E+02  0.00000000000E+00 0.  1.
         25    2    1    2    0    0  0.46163837548E+02  0.11844707295E+02  0.24708820399E+03  0.28101640420E+03  0.12508493871E+03 0.  0.
         23    2    1    2    0    0 -0.46163837548E+02 -0.11844707295E+02  0.26436248955E+03  0.27810079238E+03  0.71980051794E+02 0.  0.
          5    1    3    3  502    0  0.51661180322E+02 -0.43177603928E+02  0.78297216596E+02  0.10334945360E+03  0.41800000000E+01 0.  1.
         -5    1    3    3    0  502 -0.54973427734E+01  0.55022311223E+02  0.16879098739E+03  0.17766695060E+03  0.41800000000E+01 0.  1.
        -11    1    4    4    0    0 -0.26525938210E+02 -0.41748365690E+02  0.13112555621E+03  0.14014443595E+03  0.00000000000E+00 0.  1.
         11    1    4    4    0    0 -0.19637899338E+02  0.29903658394E+02  0.13323693334E+03  0.13795635644E+03  0.00000000000E+00 0. -1.
</event>
<event>
 8    1  0.4205029E-010  0.9466630E+02  0.7561462E-02  0.1291929E+00
         -1   -1    0    0    0  501 -0.00000000000E+00  0.00000000000E+00  0.42916215117E+03  0.42916215117E+03  0.00000000000E+00 0.  1.
          1   -1    0    0  501    0  0.00000000000E+00 -0.00000000000E+00 -0.56001202147E+02  0.56001202147E+02  0.00000000000E+00 0. -1.
         25    2    1    2    0    0 -0.76583847699E+02  0.11031195783E+02  0.34546756309E+03  0.37547590352E+03  0.12509014336E+03 0.  0.
         23    2    1    2    0    0  0.76583847699E+02 -0.11031195783E+02  0.27693385929E+02  0.10968744980E+03  0.72647367539E+02 0.  0.
          5    1    3    3  502    0 -0.58868996330E+02 -0.90420978158E+01  0.47545355745E+02  0.76323990427E+02  0.41800000000E+01 0.  1.
         -5    1    3    3    0  502 -0.17714851368E+02  0.20073293599E+02  0.29792220735E+03  0.29915191309E+03  0.41800000000E+01 0.  1.
        -11    1    4    4    0    0  0.70337302556E+02  0.18187914059E+02  0.62687337074E+01  0.72920733478E+02  0.00000000000E+00 0. -1.
         11    1    4    4    0    0  0.62465451427E+01 -0.29219109842E+02  0.21424652222E+02  0.36766716321E+02  0.00000000000E+00 0.  1.
</event>
<event>
 8    1  0.4205029E-010  0.7850529E+02  0.7561462E-02  0.1333348E+00
          1   -1    0    0  501    0  0.00000000000E+00  0.00000000000E+00  0.37546268253E+02  0.37546268253E+02  0.00000000000E+00 0. -1.
         -1   -1    0    0    0  501 -0.00000000000E+00 -0.00000000000E+00 -0.45299935116E+03  0.45299935116E+03  0.00000000000E+00 0.  1.
         25    2    1    2    0    0  0.15820685548E+02  0.17377167950E+01 -0.32070369439E+03  0.34460365435E+03  0.12508998859E+03 0.  0.
         23    2    1    2    0    0 -0.15820685548E+02 -0.17377167950E+01 -0.94749388519E+02  0.14594196506E+03  0.10985579999E+03 0.  0.
          5    1    3    3  502    0 -0.13834881784E+02 -0.47849931849E+02 -0.62749114704E+02  0.80224333766E+02  0.41800000000E+01 0.  1.
         -5    1    3    3    0  502  0.29655567332E+02  0.49587648644E+02 -0.25795457968E+03  0.26437932058E+03  0.41800000000E+01 0.  1.
        -11    1    4    4    0    0 -0.29611505237E+02 -0.11953784451E+02 -0.11502638968E+03  0.11937673361E+03  0.00000000000E+00 0.  1.
         11    1    4    4    0    0  0.13790819689E+02  0.10216067656E+02  0.20277001161E+02  0.26565231452E+02  0.00000000000E+00 0. -1.
</event>
<event>
 8    1  0.4205029E-010  0.6878695E+02  0.7561462E-02  0.1364267E+00
         -2   -1    0    0    0  501 -0.00000000000E+00  0.00000000000E+00  0.17007516959E+03  0.17007516959E+03  0.00000000000E+00 0.  1.
          2   -1    0    0  501    0  0.00000000000E+00 -0.00000000000E+00 -0.62531910717E+02  0.62531910717E+02  0.00000000000E+00 0. -1.
         25    2    1    2    0    0 -0.22110340560E+02 -0.26845915026E+02  0.53956259800E+02  0.14059919892E+03  0.12508911405E+03 0.  0.
         23    2    1    2    0    0  0.22110340560E+02  0.26845915026E+02  0.53586999077E+02  0.92007881389E+02  0.66214148446E+02 0.  0.
          5    1    3    3  502    0  0.24236997987E+02  0.30001678883E+01  0.76862589719E+02  0.80757434191E+02  0.41800000000E+01 0.  1.
         -5    1    3    3    0  502 -0.46347338548E+02 -0.29846082914E+02 -0.22906329919E+02  0.59841764731E+02  0.41800000000E+01 0.  1.
        -11    1    4    4    0    0  0.79037055363E+01 -0.12997644283E+02 -0.80818235666E+01  0.17225655003E+02  0.00000000000E+00 0. -1.
         11    1    4    4    0    0  0.14206635024E+02  0.39843559309E+02  0.61668822644E+02  0.74782226387E+02  0.00000000000E+00 0.  1.
</event>
<event>
 8    1  0.4205029E-010  0.8846807E+02  0.7561462E-02  0.1306604E+00
         -4   -1    0    0    0  501 -0.00000000000E+00  0.00000000000E+00  0.18781472435E+03  0.18781472435E+03  0.00000000000E+00 0.  1.
          4   -1    0    0  501    0  0.00000000000E+00 -0.00000000000E+00 -0.77956077707E+02  0.77956077707E+02  0.00000000000E+00 0. -1.
         25    2    1    2    0    0  0.48238837686E+02  0.30294951379E+01  0.17128107895E+02  0.13519166822E+03  0.12508897543E+03 0.  0.
         23    2    1    2    0    0 -0.48238837686E+02 -0.30294951379E+01  0.92730538749E+02  0.13057913384E+03  0.78203542602E+02 0.  0.
          5    1    3    3  502    0  0.41105042147E+01  0.57657012567E+02 -0.11772298870E+02  0.59137862353E+02  0.41800000000E+01 0.  1.
         -5    1    3    3    0  502  0.44128333471E+02 -0.54627517429E+02  0.28900406765E+02  0.76053805865E+02  0.41800000000E+01 0.  1.
        -11    1    4    4    0    0 -0.34635756337E+02  0.26494067872E+00  0.10586372289E+03  0.11138596695E+03  0.00000000000E+00 0.  1.
         11    1    4    4    0    0 -0.13603081350E+02 -0.32944358166E+01 -0.13133184138E+02  0.19193166887E+02  0.00000000000E+00 0. -1.
</event>
<event>
 8    1  0.4205029E-010  0.1348378E+03  0.7561462E-02  0.1220449E+00
          1   -1    0    0  501    0  0.00000000000E+00  0.00000000000E+00  0.95321922081E+03  0.95321922081E+03  0.00000000000E+00 0. -1.
         -1   -1    0    0    0  501 -0.00000000000E+00 -0.00000000000E+00 -0.24712755841E+02  0.24712755841E+02  0.00000000000E+00 0.  1.
         25    2    1    2    0    0 -0.72775921736E+02 -0.89398056447E+02  0.47560464041E+03  0.50510892222E+03  0.12508757749E+03 0.  0.
         23    2    1    2    0    0  0.72775921736E+02  0.89398056447E+02  0.45290182456E+03  0.47282305443E+03  0.71786007234E+02 0.  0.
          5    1    3    3  502    0  0.19744800625E+02 -0.35348298823E+01  0.21010733365E+03  0.21110404124E+03  0.41800000000E+01 0.  1.
         -5    1    3    3    0  502 -0.92520722361E+02 -0.85863226565E+02  0.26549730676E+03  0.29400488098E+03  0.41800000000E+01 0.  1.
        -11    1    4    4    0    0  0.12826968692E+02 -0.25980249515E+01  0.98850200979E+01  0.16401051241E+02  0.00000000000E+00 0.  1.
         11    1    4    4    0    0  0.59948953044E+02  0.91996081399E+02  0.44301680446E+03  0.45642200319E+03  0.00000000000E+00 0. -1.
</event>
<event>
 8    1  0.4205029E-010  0.6406632E+02  0.7561462E-02  0.1381518E+00
         -1   -1    0    0    0  501 -0.00000000000E+00  0.00000000000E+00  0.45339355044E+02  0.45339355044E+02  0.00000000000E+00 0.  1.
          1   -1    0    0  501    0  0.00000000000E+00 -0.00000000000E+00 -0.25313162322E+03  0.25313162322E+03  0.00000000000E+00 0. -1.
         25    2    1    2    0    0  0.41389160410E+00  0.10390696279E+02 -0.18143668636E+03  0.22062394252E+03  0.12509002750E+03 0.  0.
         23    2    1    2    0    0 -0.41389160410E+00 -0.10390696279E+02 -0.26355581813E+02  0.77847035743E+02  0.72507974774E+02 0.  0.
          5    1    3    3  502    0 -0.24854783804E+02  0.31304806924E+02 -0.42906425505E+01  0.40418228907E+02  0.41800000000E+01 0.  1.
         -5    1    3    3    0  502  0.25268675408E+02 -0.20914110645E+02 -0.17714604381E+03  0.18020571362E+03  0.41800000000E+01 0.  1.
        -11    1    4    4    0    0 -0.26783222959E+02 -0.72976592846E+00 -0.38782025999E+02  0.47137237202E+02  0.00000000000E+00 0. -1.
         11    1    4    4    0    0  0.26369331355E+02 -0.96609303501E+01  0.12426444186E+02  0.30709798541E+02  0.00000000000E+00 0.  1.
</event>
<event>
 8    1  0.4205029E-010  0.1022560E+03  0.7561462E-02  0.1275622E+00
         -2   -1    0    0    0  501 -0.00000000000E+00  0.00000000000E+00  0.53957365647E+02  0.53957365647E+02  0.00000000000E+00 0.  1.
          2   -1    0    0  501    0  0.00000000000E+00 -0.00000000000E+00 -0.25306800727E+03  0.25306800727E+03  0.00000000000E+00 0. -1.
         25    2    1    2    0    0 -0.15618264561E+02 -0.56770471343E+01 -0.11974328609E+03  0.17396032831E+03  0.12509029622E+03 0.  0.
         23    2    1    2    0    0  0.15618264561E+02  0.56770471343E+01 -0.79367355527E+02  0.13306504461E+03  0.10550341189E+03 0.  0.
          5    1    3    3  502    0 -0.28552743755E+02 -0.60023842024E+02 -0.44283805820E+02  0.79979051289E+02  0.41800000000E+01 0. -1.
         -5    1    3    3    0  502  0.12934479194E+02  0.54346794890E+02 -0.75459480274E+02  0.93981277019E+02  0.41800000000E+01 0. -1.
        -11    1    4    4    0    0  0.13302875138E+02  0.42736460615E+02 -0.84458849978E+02  0.95585924134E+02  0.00000000000E+00 0. -1.
         11    1    4    4    0    0  0.23153894223E+01 -0.37059413481E+02  0.50914944513E+01  0.37479120474E+02  0.00000000000E+00 0.  1.
</event>
<event>
 8    1  0.4205029E-010  0.1598523E+03  0.7561462E-02  0.1188864E+00
          1   -1    0    0  501    0  0.00000000000E+00  0.00000000000E+00  0.35222451096E+02  0.35222451096E+02  0.00000000000E+00 0. -1.
         -1   -1    0    0    0  501 -0.00000000000E+00 -0.00000000000E+00 -0.93761897457E+03  0.93761897457E+03  0.00000000000E+00 0.  1.
         25    2    1    2    0    0 -0.80686353703E+02 -0.10887431125E+03 -0.52380721381E+03  0.55532379175E+03  0.12508642262E+03 0.  0.
         23    2    1    2    0    0  0.80686353703E+02  0.10887431125E+03 -0.37858930967E+03  0.41751763392E+03  0.11237084103E+03 0.  0.
          5    1    3    3  502    0 -0.49267616700E+02 -0.11992547216E+03 -0.27267113779E+03  0.30195436528E+03  0.41800000000E+01 0.  1.
         -5    1    3    3    0  502 -0.31418737004E+02  0.11051160910E+02 -0.25113607602E+03  0.25336942647E+03  0.41800000000E+01 0.  1.
        -11    1    4    4    0    0  0.34167587446E+02 -0.39364455975E+01 -0.22497514217E+02  0.41098148155E+02  0.00000000000E+00 0. -1.
         11    1    4    4    0    0  0.46518766258E+02  0.11281075685E+03 -0.35609179545E+03  0.37641948576E+03  0.00000000000E+00 0.  1.
</event>
<event>
 7    1  0.4205029E-010  0.2429843E+03  0.7561462E-02  0.1117821E+00
         -1   -1    0    0    0  501 -0.00000000000E+00  0.00000000000E+00  0.21706989746E+03  0.21706989746E+03  0.00000000000E+00 0. -1.
          1   -1    0    0  501    0  0.00000000000E+00 -0.00000000000E+00 -0.32720289770E+03  0.32720289770E+03  0.00000000000E+00 0.  1.
         25    2    1    2    0    0  0.12408202322E+02 -0.22498385534E+03 -0.62446784445E+02  0.26517606885E+03  0.12508816074E+03 0.  0.
          5    1    3    3  502    0  0.45348733744E+02 -0.13473236405E+03 -0.85955962556E+02  0.16617827016E+03  0.41800000000E+01 0. -1.
         -5    1    3    3    0  502 -0.32940531423E+02 -0.90251491294E+02  0.23509178111E+02  0.98997798696E+02  0.41800000000E+01 0. -1.
        -11    1    1    2    0    0  0.44869913259E+02  0.11774509468E+03 -0.84916081585E+02  0.15194721895E+03  0.00000000000E+00 0.  1.
         11    1    1    2    0    0 -0.57278115581E+02  0.10723876066E+03  0.37229865787E+02  0.12714950735E+03  0.00000000000E+00 0. -1.
</event>
<event>
 8    1  0.5055155E-010  0.1584216E+03  0.7561462E-02  0.1190490E+00
          2   -1    0    0  501    0  0.00000000000E+00  0.00000000000E+00  0.10107637977E+04  0.10107637977E+04  0.00000000000E+00 0. -1.
         -2   -1    0    0    0  501 -0.00000000000E+00 -0.00000000000E+00 -0.33488722652E+02  0.33488722652E+02  0.00000000000E+00 0.  1.
         25    2    1    2    0    0  0.13018781863E+03 -0.32262788854E+02  0.73137699751E+03  0.75402241207E+03  0.12509088597E+03 0.  0.
         23    2    1    2    0    0 -0.13018781863E+03  0.32262788854E+02  0.24589807753E+03  0.29023010828E+03  0.76012469710E+02 0.  0.
          5    1    3    3  502    0 -0.23717268445E+02 -0.11223989488E+02  0.14444429406E+03  0.14686767258E+03  0.41800000000E+01 0. -1.
         -5    1    3    3    0  502  0.15390508708E+03 -0.21038799366E+02  0.58693270345E+03  0.60715473949E+03  0.41800000000E+01 0. -1.
        -11    1    4    4    0    0 -0.25689700122E+02  0.12342504055E+02  0.79562585265E+01  0.29590541537E+02  0.00000000000E+00 0.  1.
         11    1    4    4    0    0 -0.10449811851E+03  0.19920284799E+02  0.23794181900E+03  0.26063956674E+03  0.00000000000E+00 0. -1.
</event>
<event>
 8    1  0.4205029E-010  0.1652215E+03  0.7561462E-02  0.1182925E+00
          2   -1    0    0  501    0  0.00000000000E+00  0.00000000000E+00  0.82760540766E+03  0.82760540766E+03  0.00000000000E+00 0.  1.
         -2   -1    0    0    0  501 -0.00000000000E+00 -0.00000000000E+00 -0.53397559843E+02  0.53397559843E+02  0.00000000000E+00 0. -1.
         25    2    1    2    0    0  0.15823077727E+03 -0.17751014391E+02  0.62079641866E+03  0.65298315977E+03  0.12508691435E+03 0.  0.
         23    2    1    2    0    0 -0.15823077727E+03  0.17751014391E+02  0.15341142916E+03  0.22801980773E+03  0.55730500926E+02 0.  0.
          5    1    3    3  502    0  0.14213474583E+03  0.37196733291E+01  0.60514479305E+03  0.62163800953E+03  0.41800000000E+01 0. -1.
         -5    1    3    3    0  502  0.16096031445E+02 -0.21470687720E+02  0.15651625609E+02  0.31345150241E+02  0.41800000000E+01 0. -1.
        -11    1    4    4    0    0 -0.39152136805E+02  0.15008176600E+02  0.73395682035E+02  0.84528464570E+02  0.00000000000E+00 0.  1.
         11    1    4    4    0    0 -0.11907864047E+03  0.27428377911E+01  0.80015747128E+02  0.14349134316E+03  0.00000000000E+00 0. -1.
</event>
<event>
 8    1  0.4205029E-010  0.2178664E+03  0.7561462E-02  0.1135484E+00
         -1   -1    0    0    0  501 -0.00000000000E+00  0.00000000000E+00  0.40254570126E+02  0.40254570126E+02  0.00000000000E+00 0. -1.
          1   -1    0    0  501    0  0.00000000000E+00 -0.00000000000E+00 -0.13817210123E+04  0.13817210123E+04  0.00000000000E+00 0.  1.
         25    2    1    2    0    0  0.17469716613E+03 -0.10468515969E+03 -0.68247723162E+03  0.72311853671E+03  0.12508862435E+03 0.  0.
         23    2    1    2    0    0 -0.17469716613E+03  0.10468515969E+03 -0.65898921057E+03  0.69885704573E+03  0.11250025869E+03 0.  0.
          5    1    3    3  502    0  0.26529036802E+02 -0.13138140652E+02 -0.15330192486E+02  0.33598924611E+02  0.41800000000E+01 0.  1.
         -5    1    3    3    0  502  0.14816812933E+03 -0.91547019038E+02 -0.66714703913E+03  0.68951961210E+03  0.41800000000E+01 0.  1.
        -11    1    4    4    0    0 -0.81362653957E+02  0.11150452563E+03 -0.42473108364E+03  0.44659784382E+03  0.00000000000E+00 0.  1.
         11    1    4    4    0    0 -0.93334512175E+02 -0.68193659449E+01 -0.23425812693E+03  0.25225920190E+03  0.00000000000E+00 0. -1.
</event>
<event>
 8    1  0.4205029E-010  0.1233897E+03  0.7561462E-02  0.1237608E+00
         -2   -1    0    0    0  501 -0.00000000000E+00  0.00000000000E+00  0.18976348133E+02  0.18976348133E+02  0.00000000000E+00 0.  1.
          2   -1    0    0  501    0  0.00000000000E+00 -0.00000000000E+00 -0.93390470107E+03  0.93390470107E+03  0.00000000000E+00 0. -1.
         25    2    1    2    0    0  0.23813203033E+02 -0.34212333253E+02 -0.58344743290E+03  0.59815962693E+03  0.12508589026E+03 0.  0.
         23    2    1    2    0    0 -0.23813203033E+02  0.34212333253E+02 -0.33148092004E+03  0.35472142228E+03  0.11920626950E+03 0.  0.
          5    1    3    3  502    0 -0.40314403366E+02  0.22254916175E+02 -0.21357811529E+03  0.21852600794E+03  0.41800000000E+01 0. -1.
         -5    1    3    3    0  502  0.64127606399E+02 -0.56467249429E+02 -0.36986931761E+03  0.37963361899E+03  0.41800000000E+01 0. -1.
        -11    1    4    4    0    0 -0.43038629419E+02 -0.27017591874E+02 -0.22266541433E+03  0.22839036896E+03  0.00000000000E+00 0.  1.
         11    1    4    4    0    0  0.19225426387E+02  0.61229925127E+02 -0.10881550570E+03  0.12633105332E+03  0.00000000000E+00 0. -1.
</event>
<event>
 8    1  0.4205029E-010  0.7791330E+02  0.7561462E-02  0.1335080E+00
          2   -1    0    0  501    0  0.00000000000E+00  0.00000000000E+00  0.77775470454E+02  0.77775470454E+02  0.00000000000E+00 0. -1.
         -2   -1    0    0    0  501 -0.00000000000E+00 -0.00000000000E+00 -0.19139169144E+03  0.19139169144E+03  0.00000000000E+00 0.  1.
         25    2    1    2    0    0 -0.17382534816E+02 -0.30566240530E+02 -0.77225533854E+02  0.15116071719E+03  0.12509728920E+03 0.  0.
         23    2    1    2    0    0  0.17382534816E+02  0.30566240530E+02 -0.36390687128E+02  0.11800644470E+03  0.10660577519E+03 0.  0.
          5    1    3    3  502    0 -0.19928856924E+02 -0.49251311461E+02 -0.10475399663E+03  0.11753179667E+03  0.41800000000E+01 0.  1.
         -5    1    3    3    0  502  0.25463221077E+01  0.18685070931E+02  0.27528462780E+02  0.33628920515E+02  0.41800000000E+01 0.  1.
        -11    1    4    4    0    0  0.17594103200E+02 -0.23385156112E+02 -0.53859929677E+02  0.61296900563E+02  0.00000000000E+00 0.  1.
         11    1    4    4    0    0 -0.21156838408E+00  0.53951396643E+02  0.17469242549E+02  0.56709544136E+02  0.00000000000E+00 0. -1.
</event>
<event>
 7    1  0.4205029E-010  0.7383163E+02  0.7561462E-02  0.1347528E+00
          1   -1    0    0  501    0  0.00000000000E+00  0.00000000000E+00  0.30558330167E+03  0.30558330167E+03  0.00000000000E+00 0. -1.
         -1   -1    0    0    0  501 -0.00000000000E+00 -0.00000000000E+00 -0.32011517579E+02  0.32011517579E+02  0.00000000000E+00 0.  1.
         25    2    1    2    0    0 -0.25914455510E+02 -0.30981846320E+02  0.19491958514E+03  0.23510127231E+03  0.12509008660E+03 0.  0.
          5    1    3    3  502    0  0.25115727371E+02 -0.45030679245E+02  0.25728825854E+02  0.57775485411E+02  0.41800000000E+01 0. -1.
         -5    1    3    3    0  502 -0.51030182881E+02  0.14048832925E+02  0.16919075929E+03  0.17732578690E+03  0.41800000000E+01 0. -1.
        -11    1    1    2    0    0  0.22619692947E+02  0.16528026535E+02  0.82542484396E+02  0.87167011538E+02  0.00000000000E+00 0. -1.
         11    1    1    2    0    0  0.32947625629E+01  0.14453819786E+02 -0.38902854405E+01  0.15326535406E+02  0.00000000000E+00 0.  1.
</event>
<event>
 8    1  0.4205029E-010  0.9967434E+02  0.7561462E-02  0.1280982E+00
          2   -1    0    0  501    0  0.00000000000E+00  0.00000000000E+00  0.25428139800E+04  0.25428139800E+04  0.00000000000E+00 0. -1.
         -2   -1    0    0    0  501 -0.00000000000E+00 -0.00000000000E+00 -0.94078419154E+01  0.94078419154E+01  0.00000000000E+00 0.  1.
         25    2    1    2    0    0 -0.35222168705E+02  0.31409122177E+02  0.22973507008E+04  0.23012374894E+04  0.12508639568E+03 0.  0.
         23    2    1    2    0    0  0.35222168705E+02 -0.31409122177E+02  0.23605543731E+03  0.25098433247E+03  0.71019937584E+02 0.  0.
          5    1    3    3  502    0  0.42135287376E+02  0.13142445741E+02  0.45150275001E+03  0.45367423553E+03  0.41800000000E+01 0. -1.
         -5    1    3    3    0  502 -0.77357456081E+02  0.18266676436E+02  0.18458479507E+04  0.18475632539E+04  0.41800000000E+01 0. -1.
        -11    1    4    4    0    0  0.50456714082E+02 -0.14160853680E+02  0.99048276829E+02  0.11205789091E+03  0.00000000000E+00 0.  1.
         11    1    4    4    0    0 -0.15234545378E+02 -0.17248268498E+02  0.13700716048E+03  0.13892644155E+03  0.00000000000E+00 0. -1.
</event>
<event>
 8    1  0.4205029E-010  0.1030149E+03  0.7561462E-02  0.1274081E+00
          1   -1    0    0  501    0  0.00000000000E+00  0.00000000000E+00  0.65713040077E+02  0.65713040077E+02  0.00000000000E+00 0.  1.
         -1   -1    0    0    0  501 -0.00000000000E+00 -0.00000000000E+00 -0.25405704459E+03  0.25405704459E+03  0.00000000000E+00 0. -1.
         25    2    1    2    0    0  0.23351579492E+02 -0.54023079687E+02 -0.38841189224E+02  0.14359822679E+03  0.12509205952E+03 0.  0.
         23    2    1    2    0    0 -0.23351579492E+02  0.54023079687E+02 -0.14950281529E+03  0.17617185788E+03  0.72260932211E+02 0.  0.
          5    1    3    3  502    0 -0.33826773195E+02 -0.51405133418E+02 -0.56404354649E+02  0.83580272492E+02  0.41800000000E+01 0.  1.
         -5    1    3    3    0  502  0.57178352687E+02 -0.26179462691E+01  0.17563165426E+02  0.60017954300E+02  0.41800000000E+01 0.  1.
        -11    1    4    4    0    0  0.17228419867E+02  0.40787564739E+02 -0.44270904832E+02  0.62612753518E+02  0.00000000000E+00 0.  1.
         11    1    4    4    0    0 -0.40579999359E+02  0.13235514949E+02 -0.10523191046E+03  0.11355910436E+03  0.00000000000E+00 0. -1.
</event>
<event>
 8    1  0.6852305E-010  0.1895480E+03  0.7561462E-02  0.1158870E+00
         -2   -1    0    0    0  501 -0.00000000000E+00  0.00000000000E+00  0.27783759025E+02  0.27783759025E+02  0.00000000000E+00 0.  1.
          2   -1    0    0  501    0  0.00000000000E+00 -0.00000000000E+00 -0.14140895984E+04  0.14140895984E+04  0.00000000000E+00 0. -1.
         25    2    1    2    0    0 -0.14662077071E+03 -0.40477756163E+02 -0.51641588206E+03  0.55269270959E+03  0.12509104222E+03 0.  0.
         23    2    1    2    0    0  0.14662077071E+03  0.40477756163E+02 -0.86988995733E+03  0.88918064784E+03  0.10391144064E+03 0.  0.
          5    1    3    3  502    0 -0.16768040713E+03 -0.43299490370E+02 -0.48026454581E+03  0.51055173211E+03  0.41800000000E+01 0. -1.
         -5    1    3    3    0  502  0.21059636420E+02  0.28217342066E+01 -0.36151336253E+02  0.42140977480E+02  0.41800000000E+01 0. -1.
        -11    1    4    4    0    0  0.11378233071E+03 -0.19871652807E+02 -0.54391621657E+03  0.55604509891E+03  0.00000000000E+00 0. -1.
         11    1    4    4    0    0  0.32838439999E+02  0.60349408971E+02 -0.32597374075E+03  0.33313554894E+03  0.00000000000E+00 0.  1.
</event>
<event>
 8    1  0.4205029E-010  0.1179505E+03  0.7561462E-02  0.1246517E+00
         -1   -1    0    0    0  501 -0.00000000000E+00  0.00000000000E+00  0.75724191220E+02  0.75724191220E+02  0.00000000000E+00 0.  1.
          1   -1    0    0  501    0  0.00000000000E+00 -0.00000000000E+00 -0.21038843417E+03  0.21038843417E+03  0.00000000000E+00 0. -1.
         25    2    1    2    0    0  0.11245511251E+02 -0.16004121874E+02 -0.77528063889E+02  0.14846386171E+03  0.12509326162E+03 0.  0.
         23    2    1    2    0    0 -0.11245511251E+02  0.16004121874E+02 -0.57136179061E+02  0.13764876368E+03  0.12369335368E+03 0.  0.
          5    1    3    3  502    0 -0.29714849985E+02  0.34933235179E+02 -0.68220107657E+02  0.82308922472E+02  0.41800000000E+01 0.  1.
         -5    1    3    3    0  502  0.40960361236E+02 -0.50937357053E+02 -0.93079562316E+01  0.66154939237E+02  0.41800000000E+01 0.  1.
        -11    1    4    4    0    0 -0.56420058445E+02 -0.26492591296E+02 -0.20502095916E+02  0.65615671340E+02  0.00000000000E+00 0.  1.
         11    1    4    4    0    0  0.45174547193E+02  0.42496713170E+02 -0.36634083145E+02  0.72033092341E+02  0.00000000000E+00 0. -1.
</event>
<event>
 8    1  0.4205029E-010  0.8393084E+02  0.7561462E-02  0.1318252E+00
         -2   -1    0    0    0  501 -0.00000000000E+00  0.00000000000E+00  0.58124765998E+02  0.58124765998E+02  0.00000000000E+00 0.  1.
          2   -1    0    0  501    0  0.00000000000E+00 -0.00000000000E+00 -0.21749041440E+03  0.21749041440E+03  0.00000000000E+00 0. -1.
         25    2    1    2    0    0 -0.18718689021E+00 -0.67255380906E+01 -0.33224389980E+02  0.12960044092E+03  0.12508855382E+03 0.  0.
         23    2    1    2    0    0  0.18718689021E+00  0.67255380906E+01 -0.12614125842E+03  0.14601473947E+03  0.73235368279E+02 0.  0.
          5    1    3    3  502    0 -0.62360429425E+02  0.13885809382E+00 -0.14296198002E+02  0.64114710613E+02  0.41800000000E+01 0.  1.
         -5    1    3    3    0  502  0.62173242535E+02 -0.68643961844E+01 -0.18928191978E+02  0.65485730307E+02  0.41800000000E+01 0.  1.
        -11    1    4    4    0    0  0.10159910233E+02  0.22112276570E+02 -0.12531958791E+03  0.12766039191E+03  0.00000000000E+00 0. -1.
         11    1    4    4    0    0 -0.99727233429E+01 -0.15386738479E+02 -0.82167051243E+00  0.18354347560E+02  0.00000000000E+00 0.  1.
</event>
<event>
 8    1  0.4205029E-010  0.2002404E+03  0.7561462E-02  0.1149536E+00
         -2   -1    0    0    0  501 -0.00000000000E+00  0.00000000000E+00  0.64494509092E+02  0.64494509092E+02  0.00000000000E+00 0.  1.
          2   -1    0    0  501    0  0.00000000000E+00 -0.00000000000E+00 -0.24336477597E+04  0.24336477597E+04  0.00000000000E+00 0. -1.
         25    2    1    2    0    0 -0.11179683651E+02  0.18132252347E+03 -0.22195826837E+04  0.22305156484E+04  0.12509966119E+03 0.  0.
         23    2    1    2    0    0  0.11179683651E+02 -0.18132252347E+03 -0.14957056691E+03  0.26762662037E+03  0.12747474497E+03 0.  0.
          5    1    3    3  502    0  0.42555882228E+02  0.14213429117E+03 -0.12810077257E+04  0.12895780029E+04  0.41800000000E+01 0.  1.
         -5    1    3    3    0  502 -0.53735565879E+02  0.39188232294E+02 -0.93857495795E+03  0.94093764548E+03  0.41800000000E+01 0.  1.
        -11    1    4    4    0    0 -0.55174454437E+01 -0.14838097339E+03 -0.16976186133E+03  0.22553590630E+03  0.00000000000E+00 0. -1.
         11    1    4    4    0    0  0.16697129095E+02 -0.32941550078E+02  0.20191294414E+02  0.42090714079E+02  0.00000000000E+00 0.  1.
</event>
<event>
 7    1  0.4205029E-010  0.5203359E+02  0.7561462E-02  0.1434672E+00
         -2   -1    0    0    0  501 -0.00000000000E+00  0.00000000000E+00  0.42134093981E+03  0.42134093981E+03  0.00000000000E+00 0.  1.
          2   -1    0    0  501    0  0.00000000000E+00 -0.00000000000E+00 -0.19391580293E+02  0.19391580293E+02  0.00000000000E+00 0. -1.
         25    2    1    2    0    0  0.16742589956E+00 -0.37677345263E+02  0.28243133851E+03  0.31118693483E+03  0.12510090752E+03 0.  0.
          5    1    3    3  502    0  0.10444833009E+02 -0.41372620252E+02  0.29257900317E+03  0.29570379392E+03  0.41800000000E+01 0. -1.
         -5    1    3    3    0  502 -0.10277407110E+02  0.36952749891E+01 -0.10147664667E+02  0.15483140907E+02  0.41800000000E+01 0. -1.
        -11    1    1    2    0    0  0.14139307660E+02  0.30220627943E+02  0.88546880689E+02  0.94624291037E+02  0.00000000000E+00 0.  1.
         11    1    1    2    0    0 -0.14306733560E+02  0.74567173201E+01  0.30971140326E+02  0.34921294241E+02  0.00000000000E+00 0. -1.
</event>
<event>
 8    1  0.4205029E-010  0.1053403E+03  0.7561462E-02  0.1269451E+00
          1   -1    0    0  501    0  0.00000000000E+00  0.00000000000E+00  0.15612794863E+03  0.15612794863E+03  0.00000000000E+00 0. -1.
         -1   -1    0    0    0  501 -0.00000000000E+00 -0.00000000000E+00 -0.79052551603E+02  0.79052551603E+02  0.00000000000E+00 0.  1.
         25    2    1    2    0    0  0.46041095796E+02 -0.24789295562E+02  0.24305647484E+02  0.13775022362E+03  0.12510023154E+03 0.  0.
         23    2    1    2    0    0 -0.46041095796E+02  0.24789295562E+02  0.52769749541E+02  0.97430276610E+02  0.63037454398E+02 0.  0.
          5    1    3    3  502    0  0.77441919481E+02  0.19186698830E+02  0.24457401270E+02  0.83552481602E+02  0.41800000000E+01 0.  1.
         -5    1    3    3    0  502 -0.31400823685E+02 -0.43975994392E+02 -0.15175378658E+00  0.54197742020E+02  0.41800000000E+01 0.  1.
        -11    1    4    4    0    0 -0.71627829863E+01  0.35538754755E+02  0.42391702853E+02  0.55779611153E+02  0.00000000000E+00 0. -1.
         11    1    4    4    0    0 -0.38878312810E+02 -0.10749459193E+02  0.10378046688E+02  0.41650665456E+02  0.00000000000E+00 0.  1.
</event>
<event>
 7    1  0.4205029E-010  0.3614968E+03  0.7561462E-02  0.1057993E+00
         -4   -1    0    0    0  501 -0.00000000000E+00  0.00000000000E+00  0.52777069370E+03  0.52777069370E+03  0.00000000000E+00 0.  1.
          4   -1    0    0  501    0  0.00000000000E+00 -0.00000000000E+00 -0.40192962663E+03  0.40192962663E+03  0.00000000000E+00 0. -1.
         25    2    1    2    0    0 -0.12213297310E+03 -0.32654602835E+03  0.47032119136E+02  0.37337440091E+03  0.12509057230E+03 0.  0.
          5    1    3    3  502    0 -0.90255209602E+02 -0.78038900559E+02  0.23644787537E+02  0.12170711252E+03  0.41800000000E+01 0. -1.
         -5    1    3    3    0  502 -0.31877763500E+02 -0.24850712779E+03  0.23387331599E+02  0.25166728839E+03  0.41800000000E+01 0. -1.
        -11    1    1    2    0    0  0.27583784961E+02  0.25800196153E+02 -0.15773455062E+03  0.16219341470E+03  0.00000000000E+00 0. -1.
         11    1    1    2    0    0  0.94549188141E+02  0.30074583219E+03  0.23654349856E+03  0.39413250471E+03  0.00000000000E+00 0.  1.
</event>
<event>
 8    1  0.4205029E-010  0.8254572E+02  0.7561462E-02  0.1321978E+00
         -4   -1    0    0    0  501 -0.00000000000E+00  0.00000000000E+00  0.16731095023E+03  0.16731095023E+03  0.00000000000E+00 0.  1.
          4   -1    0    0  501    0  0.00000000000E+00 -0.00000000000E+00 -0.58462377005E+02  0.58462377005E+02  0.00000000000E+00 0. -1.
         25    2    1    2    0    0 -0.13447526194E+02  0.16949409763E+02  0.67794022867E+02  0.14391361730E+03  0.12508789413E+03 0.  0.
         23    2    1    2    0    0  0.13447526194E+02 -0.16949409763E+02  0.41054550358E+02  0.81859709931E+02  0.67434542728E+02 0.  0.
          5    1    3    3  502    0 -0.22713375536E+02  0.53124147198E+02  0.84777486123E+02  0.10267797718E+03  0.41800000000E+01 0. -1.
         -5    1    3    3    0  502  0.92658493429E+01 -0.36174737436E+02 -0.16983463256E+02  0.41235640128E+02  0.41800000000E+01 0. -1.
        -11    1    4    4    0    0 -0.98739524298E+01 -0.37331774190E+02  0.15147444012E+02  0.41480132122E+02  0.00000000000E+00 0.  1.
         11    1    4    4    0    0  0.23321478623E+02  0.20382364427E+02  0.25907106346E+02  0.40379577809E+02  0.00000000000E+00 0. -1.
</event>
<event>
 8    1  0.4205029E-010  0.1015145E+03  0.7561462E-02  0.1277143E+00
         -1   -1    0    0    0  501 -0.00000000000E+00  0.00000000000E+00  0.21395742493E+02  0.21395742493E+02  0.00000000000E+00 0.  1.
          1   -1    0    0  501    0  0.00000000000E+00 -0.00000000000E+00 -0.53138065502E+03  0.53138065502E+03  0.00000000000E+00 0. -1.
         25    2    1    2    0    0 -0.33109629292E+02  0.62638598559E+01 -0.24994250374E+03  0.28152127496E+03  0.12508992600E+03 0.  0.
         23    2    1    2    0    0  0.33109629292E+02 -0.62638598559E+01 -0.26004240879E+03  0.27125512256E+03  0.69439208313E+02 0.  0.
          5    1    3    3  502    0 -0.31561232255E+01  0.63647945077E+02 -0.13982040212E+03  0.15371479850E+03  0.41800000000E+01 0. -1.
         -5    1    3    3    0  502 -0.29953506066E+02 -0.57384085221E+02 -0.11012210161E+03  0.12780647646E+03  0.41800000000E+01 0. -1.
        -11    1    4    4    0    0  0.47593811758E+02  0.13799926104E+02 -0.13547358600E+03  0.14425221447E+03  0.00000000000E+00 0.  1.
         11    1    4    4    0    0 -0.14484182467E+02 -0.20063785960E+02 -0.12456882280E+03  0.12700290808E+03  0.00000000000E+00 0. -1.
</event>
<event>
 7    1  0.4205029E-010  0.1042045E+03  0.7561462E-02  0.1271695E+00
         -1   -1    0    0    0  501 -0.00000000000E+00  0.00000000000E+00  0.60663313154E+02  0.60663313154E+02  0.00000000000E+00 0.  1.
          1   -1    0    0  501    0  0.00000000000E+00 -0.00000000000E+00 -0.18725917643E+03  0.18725917643E+03  0.00000000000E+00 0. -1.
         25    2    1    2    0    0 -0.34077275843E+02  0.42209796371E+02 -0.10389743318E+03  0.17142015549E+03  0.12508903008E+03 0.  0.
          5    1    3    3  502    0  0.41432462323E+02  0.43162961515E+02 -0.37168661235E+02  0.70559704923E+02  0.41800000000E+01 0.  1.
         -5    1    3    3    0  502 -0.75509738167E+02 -0.95316514405E+00 -0.66728771949E+02  0.10086045056E+03  0.41800000000E+01 0.  1.
        -11    1    1    2    0    0  0.18292000328E+02 -0.51384647292E+02 -0.14188798627E+02  0.56358683979E+02  0.00000000000E+00 0.  1.
         11    1    1    2    0    0  0.15785275515E+02  0.91748509212E+01 -0.85096314671E+01  0.20143650121E+02  0.00000000000E+00 0. -1.
</event>
<event>
 8    1  0.4205029E-010  0.1686519E+03  0.7561462E-02  0.1179261E+00
          2   -1    0    0  501    0  0.00000000000E+00  0.00000000000E+00  0.25950125413E+03  0.25950125413E+03  0.00000000000E+00 0. -1.
         -2   -1    0    0    0  501 -0.00000000000E+00 -0.00000000000E+00 -0.12743150616E+03  0.12743150616E+03  0.00000000000E+00 0.  1.
         25    2    1    2    0    0 -0.39550465520E+01 -0.13850058593E+03  0.42840652780E+02  0.19152116355E+03  0.12508788856E+03 0.  0.
         23    2    1    2    0    0  0.39550465520E+01  0.13850058593E+03  0.89229095183E+02  0.19541159673E+03  0.10500383810E+03 0.  0.
          5    1    3    3  502    0  0.41233799035E+02 -0.67098405813E+02  0.67056225196E+02  0.10352020085E+03  0.41800000000E+01 0.  1.
         -5    1    3    3    0  502 -0.45188845587E+02 -0.71402180112E+02 -0.24215572416E+02  0.88000962709E+02  0.41800000000E+01 0.  1.
        -11    1    4    4    0    0 -0.81979737928E+00  0.15584353922E+03  0.79177398272E+02  0.17480543808E+03  0.00000000000E+00 0.  1.
         11    1    4    4    0    0  0.47748439312E+01 -0.17342953297E+02  0.10051696911E+02  0.20606158653E+02  0.00000000000E+00 0. -1.
</event>
<event>
 8    1  0.4205029E-010  0.9485722E+02  0.7561462E-02  0.1291498E+00
          2   -1    0    0  501    0  0.00000000000E+00  0.00000000000E+00  0.56626743941E+03  0.56626743941E+03  0.00000000000E+00 0.  1.
         -2   -1    0    0    0  501 -0.00000000000E+00 -0.00000000000E+00 -0.28614299107E+02  0.28614299107E+02  0.00000000000E+00 0. -1.
         25    2    1    2    0    0 -0.25151625713E+02  0.83790125634E+01  0.35622055939E+03  0.37847535789E+03  0.12509075691E+03 0.  0.
         23    2    1    2    0    0  0.25151625713E+02 -0.83790125634E+01  0.18143258091E+03  0.21640638063E+03  0.11493967128E+03 0.  0.
          5    1    3    3  502    0 -0.60320171750E+02  0.17788000562E+02  0.32274752550E+03  0.32884399599E+03  0.41800000000E+01 0. -1.
         -5    1    3    3    0  502  0.35168546037E+02 -0.94089879981E+01  0.33473033895E+02  0.49631361896E+02  0.41800000000E+01 0. -1.
        -11    1    4    4    0    0  0.56889097732E+02 -0.11868852049E+02  0.17424227434E+03  0.18367800428E+03  0.00000000000E+00 0.  1.
         11    1    4    4    0    0 -0.31737472018E+02  0.34898394855E+01  0.71903065681E+01  0.32728376347E+02  0.00000000000E+00 0. -1.
</event>
<event>
 8    1  0.4205029E-010  0.1398633E+03  0.7561462E-02  0.1213513E+00
          1   -1    0    0  501    0  0.00000000000E+00  0.00000000000E+00  0.10547072260E+04  0.10547072260E+04  0.00000000000E+00 0. -1.
         -1   -1    0    0    0  501 -0.00000000000E+00 -0.00000000000E+00 -0.19916484427E+02  0.19916484427E+02  0.00000000000E+00 0.  1.
         25    2    1    2    0    0 -0.96686495087E+02  0.49362810347E+02  0.59920751156E+03  0.62167732237E+03  0.12509230938E+03 0.  0.
         23    2    1    2    0    0  0.96686495087E+02 -0.49362810347E+02  0.43558322999E+03  0.45294638803E+03  0.60354907042E+02 0.  0.
          5    1    3    3  502    0  0.16624551561E+02 -0.22419757152E+02  0.64833163491E+02  0.70709495215E+02  0.41800000000E+01 0.  1.
         -5    1    3    3    0  502 -0.11331104665E+03  0.71782567499E+02  0.53437434807E+03  0.55096782716E+03  0.41800000000E+01 0.  1.
        -11    1    4    4    0    0  0.85179351636E+02 -0.22530226903E+02  0.38089446331E+03  0.39095233118E+03  0.00000000000E+00 0. -1.
         11    1    4    4    0    0  0.11507143451E+02 -0.26832583444E+02  0.54688766681E+02  0.61994056858E+02  0.00000000000E+00 0.  1.
</event>
<event>
 8    1  0.4205029E-010  0.7023592E+02  0.7561462E-02  0.1359293E+00
          2   -1    0    0  501    0  0.00000000000E+00  0.00000000000E+00  0.17221618238E+03  0.17221618238E+03  0.00000000000E+00 0. -1.
         -2   -1    0    0    0  501 -0.00000000000E+00 -0.00000000000E+00 -0.10585191465E+03  0.10585191465E+03  0.00000000000E+00 0.  1.
         25    2    1    2    0    0 -0.39038398356E+02  0.45317808999E+02  0.18464945612E+02  0.13987671392E+03  0.12508733158E+03 0.  0.
         23    2    1    2    0    0  0.39038398356E+02 -0.45317808999E+02  0.47899322117E+02  0.13819138311E+03  0.11499918672E+03 0.  0.
          5    1    3    3  502    0 -0.10992778701E+02  0.44908722646E+01  0.68322886932E+02  0.69473004800E+02  0.41800000000E+01 0. -1.
         -5    1    3    3    0  502 -0.28045619655E+02  0.40826936734E+02 -0.49857941319E+02  0.70403709118E+02  0.41800000000E+01 0. -1.
        -11    1    4    4    0    0 -0.11988105322E+02 -0.13439061843E+02 -0.32867383155E+02  0.37477832486E+02  0.00000000000E+00 0.  1.
         11    1    4    4    0    0  0.51026503678E+02 -0.31878747156E+02  0.80766705271E+02  0.10071355062E+03  0.00000000000E+00 0. -1.
</event>
<event>
 8    1  0.4205029E-010  0.9529141E+02  0.7561462E-02  0.1290521E+00
         -2   -1    0    0    0  501 -0.00000000000E+00  0.00000000000E+00  0.53667381943E+02  0.53667381943E+02  0.00000000000E+00 0.  1.
          2   -1    0    0  501    0  0.00000000000E+00 -0.00000000000E+00 -0.20095496142E+03  0.20095496142E+03  0.00000000000E+00 0. -1.
         25    2    1    2    0    0  0.20957154970E+02 -0.25014924996E+02 -0.64244485535E+02  0.14436059038E+03  0.12509067637E+03 0.  0.
         23    2    1    2    0    0 -0.20957154970E+02  0.25014924996E+02 -0.83043093946E+02  0.11026175299E+03  0.64780783439E+02 0.  0.
          5    1    3    3  502    0  0.20841411109E+02  0.44047499922E+02  0.14804323115E+01  0.48930672857E+02  0.41800000000E+01 0. -1.
         -5    1    3    3    0  502  0.11574386096E+00 -0.69062424918E+02 -0.65724917847E+02  0.95429917521E+02  0.41800000000E+01 0. -1.
        -11    1    4    4    0    0 -0.15608587201E+02 -0.20997510301E+02 -0.31966644634E+02  0.41308471315E+02  0.00000000000E+00 0.  1.
         11    1    4    4    0    0 -0.53485677692E+01  0.46012435297E+02 -0.51076449312E+02  0.68953281673E+02  0.00000000000E+00 0. -1.
</event>
<event>
 7    1  0.4205029E-010  0.6931910E+02  0.7561462E-02  0.1362424E+00
          2   -1    0    0  501    0  0.00000000000E+00  0.00000000000E+00  0.70274709320E+02  0.70274709320E+02  0.00000000000E+00 0. -1.
         -2   -1    0    0    0  501 -0.00000000000E+00 -0.00000000000E+00 -0.32318778538E+03  0.32318778538E+03  0.00000000000E+00 0.  1.
         25    2    1    2    0    0  0.98132752372E+01 -0.59568139951E+02 -0.97202276879E+02  0.16953097237E+03  0.12509118391E+03 0.  0.
          5    1    3    3  502    0 -0.14283452501E+02 -0.53937502735E+01 -0.10797027328E+03  0.10912452460E+03  0.41800000000E+01 0. -1.
         -5    1    3    3    0  502  0.24096727738E+02 -0.54174389678E+02  0.10767996404E+02  0.60406447762E+02  0.41800000000E+01 0. -1.
        -11    1    1    2    0    0  0.50596924495E+01  0.28245370171E+02  0.26132872730E+02  0.38811447549E+02  0.00000000000E+00 0. -1.
         11    1    1    2    0    0 -0.14872967687E+02  0.31322769780E+02 -0.18184367191E+03  0.18512007479E+03  0.00000000000E+00 0.  1.
</event>
<event>
 8    1  0.4205029E-010  0.5641169E+02  0.7561462E-02  0.1413538E+00
         -2   -1    0    0    0  501 -0.00000000000E+00  0.00000000000E+00  0.57254130023E+02  0.57254130023E+02  0.00000000000E+00 0.  1.
          2   -1    0    0  501    0  0.00000000000E+00 -0.00000000000E+00 -0.17898956283E+03  0.17898956283E+03  0.00000000000E+00 0. -1.
         25    2    1    2    0    0  0.89590814141E+01 -0.13719407985E+02 -0.46495661875E+02  0.13445474168E+03  0.12509094169E+03 0.  0.
         23    2    1    2    0    0 -0.89590814141E+01  0.13719407985E+02 -0.75239770930E+02  0.10178895117E+03  0.66569363491E+02 0.  0.
          5    1    3    3  502    0 -0.24979914039E+01  0.23748388314E+02  0.35786498649E+02  0.43224666501E+02  0.41800000000E+01 0.  1.
         -5    1    3    3    0  502  0.11457072818E+02 -0.37467796298E+02 -0.82282160524E+02  0.91230075181E+02  0.41800000000E+01 0.  1.
        -11    1    4    4    0    0  0.10701174977E+02  0.24515080120E+02 -0.74709159155E+02  0.79353404217E+02  0.00000000000E+00 0. -1.
         11    1    4    4    0    0 -0.19660256391E+02 -0.10795672136E+02 -0.53061177478E+00  0.22435546953E+02  0.00000000000E+00 0.  1.
</event>
<event>
 8    1  0.4205029E-010  0.1366531E+03  0.7561462E-02  0.1217905E+00
          1   -1    0    0  501    0  0.00000000000E+00  0.00000000000E+00  0.97545920498E+02  0.97545920498E+02  0.00000000000E+00 0. -1.
         -1   -1    0    0    0  501 -0.00000000000E+00 -0.00000000000E+00 -0.21286086356E+03  0.21286086356E+03  0.00000000000E+00 0.  1.
         25    2    1    2    0    0  0.32418040776E+02  0.99551193449E+02 -0.58721986472E+02  0.17336823957E+03  0.12508759056E+03 0.  0.
         23    2    1    2    0    0 -0.32418040776E+02 -0.99551193449E+02 -0.56592956589E+02  0.13703854448E+03  0.67936959407E+02 0.  0.
          5    1    3    3  502    0  0.46579499158E+02 -0.10947933170E+01 -0.54127875667E+02  0.71541230339E+02  0.41800000000E+01 0.  1.
         -5    1    3    3    0  502 -0.14161458382E+02  0.10064598677E+03 -0.45941108052E+01  0.10182700924E+03  0.41800000000E+01 0.  1.
        -11    1    4    4    0    0  0.14304984932E+02 -0.65357808289E+02 -0.29816371781E+02  0.73248151679E+02  0.00000000000E+00 0. -1.
         11    1    4    4    0    0 -0.46723025708E+02 -0.34193385160E+02 -0.26776584808E+02  0.63790392803E+02  0.00000000000E+00 0.  1.
</event>
<event>
 7    1  0.4205029E-010  0.1612904E+03  0.7561462E-02  0.1187248E+00
          1   -1    0    0  501    0  0.00000000000E+00  0.00000000000E+00  0.12217054780E+04  0.12217054780E+04  0.00000000000E+00 0. -1.
         -1   -1    0    0    0  501 -0.00000000000E+00 -0.00000000000E+00 -0.23631721880E+02  0.23631721880E+02  0.00000000000E+00 0.  1.
         25    2    1    2    0    0  0.56572251117E+02  0.99345144511E+01  0.52678939449E+03  0.54447617477E+03  0.12509246408E+03 0.  0.
          5    1    3    3  502    0  0.27639883447E+02  0.62303658675E+02  0.17958995396E+03  0.19213467413E+03  0.41800000000E+01 0. -1.
         -5    1    3    3    0  502  0.28932367670E+02 -0.52369144223E+02  0.34719944053E+03  0.35234150064E+03  0.41800000000E+01 0. -1.
        -11    1    1    2    0    0  0.68682556099E+02 -0.68716864408E+01  0.15645368183E+03  0.17100370799E+03  0.00000000000E+00 0.  1.
         11    1    1    2    0    0 -0.12525480722E+03 -0.30628280103E+01  0.51483067980E+03  0.52985731713E+03  0.00000000000E+00 0. -1.
</event>
<event>
 8    1  0.4205029E-010  0.1029689E+03  0.7561462E-02  0.1274174E+00
          4   -1    0    0  501    0  0.00000000000E+00  0.00000000000E+00  0.69061803655E+02  0.69061803655E+02  0.00000000000E+00 0. -1.
         -4   -1    0    0    0  501 -0.00000000000E+00 -0.00000000000E+00 -0.27287198362E+03  0.27287198362E+03  0.00000000000E+00 0.  1.
         25    2    1    2    0    0  0.49551754579E+02  0.10552416071E+02 -0.17831022201E+03  0.22362603157E+03  0.12508931550E+03 0.  0.
         23    2    1    2    0    0 -0.49551754579E+02 -0.10552416071E+02 -0.25499957956E+02  0.11830775571E+03  0.10382556207E+03 0.  0.
          5    1    3    3  502    0 -0.25725098449E+02 -0.32994116117E+02 -0.91396963327E+02  0.10060452124E+03  0.41800000000E+01 0.  1.
         -5    1    3    3    0  502  0.75276853028E+02  0.43546532189E+02 -0.86913258685E+02  0.12302151033E+03  0.41800000000E+01 0.  1.
        -11    1    4    4    0    0 -0.37038331392E+02 -0.33981420704E+02  0.28748671156E+02  0.57905621823E+02  0.00000000000E+00 0. -1.
         11    1    4    4    0    0 -0.12513423187E+02  0.23429004633E+02 -0.54248629113E+02  0.60402133891E+02  0.00000000000E+00 0.  1.
</event>
<event>
 8    1  0.4205029E-010  0.1612513E+03  0.7561462E-02  0.1187291E+00
          1   -1    0    0  501    0  0.00000000000E+00  0.00000000000E+00  0.31194635937E+03  0.31194635937E+03  0.00000000000E+00 0. -1.
         -1   -1    0    0    0  501 -0.00000000000E+00 -0.00000000000E+00 -0.13973889202E+03  0.13973889202E+03  0.00000000000E+00 0.  1.
         25    2    1    2    0    0 -0.75646680304E+02 -0.13324977500E+03  0.18456621432E+00  0.19780207298E+03  0.12509077997E+03 0.  0.
         23    2    1    2    0    0  0.75646680304E+02  0.13324977500E+03  0.17202290114E+03  0.25388317841E+03  0.10670926383E+03 0.  0.
          5    1    3    3  502    0 -0.88429635897E+02 -0.12577068183E+03  0.36747571563E+02  0.15813260678E+03  0.41800000000E+01 0.  1.
         -5    1    3    3    0  502  0.12782955593E+02 -0.74790931704E+01 -0.36563005349E+02  0.39669466199E+02  0.41800000000E+01 0.  1.
        -11    1    4    4    0    0  0.51798052489E+02  0.86324657385E+02  0.34155374503E+02  0.10630886286E+03  0.00000000000E+00 0.  1.
         11    1    4    4    0    0  0.23848627814E+02  0.46925117611E+02  0.13786752664E+03  0.14757431556E+03  0.00000000000E+00 0. -1.
</event>
<event>
 8    1  0.4205029E-010  0.1352393E+03  0.7561462E-02  0.1219882E+00
          1   -1    0    0  501    0  0.00000000000E+00  0.00000000000E+00  0.22730578727E+03  0.22730578727E+03  0.00000000000E+00 0.  1.
         -1   -1    0    0    0  501 -0.00000000000E+00 -0.00000000000E+00 -0.89469557725E+02  0.89469557725E+02  0.00000000000E+00 0. -1.
         25    2    1    2    0    0 -0.66090380323E+01 -0.64959246457E+02  0.50922702201E+02  0.15000809369E+03  0.12508366596E+03 0.  0.
         23    2    1    2    0    0  0.66090380323E+01  0.64959246457E+02  0.86913527340E+02  0.16676725130E+03  0.12646727556E+03 0.  0.
          5    1    3    3  502    0 -0.23320425970E+02  0.31713127221E+02  0.42230148549E+00  0.39588071993E+02  0.41800000000E+01 0. -1.
         -5    1    3    3    0  502  0.16711387938E+02 -0.96672373678E+02  0.50500400716E+02  0.11042002170E+03  0.41800000000E+01 0. -1.
        -11    1    4    4    0    0  0.58955833723E+02  0.52373173356E+02  0.80260999421E+02  0.11251918790E+03  0.00000000000E+00 0.  1.
         11    1    4    4    0    0 -0.52346795690E+02  0.12586073101E+02  0.66525279192E+01  0.54248063402E+02  0.00000000000E+00 0. -1.
</event>
<event>
 8    1  0.4205029E-010  0.1114657E+03  0.7561462E-02  0.1257880E+00
         -1   -1    0    0    0  501 -0.00000000000E+00  0.00000000000E+00  0.79155863691E+02  0.79155863691E+02  0.00000000000E+00 0.  1.
          1   -1    0    0  501    0  0.00000000000E+00 -0.00000000000E+00 -0.25327103816E+03  0.25327103816E+03  0.00000000000E+00 0. -1.
         25    2    1    2    0    0 -0.34099334111E+02  0.10626682530E+01 -0.17909414186E+03  0.22110614917E+03  0.12509725697E+03 0.  0.
         23    2    1    2    0    0  0.34099334111E+02 -0.10626682530E+01  0.49789673847E+01  0.11132075269E+03  0.10584718235E+03 0.  0.
          5    1    3    3  502    0 -0.54377153411E+02  0.40345442689E+02 -0.49116957810E+02  0.83753074590E+02  0.41800000000E+01 0. -1.
         -5    1    3    3    0  502  0.20277819299E+02 -0.39282774436E+02 -0.12997718405E+03  0.13735307458E+03  0.41800000000E+01 0. -1.
        -11    1    4    4    0    0 -0.37843121654E+02 -0.70582178127E+01 -0.33936033850E+01  0.38645010534E+02  0.00000000000E+00 0.  1.
         11    1    4    4    0    0  0.71942455766E+02  0.59955495597E+01  0.83725707697E+01  0.72675742153E+02  0.00000000000E+00 0. -1.
</event>
<event>
 8    1  0.4205029E-010  0.1213749E+03  0.7561462E-02  0.1240846E+00
          1   -1    0    0  501    0  0.00000000000E+00  0.00000000000E+00  0.42116472046E+03  0.42116472046E+03  0.00000000000E+00 0. -1.
         -1   -1    0    0    0  501 -0.00000000000E+00 -0.00000000000E+00 -0.10557570056E+03  0.10557570056E+03  0.00000000000E+00 0.  1.
         25    2    1    2    0    0 -0.70926236674E+02 -0.25852681792E+02 -0.42768345984E+02  0.15223640478E+03  0.12509156374E+03 0.  0.
         23    2    1    2    0    0  0.70926236674E+02  0.25852681792E+02  0.35835736588E+03  0.37450401624E+03  0.78322182634E+02 0.  0.
          5    1    3    3  502    0 -0.81539346150E+02 -0.65453947380E+02 -0.34663297625E+02  0.11023566029E+03  0.41800000000E+01 0. -1.
         -5    1    3    3    0  502  0.10613109476E+02  0.39601265588E+02 -0.81050483592E+01  0.42000744491E+02  0.41800000000E+01 0. -1.
        -11    1    4    4    0    0  0.65383433443E+01 -0.17894153805E+02  0.21310748334E+02  0.28584937793E+02  0.00000000000E+00 0.  1.
         11    1    4    4    0    0  0.64387893329E+02  0.43746835597E+02  0.33704661755E+03  0.34591907845E+03  0.00000000000E+00 0. -1.
</event>
<event>
 8    1  0.4205029E-010  0.2893386E+03  0.7561462E-02  0.1090695E+00
          1   -1    0    0  501    0  0.00000000000E+00  0.00000000000E+00  0.56520322677E+03  0.56520322677E+03  0.00000000000E+00 0. -1.
         -1   -1    0    0    0  501 -0.00000000000E+00 -0.00000000000E+00 -0.16160047209E+03  0.16160047209E+03  0.00000000000E+00 0.  1.
         25    2    1    2    0    0  0.13909110977E+03  0.23985999303E+03  0.22807699793E+03  0.38019146709E+03  0.12508909462E+03 0.  0.
         23    2    1    2    0    0 -0.13909110977E+03 -0.23985999303E+03  0.17552575676E+03  0.34661223177E+03  0.11158671452E+03 0.  0.
          5    1    3    3  502    0  0.65556615977E+02  0.63192718085E+02  0.14558633986E+03  0.17176683111E+03  0.41800000000E+01 0. -1.
         -5    1    3    3    0  502  0.73534493792E+02  0.17666727494E+03  0.82490658068E+02  0.20842463598E+03  0.41800000000E+01 0. -1.
        -11    1    4    4    0    0 -0.99659331035E+02 -0.70107071609E+02  0.95652298434E+02  0.15490754000E+03  0.00000000000E+00 0. -1.
         11    1    4    4    0    0 -0.39431778735E+02 -0.16975292142E+03  0.79873458323E+02  0.19170469178E+03  0.00000000000E+00 0.  1.
</event>
<event>
 8    1  0.4205029E-010  0.8321327E+02  0.7561462E-02  0.1320172E+00
         -2   -1    0    0    0  501 -0.00000000000E+00  0.00000000000E+00  0.16503424274E+02  0.16503424274E+02  0.00000000000E+00 0.  1.
          2   -1    0    0  501    0  0.00000000000E+00 -0.00000000000E+00 -0.11968223691E+04  0.11968223691E+04  0.00000000000E+00 0. -1.
         25    2    1    2    0    0 -0.53058083400E+02  0.45645730494E+02 -0.96897946400E+03  0.97952356593E+03  0.12508605685E+03 0.  0.
         23    2    1    2    0    0  0.53058083400E+02 -0.45645730494E+02 -0.21133948080E+03  0.23380222743E+03  0.71417172151E+02 0.  0.
          5    1    3    3  502    0 -0.87929415133E+01  0.46089901851E+02 -0.11347429334E+03  0.12286367454E+03  0.41800000000E+01 0.  1.
         -5    1    3    3    0  502 -0.44265141887E+02 -0.44417135634E+00 -0.85550517067E+03  0.85665989139E+03  0.41800000000E+01 0.  1.
        -11    1    4    4    0    0  0.56479208879E+01 -0.20349371222E+02 -0.65965441117E+01  0.22124879970E+02  0.00000000000E+00 0.  1.
         11    1    4    4    0    0  0.47410162512E+02 -0.25296359272E+02 -0.20474293669E+03  0.21167734746E+03  0.00000000000E+00 0. -1.
</event>
<event>
 8    1  0.4205029E-010  0.1501811E+03  0.7561462E-02  0.1200251E+00
         -4   -1    0    0    0  501 -0.00000000000E+00  0.00000000000E+00  0.27537646880E+03  0.27537646880E+03  0.00000000000E+00 0. -1.
          4   -1    0    0  501    0  0.00000000000E+00 -0.00000000000E+00 -0.10590201856E+03  0.10590201856E+03  0.00000000000E+00 0.  1.
         25    2    1    2    0    0 -0.11891136480E+03  0.37173583965E+02  0.73055991965E+02  0.19106604654E+03  0.12508904091E+03 0.  0.
         23    2    1    2    0    0  0.11891136480E+03 -0.37173583965E+02  0.96418458280E+02  0.19021244082E+03  0.10659486631E+03 0.  0.
          5    1    3    3  502    0 -0.57872313329E+02  0.72295953888E+02  0.76856455849E+02  0.12041717819E+03  0.41800000000E+01 0.  1.
         -5    1    3    3    0  502 -0.61039051469E+02 -0.35122369923E+02 -0.38004638843E+01  0.70648868349E+02  0.41800000000E+01 0.  1.
        -11    1    4    4    0    0  0.33469081606E+02 -0.39333043095E+02  0.90922222149E+02  0.10456633389E+03  0.00000000000E+00 0. -1.
         11    1    4    4    0    0  0.85442283192E+02  0.21594591295E+01  0.54962361308E+01  0.85646106931E+02  0.00000000000E+00 0.  1.
</event>
<event>
 8    1  0.4205029E-010  0.1316339E+03  0.7561462E-02  0.1225051E+00
         -1   -1    0    0    0  501 -0.00000000000E+00  0.00000000000E+00  0.75777040153E+02  0.75777040153E+02  0.00000000000E+00 0.  1.
          1   -1    0    0  501    0  0.00000000000E+00 -0.00000000000E+00 -0.24322391116E+03  0.24322391116E+03  0.00000000000E+00 0. -1.
         25    2    1    2    0    0 -0.63716678162E+02 -0.67694162589E+02 -0.10585477176E+03  0.18840018018E+03  0.12508829068E+03 0.  0.
         23    2    1    2    0    0  0.63716678162E+02  0.67694162589E+02 -0.61592099245E+02  0.13060077112E+03  0.67975436772E+02 0.  0.
          5    1    3    3  502    0  0.35885299771E+02 -0.11337479322E+02 -0.44683384402E+02  0.58569364165E+02  0.41800000000E+01 0.  1.
         -5    1    3    3    0  502 -0.99601977933E+02 -0.56356683266E+02 -0.61171387356E+02  0.12983081602E+03  0.41800000000E+01 0.  1.
        -11    1    4    4    0    0  0.31513857206E+02  0.71810378110E+02 -0.58798635462E+02  0.98015984066E+02  0.00000000000E+00 0. -1.
         11    1    4    4    0    0  0.32202820956E+02 -0.41162155213E+01 -0.27934637829E+01  0.32584787058E+02  0.00000000000E+00 0.  1.
</event>
<event>
 8    1  0.4205029E-010  0.1987823E+03  0.7561462E-02  0.1150770E+00
         -1   -1    0    0    0  501 -0.00000000000E+00  0.00000000000E+00  0.24282845623E+03  0.24282845623E+03  0.00000000000E+00 0. -1.
          1   -1    0    0  501    0  0.00000000000E+00 -0.00000000000E+00 -0.18128786094E+03  0.18128786094E+03  0.00000000000E+00 0.  1.
         25    2    1    2    0    0  0.13065340943E+03  0.10301586949E+03  0.67046855452E+02  0.21868897912E+03  0.12508799302E+03 0.  0.
         23    2    1    2    0    0 -0.13065340943E+03 -0.10301586949E+03 -0.55062601586E+01  0.20542733806E+03  0.12036398780E+03 0.  0.
          5    1    3    3  502    0  0.67746635413E+02  0.10950410630E+03  0.34156362401E+01  0.12887938112E+03  0.41800000000E+01 0.  1.
         -5    1    3    3    0  502  0.62906774018E+02 -0.64882368118E+01  0.63631219212E+02  0.89809597998E+02  0.41800000000E+01 0.  1.
        -11    1    4    4    0    0 -0.64270033927E+02 -0.12061989740E+03 -0.40441651833E+01  0.13673387357E+03  0.00000000000E+00 0.  1.
         11    1    4    4    0    0 -0.66383375504E+02  0.17604027908E+02 -0.14620949753E+01  0.68693464490E+02  0.00000000000E+00 0. -1.
</event>
<event>
 8    1  0.4205029E-010  0.1574661E+03  0.7561462E-02  0.1191588E+00
         -1   -1    0    0    0  501 -0.00000000000E+00  0.00000000000E+00  0.43377113267E+03  0.43377113267E+03  0.00000000000E+00 0.  1.
          1   -1    0    0  501    0  0.00000000000E+00 -0.00000000000E+00 -0.10566487536E+03  0.10566487536E+03  0.00000000000E+00 0. -1.
         25    2    1    2    0    0  0.11388308863E+03  0.73915757412E+02  0.31743673014E+03  0.36721397383E+03  0.12508848015E+03 0.  0.
         23    2    1    2    0    0 -0.11388308863E+03 -0.73915757412E+02  0.10669527162E+02  0.17222203419E+03  0.10542150247E+03 0.  0.
          5    1    3    3  502    0  0.12479901037E+03  0.60422827012E+02  0.17332930903E+03  0.22200502873E+03  0.41800000000E+01 0. -1.
         -5    1    3    3    0  502 -0.10915921739E+02  0.13492930401E+02  0.14410742111E+03  0.14520894510E+03  0.41800000000E+01 0. -1.
        -11    1    4    4    0    0 -0.32160031631E+02 -0.69427461279E+02 -0.28289447355E+02  0.81576545929E+02  0.00000000000E+00 0.  1.
         11    1    4    4    0    0 -0.81723056998E+02 -0.44882961336E+01  0.38958974517E+02  0.90645488264E+02  0.00000000000E+00 0. -1.
</event>
<event>
 8    1  0.4205029E-010  0.1542886E+03  0.7561462E-02  0.1195300E+00
          1   -1    0    0  501    0  0.00000000000E+00  0.00000000000E+00  0.45250572276E+03  0.45250572276E+03  0.00000000000E+00 0. -1.
         -1   -1    0    0    0  501 -0.00000000000E+00 -0.00000000000E+00 -0.70140377578E+02  0.70140377578E+02  0.00000000000E+00 0.  1.
         25    2    1    2    0    0 -0.13317057589E+03  0.40030322597E+02  0.27243787003E+03  0.33046275107E+03  0.12508560193E+03 0.  0.
         23    2    1    2    0    0  0.13317057589E+03 -0.40030322597E+02  0.10992747516E+03  0.19218334927E+03  0.74253356367E+02 0.  0.
          5    1    3    3  502    0 -0.17433128912E+01 -0.19908924076E+02 -0.17820798220E+01  0.20495184951E+02  0.41800000000E+01 0. -1.
         -5    1    3    3    0  502 -0.13142726300E+03  0.59939246673E+02  0.27421994985E+03  0.30996756612E+03  0.41800000000E+01 0. -1.
        -11    1    4    4    0    0  0.10541468210E+03 -0.15386586724E+02  0.41485227275E+02  0.11432421587E+03  0.00000000000E+00 0.  1.
         11    1    4    4    0    0  0.27755893790E+02 -0.24643735873E+02  0.68442247880E+02  0.77859133393E+02  0.00000000000E+00 0. -1.
</event>
<event>
 8    1  0.4205029E-010  0.8497150E+02  0.7561462E-02  0.1315507E+00
         -1   -1    0    0    0  501 -0.00000000000E+00  0.00000000000E+00  0.58032608233E+02  0.58032608233E+02  0.00000000000E+00 0.  1.
          1   -1    0    0  501    0  0.00000000000E+00 -0.00000000000E+00 -0.31936263026E+03  0.31936263026E+03  0.00000000000E+00 0. -1.
         25    2    1    2    0    0 -0.51105083124E+02 -0.59067462412E+01 -0.12801128850E+03  0.18622879092E+03  0.12509058083E+03 0.  0.
         23    2    1    2    0    0  0.51105083124E+02  0.59067462412E+01 -0.13331873353E+03  0.19116644758E+03  0.12698073396E+03 0.  0.
          5    1    3    3  502    0 -0.70898397705E+02 -0.37345363963E+02 -0.38044801731E+02  0.88803932038E+02  0.41800000000E+01 0. -1.
         -5    1    3    3    0  502  0.19793314581E+02  0.31438617722E+02 -0.89966486771E+02  0.97424858882E+02  0.41800000000E+01 0. -1.
        -11    1    4    4    0    0  0.15706679718E+02 -0.25740199239E+01  0.24493564020E+02  0.29210615275E+02  0.00000000000E+00 0.  1.
         11    1    4    4    0    0  0.35398403405E+02  0.84807661651E+01 -0.15781229755E+03  0.16195583230E+03  0.00000000000E+00 0. -1.
</event>
<event>
 8    1  0.4205029E-010  0.1617879E+03  0.7561462E-02  0.1186693E+00
         -2   -1    0    0    0  501 -0.00000000000E+00  0.00000000000E+00  0.24348551649E+03  0.24348551649E+03  0.00000000000E+00 0.  1.
          2   -1    0    0  501    0  0.00000000000E+00 -0.00000000000E+00 -0.14937826345E+03  0.14937826345E+03  0.00000000000E+00 0. -1.
         25    2    1    2    0    0  0.14958914234E+02 -0.12707583368E+03  0.13279319713E+03  0.22283189380E+03  0.12509189849E+03 0.  0.
         23    2    1    2    0    0 -0.14958914234E+02  0.12707583368E+03 -0.38685944083E+02  0.17003188614E+03  0.10508188909E+03 0.  0.
          5    1    3    3  502    0  0.46014175719E+02 -0.25617844013E+02  0.97571562036E+02  0.11095611933E+03  0.41800000000E+01 0. -1.
         -5    1    3    3    0  502 -0.31055261486E+02 -0.10145798967E+03  0.35221635092E+02  0.11187577447E+03  0.41800000000E+01 0. -1.
        -11    1    4    4    0    0  0.24881904927E+02 -0.60433873579E+01 -0.13029727272E+02  0.28729871498E+02  0.00000000000E+00 0. -1.
         11    1    4    4    0    0 -0.39840819160E+02  0.13311922104E+03 -0.25656216812E+02  0.14130201465E+03  0.00000000000E+00 0.  1.
</event>
<event>
 8    1  0.4205029E-010  0.1476909E+03  0.7561462E-02  0.1203339E+00
          3   -1    0    0  501    0  0.00000000000E+00  0.00000000000E+00  0.27283855162E+03  0.27283855162E+03  0.00000000000E+00 0. -1.
         -3   -1    0    0    0  501 -0.00000000000E+00 -0.00000000000E+00 -0.86121566361E+02  0.86121566361E+02  0.00000000000E+00 0.  1.
         25    2    1    2    0    0  0.67729773590E+02  0.97086607020E+02  0.98275841224E+02  0.19829035922E+03  0.12509114316E+03 0.  0.
         23    2    1    2    0    0 -0.67729773590E+02 -0.97086607020E+02  0.88441144029E+02  0.16066975876E+03  0.63085687192E+02 0.  0.
          5    1    3    3  502    0  0.46168979991E+01  0.10237023515E+03  0.34229673720E+02  0.10812087567E+03  0.41800000000E+01 0. -1.
         -5    1    3    3    0  502  0.63112875591E+02 -0.52836281350E+01  0.64046167504E+02  0.90169483549E+02  0.41800000000E+01 0. -1.
        -11    1    4    4    0    0 -0.24040201272E+02 -0.78096162085E+02  0.34480977919E+02  0.88689794497E+02  0.00000000000E+00 0.  1.
         11    1    4    4    0    0 -0.43689572318E+02 -0.18990444935E+02  0.53960166110E+02  0.71979964259E+02  0.00000000000E+00 0. -1.
</event>
<event>
 8    1  0.4205029E-010  0.2182113E+03  0.7561462E-02  0.1135224E+00
         -1   -1    0    0    0  501 -0.00000000000E+00  0.00000000000E+00  0.77475442914E+02  0.77475442914E+02  0.00000000000E+00 0.  1.
          1   -1    0    0  501    0  0.00000000000E+00 -0.00000000000E+00 -0.79108892587E+03  0.79108892587E+03  0.00000000000E+00 0. -1.
         25    2    1    2    0    0  0.14866124649E+02 -0.20526501568E+03 -0.23339970948E+03  0.33537494411E+03  0.12508477297E+03 0.  0.
         23    2    1    2    0    0 -0.14866124649E+02  0.20526501568E+03 -0.48021377348E+03  0.53318942467E+03  0.10644701039E+03 0.  0.
          5    1    3    3  502    0  0.19700462391E+02 -0.18282917833E+03 -0.12004035871E+03  0.21964010742E+03  0.41800000000E+01 0.  1.
         -5    1    3    3    0  502 -0.48343377425E+01 -0.22435837352E+02 -0.11335935076E+03  0.11573483669E+03  0.41800000000E+01 0.  1.
        -11    1    4    4    0    0 -0.24874642506E+02  0.12574929460E+01 -0.81230039340E+02  0.84962629547E+02  0.00000000000E+00 0. -1.
         11    1    4    4    0    0  0.10008517858E+02  0.20400752273E+03 -0.39898373414E+03  0.44822679513E+03  0.00000000000E+00 0.  1.
</event>
<event>
 7    1  0.4205029E-010  0.6402441E+02  0.7561462E-02  0.1381679E+00
          4   -1    0    0  501    0  0.00000000000E+00  0.00000000000E+00  0.28944120608E+02  0.28944120608E+02  0.00000000000E+00 0. -1.
         -4   -1    0    0    0  501 -0.00000000000E+00 -0.00000000000E+00 -0.36064423876E+03  0.36064423876E+03  0.00000000000E+00 0.  1.
         25    2    1    2    0    0  0.52714091682E+02 -0.22138935238E+02 -0.18353640852E+03  0.22934951430E+03  0.12508668413E+03 0.  0.
          5    1    3    3  502    0  0.97470445002E+01  0.92971167092E+01 -0.17464256032E+03  0.17521112274E+03  0.41800000000E+01 0.  1.
         -5    1    3    3    0  502  0.42967047181E+02 -0.31436051947E+02 -0.88938481911E+01  0.54138391564E+02  0.41800000000E+01 0.  1.
        -11    1    1    2    0    0 -0.36892892060E+02  0.24862278545E+02 -0.11722288396E+03  0.12538111063E+03  0.00000000000E+00 0.  1.
         11    1    1    2    0    0 -0.15821199622E+02 -0.27233433075E+01 -0.30940825681E+02  0.34857734437E+02  0.00000000000E+00 0. -1.
</event>
<event>
 8    1  0.4205029E-010  0.1773498E+03  0.7561462E-02  0.1170393E+00
         -2   -1    0    0    0  501 -0.00000000000E+00  0.00000000000E+00  0.23629842252E+02  0.23629842252E+02  0.00000000000E+00 0.  1.
          2   -1    0    0  501    0  0.00000000000E+00 -0.00000000000E+00 -0.15351203821E+04  0.15351203821E+04  0.00000000000E+00 0. -1.
         25    2    1    2    0    0 -0.15986909624E+03 -0.16636574551E+02 -0.90440143424E+03  0.92705258149E+03  0.12509848536E+03 0.  0.
         23    2    1    2    0    0  0.15986909624E+03  0.16636574551E+02 -0.60708910558E+03  0.63169764284E+03  0.68189634897E+02 0.  0.
          5    1    3    3  502    0 -0.55342259108E+02  0.34935946309E+02 -0.55131348065E+03  0.55520024526E+03  0.41800000000E+01 0.  1.
         -5    1    3    3    0  502 -0.10452683713E+03 -0.51572520860E+02 -0.35308795359E+03  0.37185233623E+03  0.41800000000E+01 0.  1.
        -11    1    4    4    0    0  0.58581077129E+02 -0.24059623901E+02 -0.27208966985E+03  0.27936248234E+03  0.00000000000E+00 0. -1.
         11    1    4    4    0    0  0.10128801911E+03  0.40696198452E+02 -0.33499943573E+03  0.35233516050E+03  0.00000000000E+00 0.  1.
</event>
<event>
 8    1  0.4205029E-010  0.8204851E+02  0.7561462E-02  0.1323337E+00
         -2   -1    0    0    0  501 -0.00000000000E+00  0.00000000000E+00  0.20348132051E+02  0.20348132051E+02  0.00000000000E+00 0.  1.
          2   -1    0    0  501    0  0.00000000000E+00 -0.00000000000E+00 -0.42105292969E+03  0.42105292969E+03  0.00000000000E+00 0. -1.
         25    2    1    2    0    0  0.13707011859E+02 -0.15190873388E+02 -0.26084745695E+03  0.29001293377E+03  0.12508981233E+03 0.  0.
         23    2    1    2    0    0 -0.13707011859E+02  0.15190873388E+02 -0.13985734069E+03  0.15138812797E+03  0.54218490730E+02 0.  0.
          5    1    3    3  502    0 -0.40905028452E+02  0.20344187739E+02 -0.18174959010E+03  0.18744997527E+03  0.41800000000E+01 0.  1.
         -5    1    3    3    0  502  0.54612040311E+02 -0.35535061127E+02 -0.79097866847E+02  0.10256295850E+03  0.41800000000E+01 0.  1.
        -11    1    4    4    0    0  0.15925505352E+02  0.16936799851E+02 -0.93457366399E+02  0.96305535895E+02  0.00000000000E+00 0. -1.
         11    1    4    4    0    0 -0.29632517210E+02 -0.17459264633E+01 -0.46399974288E+02  0.55082592071E+02  0.00000000000E+00 0.  1.
</event>
<event>
 8    1  0.4205029E-010  0.1078505E+03  0.7561462E-02  0.1264603E+00
          3   -1    0    0  501    0  0.00000000000E+00  0.00000000000E+00  0.29048265935E+02  0.29048265935E+02  0.00000000000E+00 0. -1.
         -3   -1    0    0    0  501 -0.00000000000E+00 -0.00000000000E+00 -0.57386918244E+03  0.57386918244E+03  0.00000000000E+00 0.  1.
         25    2    1    2    0    0  0.43205882151E+02  0.40946171598E+02 -0.29084819485E+03  0.32215329161E+03  0.12508690430E+03 0.  0.
         23    2    1    2    0    0 -0.43205882151E+02 -0.40946171598E+02 -0.25397272166E+03  0.28076415677E+03  0.10384137498E+03 0.  0.
          5    1    3    3  502    0 -0.37693414782E+01  0.48746581335E+02 -0.31217404783E+02  0.58158712919E+02  0.41800000000E+01 0.  1.
         -5    1    3    3    0  502  0.46975223629E+02 -0.78004097370E+01 -0.25963079007E+03  0.26399457869E+03  0.41800000000E+01 0.  1.
        -11    1    4    4    0    0 -0.19672631859E+01  0.33588727675E+02 -0.57508654874E+02  0.66628208266E+02  0.00000000000E+00 0.  1.
         11    1    4    4    0    0 -0.41238618965E+02 -0.74534899274E+02 -0.19646406679E+03  0.21413594851E+03  0.00000000000E+00 0. -1.
</event>
<event>
 8    1  0.4205029E-010  0.1642468E+03  0.7561462E-02  0.1183984E+00
          2   -1    0    0  501    0  0.00000000000E+00  0.00000000000E+00  0.20864923722E+03  0.20864923722E+03  0.00000000000E+00 0.  1.
         -2   -1    0    0    0  501 -0.00000000000E+00 -0.00000000000E+00 -0.22918247513E+03  0.22918247513E+03  0.00000000000E+00 0. -1.
         25    2    1    2    0    0  0.14775025845E+03 -0.17319880584E+02  0.98774836746E+02  0.21802460797E+03  0.12509254242E+03 0.  0.
         23    2    1    2    0    0 -0.14775025845E+03  0.17319880584E+02 -0.11930807466E+03  0.21980710438E+03  0.10931893396E+03 0.  0.
          5    1    3    3  502    0  0.72451983551E+02  0.36750360026E+02  0.95116115620E+02  0.12515760757E+03  0.41800000000E+01 0.  1.
         -5    1    3    3    0  502  0.75298274902E+02 -0.54070240610E+02  0.36587211266E+01  0.92867000399E+02  0.41800000000E+01 0.  1.
        -11    1    4    4    0    0 -0.80489487360E+02  0.30014078297E+02 -0.12439093386E+03  0.15117045643E+03  0.00000000000E+00 0. -1.
         11    1    4    4    0    0 -0.67260771093E+02 -0.12694197713E+02  0.50828592052E+01  0.68636647947E+02  0.00000000000E+00 0.  1.
</event>
<event>
 8    1  0.4205029E-010  0.1441409E+03  0.7561462E-02  0.1207863E+00
          2   -1    0    0  501    0  0.00000000000E+00  0.00000000000E+00  0.22618955038E+03  0.22618955038E+03  0.00000000000E+00 0. -1.
         -2   -1    0    0    0  501 -0.00000000000E+00 -0.00000000000E+00 -0.16636562095E+03  0.16636562095E+03  0.00000000000E+00 0.  1.
         25    2    1    2    0    0  0.11361203672E+03 -0.13059832566E+01 -0.89874870667E+02  0.19140203761E+03  0.12509135519E+03 0.  0.
         23    2    1    2    0    0 -0.11361203672E+03  0.13059832566E+01  0.14969880010E+03  0.20115313371E+03  0.71717863677E+02 0.  0.
          5    1    3    3  502    0 -0.16221112996E+01  0.43313608718E+02 -0.36138947960E+02  0.56587948407E+02  0.41800000000E+01 0. -1.
         -5    1    3    3    0  502  0.11523414802E+03 -0.44619591974E+02 -0.53735922707E+02  0.13481408920E+03  0.41800000000E+01 0. -1.
        -11    1    4    4    0    0 -0.94581253812E+02 -0.15332964885E+02  0.73175942841E+02  0.12056297937E+03  0.00000000000E+00 0. -1.
         11    1    4    4    0    0 -0.19030782913E+02  0.16638948141E+02  0.76522857255E+02  0.80590154337E+02  0.00000000000E+00 0.  1.
</event>
<event>
 8    1  0.4205029E-010  0.3391929E+03  0.7561462E-02  0.1067140E+00
         -1   -1    0    0    0  501 -0.00000000000E+00  0.00000000000E+00  0.58819741230E+03  0.58819741230E+03  0.00000000000E+00 0.  1.
          1   -1    0    0  501    0  0.00000000000E+00 -0.00000000000E+00 -0.21776023121E+03  0.21776023121E+03  0.00000000000E+00 0. -1.
         25    2    1    2    0    0 -0.29904968597E+03 -0.13384338007E+03  0.26515148895E+03  0.43965667325E+03  0.12509161911E+03 0.  0.
         23    2    1    2    0    0  0.29904968597E+03  0.13384338007E+03  0.10528569214E+03  0.36630097025E+03  0.12548529304E+03 0.  0.
          5    1    3    3  502    0 -0.30239826044E+03 -0.14529782905E+03  0.26405494629E+03  0.42696446469E+03  0.41800000000E+01 0. -1.
         -5    1    3    3    0  502  0.33485744659E+01  0.11454448983E+02  0.10965426588E+01  0.12692208565E+02  0.41800000000E+01 0. -1.
        -11    1    4    4    0    0  0.17467318024E+03  0.55723247345E+02 -0.37384482095E+01  0.18338423101E+03  0.00000000000E+00 0. -1.
         11    1    4    4    0    0  0.12437650574E+03  0.78120132723E+02  0.10902414035E+03  0.18291673924E+03  0.00000000000E+00 0.  1.
</event>
<event>
 8    1  0.4992785E-010  0.1263383E+03  0.7561462E-02  0.1232992E+00
          1   -1    0    0  501    0  0.00000000000E+00  0.00000000000E+00  0.21522897972E+03  0.21522897972E+03  0.00000000000E+00 0. -1.
         -1   -1    0    0    0  501 -0.00000000000E+00 -0.00000000000E+00 -0.96945405277E+02  0.96945405277E+02  0.00000000000E+00 0.  1.
         25    2    1    2    0    0 -0.46544854443E+02  0.86497098578E+02  0.92731856631E+02  0.18410405400E+03  0.12508770495E+03 0.  0.
         23    2    1    2    0    0  0.46544854443E+02 -0.86497098578E+02  0.25551717814E+02  0.12807033100E+03  0.78108564580E+02 0.  0.
          5    1    3    3  502    0 -0.47580388426E+02  0.10577713273E+03  0.10846094117E+03  0.15885195413E+03  0.41800000000E+01 0.  1.
         -5    1    3    3    0  502  0.10355339825E+01 -0.19280034153E+02 -0.15729084539E+02  0.25252099873E+02  0.41800000000E+01 0.  1.
        -11    1    4    4    0    0  0.61385332031E+02 -0.56665410842E+02  0.38928840174E+02  0.92166058676E+02  0.00000000000E+00 0.  1.
         11    1    4    4    0    0 -0.14840477588E+02 -0.29831687736E+02 -0.13377122360E+02  0.35904272320E+02  0.00000000000E+00 0. -1.
</event>
<event>
 8    1  0.4205029E-010  0.1244380E+03  0.7561462E-02  0.1235950E+00
          1   -1    0    0  501    0  0.00000000000E+00  0.00000000000E+00  0.86330296583E+03  0.86330296583E+03  0.00000000000E+00 0. -1.
         -1   -1    0    0    0  501 -0.00000000000E+00 -0.00000000000E+00 -0.21171967941E+02  0.21171967941E+02  0.00000000000E+00 0.  1.
         25    2    1    2    0    0  0.49183931771E+02  0.34792128109E+02  0.51631983116E+03  0.53466234456E+03  0.12509237915E+03 0.  0.
         23    2    1    2    0    0 -0.49183931771E+02 -0.34792128109E+02  0.32581116673E+03  0.34981258921E+03  0.11218903637E+03 0.  0.
          5    1    3    3  502    0  0.56496615398E+01  0.72130145391E+02  0.19075442065E+03  0.20405733985E+03  0.41800000000E+01 0. -1.
         -5    1    3    3    0  502  0.43534270231E+02 -0.37338017282E+02  0.32556541051E+03  0.33060500471E+03  0.41800000000E+01 0. -1.
        -11    1    4    4    0    0 -0.56328112929E+01 -0.65416616552E+02  0.24006554339E+03  0.24888255746E+03  0.00000000000E+00 0. -1.
         11    1    4    4    0    0 -0.43551120478E+02  0.30624488442E+02  0.85745623337E+02  0.10093003175E+03  0.00000000000E+00 0.  1.
</event>
<event>
 8    1  0.4205029E-010  0.1670095E+03  0.7561462E-02  0.1181003E+00
          1   -1    0    0  501    0  0.00000000000E+00  0.00000000000E+00  0.62230314164E+02  0.62230314164E+02  0.00000000000E+00 0. -1.
         -1   -1    0    0    0  501 -0.00000000000E+00 -0.00000000000E+00 -0.88036993484E+03  0.88036993484E+03  0.00000000000E+00 0.  1.
         25    2    1    2    0    0 -0.12710830996E+03 -0.93474113854E+02 -0.16125926232E+03  0.25796429903E+03  0.12508835864E+03 0.  0.
         23    2    1    2    0    0  0.12710830996E+03  0.93474113854E+02 -0.65688035836E+03  0.68463594998E+03  0.11108846196E+03 0.  0.
          5    1    3    3  502    0 -0.61829003935E+02 -0.12191824323E+01 -0.12138966317E+01  0.61994016473E+02  0.41800000000E+01 0. -1.
         -5    1    3    3    0  502 -0.65279306028E+02 -0.92254931422E+02 -0.16004536569E+03  0.19597028256E+03  0.41800000000E+01 0. -1.
        -11    1    4    4    0    0  0.84799431031E+02  0.50795709484E+02 -0.57291823786E+03  0.58138322549E+03  0.00000000000E+00 0.  1.
         11    1    4    4    0    0  0.42308878932E+02  0.42678404370E+02 -0.83962120498E+02  0.10325272449E+03  0.00000000000E+00 0. -1.
</event>
<event>
 8    1  0.4205029E-010  0.8748628E+02  0.7561462E-02  0.1309056E+00
         -4   -1    0    0    0  501 -0.00000000000E+00  0.00000000000E+00  0.64734656879E+02  0.64734656879E+02  0.00000000000E+00 0. -1.
          4   -1    0    0  501    0  0.00000000000E+00 -0.00000000000E+00 -0.37269535655E+03  0.37269535655E+03  0.00000000000E+00 0.  1.
         25    2    1    2    0    0 -0.34570675307E+02  0.58710087678E+01 -0.30058735297E+03  0.32746062219E+03  0.12509237381E+03 0.  0.
         23    2    1    2    0    0  0.34570675307E+02 -0.58710087678E+01 -0.73733466944E+01  0.10996939123E+03  0.10396778555E+03 0.  0.
          5    1    3    3  502    0  0.30817515288E+02  0.64000976044E+01 -0.22583437197E+03  0.22805551179E+03  0.41800000000E+01 0.  1.
         -5    1    3    3    0  502 -0.65388190596E+02 -0.52908883666E+00 -0.74752981005E+02  0.99405110399E+02  0.41800000000E+01 0.  1.
        -11    1    4    4    0    0  0.56008818901E+02 -0.33060703060E+01 -0.41360712695E+02  0.69703848174E+02  0.00000000000E+00 0.  1.
         11    1    4    4    0    0 -0.21438143594E+02 -0.25649384617E+01  0.33987366001E+02  0.40265543058E+02  0.00000000000E+00 0. -1.
</event>
<event>
 8    1  0.4205029E-010  0.2233791E+03  0.7561462E-02  0.1131389E+00
         -2   -1    0    0    0  501 -0.00000000000E+00  0.00000000000E+00  0.53642417844E+02  0.53642417844E+02  0.00000000000E+00 0. -1.
          2   -1    0    0  501    0  0.00000000000E+00 -0.00000000000E+00 -0.97473331328E+03  0.97473331328E+03  0.00000000000E+00 0.  1.
         25    2    1    2    0    0 -0.19115734654E+03  0.80883017326E+02 -0.49235284490E+03  0.54876379767E+03  0.12508872101E+03 0.  0.
         23    2    1    2    0    0  0.19115734654E+03 -0.80883017326E+02 -0.42873805054E+03  0.47961193346E+03  0.55929393970E+02 0.  0.
          5    1    3    3  502    0 -0.20727184413E+03  0.79943863026E+02 -0.47648837033E+03  0.52574830295E+03  0.41800000000E+01 0. -1.
         -5    1    3    3    0  502  0.16114497591E+02  0.93915430023E+00 -0.15864474575E+02  0.23015494714E+02  0.41800000000E+01 0. -1.
        -11    1    4    4    0    0  0.13126828118E+03 -0.61341248185E+02 -0.23692166233E+03  0.27771565396E+03  0.00000000000E+00 0. -1.
         11    1    4    4    0    0  0.59889065354E+02 -0.19541769141E+02 -0.19181638820E+03  0.20189627949E+03  0.00000000000E+00 0.  1.
</event>
<event>
 8    1  0.4205029E-010  0.1007199E+03  0.7561462E-02  0.1278789E+00
          2   -1    0    0  501    0  0.00000000000E+00  0.00000000000E+00  0.10022459349E+03  0.10022459349E+03  0.00000000000E+00 0. -1.
         -2   -1    0    0    0  501 -0.00000000000E+00 -0.00000000000E+00 -0.14656987322E+03  0.14656987322E+03  0.00000000000E+00 0.  1.
         25    2    1    2    0    0  0.33442961973E+02 -0.30179625350E+01 -0.11535198078E+02  0.13002609806E+03  0.12508471361E+03 0.  0.
         23    2    1    2    0    0 -0.33442961973E+02  0.30179625350E+01 -0.34810081647E+02  0.11676836865E+03  0.10628062067E+03 0.  0.
          5    1    3    3  502    0 -0.32787917615E+02 -0.40993040148E+02  0.27493844281E+00  0.52659518354E+02  0.41800000000E+01 0. -1.
         -5    1    3    3    0  502  0.66230879588E+02  0.37975077613E+02 -0.11810136521E+02  0.77366579705E+02  0.41800000000E+01 0. -1.
        -11    1    4    4    0    0 -0.39677909789E+02  0.26704633519E+02 -0.63209969404E+02  0.79265214367E+02  0.00000000000E+00 0.  1.
         11    1    4    4    0    0  0.62349478165E+01 -0.23686670984E+02  0.28399887757E+02  0.37503154283E+02  0.00000000000E+00 0. -1.
</event>
<event>
 8    1  0.4205029E-010  0.8988780E+02  0.7561462E-02  0.1303124E+00
         -2   -1    0    0    0  501 -0.00000000000E+00  0.00000000000E+00  0.26024713413E+03  0.26024713413E+03  0.00000000000E+00 0. -1.
          2   -1    0    0  501    0  0.00000000000E+00 -0.00000000000E+00 -0.65430980496E+02  0.65430980496E+02  0.00000000000E+00 0.  1.
         25    2    1    2    0    0  0.44131942535E+02  0.58549778713E+02  0.63646332563E+02  0.15834227866E+03  0.12508283904E+03 0.  0.
         23    2    1    2    0    0 -0.44131942535E+02 -0.58549778713E+02  0.13116982107E+03  0.16733583597E+03  0.73621023494E+02 0.  0.
          5    1    3    3  502    0  0.53595707926E+02  0.56357163832E+02  0.96395324996E+02  0.12392804729E+03  0.41800000000E+01 0. -1.
         -5    1    3    3    0  502 -0.94637653912E+01  0.21926148815E+01 -0.32748992433E+02  0.34414231370E+02  0.41800000000E+01 0. -1.
        -11    1    4    4    0    0 -0.32392238152E+02 -0.68598487182E+02  0.13157416216E+03  0.15187748248E+03  0.00000000000E+00 0. -1.
         11    1    4    4    0    0 -0.11739704383E+02  0.10048708469E+02 -0.40434108836E+00  0.15458353490E+02  0.00000000000E+00 0.  1.
</event>
<event>
 8    1  0.4205029E-010  0.8467931E+02  0.7561462E-02  0.1316273E+00
          2   -1    0    0  501    0  0.00000000000E+00  0.00000000000E+00  0.33343350964E+03  0.33343350964E+03  0.00000000000E+00 0. -1.
         -2   -1    0    0    0  501 -0.00000000000E+00 -0.00000000000E+00 -0.72282781210E+02  0.72282781210E+02  0.00000000000E+00 0.  1.
         25    2    1    2    0    0  0.13344132752E+02 -0.18042275851E+02  0.15309821171E+02  0.12800670393E+03  0.12509091106E+03 0.  0.
         23    2    1    2    0    0 -0.13344132752E+02  0.18042275851E+02  0.24584090726E+03  0.27770958692E+03  0.12720563426E+03 0.  0.
          5    1    3    3  502    0  0.20191557701E+02 -0.26695493835E+02  0.66986425536E+02  0.75000013330E+02  0.41800000000E+01 0. -1.
         -5    1    3    3    0  502 -0.68474249486E+01  0.86532179837E+01 -0.51676604365E+02  0.53006690602E+02  0.41800000000E+01 0. -1.
        -11    1    4    4    0    0 -0.27149489552E+02 -0.48654402047E+02  0.15095396875E+03  0.16090819215E+03  0.00000000000E+00 0. -1.
         11    1    4    4    0    0  0.13805356800E+02  0.66696677898E+02  0.94886938516E+02  0.11680139477E+03  0.00000000000E+00 0.  1.
</event>
<event>
 7    1  0.4205029E-010  0.1558196E+03  0.7561462E-02  0.1193499E+00
         -1   -1    0    0    0  501 -0.00000000000E+00  0.00000000000E+00  0.14136265139E+02  0.14136265139E+02  0.00000000000E+00 0.  1.
          1   -1    0    0  501    0  0.00000000000E+00 -0.00000000000E+00 -0.27750774559E+04  0.27750774559E+04  0.00000000000E+00 0. -1.
         25    2    1    2    0    0  0.12645408026E+02 -0.36804753765E+02 -0.19474078467E+04  0.19518089113E+04  0.12508480592E+03 0.  0.
          5    1    3    3  502    0 -0.27145171499E+02  0.31603093833E+02 -0.10731751611E+04  0.10739916269E+04  0.41800000000E+01 0. -1.
         -5    1    3    3    0  502  0.39790579524E+02 -0.68407847597E+02 -0.87423268562E+03  0.87781728443E+03  0.41800000000E+01 0. -1.
        -11    1    1    2    0    0  0.80627825987E+02 -0.17618734509E+02 -0.47339512245E+03  0.48053533491E+03  0.00000000000E+00 0. -1.
         11    1    1    2    0    0 -0.93273234012E+02  0.54423488274E+02 -0.34013822166E+03  0.35686947487E+03  0.00000000000E+00 0.  1.
</event>
<event>
 8    1  0.4205029E-010  0.1263468E+03  0.7561462E-02  0.1232979E+00
         -2   -1    0    0    0  501 -0.00000000000E+00  0.00000000000E+00  0.39049118661E+02  0.39049118661E+02  0.00000000000E+00 0.  1.
          2   -1    0    0  501    0  0.00000000000E+00 -0.00000000000E+00 -0.62200704255E+03  0.62200704255E+03  0.00000000000E+00 0. -1.
         25    2    1    2    0    0 -0.31410624860E+02  0.55075571248E+01 -0.10528749385E+03  0.16658507465E+03  0.12509264644E+03 0.  0.
         23    2    1    2    0    0  0.31410624860E+02 -0.55075571248E+01 -0.47767043004E+03  0.49447108656E+03  0.12375643489E+03 0.  0.
          5    1    3    3  502    0  0.13147946945E+02  0.55861470776E+02 -0.69742234755E+02  0.90414734058E+02  0.41800000000E+01 0.  1.
         -5    1    3    3    0  502 -0.44558571805E+02 -0.50353913651E+02 -0.35545259095E+02  0.76170340589E+02  0.41800000000E+01 0.  1.
        -11    1    4    4    0    0 -0.45616668902E+02  0.15097344968E+02 -0.18310016518E+03  0.18929997569E+03  0.00000000000E+00 0. -1.
         11    1    4    4    0    0  0.77027293762E+02 -0.20604902093E+02 -0.29457026485E+03  0.30517111087E+03  0.00000000000E+00 0.  1.
</event>
<event>
 7    1  0.4205029E-010  0.7765901E+02  0.7561462E-02  0.1335829E+00
          1   -1    0    0  501    0  0.00000000000E+00  0.00000000000E+00  0.20571810618E+03  0.20571810618E+03  0.00000000000E+00 0. -1.
         -1   -1    0    0    0  501 -0.00000000000E+00 -0.00000000000E+00 -0.51393836467E+02  0.51393836467E+02  0.00000000000E+00 0.  1.
         25    2    1    2    0    0 -0.41284382804E+02  0.23300916048E+02  0.12101463573E+03  0.18038344143E+03  0.12508521467E+03 0.  0.
          5    1    3    3  502    0 -0.24713661177E+01 -0.30516989564E+02 -0.10813862345E+02  0.32738453252E+02  0.41800000000E+01 0. -1.
         -5    1    3    3    0  502 -0.38813016686E+02  0.53817905612E+02  0.13182849807E+03  0.14764498818E+03  0.41800000000E+01 0. -1.
        -11    1    1    2    0    0  0.10467930229E+02  0.86219434785E+01 -0.83002694186E+01  0.15899998272E+02  0.00000000000E+00 0.  1.
         11    1    1    2    0    0  0.30816452575E+02 -0.31922859527E+02  0.41609903406E+02  0.60828502950E+02  0.00000000000E+00 0. -1.
</event>
<event>
 7    1  0.4205029E-010  0.8542487E+02  0.7561462E-02  0.1314325E+00
         -2   -1    0    0    0  501 -0.00000000000E+00  0.00000000000E+00  0.22160875853E+02  0.22160875853E+02  0.00000000000E+00 0.  1.
          2   -1    0    0  501    0  0.00000000000E+00 -0.00000000000E+00 -0.35923219134E+03  0.35923219134E+03  0.00000000000E+00 0. -1.
         25    2    1    2    0    0 -0.90689012656E+01  0.20983212836E+02 -0.21180138487E+03  0.24704079111E+03  0.12508711225E+03 0.  0.
          5    1    3    3  502    0 -0.10298542960E+02  0.72007111800E+02 -0.15015983776E+03  0.16690276634E+03  0.41800000000E+01 0. -1.
         -5    1    3    3    0  502  0.12296416944E+01 -0.51023898963E+02 -0.61641547111E+02  0.80138024772E+02  0.41800000000E+01 0. -1.
        -11    1    1    2    0    0  0.12719287565E+01  0.12417062866E+02 -0.51620089180E+02  0.53107766475E+02  0.00000000000E+00 0. -1.
         11    1    1    2    0    0  0.77969725090E+01 -0.33400275702E+02 -0.73649841439E+02  0.81244509607E+02  0.00000000000E+00 0.  1.
</event>
<event>
 8    1  0.4205029E-010  0.1167036E+03  0.7561462E-02  0.1248636E+00
          2   -1    0    0  501    0  0.00000000000E+00  0.00000000000E+00  0.10517682775E+04  0.10517682775E+04  0.00000000000E+00 0. -1.
         -2   -1    0    0    0  501 -0.00000000000E+00 -0.00000000000E+00 -0.15434513528E+02  0.15434513528E+02  0.00000000000E+00 0.  1.
         25    2    1    2    0    0 -0.46195102016E+02 -0.64666292331E+02  0.58013419936E+03  0.59876552717E+03  0.12509496572E+03 0.  0.
         23    2    1    2    0    0  0.46195102016E+02  0.64666292331E+02  0.45619956464E+03  0.46843726388E+03  0.70708631749E+02 0.  0.
          5    1    3    3  502    0  0.40054261769E+02 -0.16355614807E+02  0.26257423006E+03  0.26614760700E+03  0.41800000000E+01 0. -1.
         -5    1    3    3    0  502 -0.86249363785E+02 -0.48310677524E+02  0.31755996930E+03  0.33261792017E+03  0.41800000000E+01 0. -1.
        -11    1    4    4    0    0  0.31624626511E+02  0.68908724809E+02  0.43900306861E+03  0.44550221504E+03  0.00000000000E+00 0. -1.
         11    1    4    4    0    0  0.14570475504E+02 -0.42424324782E+01  0.17196496027E+02  0.22935048842E+02  0.00000000000E+00 0.  1.
</event>
<event>
 8    1  0.4205029E-010  0.9522173E+02  0.7561462E-02  0.1290677E+00
         -1   -1    0    0    0  501 -0.00000000000E+00  0.00000000000E+00  0.74108356946E+02  0.74108356946E+02  0.00000000000E+00 0.  1.
          1   -1    0    0  501    0  0.00000000000E+00 -0.00000000000E+00 -0.16361407506E+03  0.16361407506E+03  0.00000000000E+00 0. -1.
         25    2    1    2    0    0 -0.38579224124E+02 -0.20957953130E+02 -0.45357931540E+02  0.14011429036E+03  0.12508828912E+03 0.  0.
         23    2    1    2    0    0  0.38579224124E+02  0.20957953130E+02 -0.44147786573E+02  0.97608141648E+02  0.75171337113E+02 0.  0.
          5    1    3    3  502    0 -0.79244163321E+02 -0.25578536662E+02 -0.66701796558E+01  0.83641273633E+02  0.41800000000E+01 0.  1.
         -5    1    3    3    0  502  0.40664939197E+02  0.46205835314E+01 -0.38687751884E+02  0.56473016724E+02  0.41800000000E+01 0.  1.
        -11    1    4    4    0    0 -0.10127618021E+02  0.13153846763E+02  0.13743121537E+02  0.21551466795E+02  0.00000000000E+00 0.  1.
         11    1    4    4    0    0  0.48706842144E+02  0.78041063679E+01 -0.57890908110E+02  0.76056674853E+02  0.00000000000E+00 0. -1.
</event>
<event>
 8    1  0.4205029E-010  0.2080089E+03  0.7561462E-02  0.1143153E+00
         -2   -1    0    0    0  501 -0.00000000000E+00  0.00000000000E+00  0.42002473088E+02  0.42002473088E+02  0.00000000000E+00 0.  1.
          2   -1    0    0  501    0  0.00000000000E+00 -0.00000000000E+00 -0.13914854614E+04  0.13914854614E+04  0.00000000000E+00 0. -1.
         25    2    1    2    0    0  0.12306398665E+03  0.16493847320E+03 -0.59419457086E+03  0.64114302161E+03  0.12509093241E+03 0.  0.
         23    2    1    2    0    0 -0.12306398665E+03 -0.16493847320E+03 -0.75528841742E+03  0.79234491285E+03  0.12247621268E+03 0.  0.
          5    1    3    3  502    0  0.32228649827E+02  0.50605504838E+02 -0.51654039774E+02  0.79279349232E+02  0.41800000000E+01 0. -1.
         -5    1    3    3    0  502  0.90835336821E+02  0.11433296836E+03 -0.54254053108E+03  0.56186367238E+03  0.41800000000E+01 0. -1.
        -11    1    4    4    0    0 -0.18601417445E+02 -0.59018524903E+01 -0.77958488683E+01  0.21014753231E+02  0.00000000000E+00 0.  1.
         11    1    4    4    0    0 -0.10446256920E+03 -0.15903662071E+03 -0.74749256855E+03  0.77133015961E+03  0.00000000000E+00 0. -1.
</event>
<event>
 8    1  0.4205029E-010  0.9968547E+02  0.7561462E-02  0.1280959E+00
         -4   -1    0    0    0  501 -0.00000000000E+00  0.00000000000E+00  0.72779666824E+02  0.72779666824E+02  0.00000000000E+00 0. -1.
          4   -1    0    0  501    0  0.00000000000E+00 -0.00000000000E+00 -0.26721161090E+03  0.26721161090E+03  0.00000000000E+00 0.  1.
         25    2    1    2    0    0  0.26973290480E+02 -0.69736744863E+02 -0.10178474065E+03  0.17775931658E+03  0.12508984459E+03 0.  0.
         23    2    1    2    0    0 -0.26973290480E+02  0.69736744863E+02 -0.92647203430E+02  0.16223196115E+03  0.11020405133E+03 0.  0.
          5    1    3    3  502    0 -0.87942258120E+01 -0.35557557483E+02  0.23005077960E+02  0.43455544109E+02  0.41800000000E+01 0.  1.
         -5    1    3    3    0  502  0.35767516292E+02 -0.34179187379E+02 -0.12478981861E+03  0.13430377247E+03  0.41800000000E+01 0.  1.
        -11    1    4    4    0    0 -0.52541242632E+02  0.18695247483E+02 -0.28704840071E+01  0.55842046293E+02  0.00000000000E+00 0. -1.
         11    1    4    4    0    0  0.25567952152E+02  0.51041497380E+02 -0.89776719422E+02  0.10638991485E+03  0.00000000000E+00 0.  1.
</event>
<event>
 7    1  0.4205029E-010  0.1025247E+03  0.7561462E-02  0.1275075E+00
         -2   -1    0    0    0  501 -0.00000000000E+00  0.00000000000E+00  0.10001232199E+02  0.10001232199E+02  0.00000000000E+00 0. -1.
          2   -1    0    0  501    0  0.00000000000E+00 -0.00000000000E+00 -0.19406435914E+04  0.19406435914E+04  0.00000000000E+00 0.  1.
         25    2    1    2    0    0  0.24156170609E+02 -0.86640190386E+02 -0.16007957753E+04  0.16081929598E+04  0.12508972267E+03 0.  0.
          5    1    3    3  502    0 -0.18715997104E+02 -0.62429946594E+02 -0.13957584003E+04  0.13972855009E+04  0.41800000000E+01 0.  1.
         -5    1    3    3    0  502  0.42872167713E+02 -0.24210243792E+02 -0.20503737502E+03  0.21090745891E+03  0.41800000000E+01 0.  1.
        -11    1    1    2    0    0 -0.36218118944E+01  0.27205400159E+02 -0.72140403400E+02  0.77184772604E+02  0.00000000000E+00 0.  1.
         11    1    1    2    0    0 -0.20534358715E+02  0.59434790227E+02 -0.25770618048E+03  0.26526709113E+03  0.00000000000E+00 0. -1.
</event>
<event>
 8    1  0.4205029E-010  0.3976596E+03  0.7561462E-02  0.1044593E+00
         -1   -1    0    0    0  501 -0.00000000000E+00  0.00000000000E+00  0.73715590945E+03  0.73715590945E+03  0.00000000000E+00 0.  1.
          1   -1    0    0  501    0  0.00000000000E+00 -0.00000000000E+00 -0.22809186754E+03  0.22809186754E+03  0.00000000000E+00 0. -1.
         25    2    1    2    0    0  0.38474560843E+03  0.31506243368E+02  0.14808081229E+03  0.43196909469E+03  0.12509014839E+03 0.  0.
         23    2    1    2    0    0 -0.38474560843E+03 -0.31506243368E+02  0.36098322962E+03  0.53327868231E+03  0.71101577775E+02 0.  0.
          5    1    3    3  502    0  0.40315822972E+02 -0.35201547793E+02  0.84262871488E+01  0.54341413895E+02  0.41800000000E+01 0. -1.
         -5    1    3    3    0  502  0.34442978545E+03  0.66707791161E+02  0.13965452514E+03  0.37762768079E+03  0.41800000000E+01 0. -1.
        -11    1    4    4    0    0 -0.32907090910E+03 -0.48371131888E+02  0.32408538549E+03  0.46439074787E+03  0.00000000000E+00 0.  1.
         11    1    4    4    0    0 -0.55674699330E+02  0.16864888520E+02  0.36897844124E+02  0.68887934439E+02  0.00000000000E+00 0. -1.
</event>
<event>
 8    1  0.4205029E-010  0.8830972E+02  0.7561462E-02  0.1306997E+00
          2   -1    0    0  501    0  0.00000000000E+00  0.00000000000E+00  0.41200030467E+03  0.41200030467E+03  0.00000000000E+00 0. -1.
         -2   -1    0    0    0  501 -0.00000000000E+00 -0.00000000000E+00 -0.34316582532E+02  0.34316582532E+02  0.00000000000E+00 0.  1.
         25    2    1    2    0    0  0.64599378352E+01 -0.59600261841E+02  0.24127587598E+03  0.27831040554E+03  0.12509481002E+03 0.  0.
         23    2    1    2    0    0 -0.64599378352E+01  0.59600261841E+02  0.13640784616E+03  0.16800648166E+03  0.77621874353E+02 0.  0.
          5    1    3    3  502    0 -0.15230013435E+02 -0.55573628745E+02  0.28623643415E+02  0.64476095443E+02  0.41800000000E+01 0.  1.
         -5    1    3    3    0  502  0.21689951270E+02 -0.40266330954E+01  0.21265223256E+03  0.21383431009E+03  0.41800000000E+01 0.  1.
        -11    1    4    4    0    0 -0.10113650265E+02 -0.16959052477E+02  0.16687044721E+02  0.25852521040E+02  0.00000000000E+00 0. -1.
         11    1    4    4    0    0  0.36537124293E+01  0.76559314318E+02  0.11972080144E+03  0.14215396062E+03  0.00000000000E+00 0.  1.
</event>
<event>
 7    1  0.4205029E-010  0.1537740E+03  0.7561462E-02  0.1195911E+00
         -1   -1    0    0    0  501 -0.00000000000E+00  0.00000000000E+00  0.21240519383E+02  0.21240519383E+02  0.00000000000E+00 0.  1.
          1   -1    0    0  501    0  0.00000000000E+00 -0.00000000000E+00 -0.13811277735E+04  0.13811277735E+04  0.00000000000E+00 0. -1.
         25    2    1    2    0    0  0.81939066870E+02  0.58805734012E+02 -0.68946358268E+03  0.70794067731E+03  0.12509134950E+03 0.  0.
          5    1    3    3  502    0  0.28655073947E+02  0.76919554207E+02 -0.21570817659E+03  0.23083591777E+03  0.41800000000E+01 0. -1.
         -5    1    3    3    0  502  0.53283992923E+02 -0.18113820195E+02 -0.47375540608E+03  0.47710475954E+03  0.41800000000E+01 0. -1.
        -11    1    1    2    0    0 -0.78247685671E+02  0.27199124375E+02 -0.20491560639E+03  0.22102691786E+03  0.00000000000E+00 0.  1.
         11    1    1    2    0    0 -0.36913811990E+01 -0.86004858387E+02 -0.46550806503E+03  0.47340069768E+03  0.00000000000E+00 0. -1.
</event>
<event>
 7    1  0.4205029E-010  0.1340324E+03  0.7561462E-02  0.1221592E+00
         -2   -1    0    0    0  501 -0.00000000000E+00  0.00000000000E+00  0.10386255189E+03  0.10386255189E+03  0.00000000000E+00 0.  1.
          2   -1    0    0  501    0  0.00000000000E+00 -0.00000000000E+00 -0.22192082551E+03  0.22192082551E+03  0.00000000000E+00 0. -1.
         25    2    1    2    0    0 -0.73146646789E+02  0.71812951828E+01 -0.89926791732E+02  0.17069343835E+03  0.12508964421E+03 0.  0.
          5    1    3    3  502    0  0.15818990914E+02 -0.31207055085E+02  0.42691957125E+01  0.35493931772E+02  0.41800000000E+01 0.  1.
         -5    1    3    3    0  502 -0.88965637703E+02  0.38388350268E+02 -0.94195987445E+02  0.13519950658E+03  0.41800000000E+01 0.  1.
        -11    1    1    2    0    0  0.19120521101E+02  0.52183147426E+02  0.22751917836E+02  0.60052684933E+02  0.00000000000E+00 0.  1.
         11    1    1    2    0    0  0.54026125688E+02 -0.59364442609E+02 -0.50883399727E+02  0.95037254121E+02  0.00000000000E+00 0. -1.
</event>
<event>
 7    1  0.4205029E-010  0.1156260E+03  0.7561462E-02  0.1250492E+00
         -2   -1    0    0    0  501 -0.00000000000E+00  0.00000000000E+00  0.15431222057E+02  0.15431222057E+02  0.00000000000E+00 0.  1.
          2   -1    0    0  501    0  0.00000000000E+00 -0.00000000000E+00 -0.94017532856E+03  0.94017532856E+03  0.00000000000E+00 0. -1.
         25    2    1    2    0    0  0.74140439799E+02  0.35226664457E+02 -0.52159943548E+03  0.54263269136E+03  0.12508614607E+03 0.  0.
          5    1    3    3  502    0 -0.30452926454E+02 -0.12064380064E+02 -0.15421052204E+03  0.15770633311E+03  0.41800000000E+01 0.  1.
         -5    1    3    3    0  502  0.10459336625E+03  0.47291044521E+02 -0.36738891344E+03  0.38492635825E+03  0.41800000000E+01 0.  1.
        -11    1    1    2    0    0 -0.16603016991E+02 -0.15006914498E+02 -0.52593754243E+02  0.57157419827E+02  0.00000000000E+00 0.  1.
         11    1    1    2    0    0 -0.57537422808E+02 -0.20219749959E+02 -0.35055091678E+03  0.35581643943E+03  0.00000000000E+00 0. -1.
</event>
<event>
 8    1  0.4205029E-010  0.1492047E+03  0.7561462E-02  0.1201454E+00
          2   -1    0    0  501    0  0.00000000000E+00  0.00000000000E+00  0.11192692953E+04  0.11192692953E+04  0.00000000000E+00 0.  1.
         -2   -1    0    0    0  501 -0.00000000000E+00 -0.00000000000E+00 -0.30743789289E+02  0.30743789289E+02  0.00000000000E+00 0. -1.
         25    2    1    2    0    0 -0.43639487616E+02  0.10496403354E+03  0.81638210130E+03  0.83369647437E+03  0.12509285689E+03 0.  0.
         23    2    1    2    0    0  0.43639487616E+02 -0.10496403354E+03  0.27214340476E+03  0.31631661026E+03  0.11433421167E+03 0.  0.
          5    1    3    3  502    0  0.34081917789E+02  0.60349146520E+02  0.50148532139E+03  0.50626929255E+03  0.41800000000E+01 0. -1.
         -5    1    3    3    0  502 -0.77721405405E+02  0.44614887020E+02  0.31489677991E+03  0.32742718182E+03  0.41800000000E+01 0. -1.
        -11    1    4    4    0    0 -0.23774236154E+02 -0.32777490854E+02  0.16789476109E+03  0.17270850880E+03  0.00000000000E+00 0.  1.
         11    1    4    4    0    0  0.67413723771E+02 -0.72186542686E+02  0.10424864366E+03  0.14360810146E+03  0.00000000000E+00 0. -1.
</event>
<event>
 8    1  0.4205029E-010  0.1155943E+03  0.7561462E-02  0.1250547E+00
         -2   -1    0    0    0  501 -0.00000000000E+00  0.00000000000E+00  0.83669493559E+02  0.83669493559E+02  0.00000000000E+00 0. -1.
          2   -1    0    0  501    0  0.00000000000E+00 -0.00000000000E+00 -0.35629355945E+03  0.35629355945E+03  0.00000000000E+00 0.  1.
         25    2    1    2    0    0  0.10158663653E+03 -0.26743386391E+02 -0.49950397743E+02  0.17081348574E+03  0.12508857357E+03 0.  0.
         23    2    1    2    0    0 -0.10158663653E+03  0.26743386391E+02 -0.22267366815E+03  0.26914956727E+03  0.10873303839E+03 0.  0.
          5    1    3    3  502    0  0.61769827438E+02  0.14078903584E+02 -0.83209389765E+02  0.10466614569E+03  0.41800000000E+01 0.  1.
         -5    1    3    3    0  502  0.39816809096E+02 -0.40822289976E+02  0.33258992022E+02  0.66147340050E+02  0.41800000000E+01 0.  1.
        -11    1    4    4    0    0 -0.47117194184E+02 -0.51523199055E+01 -0.11540341372E+02  0.48782741489E+02  0.00000000000E+00 0. -1.
         11    1    4    4    0    0 -0.54469442350E+02  0.31895706297E+02 -0.21113332678E+03  0.22036682578E+03  0.00000000000E+00 0.  1.
</event>
<event>
 8    1  0.4205029E-010  0.8504579E+02  0.7561462E-02  0.1315313E+00
         -1   -1    0    0    0  501 -0.00000000000E+00  0.00000000000E+00  0.50441131985E+03  0.50441131985E+03  0.00000000000E+00 0. -1.
          1   -1    0    0  501    0  0.00000000000E+00 -0.00000000000E+00 -0.34201452616E+02  0.34201452616E+02  0.00000000000E+00 0.  1.
         25    2    1    2    0    0  0.32068412469E+02  0.70312738151E+02  0.34046253052E+03  0.37085672322E+03  0.12509080802E+03 0.  0.
         23    2    1    2    0    0 -0.32068412469E+02 -0.70312738151E+02  0.12974733672E+03  0.16775604924E+03  0.73044208855E+02 0.  0.
          5    1    3    3  502    0 -0.11686889861E+02  0.38005351174E+01 -0.67347919524E+01  0.14623860107E+02  0.41800000000E+01 0. -1.
         -5    1    3    3    0  502  0.43755302330E+02  0.66512203034E+02  0.34719732247E+03  0.35623286312E+03  0.41800000000E+01 0. -1.
        -11    1    4    4    0    0 -0.26660381433E+02 -0.54423499298E+02  0.31911932214E+02  0.68491347129E+02  0.00000000000E+00 0.  1.
         11    1    4    4    0    0 -0.54080310363E+01 -0.15889238853E+02  0.97835404503E+02  0.99264702112E+02  0.00000000000E+00 0. -1.
</event>
<event>
 8    1  0.4205029E-010  0.9009324E+02  0.7561462E-02  0.1302626E+00
          1   -1    0    0  501    0  0.00000000000E+00  0.00000000000E+00  0.65835361037E+03  0.65835361037E+03  0.00000000000E+00 0. -1.
         -1   -1    0    0    0  501 -0.00000000000E+00 -0.00000000000E+00 -0.27162664224E+02  0.27162664224E+02  0.00000000000E+00 0.  1.
         25    2    1    2    0    0 -0.12103433519E+02  0.69328653639E+02  0.22704352406E+03  0.26860306622E+03  0.12508353229E+03 0.  0.
         23    2    1    2    0    0  0.12103433519E+02 -0.69328653639E+02  0.40414742209E+03  0.41691320837E+03  0.74354080022E+02 0.  0.
          5    1    3    3  502    0 -0.31328166873E+02  0.94282486154E+01  0.19520461854E+03  0.19797136513E+03  0.41800000000E+01 0.  1.
         -5    1    3    3    0  502  0.19224733354E+02  0.59900405023E+02  0.31838905512E+02  0.70631701089E+02  0.41800000000E+01 0.  1.
        -11    1    4    4    0    0 -0.46306383744E+01 -0.67116634159E+02  0.38717337257E+03  0.39297494300E+03  0.00000000000E+00 0. -1.
         11    1    4    4    0    0  0.16734071893E+02 -0.22120194802E+01  0.16974049516E+02  0.23938265377E+02  0.00000000000E+00 0.  1.
</event>
<event>
 8    1  0.4205029E-010  0.1261674E+03  0.7561462E-02  0.1233256E+00
         -2   -1    0    0    0  501 -0.00000000000E+00  0.00000000000E+00  0.10231812792E+03  0.10231812792E+03  0.00000000000E+00 0.  1.
          2   -1    0    0  501    0  0.00000000000E+00 -0.00000000000E+00 -0.18837171834E+03  0.18837171834E+03  0.00000000000E+00 0. -1.
         25    2    1    2    0    0 -0.12480439796E+02 -0.73563934740E+02 -0.24953035387E+02  0.14777564800E+03  0.12509026459E+03 0.  0.
         23    2    1    2    0    0  0.12480439796E+02  0.73563934740E+02 -0.61100555035E+02  0.14291419826E+03  0.10546931481E+03 0.  0.
          5    1    3    3  502    0 -0.55440355353E+02 -0.31108893793E+02  0.25837824764E+02  0.68749268092E+02  0.41800000000E+01 0.  1.
         -5    1    3    3    0  502  0.42959915557E+02 -0.42455040947E+02 -0.50790860151E+02  0.79026379908E+02  0.41800000000E+01 0.  1.
        -11    1    4    4    0    0  0.46048554366E+02 -0.12684086503E+01 -0.31107746642E+02  0.55585700687E+02  0.00000000000E+00 0. -1.
         11    1    4    4    0    0 -0.33568114570E+02  0.74832343391E+02 -0.29992808392E+02  0.87328497573E+02  0.00000000000E+00 0.  1.
</event>
<event>
 8    1  0.4205029E-010  0.6816460E+02  0.7561462E-02  0.1366448E+00
         -1   -1    0    0    0  501 -0.00000000000E+00  0.00000000000E+00  0.15105787292E+03  0.15105787292E+03  0.00000000000E+00 0.  1.
          1   -1    0    0  501    0  0.00000000000E+00 -0.00000000000E+00 -0.28149238058E+03  0.28149238058E+03  0.00000000000E+00 0. -1.
         25    2    1    2    0    0 -0.32593429301E+02 -0.33459613264E+02 -0.23999513541E+03  0.27464280738E+03  0.12509647985E+03 0.  0.
         23    2    1    2    0    0  0.32593429301E+02  0.33459613264E+02  0.10956062775E+03  0.15790744612E+03  0.10367908678E+03 0.  0.
          5    1    3    3  502    0  0.14315894501E+02  0.95742410386E+00  0.99681272025E+01  0.17963781790E+02  0.41800000000E+01 0.  1.
         -5    1    3    3    0  502 -0.46909323802E+02 -0.34417037368E+02 -0.24996326261E+03  0.25667902559E+03  0.41800000000E+01 0.  1.
        -11    1    4    4    0    0 -0.72243380288E+01  0.19606619728E+02  0.11364623815E+03  0.11555119231E+03  0.00000000000E+00 0.  1.
         11    1    4    4    0    0  0.39817767330E+02  0.13852993536E+02 -0.40856104013E+01  0.42356253817E+02  0.00000000000E+00 0. -1.
</event>
<event>
 8    1  0.4205029E-010  0.1290229E+03  0.7561462E-02  0.1228913E+00
          1   -1    0    0  501    0  0.00000000000E+00  0.00000000000E+00  0.34220770668E+03  0.34220770668E+03  0.00000000000E+00 0. -1.
         -1   -1    0    0    0  501 -0.00000000000E+00 -0.00000000000E+00 -0.69498655878E+02  0.69498655878E+02  0.00000000000E+00 0.  1.
         25    2    1    2    0    0 -0.56084868305E+02  0.16846043182E+02  0.25436048556E+03  0.28944209284E+03  0.12509263314E+03 0.  0.
         23    2    1    2    0    0  0.56084868305E+02 -0.16846043182E+02  0.18348565236E+02  0.12226426972E+03  0.10574771950E+03 0.  0.
          5    1    3    3  502    0 -0.47126483207E+00 -0.50502316325E+02  0.94032607268E+02  0.10681905108E+03  0.41800000000E+01 0. -1.
         -5    1    3    3    0  502 -0.55613603473E+02  0.67348359508E+02  0.16032787830E+03  0.18262304175E+03  0.41800000000E+01 0. -1.
        -11    1    4    4    0    0 -0.17751075104E+02  0.28282128180E+02 -0.17096597983E+01  0.33435047157E+02  0.00000000000E+00 0. -1.
         11    1    4    4    0    0  0.73835943410E+02 -0.45128171363E+02  0.20058225034E+02  0.88829222564E+02  0.00000000000E+00 0.  1.
</event>
<event>
 7    1  0.4205029E-010  0.1029313E+03  0.7561462E-02  0.1274250E+00
         -2   -1    0    0    0  501 -0.00000000000E+00  0.00000000000E+00  0.27859864558E+02  0.27859864558E+02  0.00000000000E+00 0.  1.
          2   -1    0    0  501    0  0.00000000000E+00 -0.00000000000E+00 -0.48558977879E+03  0.48558977879E+03  0.00000000000E+00 0. -1.
         25    2    1    2    0    0 -0.26584793668E+02  0.57459355967E+02 -0.36744096206E+03  0.39327801620E+03  0.12508560502E+03 0.  0.
          5    1    3    3  502    0  0.18165101457E+02 -0.32514648780E+02 -0.13287408279E+03  0.13805856574E+03  0.41800000000E+01 0. -1.
         -5    1    3    3    0  502 -0.44749895126E+02  0.89974004747E+02 -0.23456687927E+03  0.25521945046E+03  0.41800000000E+01 0. -1.
        -11    1    1    2    0    0  0.17306462242E+02 -0.11168525532E+02 -0.61540498268E+02  0.64895936121E+02  0.00000000000E+00 0.  1.
         11    1    1    2    0    0  0.92783314260E+01 -0.46290830435E+02 -0.28748453902E+02  0.55275691024E+02  0.00000000000E+00 0. -1.
</event>
<event>
 8    1  0.4205029E-010  0.1090572E+03  0.7561462E-02  0.1262326E+00
         -3   -1    0    0    0  501 -0.00000000000E+00  0.00000000000E+00  0.12814916683E+03  0.12814916683E+03  0.00000000000E+00 0.  1.
          3   -1    0    0  501    0  0.00000000000E+00 -0.00000000000E+00 -0.12466724619E+03  0.12466724619E+03  0.00000000000E+00 0. -1.
         25    2    1    2    0    0  0.65510167084E+02 -0.17851944757E+02 -0.32609566106E+02  0.14601733266E+03  0.12508958275E+03 0.  0.
         23    2    1    2    0    0 -0.65510167084E+02  0.17851944757E+02  0.36091486743E+02  0.10679908035E+03  0.74115951226E+02 0.  0.
          5    1    3    3  502    0  0.70572647657E+01 -0.55726782391E+02  0.18762333361E+02  0.59369830847E+02  0.41800000000E+01 0.  1.
         -5    1    3    3    0  502  0.58452902319E+02  0.37874837635E+02 -0.51371899467E+02  0.86647501811E+02  0.41800000000E+01 0.  1.
        -11    1    4    4    0    0 -0.66545444614E+01  0.30998700383E+02 -0.72632338550E+01  0.32526250221E+02  0.00000000000E+00 0.  1.
         11    1    4    4    0    0 -0.58855622623E+02 -0.13146755626E+02  0.43354720598E+02  0.74272830133E+02  0.00000000000E+00 0. -1.
</event>
<event>
 8    1  0.4205029E-010  0.1610937E+03  0.7561462E-02  0.1187467E+00
          1   -1    0    0  501    0  0.00000000000E+00  0.00000000000E+00  0.70833085303E+03  0.70833085303E+03  0.00000000000E+00 0.  1.
         -1   -1    0    0    0  501 -0.00000000000E+00 -0.00000000000E+00 -0.39486801909E+02  0.39486801909E+02  0.00000000000E+00 0. -1.
         25    2    1    2    0    0 -0.46803908756E+02  0.10552722094E+03  0.40215177607E+03  0.43669276462E+03  0.12509164415E+03 0.  0.
         23    2    1    2    0    0  0.46803908756E+02 -0.10552722094E+03  0.26669227505E+03  0.31112489032E+03  0.11111852938E+03 0.  0.
          5    1    3    3  502    0 -0.34011780459E+02 -0.22415224783E+02  0.11385284523E+03  0.12099250505E+03  0.41800000000E+01 0. -1.
         -5    1    3    3    0  502 -0.12792128297E+02  0.12794244573E+03  0.28829893084E+03  0.31570025956E+03  0.41800000000E+01 0. -1.
        -11    1    4    4    0    0 -0.14493059925E+02 -0.87509128926E+02  0.19989819455E+03  0.21869427202E+03  0.00000000000E+00 0.  1.
         11    1    4    4    0    0  0.61296968681E+02 -0.18018092018E+02  0.66794080504E+02  0.92430618303E+02  0.00000000000E+00 0. -1.
</event>
<event>
 7    1  0.4205029E-010  0.1015646E+03  0.7561462E-02  0.1277040E+00
          2   -1    0    0  501    0  0.00000000000E+00  0.00000000000E+00  0.30098356905E+03  0.30098356905E+03  0.00000000000E+00 0. -1.
         -2   -1    0    0    0  501 -0.00000000000E+00 -0.00000000000E+00 -0.58281993917E+02  0.58281993917E+02  0.00000000000E+00 0.  1.
         25    2    1    2    0    0 -0.83228115942E+02  0.41253205636E+02  0.18504491768E+03  0.24190309749E+03  0.12508693279E+03 0.  0.
          5    1    3    3  502    0 -0.24721975813E+02  0.42095802149E+02  0.12922517295E+01  0.49014028208E+02  0.41800000000E+01 0. -1.
         -5    1    3    3    0  502 -0.58506140129E+02 -0.84259651321E+00  0.18375266596E+03  0.19288906928E+03  0.41800000000E+01 0. -1.
        -11    1    1    2    0    0  0.19141676655E+02 -0.20642783191E+02  0.37885672153E+02  0.47200131753E+02  0.00000000000E+00 0.  1.
         11    1    1    2    0    0  0.64086439288E+02 -0.20610422445E+02  0.19770985292E+02  0.70162333722E+02  0.00000000000E+00 0. -1.
</event>
<event>
 8    1  0.4205029E-010  0.9589956E+02  0.7561462E-02  0.1289163E+00
         -1   -1    0    0    0  501 -0.00000000000E+00  0.00000000000E+00  0.11337879041E+03  0.11337879041E+03  0.00000000000E+00 0.  1.
          1   -1    0    0  501    0  0.00000000000E+00 -0.00000000000E+00 -0.11786170894E+03  0.11786170894E+03  0.00000000000E+00 0. -1.
         25    2    1    2    0    0  0.33091162028E+02 -0.53893537761E+02 -0.10763794277E+01  0.14017309856E+03  0.12509116895E+03 0.  0.
         23    2    1    2    0    0 -0.33091162028E+02  0.53893537761E+02 -0.34065391012E+01  0.91067400792E+02  0.65437974920E+02 0.  0.
          5    1    3    3  502    0  0.61129320850E+02 -0.25134235160E+02 -0.45337248393E+02  0.80258720003E+02  0.41800000000E+01 0.  1.
         -5    1    3    3    0  502 -0.28038158822E+02 -0.28759302601E+02  0.44260868965E+02  0.59914378556E+02  0.41800000000E+01 0.  1.
        -11    1    4    4    0    0 -0.38166099460E+02  0.63636859950E+02 -0.14329673445E+02  0.75575397011E+02  0.00000000000E+00 0.  1.
         11    1    4    4    0    0  0.50749374326E+01 -0.97433221896E+01  0.10923134344E+02  0.15492003781E+02  0.00000000000E+00 0. -1.
</event>
<event>
 8    1  0.4205029E-010  0.1258625E+03  0.7561462E-02  0.1233728E+00
         -2   -1    0    0    0  501 -0.00000000000E+00  0.00000000000E+00  0.87084263514E+02  0.87084263514E+02  0.00000000000E+00 0.  1.
          2   -1    0    0  501    0  0.00000000000E+00 -0.00000000000E+00 -0.38250123141E+03  0.38250123141E+03  0.00000000000E+00 0. -1.
         25    2    1    2    0    0  0.10513275562E+03  0.26269110800E+02 -0.38133741717E+02  0.16983867255E+03  0.12509208588E+03 0.  0.
         23    2    1    2    0    0 -0.10513275562E+03 -0.26269110800E+02 -0.25728322618E+03  0.29974682238E+03  0.10913540473E+03 0.  0.
          5    1    3    3  502    0  0.75681993283E+01  0.40435066513E+02 -0.55945756535E+02  0.69567753444E+02  0.41800000000E+01 0. -1.
         -5    1    3    3    0  502  0.97564556295E+02 -0.14165955714E+02  0.17812014817E+02  0.10027091911E+03  0.41800000000E+01 0. -1.
        -11    1    4    4    0    0 -0.85817010183E+02 -0.99101270759E+01 -0.26029510765E+03  0.27425592596E+03  0.00000000000E+00 0. -1.
         11    1    4    4    0    0 -0.19315745440E+02 -0.16358983724E+02  0.30118814698E+01  0.25490896422E+02  0.00000000000E+00 0.  1.
</event>
<event>
 8    1  0.4205029E-010  0.1008777E+03  0.7561462E-02  0.1278461E+00
         -2   -1    0    0    0  501 -0.00000000000E+00  0.00000000000E+00  0.38254148624E+02  0.38254148624E+02  0.00000000000E+00 0.  1.
          2   -1    0    0  501    0  0.00000000000E+00 -0.00000000000E+00 -0.66109636771E+03  0.66109636771E+03  0.00000000000E+00 0. -1.
         25    2    1    2    0    0 -0.47564300856E+02 -0.51089151395E+02 -0.51176864301E+03  0.53143915539E+03  0.12509183752E+03 0.  0.
         23    2    1    2    0    0  0.47564300856E+02  0.51089151395E+02 -0.11107357608E+03  0.16791136094E+03  0.10480659199E+03 0.  0.
          5    1    3    3  502    0 -0.12568064135E+02 -0.43719765014E+02 -0.47958410671E+02  0.66233342381E+02  0.41800000000E+01 0. -1.
         -5    1    3    3    0  502 -0.34996236721E+02 -0.73693863810E+01 -0.46381023233E+03  0.46520581301E+03  0.41800000000E+01 0. -1.
        -11    1    4    4    0    0 -0.13240581263E+02  0.57425354237E+02 -0.79915828398E+02  0.99295135480E+02  0.00000000000E+00 0. -1.
         11    1    4    4    0    0  0.60804882119E+02 -0.63362028423E+01 -0.31157747681E+02  0.68616225461E+02  0.00000000000E+00 0.  1.
</event>
<event>
 8    1  0.4205029E-010  0.8274784E+02  0.7561462E-02  0.1321429E+00
         -2   -1    0    0    0  501 -0.00000000000E+00  0.00000000000E+00  0.20282645998E+02  0.20282645998E+02  0.00000000000E+00 0.  1.
          2   -1    0    0  501    0  0.00000000000E+00 -0.00000000000E+00 -0.13014629626E+04  0.13014629626E+04  0.00000000000E+00 0. -1.
         25    2    1    2    0    0 -0.15742556759E+02  0.27628543573E+02 -0.10927260914E+04  0.11003224261E+04  0.12509183060E+03 0.  0.
         23    2    1    2    0    0  0.15742556759E+02 -0.27628543573E+02 -0.18845422522E+03  0.22142318250E+03  0.11181263896E+03 0.  0.
          5    1    3    3  502    0  0.26567787854E+01  0.69612400895E+02 -0.39792983317E+03  0.40400317989E+03  0.41800000000E+01 0.  1.
         -5    1    3    3    0  502 -0.18399335544E+02 -0.41983857323E+02 -0.69479625821E+03  0.69631924622E+03  0.41800000000E+01 0.  1.
        -11    1    4    4    0    0  0.60402347185E+01 -0.36219278492E+02 -0.20043728986E+03  0.20377298088E+03  0.00000000000E+00 0. -1.
         11    1    4    4    0    0  0.97023220405E+01  0.85907349193E+01  0.11983064632E+02  0.17650201625E+02  0.00000000000E+00 0.  1.
</event>
<event>
 7    1  0.4205029E-010  0.8528163E+02  0.7561462E-02  0.1314698E+00
         -2   -1    0    0    0  501 -0.00000000000E+00  0.00000000000E+00  0.24341775543E+03  0.24341775543E+03  0.00000000000E+00 0.  1.
          2   -1    0    0  501    0  0.00000000000E+00 -0.00000000000E+00 -0.72922667872E+02  0.72922667872E+02  0.00000000000E+00 0. -1.
         25    2    1    2    0    0  0.22345845939E+02  0.24407366657E+02  0.81950673908E+02  0.15316747869E+03  0.12509719100E+03 0.  0.
          5    1    3    3  502    0  0.14313934077E+02  0.10332680742E+02  0.11484048749E+03  0.11626462474E+03  0.41800000000E+01 0.  1.
         -5    1    3    3    0  502  0.80319118614E+01  0.14074685915E+02 -0.32889813581E+02  0.36902853943E+02  0.41800000000E+01 0.  1.
        -11    1    1    2    0    0 -0.28324136007E+02  0.51910018958E+02  0.50131269377E+02  0.77524518174E+02  0.00000000000E+00 0. -1.
         11    1    1    2    0    0  0.59782900680E+01 -0.76317385615E+02  0.38413144275E+02  0.85648426444E+02  0.00000000000E+00 0.  1.
</event>
<event>
 8    1  0.4205029E-010  0.9777261E+02  0.7561462E-02  0.1285051E+00
         -2   -1    0    0    0  501 -0.00000000000E+00  0.00000000000E+00  0.12641739462E+03  0.12641739462E+03  0.00000000000E+00 0.  1.
          2   -1    0    0  501    0  0.00000000000E+00 -0.00000000000E+00 -0.11675887022E+03  0.11675887022E+03  0.00000000000E+00 0. -1.
         25    2    1    2    0    0 -0.34238662836E+02 -0.51909844202E+02  0.28196619442E+02  0.14250362215E+03  0.12508123369E+03 0.  0.
         23    2    1    2    0    0  0.34238662836E+02  0.51909844202E+02 -0.18538095038E+02  0.10067264269E+03  0.76970137460E+02 0.  0.
          5    1    3    3  502    0 -0.35170443333E+02  0.27592056690E+02  0.42255718383E+02  0.61654682001E+02  0.41800000000E+01 0. -1.
         -5    1    3    3    0  502  0.93178049606E+00 -0.79501900892E+02 -0.14059098941E+02  0.80848940150E+02  0.41800000000E+01 0. -1.
        -11    1    4    4    0    0  0.16108985570E+02  0.50315412116E+02  0.21230479720E+02  0.56937451485E+02  0.00000000000E+00 0.  1.
         11    1    4    4    0    0  0.18129677266E+02  0.15944320862E+01 -0.39768574758E+02  0.43735191205E+02  0.00000000000E+00 0. -1.
</event>
<event>
 8    1  0.4205029E-010  0.8105592E+02  0.7561462E-02  0.1326081E+00
          2   -1    0    0  501    0  0.00000000000E+00  0.00000000000E+00  0.11352213352E+03  0.11352213352E+03  0.00000000000E+00 0. -1.
         -2   -1    0    0    0  501 -0.00000000000E+00 -0.00000000000E+00 -0.12361469142E+03  0.12361469142E+03  0.00000000000E+00 0.  1.
         25    2    1    2    0    0  0.23145834939E+02 -0.20855823336E+01 -0.31838101834E+01  0.12726851841E+03  0.12508820808E+03 0.  0.
         23    2    1    2    0    0 -0.23145834939E+02  0.20855823336E+01 -0.69087477155E+01  0.10986830653E+03  0.10715985562E+03 0.  0.
          5    1    3    3  502    0  0.84690028591E+01 -0.54986216368E+02 -0.32832541835E+02  0.64735277889E+02  0.41800000000E+01 0. -1.
         -5    1    3    3    0  502  0.14676832079E+02  0.52900634035E+02  0.29648731652E+02  0.62533240519E+02  0.41800000000E+01 0. -1.
        -11    1    4    4    0    0 -0.30700012320E+02  0.16599626597E+02 -0.51589540546E+02  0.62285785324E+02  0.00000000000E+00 0.  1.
         11    1    4    4    0    0  0.75541773816E+01 -0.14514044264E+02  0.44680792831E+02  0.47582521211E+02  0.00000000000E+00 0. -1.
</event>
<event>
 8    1  0.4205029E-010  0.1578484E+03  0.7561462E-02  0.1191148E+00
          3   -1    0    0  501    0  0.00000000000E+00  0.00000000000E+00  0.14883672440E+03  0.14883672440E+03  0.00000000000E+00 0. -1.
         -3   -1    0    0    0  501 -0.00000000000E+00 -0.00000000000E+00 -0.22944057355E+03  0.22944057355E+03  0.00000000000E+00 0.  1.
         25    2    1    2    0    0 -0.13479546545E+03 -0.49260724470E+02 -0.49024205301E+02  0.19659150109E+03  0.12509360142E+03 0.  0.
         23    2    1    2    0    0  0.13479546545E+03  0.49260724470E+02 -0.31579643847E+02  0.18168579686E+03  0.10684576920E+03 0.  0.
          5    1    3    3  502    0  0.14262125090E+01  0.19069502312E+02 -0.39204624469E+02  0.43819573027E+02  0.41800000000E+01 0. -1.
         -5    1    3    3    0  502 -0.13622167796E+03 -0.68330226782E+02 -0.98195808325E+01  0.15277192807E+03  0.41800000000E+01 0. -1.
        -11    1    4    4    0    0  0.63047628275E+02  0.19536625476E+02 -0.68993737401E+02  0.95482034785E+02  0.00000000000E+00 0.  1.
         11    1    4    4    0    0  0.71747837173E+02  0.29724098994E+02  0.37414093554E+02  0.86203762079E+02  0.00000000000E+00 0. -1.
</event>
<event>
 8    1  0.4205029E-010  0.2092690E+03  0.7561462E-02  0.1142146E+00
          2   -1    0    0  501    0  0.00000000000E+00  0.00000000000E+00  0.66121248041E+02  0.66121248041E+02  0.00000000000E+00 0.  1.
         -2   -1    0    0    0  501 -0.00000000000E+00 -0.00000000000E+00 -0.68092490300E+03  0.68092490300E+03  0.00000000000E+00 0. -1.
         25    2    1    2    0    0  0.16928767448E+03 -0.46403354071E+02 -0.35990693419E+03  0.41951458777E+03  0.12509156678E+03 0.  0.
         23    2    1    2    0    0 -0.16928767448E+03  0.46403354071E+02 -0.25489672077E+03  0.32753156327E+03  0.10720540414E+03 0.  0.
          5    1    3    3  502    0 -0.12486666756E+02  0.16898024433E+02 -0.22667964263E+02  0.31189246227E+02  0.41800000000E+01 0.  1.
         -5    1    3    3    0  502  0.18177434123E+03 -0.63301378504E+02 -0.33723896992E+03  0.38832534155E+03  0.41800000000E+01 0.  1.
        -11    1    4    4    0    0 -0.13776029109E+03 -0.11935019949E+02 -0.15601564942E+03  0.20847356035E+03  0.00000000000E+00 0.  1.
         11    1    4    4    0    0 -0.31527383389E+02  0.58338374020E+02 -0.98881071356E+02  0.11905800292E+03  0.00000000000E+00 0. -1.
</event>
<event>
 8    1  0.4205029E-010  0.1047072E+03  0.7561462E-02  0.1270698E+00
         -2   -1    0    0    0  501 -0.00000000000E+00  0.00000000000E+00  0.33591592907E+03  0.33591592907E+03  0.00000000000E+00 0.  1.
          2   -1    0    0  501    0  0.00000000000E+00 -0.00000000000E+00 -0.44724203902E+02  0.44724203902E+02  0.00000000000E+00 0. -1.
         25    2    1    2    0    0 -0.66381255028E+02  0.12987907068E+02  0.17284171642E+03  0.22382442285E+03  0.12509179261E+03 0.  0.
         23    2    1    2    0    0  0.66381255028E+02 -0.12987907068E+02  0.11835000875E+03  0.15681571013E+03  0.77519582189E+02 0.  0.
          5    1    3    3  502    0 -0.95065950662E+02  0.30641671304E+02  0.15756880356E+03  0.18660612866E+03  0.41800000000E+01 0. -1.
         -5    1    3    3    0  502  0.28684695634E+02 -0.17653764236E+02  0.15272912857E+02  0.37218294191E+02  0.41800000000E+01 0. -1.
        -11    1    4    4    0    0  0.40612251069E+02  0.90370938703E+01  0.11553731121E+03  0.12280022103E+03  0.00000000000E+00 0.  1.
         11    1    4    4    0    0  0.25769003960E+02 -0.22025000938E+02  0.28126975408E+01  0.34015489102E+02  0.00000000000E+00 0. -1.
</event>
<event>
 8    1  0.4205029E-010  0.2040033E+03  0.7561462E-02  0.1146405E+00
         -1   -1    0    0    0  501 -0.00000000000E+00  0.00000000000E+00  0.11238892516E+03  0.11238892516E+03  0.00000000000E+00 0.  1.
          1   -1    0    0  501    0  0.00000000000E+00 -0.00000000000E+00 -0.41520164043E+03  0.41520164043E+03  0.00000000000E+00 0. -1.
         25    2    1    2    0    0 -0.16289181849E+03 -0.68102141694E+02 -0.10525712069E+03  0.24061748881E+03  0.12508424453E+03 0.  0.
         23    2    1    2    0    0  0.16289181849E+03  0.68102141694E+02 -0.19755559458E+03  0.28697307678E+03  0.11024376451E+03 0.  0.
          5    1    3    3  502    0 -0.15749415064E+03 -0.11668551074E+02 -0.89750867714E+02  0.18169549589E+03  0.41800000000E+01 0.  1.
         -5    1    3    3    0  502 -0.53976678537E+01 -0.56433590620E+02 -0.15506252977E+02  0.58921992922E+02  0.41800000000E+01 0.  1.
        -11    1    4    4    0    0  0.16498604556E+02 -0.17129902669E+02  0.35320406686E+01  0.24043976981E+02  0.00000000000E+00 0.  1.
         11    1    4    4    0    0  0.14639321394E+03  0.85232044363E+02 -0.20108763525E+03  0.26292909980E+03  0.00000000000E+00 0. -1.
</event>
<event>
 8    1  0.4205029E-010  0.9571107E+02  0.7561462E-02  0.1289583E+00
          3   -1    0    0  501    0  0.00000000000E+00  0.00000000000E+00  0.12059901583E+03  0.12059901583E+03  0.00000000000E+00 0. -1.
         -3   -1    0    0    0  501 -0.00000000000E+00 -0.00000000000E+00 -0.89644253185E+02  0.89644253185E+02  0.00000000000E+00 0.  1.
         25    2    1    2    0    0  0.14091587907E+02 -0.61640778787E+01  0.59295565987E+00  0.12603348146E+03  0.12509004016E+03 0.  0.
         23    2    1    2    0    0 -0.14091587907E+02  0.61640778787E+01  0.30361806984E+02  0.84209787551E+02  0.77025192569E+02 0.  0.
          5    1    3    3  502    0  0.10240593512E+02  0.58102664511E+02 -0.11864184821E+02  0.60324295771E+02  0.41800000000E+01 0.  1.
         -5    1    3    3    0  502  0.38509943951E+01 -0.64266742390E+02  0.12457140480E+02  0.65709185691E+02  0.41800000000E+01 0.  1.
        -11    1    4    4    0    0 -0.19011563032E+02  0.34288797740E+02 -0.41416628861E+01  0.39424796142E+02  0.00000000000E+00 0.  1.
         11    1    4    4    0    0  0.49199751247E+01 -0.28124719861E+02  0.34503469870E+02  0.44784991409E+02  0.00000000000E+00 0. -1.
</event>
<event>
 8    1  0.4205029E-010  0.7075071E+02  0.7561462E-02  0.1357559E+00
         -1   -1    0    0    0  501 -0.00000000000E+00  0.00000000000E+00  0.95654767106E+01  0.95654767106E+01  0.00000000000E+00 0.  1.
          1   -1    0    0  501    0  0.00000000000E+00 -0.00000000000E+00 -0.11603683201E+04  0.11603683201E+04  0.00000000000E+00 0. -1.
         25    2    1    2    0    0 -0.57409930199E+01  0.18538489151E+02 -0.83100118081E+03  0.84058720233E+03  0.12508895893E+03 0.  0.
         23    2    1    2    0    0  0.57409930199E+01 -0.18538489151E+02 -0.31980166262E+03  0.32934659452E+03  0.76285262812E+02 0.  0.
          5    1    3    3  502    0 -0.25736004019E+02 -0.10020845660E+02 -0.39891626638E+02  0.48698804158E+02  0.41800000000E+01 0.  1.
         -5    1    3    3    0  502  0.19995010999E+02  0.28559334810E+02 -0.79110955417E+03  0.79188839818E+03  0.41800000000E+01 0.  1.
        -11    1    4    4    0    0 -0.35074629964E+02 -0.12286459894E+02 -0.16487732011E+03  0.16901395637E+03  0.00000000000E+00 0. -1.
         11    1    4    4    0    0  0.40815622984E+02 -0.62520292570E+01 -0.15492434252E+03  0.16033263814E+03  0.00000000000E+00 0.  1.
</event>
<event>
 8    1  0.4205029E-010  0.9229366E+02  0.7561462E-02  0.1297390E+00
          2   -1    0    0  501    0  0.00000000000E+00  0.00000000000E+00  0.65106635325E+03  0.65106635325E+03  0.00000000000E+00 0. -1.
         -2   -1    0    0    0  501 -0.00000000000E+00 -0.00000000000E+00 -0.16217864683E+02  0.16217864683E+02  0.00000000000E+00 0.  1.
         25    2    1    2    0    0 -0.22979685850E+02  0.12044865377E+02  0.52866688103E+03  0.54388361595E+03  0.12509025485E+03 0.  0.
         23    2    1    2    0    0  0.22979685850E+02 -0.12044865377E+02  0.10618160754E+03  0.12340060199E+03  0.57271546573E+02 0.  0.
          5    1    3    3  502    0 -0.59584197452E+01 -0.55284187307E+02  0.18394279019E+03  0.19220891393E+03  0.41800000000E+01 0. -1.
         -5    1    3    3    0  502 -0.17021266104E+02  0.67329052684E+02  0.34472409084E+03  0.35167470202E+03  0.41800000000E+01 0. -1.
        -11    1    4    4    0    0 -0.17516057089E+02 -0.33109559311E+01  0.15182347409E+02  0.23415344498E+02  0.00000000000E+00 0.  1.
         11    1    4    4    0    0  0.40495742938E+02 -0.87339094461E+01  0.90999260136E+02  0.99985257491E+02  0.00000000000E+00 0. -1.
</event>
<event>
 8    1  0.4205029E-010  0.7098426E+02  0.7561462E-02  0.1356778E+00
          2   -1    0    0  501    0  0.00000000000E+00  0.00000000000E+00  0.10768235781E+04  0.10768235781E+04  0.00000000000E+00 0. -1.
         -2   -1    0    0    0  501 -0.00000000000E+00 -0.00000000000E+00 -0.12026584125E+02  0.12026584125E+02  0.00000000000E+00 0.  1.
         25    2    1    2    0    0  0.23904973929E+02 -0.35115388781E+02  0.79922542896E+03  0.81007099856E+03  0.12509675500E+03 0.  0.
         23    2    1    2    0    0 -0.23904973929E+02  0.35115388781E+02  0.26557156498E+03  0.27877916363E+03  0.73382747555E+02 0.  0.
          5    1    3    3  502    0  0.21374788110E+02  0.17327971043E+02  0.66925864031E+03  0.66983709973E+03  0.41800000000E+01 0. -1.
         -5    1    3    3    0  502  0.25301858185E+01 -0.52443359823E+02  0.12996678865E+03  0.14023389884E+03  0.41800000000E+01 0. -1.
        -11    1    4    4    0    0 -0.61215338775E+01  0.41965057035E+02  0.25160017437E+03  0.25514934240E+03  0.00000000000E+00 0. -1.
         11    1    4    4    0    0 -0.17783440051E+02 -0.68496682547E+01  0.13971390614E+02  0.23629821221E+02  0.00000000000E+00 0.  1.
</event>
<event>
 8    1  0.5516518E-010  0.1381252E+03  0.7561462E-02  0.1215874E+00
          2   -1    0    0  501    0  0.00000000000E+00  0.00000000000E+00  0.23018863422E+03  0.23018863422E+03  0.00000000000E+00 0. -1.
         -2   -1    0    0    0  501 -0.00000000000E+00 -0.00000000000E+00 -0.10767125851E+03  0.10767125851E+03  0.00000000000E+00 0.  1.
         25    2    1    2    0    0 -0.92612033751E+02 -0.47730874724E+02  0.36033391896E+02  0.16673596579E+03  0.12508897537E+03 0.  0.
         23    2    1    2    0    0  0.92612033751E+02  0.47730874724E+02  0.86483983810E+02  0.17112392694E+03  0.10463600584E+03 0.  0.
          5    1    3    3  502    0 -0.93478156489E+02 -0.13021328693E+02  0.70312010385E+02  0.11776659945E+03  0.41800000000E+01 0. -1.
         -5    1    3    3    0  502  0.86612273847E+00 -0.34709546031E+02 -0.34278618489E+02  0.48969366341E+02  0.41800000000E+01 0. -1.
        -11    1    4    4    0    0  0.52760347455E+01  0.58563704965E+02  0.25724709920E+02  0.64181810370E+02  0.00000000000E+00 0. -1.
         11    1    4    4    0    0  0.87335999005E+02 -0.10832830241E+02  0.60759273890E+02  0.10694211657E+03  0.00000000000E+00 0.  1.
</event>
<event>
 8    1  0.4205029E-010  0.1818646E+03  0.7561462E-02  0.1166011E+00
          2   -1    0    0  501    0  0.00000000000E+00  0.00000000000E+00  0.30672167998E+03  0.30672167998E+03  0.00000000000E+00 0.  1.
         -2   -1    0    0    0  501 -0.00000000000E+00 -0.00000000000E+00 -0.20551698028E+03  0.20551698028E+03  0.00000000000E+00 0. -1.
         25    2    1    2    0    0 -0.16242263012E+03  0.72073493118E+02  0.20135790316E+03  0.29625724523E+03  0.12509057119E+03 0.  0.
         23    2    1    2    0    0  0.16242263012E+03 -0.72073493118E+02 -0.10015320346E+03  0.21598141502E+03  0.71004283572E+02 0.  0.
          5    1    3    3  502    0 -0.64247704812E+02  0.15558883663E+02  0.12216605938E+01  0.66248104041E+02  0.41800000000E+01 0. -1.
         -5    1    3    3    0  502 -0.98174925308E+02  0.56514609455E+02  0.20013624257E+03  0.23000914119E+03  0.41800000000E+01 0. -1.
        -11    1    4    4    0    0  0.10961027852E+03 -0.22903544810E+02 -0.88845736966E+02  0.14294247269E+03  0.00000000000E+00 0. -1.
         11    1    4    4    0    0  0.52812351598E+02 -0.49169948308E+02 -0.11307466497E+02  0.73038942328E+02  0.00000000000E+00 0.  1.
</event>
<event>
 7    1  0.4205029E-010  0.1308419E+03  0.7561462E-02  0.1226212E+00
         -1   -1    0    0    0  501 -0.00000000000E+00  0.00000000000E+00  0.10656159215E+03  0.10656159215E+03  0.00000000000E+00 0.  1.
          1   -1    0    0  501    0  0.00000000000E+00 -0.00000000000E+00 -0.25266045554E+03  0.25266045554E+03  0.00000000000E+00 0. -1.
         25    2    1    2    0    0 -0.71700006824E+02 -0.14683549806E-01 -0.45816065827E+02  0.15128799937E+03  0.12509218869E+03 0.  0.
          5    1    3    3  502    0 -0.37722182631E+02 -0.61683884697E+02 -0.33044382440E+02  0.79606961408E+02  0.41800000000E+01 0. -1.
         -5    1    3    3    0  502 -0.33977824193E+02  0.61669201147E+02 -0.12771683387E+02  0.71681037964E+02  0.41800000000E+01 0. -1.
        -11    1    1    2    0    0  0.60265758536E+02 -0.43118232279E+02 -0.13324003784E+03  0.15245999899E+03  0.00000000000E+00 0. -1.
         11    1    1    2    0    0  0.11434248288E+02  0.43132915829E+02  0.32957240278E+02  0.55474049325E+02  0.00000000000E+00 0.  1.
</event>
<event>
 8    1  0.4205029E-010  0.2253447E+03  0.7561462E-02  0.1129960E+00
         -1   -1    0    0    0  501 -0.00000000000E+00  0.00000000000E+00  0.13123445659E+03  0.13123445659E+03  0.00000000000E+00 0.  1.
          1   -1    0    0  501    0  0.00000000000E+00 -0.00000000000E+00 -0.43605173131E+03  0.43605173131E+03  0.00000000000E+00 0. -1.
         25    2    1    2    0    0  0.57186359661E+02  0.19410538541E+03 -0.95967434900E+02  0.25652445069E+03  0.12509142603E+03 0.  0.
         23    2    1    2    0    0 -0.57186359661E+02 -0.19410538541E+03 -0.20884983983E+03  0.31076173721E+03  0.10957837989E+03 0.  0.
          5    1    3    3  502    0  0.94791600205E+02  0.16362223640E+03 -0.80171349849E+02  0.20543271758E+03  0.41800000000E+01 0. -1.
         -5    1    3    3    0  502 -0.37605240544E+02  0.30483149011E+02 -0.15796085051E+02  0.51091733117E+02  0.41800000000E+01 0. -1.
        -11    1    4    4    0    0 -0.62216856884E+02 -0.93995293967E+02 -0.50875881209E+02  0.12367056181E+03  0.00000000000E+00 0.  1.
         11    1    4    4    0    0  0.50304972233E+01 -0.10011009144E+03 -0.15797395862E+03  0.18709117540E+03  0.00000000000E+00 0. -1.
</event>
<event>
 8    1  0.4205029E-010  0.1147402E+03  0.7561462E-02  0.1252035E+00
         -2   -1    0    0    0  501 -0.00000000000E+00  0.00000000000E+00  0.41616448021E+02  0.41616448021E+02  0.00000000000E+00 0.  1.
          2   -1    0    0  501    0  0.00000000000E+00 -0.00000000000E+00 -0.41899671990E+03  0.41899671990E+03  0.00000000000E+00 0. -1.
         25    2    1    2    0    0 -0.24316913670E+02 -0.11988692229E+02 -0.14164931154E+03  0.19090882425E+03  0.12508641288E+03 0.  0.
         23    2    1    2    0    0  0.24316913670E+02  0.11988692229E+02 -0.23573096034E+03  0.26970434367E+03  0.12820415867E+03 0.  0.
          5    1    3    3  502    0 -0.67093145658E+02 -0.41606671884E+01 -0.12884050133E+03  0.14538276558E+03  0.41800000000E+01 0. -1.
         -5    1    3    3    0  502  0.42776231988E+02 -0.78280250404E+01 -0.12808810212E+02  0.45526058672E+02  0.41800000000E+01 0. -1.
        -11    1    4    4    0    0  0.11681788552E+02  0.63928483706E+02 -0.18471052687E+03  0.19580933059E+03  0.00000000000E+00 0. -1.
         11    1    4    4    0    0  0.12635125118E+02 -0.51939791477E+02 -0.51020433474E+02  0.73895013075E+02  0.00000000000E+00 0.  1.
</event>
<event>
 8    1  0.4259242E-010  0.1118908E+03  0.7561462E-02  0.1257108E+00
         -2   -1    0    0    0  501 -0.00000000000E+00  0.00000000000E+00  0.46452358564E+02  0.46452358564E+02  0.00000000000E+00 0. -1.
          2   -1    0    0  501    0  0.00000000000E+00 -0.00000000000E+00 -0.40939124726E+03  0.40939124726E+03  0.00000000000E+00 0.  1.
         25    2    1    2    0    0 -0.12355298480E+02 -0.52371639203E+02 -0.28112391428E+03  0.31236772054E+03  0.12508995028E+03 0.  0.
         23    2    1    2    0    0  0.12355298480E+02  0.52371639203E+02 -0.81814974414E+02  0.14347588528E+03  0.10486275614E+03 0.  0.
          5    1    3    3  502    0  0.42016323485E+02 -0.21475736033E+02 -0.21920083449E+03  0.22426113555E+03  0.41800000000E+01 0.  1.
         -5    1    3    3    0  502 -0.54371621965E+02 -0.30895903170E+02 -0.61923079794E+02  0.88106584993E+02  0.41800000000E+01 0.  1.
        -11    1    4    4    0    0  0.40695578322E+02 -0.12804852031E+02 -0.13126367393E+02  0.44636261620E+02  0.00000000000E+00 0. -1.
         11    1    4    4    0    0 -0.28340279842E+02  0.65176491234E+02 -0.68688607021E+02  0.98839623662E+02  0.00000000000E+00 0.  1.
</event>
<event>
 8    1  0.4205029E-010  0.5982609E+02  0.7561462E-02  0.1398563E+00
         -3   -1    0    0    0  501 -0.00000000000E+00  0.00000000000E+00  0.37176315449E+03  0.37176315449E+03  0.00000000000E+00 0.  1.
          3   -1    0    0  501    0  0.00000000000E+00 -0.00000000000E+00 -0.39188518379E+02  0.39188518379E+02  0.00000000000E+00 0. -1.
         25    2    1    2    0    0 -0.42400177118E+02 -0.17868755444E+02  0.27803286492E+03  0.30833094739E+03  0.12509449110E+03 0.  0.
         23    2    1    2    0    0  0.42400177118E+02  0.17868755444E+02  0.54541771195E+02  0.10262072548E+03  0.73750532554E+02 0.  0.
          5    1    3    3  502    0  0.64640779038E+00  0.29579493164E+01  0.25506410500E+03  0.25511632125E+03  0.41800000000E+01 0. -1.
         -5    1    3    3    0  502 -0.43046584908E+02 -0.20826704761E+02  0.22968759916E+02  0.53214626143E+02  0.41800000000E+01 0. -1.
        -11    1    4    4    0    0  0.38049783388E+02 -0.91394801973E+01  0.62844580359E+02  0.74032137580E+02  0.00000000000E+00 0.  1.
         11    1    4    4    0    0  0.43503937296E+01  0.27008235642E+02 -0.83028091631E+01  0.28588587899E+02  0.00000000000E+00 0. -1.
</event>
<event>
 8    1  0.4205029E-010  0.1569541E+03  0.7561462E-02  0.1192179E+00
         -2   -1    0    0    0  501 -0.00000000000E+00  0.00000000000E+00  0.31404613783E+03  0.31404613783E+03  0.00000000000E+00 0.  1.
          2   -1    0    0  501    0  0.00000000000E+00 -0.00000000000E+00 -0.94092556443E+02  0.94092556443E+02  0.00000000000E+00 0. -1.
         25    2    1    2    0    0 -0.14071576890E+03 -0.24614434972E+01  0.13476204221E+03  0.23154828538E+03  0.12508722604E+03 0.  0.
         23    2    1    2    0    0  0.14071576890E+03  0.24614434972E+01  0.85191539181E+02  0.17659040890E+03  0.64184015499E+02 0.  0.
          5    1    3    3  502    0 -0.14845924940E+02 -0.38884593762E+02 -0.22833801647E+01  0.41893905814E+02  0.41800000000E+01 0. -1.
         -5    1    3    3    0  502 -0.12586984396E+03  0.36423150264E+02  0.13704542237E+03  0.18965437956E+03  0.41800000000E+01 0. -1.
        -11    1    4    4    0    0  0.72613895474E+02  0.53687723917E+01  0.74416949898E+01  0.73191395377E+02  0.00000000000E+00 0. -1.
         11    1    4    4    0    0  0.68101873427E+02 -0.29073288945E+01  0.77749844192E+02  0.10339901352E+03  0.00000000000E+00 0.  1.
</event>
<event>
 8    1  0.4205029E-010  0.9820735E+02  0.7561462E-02  0.1284111E+00
         -1   -1    0    0    0  501 -0.00000000000E+00  0.00000000000E+00  0.22181049847E+02  0.22181049847E+02  0.00000000000E+00 0.  1.
          1   -1    0    0  501    0  0.00000000000E+00 -0.00000000000E+00 -0.94319832883E+03  0.94319832883E+03  0.00000000000E+00 0. -1.
         25    2    1    2    0    0  0.78657331736E+01  0.58354357425E+02 -0.69016131584E+03  0.70387362403E+03  0.12509330891E+03 0.  0.
         23    2    1    2    0    0 -0.78657331736E+01 -0.58354357425E+02 -0.23085596315E+03  0.26150575465E+03  0.10781318660E+03 0.  0.
          5    1    3    3  502    0 -0.12772040358E+02  0.64777028619E+02 -0.67223812231E+03  0.67548556900E+03  0.41800000000E+01 0. -1.
         -5    1    3    3    0  502  0.20637773532E+02 -0.64226711947E+01 -0.17923193530E+02  0.28388055022E+02  0.41800000000E+01 0. -1.
        -11    1    4    4    0    0  0.40951483693E+02 -0.17289721875E+02 -0.16047034361E+03  0.16651333183E+03  0.00000000000E+00 0. -1.
         11    1    4    4    0    0 -0.48817216867E+02 -0.41064635549E+02 -0.70385619538E+02  0.94992422820E+02  0.00000000000E+00 0.  1.
</event>
<event>
 8    1  0.4205029E-010  0.1310436E+03  0.7561462E-02  0.1225915E+00
         -1   -1    0    0    0  501 -0.00000000000E+00  0.00000000000E+00  0.88353013674E+02  0.88353013674E+02  0.00000000000E+00 0.  1.
          1   -1    0    0  501    0  0.00000000000E+00 -0.00000000000E+00 -0.22291043051E+03  0.22291043051E+03  0.00000000000E+00 0. -1.
         25    2    1    2    0    0  0.31158858275E+02  0.62710211987E+02 -0.11623769294E+03  0.18455875020E+03  0.12508911176E+03 0.  0.
         23    2    1    2    0    0 -0.31158858275E+02 -0.62710211987E+02 -0.18319723903E+02  0.12670469398E+03  0.10399529825E+03 0.  0.
          5    1    3    3  502    0  0.19817044023E+02 -0.37015624608E+02 -0.26260662530E+02  0.49698757484E+02  0.41800000000E+01 0.  1.
         -5    1    3    3    0  502  0.11341814251E+02  0.99725836595E+02 -0.89977030406E+02  0.13485999272E+03  0.41800000000E+01 0.  1.
        -11    1    4    4    0    0 -0.14937885319E+02  0.25605513283E+02 -0.21874656570E+02  0.36841326365E+02  0.00000000000E+00 0. -1.
         11    1    4    4    0    0 -0.16220972956E+02 -0.88315725270E+02  0.35549326666E+01  0.89863367620E+02  0.00000000000E+00 0.  1.
</event>
<event>
 8    1  0.4205029E-010  0.1040308E+03  0.7561462E-02  0.1272041E+00
         -1   -1    0    0    0  501 -0.00000000000E+00  0.00000000000E+00  0.36655910417E+03  0.36655910417E+03  0.00000000000E+00 0.  1.
          1   -1    0    0  501    0  0.00000000000E+00 -0.00000000000E+00 -0.60241460994E+02  0.60241460994E+02  0.00000000000E+00 0. -1.
         25    2    1    2    0    0 -0.58776512413E+02 -0.29282571161E+02  0.47565557418E+02  0.14906716580E+03  0.12508553187E+03 0.  0.
         23    2    1    2    0    0  0.58776512413E+02  0.29282571161E+02  0.25875208575E+03  0.27773339936E+03  0.76622789378E+02 0.  0.
          5    1    3    3  502    0 -0.16427091350E+01  0.28021983832E+02  0.60676317538E+02  0.66985207181E+02  0.41800000000E+01 0. -1.
         -5    1    3    3    0  502 -0.57133803278E+02 -0.57304554993E+02 -0.13110760120E+02  0.82081958620E+02  0.41800000000E+01 0. -1.
        -11    1    4    4    0    0  0.26240071172E+02 -0.24432140339E+02  0.12375226566E+03  0.12884135234E+03  0.00000000000E+00 0.  1.
         11    1    4    4    0    0  0.32536441240E+02  0.53714711501E+02  0.13499982010E+03  0.14889204702E+03  0.00000000000E+00 0. -1.
</event>
<event>
 7    1  0.4205029E-010  0.9451635E+02  0.7561462E-02  0.1292269E+00
         -2   -1    0    0    0  501 -0.00000000000E+00  0.00000000000E+00  0.55130446450E+02  0.55130446450E+02  0.00000000000E+00 0.  1.
          2   -1    0    0  501    0  0.00000000000E+00 -0.00000000000E+00 -0.16938559096E+03  0.16938559096E+03  0.00000000000E+00 0. -1.
         25    2    1    2    0    0  0.14041116883E+02  0.36772222272E+02 -0.59515606825E+02  0.14401349616E+03  0.12509368620E+03 0.  0.
          5    1    3    3  502    0 -0.38650248657E+02 -0.26962678933E+02 -0.13102067436E+02  0.49091387713E+02  0.41800000000E+01 0.  1.
         -5    1    3    3    0  502  0.52691365540E+02  0.63734901205E+02 -0.46413539388E+02  0.94922108450E+02  0.41800000000E+01 0.  1.
        -11    1    1    2    0    0 -0.22149857883E+02 -0.43217384045E+02 -0.43211450194E+02  0.65004522272E+02  0.00000000000E+00 0.  1.
         11    1    1    2    0    0  0.81087410000E+01  0.64451617732E+01 -0.11528087490E+02  0.15498018973E+02  0.00000000000E+00 0. -1.
</event>
<event>
 8    1  0.4205029E-010  0.1287694E+03  0.7561462E-02  0.1229293E+00
          1   -1    0    0  501    0  0.00000000000E+00  0.00000000000E+00  0.82331166767E+02  0.82331166767E+02  0.00000000000E+00 0. -1.
         -1   -1    0    0    0  501 -0.00000000000E+00 -0.00000000000E+00 -0.32876588137E+03  0.32876588137E+03  0.00000000000E+00 0.  1.
         25    2    1    2    0    0  0.93391381213E+02 -0.29282654860E+02 -0.20032928397E+03  0.25565358509E+03  0.12509000597E+03 0.  0.
         23    2    1    2    0    0 -0.93391381213E+02  0.29282654860E+02 -0.46105430635E+02  0.15544346305E+03  0.11161333034E+03 0.  0.
          5    1    3    3  502    0 -0.18580487919E+02  0.27234023070E+02 -0.38303664811E+02  0.50710646632E+02  0.41800000000E+01 0. -1.
         -5    1    3    3    0  502  0.11197186913E+03 -0.56516677930E+02 -0.16202561915E+03  0.20494293846E+03  0.41800000000E+01 0. -1.
        -11    1    4    4    0    0 -0.68457013413E+02  0.27624736523E+02 -0.82875347335E+02  0.11098563848E+03  0.00000000000E+00 0.  1.
         11    1    4    4    0    0 -0.24934367799E+02  0.16579183371E+01  0.36769916700E+02  0.44457824563E+02  0.00000000000E+00 0. -1.
</event>
<event>
 8    1  0.4205029E-010  0.7062472E+02  0.7561462E-02  0.1357981E+00
         -3   -1    0    0    0  501 -0.00000000000E+00  0.00000000000E+00  0.39708112850E+03  0.39708112850E+03  0.00000000000E+00 0.  1.
          3   -1    0    0  501    0  0.00000000000E+00 -0.00000000000E+00 -0.50797617497E+02  0.50797617497E+02  0.00000000000E+00 0. -1.
         25    2    1    2    0    0 -0.18298364581E+02 -0.13441282316E+02  0.60987497301E+02  0.14100300934E+03  0.12508747179E+03 0.  0.
         23    2    1    2    0    0  0.18298364581E+02  0.13441282316E+02  0.28529601370E+03  0.30687573665E+03  0.11074025509E+03 0.  0.
          5    1    3    3  502    0 -0.15846342206E+02  0.46877328798E+01  0.98018000458E+02  0.99489106010E+02  0.41800000000E+01 0. -1.
         -5    1    3    3    0  502 -0.24520223747E+01 -0.18129015196E+02 -0.37030503157E+02  0.41513903331E+02  0.41800000000E+01 0. -1.
        -11    1    4    4    0    0 -0.36158259215E+02 -0.20210168810E+02  0.61843891189E+02  0.74434786963E+02  0.00000000000E+00 0. -1.
         11    1    4    4    0    0  0.54456623796E+02  0.33651451126E+02  0.22345212251E+03  0.23244094969E+03  0.00000000000E+00 0.  1.
</event>
<event>
 8    1  0.4205029E-010  0.1428074E+03  0.7561462E-02  0.1209601E+00
          1   -1    0    0  501    0  0.00000000000E+00  0.00000000000E+00  0.53382237421E+02  0.53382237421E+02  0.00000000000E+00 0. -1.
         -1   -1    0    0    0  501 -0.00000000000E+00 -0.00000000000E+00 -0.57158128245E+03  0.57158128245E+03  0.00000000000E+00 0.  1.
         25    2    1    2    0    0  0.11744063487E+03 -0.18831520186E+02 -0.18248851637E+03  0.25119033860E+03  0.12509036226E+03 0.  0.
         23    2    1    2    0    0 -0.11744063487E+03  0.18831520186E+02 -0.33571052866E+03  0.37377318127E+03  0.11339269425E+03 0.  0.
          5    1    3    3  502    0  0.55787326066E+02  0.15363787856E+02 -0.27568021361E+01  0.58080496597E+02  0.41800000000E+01 0. -1.
         -5    1    3    3    0  502  0.61653308806E+02 -0.34195308043E+02 -0.17973171423E+03  0.19310984201E+03  0.41800000000E+01 0. -1.
        -11    1    4    4    0    0 -0.12026190752E+02  0.46466776523E+02 -0.57012437300E+02  0.74526562992E+02  0.00000000000E+00 0. -1.
         11    1    4    4    0    0 -0.10541444412E+03 -0.27635256337E+02 -0.27869809136E+03  0.29924661828E+03  0.00000000000E+00 0.  1.
</event>
<event>
 8    1  0.4205029E-010  0.8680459E+02  0.7561462E-02  0.1310780E+00
         -2   -1    0    0    0  501 -0.00000000000E+00  0.00000000000E+00  0.48128077734E+02  0.48128077734E+02  0.00000000000E+00 0.  1.
          2   -1    0    0  501    0  0.00000000000E+00 -0.00000000000E+00 -0.43181497410E+03  0.43181497410E+03  0.00000000000E+00 0. -1.
         25    2    1    2    0    0 -0.28015347095E+00  0.83265887510E+01 -0.38885640609E+03  0.40856584560E+03  0.12508930838E+03 0.  0.
         23    2    1    2    0    0  0.28015347095E+00 -0.83265887510E+01  0.51695097230E+01  0.71377206231E+02  0.70700574060E+02 0.  0.
          5    1    3    3  502    0  0.43522413670E+02 -0.31664546057E+02 -0.27361014646E+03  0.27888497381E+03  0.41800000000E+01 0. -1.
         -5    1    3    3    0  502 -0.43802567141E+02  0.39991134808E+02 -0.11524625962E+03  0.12968087179E+03  0.41800000000E+01 0. -1.
        -11    1    4    4    0    0 -0.21457476934E+02 -0.24870918481E+02 -0.16265055452E+02  0.36654303040E+02  0.00000000000E+00 0. -1.
         11    1    4    4    0    0  0.21737630405E+02  0.16544329730E+02  0.21434565175E+02  0.34722903192E+02  0.00000000000E+00 0.  1.
</event>
<event>
 8    1  0.4205029E-010  0.1157845E+03  0.7561462E-02  0.1250218E+00
         -1   -1    0    0    0  501 -0.00000000000E+00  0.00000000000E+00  0.33758819433E+02  0.33758819433E+02  0.00000000000E+00 0.  1.
          1   -1    0    0  501    0  0.00000000000E+00 -0.00000000000E+00 -0.65801535246E+03  0.65801535246E+03  0.00000000000E+00 0. -1.
         25    2    1    2    0    0  0.77820597039E+02  0.32983055550E+02 -0.35154004595E+03  0.38258619153E+03  0.12509141764E+03 0.  0.
         23    2    1    2    0    0 -0.77820597039E+02 -0.32983055550E+02 -0.27271648707E+03  0.30918798036E+03  0.11865495185E+03 0.  0.
          5    1    3    3  502    0  0.46553678100E+02 -0.11550799944E+02 -0.30620143003E+02  0.57059017530E+02  0.41800000000E+01 0. -1.
         -5    1    3    3    0  502  0.31266918940E+02  0.44533855494E+02 -0.32091990295E+03  0.32552717400E+03  0.41800000000E+01 0. -1.
        -11    1    4    4    0    0  0.17583116146E+02 -0.28314417424E+02 -0.15011130737E+03  0.15376695616E+03  0.00000000000E+00 0. -1.
         11    1    4    4    0    0 -0.95403713186E+02 -0.46686381259E+01 -0.12260517970E+03  0.15542102419E+03  0.00000000000E+00 0.  1.
</event>
<event>
 8    1  0.4205029E-010  0.9832073E+02  0.7561462E-02  0.1283867E+00
          3   -1    0    0  501    0  0.00000000000E+00  0.00000000000E+00  0.34281730025E+02  0.34281730025E+02  0.00000000000E+00 0. -1.
         -3   -1    0    0    0  501 -0.00000000000E+00 -0.00000000000E+00 -0.30557893377E+03  0.30557893377E+03  0.00000000000E+00 0.  1.
         25    2    1    2    0    0  0.36869950679E+02  0.15738323701E+02 -0.20487126303E+03  0.24336536938E+03  0.12508948998E+03 0.  0.
         23    2    1    2    0    0 -0.36869950679E+02 -0.15738323701E+02 -0.66425940711E+02  0.96495294410E+02  0.57374629829E+02 0.  0.
          5    1    3    3  502    0 -0.46170443396E+02 -0.11019032896E+01 -0.78037180730E+02  0.90775536410E+02  0.41800000000E+01 0.  1.
         -5    1    3    3    0  502  0.83040394075E+02  0.16840226991E+02 -0.12683408230E+03  0.15258983297E+03  0.41800000000E+01 0.  1.
        -11    1    4    4    0    0 -0.42813973980E+02  0.56967737468E+01 -0.58845585092E+02  0.72995153838E+02  0.00000000000E+00 0.  1.
         11    1    4    4    0    0  0.59440233003E+01 -0.21435097448E+02 -0.75803556191E+01  0.23500140572E+02  0.00000000000E+00 0. -1.
</event>
<event>
 8    1  0.4205029E-010  0.1125921E+03  0.7561462E-02  0.1255844E+00
         -2   -1    0    0    0  501 -0.00000000000E+00  0.00000000000E+00  0.21541004404E+03  0.21541004404E+03  0.00000000000E+00 0.  1.
          2   -1    0    0  501    0  0.00000000000E+00 -0.00000000000E+00 -0.72602983790E+02  0.72602983790E+02  0.00000000000E+00 0. -1.
         25    2    1    2    0    0  0.52116525181E+02  0.47636830894E+02  0.62613998380E+02  0.15669636857E+03  0.12509132374E+03 0.  0.
         23    2    1    2    0    0 -0.52116525181E+02 -0.47636830894E+02  0.80193061873E+02  0.13131665926E+03  0.76339622557E+02 0.  0.
          5    1    3    3  502    0 -0.27405883572E+01  0.72357933645E+02  0.63462968704E+02  0.96375319364E+02  0.41800000000E+01 0. -1.
         -5    1    3    3    0  502  0.54857113539E+02 -0.24721102751E+02 -0.84897032418E+00  0.60321049208E+02  0.41800000000E+01 0. -1.
        -11    1    4    4    0    0 -0.42102003342E+02  0.15621465244E+01  0.67433444149E+02  0.79512818947E+02  0.00000000000E+00 0.  1.
         11    1    4    4    0    0 -0.10014521840E+02 -0.49198977418E+02  0.12759617724E+02  0.51803840313E+02  0.00000000000E+00 0. -1.
</event>
<event>
 7    1  0.4205029E-010  0.1084007E+03  0.7561462E-02  0.1263560E+00
          2   -1    0    0  501    0  0.00000000000E+00  0.00000000000E+00  0.36382018143E+03  0.36382018143E+03  0.00000000000E+00 0.  1.
         -2   -1    0    0    0  501 -0.00000000000E+00 -0.00000000000E+00 -0.98117343926E+02  0.98117343926E+02  0.00000000000E+00 0. -1.
         25    2    1    2    0    0 -0.26695636630E+02  0.50940456660E+02 -0.21163968114E+02  0.13929431711E+03  0.12508959226E+03 0.  0.
          5    1    3    3  502    0 -0.27998332856E+02  0.46071279001E+01 -0.67672368066E+02  0.73499347412E+02  0.41800000000E+01 0. -1.
         -5    1    3    3    0  502  0.13026962259E+01  0.46333328760E+02  0.46508399953E+02  0.65794969698E+02  0.41800000000E+01 0. -1.
        -11    1    1    2    0    0 -0.35819699432E+02  0.24654885044E+02  0.13516923276E+03  0.14199167479E+03  0.00000000000E+00 0.  1.
         11    1    1    2    0    0  0.62515336062E+02 -0.75595341704E+02  0.15169757286E+03  0.18065153346E+03  0.00000000000E+00 0. -1.
</event>
<event>
 8    1  0.4205029E-010  0.8828006E+02  0.7561462E-02  0.1307071E+00
         -1   -1    0    0    0  501 -0.00000000000E+00  0.00000000000E+00  0.27553300877E+03  0.27553300877E+03  0.00000000000E+00 0.  1.
          1   -1    0    0  501    0  0.00000000000E+00 -0.00000000000E+00 -0.47310402884E+02  0.47310402884E+02  0.00000000000E+00 0. -1.
         25    2    1    2    0    0  0.12402028785E+02 -0.34767056455E+02  0.18634796601E+03  0.22745386244E+03  0.12508851493E+03 0.  0.
         23    2    1    2    0    0 -0.12402028785E+02  0.34767056455E+02  0.41874639871E+02  0.95389549215E+02  0.77350643840E+02 0.  0.
          5    1    3    3  502    0 -0.43237919827E+02 -0.30117294878E+02  0.28676789455E+02  0.60136509836E+02  0.41800000000E+01 0. -1.
         -5    1    3    3    0  502  0.55639948613E+02 -0.46497615766E+01  0.15767117656E+03  0.16731735260E+03  0.41800000000E+01 0. -1.
        -11    1    4    4    0    0 -0.34290687704E+02  0.29413396405E+02  0.53508503917E+02  0.70029701861E+02  0.00000000000E+00 0.  1.
         11    1    4    4    0    0  0.21888658918E+02  0.53536600503E+01 -0.11633864046E+02  0.25359847354E+02  0.00000000000E+00 0. -1.
</event>
<event>
 8    1  0.4205029E-010  0.3822066E+03  0.7561462E-02  0.1050121E+00
          2   -1    0    0  501    0  0.00000000000E+00  0.00000000000E+00  0.70060605724E+02  0.70060605724E+02  0.00000000000E+00 0. -1.
         -2   -1    0    0    0  501 -0.00000000000E+00 -0.00000000000E+00 -0.22326583562E+04  0.22326583562E+04  0.00000000000E+00 0.  1.
         25    2    1    2    0    0  0.31398468359E+03  0.18564548774E+03 -0.83070597276E+03  0.91584584874E+03  0.12510226550E+03 0.  0.
         23    2    1    2    0    0 -0.31398468359E+03 -0.18564548774E+03 -0.13318917777E+04  0.13868731132E+04  0.12818227596E+03 0.  0.
          5    1    3    3  502    0  0.15297669010E+03  0.15168361181E+03 -0.39265819940E+03  0.44789253148E+03  0.41800000000E+01 0.  1.
         -5    1    3    3    0  502  0.16100799349E+03  0.33961875926E+02 -0.43804777336E+03  0.46795331726E+03  0.41800000000E+01 0.  1.
        -11    1    4    4    0    0 -0.12864572418E+03 -0.10066992901E+02 -0.52096332187E+03  0.53670648350E+03  0.00000000000E+00 0. -1.
         11    1    4    4    0    0 -0.18533895941E+03 -0.17557849484E+03 -0.81092845583E+03  0.85016662966E+03  0.00000000000E+00 0.  1.
</event>
<event>
 7    1  0.4205029E-010  0.8265213E+02  0.7561462E-02  0.1321689E+00
         -1   -1    0    0    0  501 -0.00000000000E+00  0.00000000000E+00  0.49108576550E+02  0.49108576550E+02  0.00000000000E+00 0.  1.
          1   -1    0    0  501    0  0.00000000000E+00 -0.00000000000E+00 -0.17778526292E+03  0.17778526292E+03  0.00000000000E+00 0. -1.
         25    2    1    2    0    0 -0.37678809915E+02  0.18352886075E+02 -0.73161529258E+02  0.15085103483E+03  0.12508758613E+03 0.  0.
          5    1    3    3  502    0 -0.46055400007E+02 -0.40453521391E+02 -0.67124847492E+02  0.90998927541E+02  0.41800000000E+01 0.  1.
         -5    1    3    3    0  502  0.83765900922E+01  0.58806407466E+02 -0.60366817666E+01  0.59852107293E+02  0.41800000000E+01 0.  1.
        -11    1    1    2    0    0  0.16427601458E+02 -0.29768059348E+00 -0.41909470412E+02  0.45015090954E+02  0.00000000000E+00 0. -1.
         11    1    1    2    0    0  0.21251208457E+02 -0.18055205481E+02 -0.13605686702E+02  0.31027713685E+02  0.00000000000E+00 0.  1.
</event>
<event>
 8    1  0.4205029E-010  0.8005426E+02  0.7561462E-02  0.1328898E+00
         -4   -1    0    0    0  501 -0.00000000000E+00  0.00000000000E+00  0.52459922724E+03  0.52459922724E+03  0.00000000000E+00 0.  1.
          4   -1    0    0  501    0  0.00000000000E+00 -0.00000000000E+00 -0.22348358435E+02  0.22348358435E+02  0.00000000000E+00 0. -1.
         25    2    1    2    0    0  0.49416910663E+01 -0.31604308631E+02  0.38792103624E+03  0.40883791950E+03  0.12506982619E+03 0.  0.
         23    2    1    2    0    0 -0.49416910663E+01  0.31604308631E+02  0.11432983256E+03  0.13810966618E+03  0.70567107380E+02 0.  0.
          5    1    3    3  502    0  0.19681094674E+02  0.38190577356E+02  0.64463248099E+02  0.77581237692E+02  0.41800000000E+01 0.  1.
         -5    1    3    3    0  502 -0.14739403608E+02 -0.69794885987E+02  0.32345778815E+03  0.33125668181E+03  0.41800000000E+01 0.  1.
        -11    1    4    4    0    0  0.12786344594E+02  0.21677171460E+02  0.11505804671E+03  0.11777837019E+03  0.00000000000E+00 0.  1.
         11    1    4    4    0    0 -0.17728035660E+02  0.99271371702E+01 -0.72821415401E+00  0.20331295989E+02  0.00000000000E+00 0. -1.
</event>
<event>
 8    1  0.4205029E-010  0.1021906E+03  0.7561462E-02  0.1275756E+00
          4   -1    0    0  501    0  0.00000000000E+00  0.00000000000E+00  0.43485480651E+02  0.43485480651E+02  0.00000000000E+00 0. -1.
         -4   -1    0    0    0  501 -0.00000000000E+00 -0.00000000000E+00 -0.54743106673E+03  0.54743106673E+03  0.00000000000E+00 0.  1.
         25    2    1    2    0    0 -0.52604811392E+02 -0.55618444280E+01 -0.97175436827E+02  0.16699935619E+03  0.12509004417E+03 0.  0.
         23    2    1    2    0    0  0.52604811392E+02  0.55618444280E+01 -0.40677014925E+03  0.42391719119E+03  0.10698425291E+03 0.  0.
          5    1    3    3  502    0  0.63261331805E+01  0.26620125951E+02  0.18423034212E+02  0.33249536181E+02  0.41800000000E+01 0.  1.
         -5    1    3    3    0  502 -0.58930944572E+02 -0.32181970379E+02 -0.11559847104E+03  0.13374982001E+03  0.41800000000E+01 0.  1.
        -11    1    4    4    0    0  0.59294661739E+02 -0.34640211988E+02 -0.32926661135E+03  0.33635145688E+03  0.00000000000E+00 0. -1.
         11    1    4    4    0    0 -0.66898503469E+01  0.40202056416E+02 -0.77503537901E+02  0.87565734308E+02  0.00000000000E+00 0.  1.
</event>
<event>
 7    1  0.4205029E-010  0.9680439E+02  0.7561462E-02  0.1287163E+00
          1   -1    0    0  501    0  0.00000000000E+00  0.00000000000E+00  0.40827786977E+03  0.40827786977E+03  0.00000000000E+00 0. -1.
         -1   -1    0    0    0  501 -0.00000000000E+00 -0.00000000000E+00 -0.24322587219E+02  0.24322587219E+02  0.00000000000E+00 0.  1.
         25    2    1    2    0    0  0.60228812828E+01 -0.43625381298E+02  0.25130123789E+03  0.28414473612E+03  0.12508585015E+03 0.  0.
          5    1    3    3  502    0  0.29157160273E+02 -0.80107595331E+02  0.19652296517E+03  0.21425712372E+03  0.41800000000E+01 0.  1.
         -5    1    3    3    0  502 -0.23134278990E+02  0.36482214034E+02  0.54778272725E+02  0.69887612407E+02  0.41800000000E+01 0.  1.
        -11    1    1    2    0    0 -0.22463912299E+02  0.51942926310E+01  0.31770395890E+02  0.39255140896E+02  0.00000000000E+00 0. -1.
         11    1    1    2    0    0  0.16441031016E+02  0.38431088667E+02  0.10088364877E+03  0.10920057997E+03  0.00000000000E+00 0.  1.
</event>
<event>
 8    1  0.4205029E-010  0.2019666E+03  0.7561462E-02  0.1148090E+00
         -2   -1    0    0    0  501 -0.00000000000E+00  0.00000000000E+00  0.54262148497E+02  0.54262148497E+02  0.00000000000E+00 0.  1.
          2   -1    0    0  501    0  0.00000000000E+00 -0.00000000000E+00 -0.11357106099E+04  0.11357106099E+04  0.00000000000E+00 0. -1.
         25    2    1    2    0    0 -0.92494085932E+02  0.16037865600E+03 -0.25286255089E+03  0.33743570203E+03  0.12508762579E+03 0.  0.
         23    2    1    2    0    0  0.92494085932E+02 -0.16037865600E+03 -0.82858591049E+03  0.85253705635E+03  0.77384443861E+02 0.  0.
          5    1    3    3  502    0 -0.10808824476E+03  0.15007842927E+03 -0.25812709908E+03  0.31757467668E+03  0.41800000000E+01 0.  1.
         -5    1    3    3    0  502  0.15594158830E+02  0.10300226731E+02  0.52645481873E+01  0.19861025349E+02  0.41800000000E+01 0.  1.
        -11    1    4    4    0    0  0.94353689737E+02 -0.93342801812E+02 -0.58686450833E+03  0.60168550635E+03  0.00000000000E+00 0. -1.
         11    1    4    4    0    0 -0.18596038051E+01 -0.67035854190E+02 -0.24172140216E+03  0.25085154999E+03  0.00000000000E+00 0.  1.
</event>
<event>
 8    1  0.4205029E-010  0.9813331E+02  0.7561462E-02  0.1284271E+00
         -3   -1    0    0    0  501 -0.00000000000E+00  0.00000000000E+00  0.14043941253E+03  0.14043941253E+03  0.00000000000E+00 0.  1.
          3   -1    0    0  501    0  0.00000000000E+00 -0.00000000000E+00 -0.10833212372E+03  0.10833212372E+03  0.00000000000E+00 0. -1.
         25    2    1    2    0    0 -0.38992340158E+02 -0.53386566003E+02  0.48534648957E+02  0.14958067975E+03  0.12509292380E+03 0.  0.
         23    2    1    2    0    0  0.38992340158E+02  0.53386566003E+02 -0.16427360139E+02  0.99190856499E+02  0.72100206874E+02 0.  0.
          5    1    3    3  502    0  0.50403673928E+01 -0.78836272478E+02 -0.69781748369E-01  0.79107777311E+02  0.41800000000E+01 0. -1.
         -5    1    3    3    0  502 -0.44032707551E+02  0.25449706475E+02  0.48604430706E+02  0.70472902439E+02  0.41800000000E+01 0. -1.
        -11    1    4    4    0    0  0.67181377348E+01  0.82092542444E+01 -0.38130431856E+02  0.39578467168E+02  0.00000000000E+00 0. -1.
         11    1    4    4    0    0  0.32274202423E+02  0.45177311758E+02  0.21703071717E+02  0.59612389331E+02  0.00000000000E+00 0.  1.
</event>
<event>
 8    1  0.4205029E-010  0.8213989E+02  0.7561462E-02  0.1323086E+00
         -2   -1    0    0    0  501 -0.00000000000E+00  0.00000000000E+00  0.81768631050E+02  0.81768631050E+02  0.00000000000E+00 0.  1.
          2   -1    0    0  501    0  0.00000000000E+00 -0.00000000000E+00 -0.19244805436E+03  0.19244805436E+03  0.00000000000E+00 0. -1.
         25    2    1    2    0    0 -0.49535084406E+01 -0.22784378510E+02 -0.24664567811E+02  0.12961263838E+03  0.12508968771E+03 0.  0.
         23    2    1    2    0    0  0.49535084406E+01  0.22784378510E+02 -0.86014855499E+02  0.14460404703E+03  0.11387760931E+03 0.  0.
          5    1    3    3  502    0  0.88033309828E+01 -0.30331594106E+02  0.46640002882E+02  0.56482444230E+02  0.41800000000E+01 0.  1.
         -5    1    3    3    0  502 -0.13756839423E+02  0.75472155959E+01 -0.71304570693E+02  0.73130194146E+02  0.41800000000E+01 0.  1.
        -11    1    4    4    0    0 -0.42833902466E+02  0.46170536978E+02 -0.48886944786E+02  0.79727003304E+02  0.00000000000E+00 0.  1.
         11    1    4    4    0    0  0.47787410907E+02 -0.23386158468E+02 -0.37127910713E+02  0.64877043729E+02  0.00000000000E+00 0. -1.
</event>
<event>
 8    1  0.4730123E-010  0.9418377E+02  0.7561462E-02  0.1293025E+00
         -2   -1    0    0    0  501 -0.00000000000E+00  0.00000000000E+00  0.50375306366E+02  0.50375306366E+02  0.00000000000E+00 0.  1.
          2   -1    0    0  501    0  0.00000000000E+00 -0.00000000000E+00 -0.31587273575E+03  0.31587273575E+03  0.00000000000E+00 0. -1.
         25    2    1    2    0    0  0.15048180938E+02 -0.34415578962E+02 -0.94393911055E+02  0.16114502900E+03  0.12508649049E+03 0.  0.
         23    2    1    2    0    0 -0.15048180938E+02  0.34415578962E+02 -0.17110351833E+03  0.20510301312E+03  0.10667685869E+03 0.  0.
          5    1    3    3  502    0 -0.20333914312E+02  0.40590907752E+02 -0.47242244213E+02  0.65653574934E+02  0.41800000000E+01 0. -1.
         -5    1    3    3    0  502  0.35382095250E+02 -0.75006486714E+02 -0.47151666842E+02  0.95491454065E+02  0.41800000000E+01 0. -1.
        -11    1    4    4    0    0 -0.19366253487E+02 -0.50685769644E+01  0.80668730288E+01  0.21582786822E+02  0.00000000000E+00 0.  1.
         11    1    4    4    0    0  0.43180725486E+01  0.39484155927E+02 -0.17917039136E+03  0.18352022629E+03  0.00000000000E+00 0. -1.
</event>
<event>
 8    1  0.4205029E-010  0.9844975E+02  0.7561462E-02  0.1283590E+00
          1   -1    0    0  501    0  0.00000000000E+00  0.00000000000E+00  0.71679832142E+02  0.71679832142E+02  0.00000000000E+00 0. -1.
         -1   -1    0    0    0  501 -0.00000000000E+00 -0.00000000000E+00 -0.25413942202E+03  0.25413942202E+03  0.00000000000E+00 0.  1.
         25    2    1    2    0    0 -0.46212589226E+02  0.47663453434E+02 -0.28695487343E+02  0.14449476301E+03  0.12509155586E+03 0.  0.
         23    2    1    2    0    0  0.46212589226E+02 -0.47663453434E+02 -0.15376410253E+03  0.18132449115E+03  0.69482110408E+02 0.  0.
          5    1    3    3  502    0 -0.77234741659E+02  0.83674866610E+01  0.13407254045E+02  0.78945848613E+02  0.41800000000E+01 0.  1.
         -5    1    3    3    0  502  0.31022152433E+02  0.39295966773E+02 -0.42102741389E+02  0.65548914397E+02  0.41800000000E+01 0.  1.
        -11    1    4    4    0    0  0.31771552317E+02 -0.19685591592E+02 -0.14337977609E+03  0.14817123285E+03  0.00000000000E+00 0.  1.
         11    1    4    4    0    0  0.14441036909E+02 -0.27977861842E+02 -0.10384326445E+02  0.33153258300E+02  0.00000000000E+00 0. -1.
</event>
<event>
 7    1  0.4205029E-010  0.6124887E+02  0.7561462E-02  0.1392664E+00
          2   -1    0    0  501    0  0.00000000000E+00  0.00000000000E+00  0.59049270879E+03  0.59049270879E+03  0.00000000000E+00 0. -1.
         -2   -1    0    0    0  501 -0.00000000000E+00 -0.00000000000E+00 -0.14053988628E+02  0.14053988628E+02  0.00000000000E+00 0.  1.
         25    2    1    2    0    0 -0.11060571792E+02  0.30844968876E+02  0.43698450384E+03  0.45571719200E+03  0.12509577984E+03 0.  0.
          5    1    3    3  502    0  0.19514720731E+02  0.37612583130E+02  0.43162734255E+02  0.60630229781E+02  0.41800000000E+01 0.  1.
         -5    1    3    3    0  502 -0.30575292523E+02 -0.67676142539E+01  0.39382176959E+03  0.39508696222E+03  0.41800000000E+01 0.  1.
        -11    1    1    2    0    0  0.21542155869E+02 -0.76294782020E+01  0.39060470470E+02  0.45254765168E+02  0.00000000000E+00 0.  1.
         11    1    1    2    0    0 -0.10481584077E+02 -0.23215490674E+02  0.10039374585E+03  0.10357474025E+03  0.00000000000E+00 0. -1.
</event>
<event>
 8    1  0.4205029E-010  0.2117177E+03  0.7561462E-02  0.1140213E+00
         -2   -1    0    0    0  501 -0.00000000000E+00  0.00000000000E+00  0.40382852986E+02  0.40382852986E+02  0.00000000000E+00 0.  1.
          2   -1    0    0  501    0  0.00000000000E+00 -0.00000000000E+00 -0.15917362406E+04  0.15917362406E+04  0.00000000000E+00 0. -1.
         25    2    1    2    0    0 -0.17008486843E+03  0.94247001585E+02 -0.11605427240E+04  0.11833495695E+04  0.12508169168E+03 0.  0.
         23    2    1    2    0    0  0.17008486843E+03 -0.94247001585E+02 -0.39081066361E+03  0.44876952410E+03  0.10416213896E+03 0.  0.
          5    1    3    3  502    0 -0.44286121483E+02 -0.36253810524E+01 -0.56734455985E+03  0.56909729040E+03  0.41800000000E+01 0. -1.
         -5    1    3    3    0  502 -0.12579874694E+03  0.97872382637E+02 -0.59319816419E+03  0.61425227913E+03  0.41800000000E+01 0. -1.
        -11    1    4    4    0    0 -0.26385769991E+01  0.14841751767E+02 -0.16567422499E+02  0.22399088650E+02  0.00000000000E+00 0.  1.
         11    1    4    4    0    0  0.17272344543E+03 -0.10908875335E+03 -0.37424324111E+03  0.42637043545E+03  0.00000000000E+00 0. -1.
</event>
<event>
 8    1  0.4205029E-010  0.1819639E+03  0.7561462E-02  0.1165916E+00
         -2   -1    0    0    0  501 -0.00000000000E+00  0.00000000000E+00  0.66471519044E+02  0.66471519044E+02  0.00000000000E+00 0.  1.
          2   -1    0    0  501    0  0.00000000000E+00 -0.00000000000E+00 -0.74815394813E+03  0.74815394813E+03  0.00000000000E+00 0. -1.
         25    2    1    2    0    0  0.43260271402E+01  0.17266791884E+03 -0.18162743660E+03  0.28012295146E+03  0.12508963787E+03 0.  0.
         23    2    1    2    0    0 -0.43260271402E+01 -0.17266791884E+03 -0.50005499249E+03  0.53450251571E+03  0.76190675851E+02 0.  0.
          5    1    3    3  502    0 -0.33018040543E+02  0.62986958776E+02 -0.84780667737E+01  0.71741884512E+02  0.41800000000E+01 0.  1.
         -5    1    3    3    0  502  0.37344067683E+02  0.10968096006E+03 -0.17314936983E+03  0.20838106695E+03  0.41800000000E+01 0.  1.
        -11    1    4    4    0    0 -0.20053579677E+02 -0.12377441452E+03 -0.25546287188E+03  0.28457605426E+03  0.00000000000E+00 0.  1.
         11    1    4    4    0    0  0.15727552537E+02 -0.48893504319E+02 -0.24459212060E+03  0.24992646145E+03  0.00000000000E+00 0. -1.
</event>
<event>
 7    1  0.4205029E-010  0.7843088E+02  0.7561462E-02  0.1333564E+00
          1   -1    0    0  501    0  0.00000000000E+00  0.00000000000E+00  0.55983639786E+02  0.55983639786E+02  0.00000000000E+00 0. -1.
         -1   -1    0    0    0  501 -0.00000000000E+00 -0.00000000000E+00 -0.11908055087E+03  0.11908055087E+03  0.00000000000E+00 0.  1.
         25    2    1    2    0    0  0.12797308499E+02  0.14479324993E+02 -0.38684979535E+02  0.13235448992E+03  0.12509101248E+03 0.  0.
          5    1    3    3  502    0 -0.35720576968E+02 -0.39692586359E+02 -0.19786074960E+02  0.57100106770E+02  0.41800000000E+01 0. -1.
         -5    1    3    3    0  502  0.48517885468E+02  0.54171911352E+02 -0.18898904575E+02  0.75254383154E+02  0.41800000000E+01 0. -1.
        -11    1    1    2    0    0 -0.18394529227E+02 -0.43781107878E+01 -0.41051639424E+01  0.19348874142E+02  0.00000000000E+00 0. -1.
         11    1    1    2    0    0  0.55972207276E+01 -0.10101214205E+02 -0.20306767603E+02  0.23360826586E+02  0.00000000000E+00 0.  1.
</event>
<event>
 8    1  0.4205029E-010  0.1014166E+03  0.7561462E-02  0.1277345E+00
         -1   -1    0    0    0  501 -0.00000000000E+00  0.00000000000E+00  0.24409623119E+02  0.24409623119E+02  0.00000000000E+00 0.  1.
          1   -1    0    0  501    0  0.00000000000E+00 -0.00000000000E+00 -0.57059373166E+03  0.57059373166E+03  0.00000000000E+00 0. -1.
         25    2    1    2    0    0 -0.22932655673E+02 -0.12902626330E+02 -0.29261566162E+03  0.31931724312E+03  0.12508873597E+03 0.  0.
         23    2    1    2    0    0  0.22932655673E+02  0.12902626330E+02 -0.25356844692E+03  0.27568611166E+03  0.10494517819E+03 0.  0.
          5    1    3    3  502    0  0.27253051057E+02  0.35954811632E+02 -0.53443072228E+02  0.70065052919E+02  0.41800000000E+01 0. -1.
         -5    1    3    3    0  502 -0.50185706730E+02 -0.48857437961E+02 -0.23917258939E+03  0.24925219020E+03  0.41800000000E+01 0. -1.
        -11    1    4    4    0    0  0.33829089241E+01 -0.35238009595E+02 -0.30752512717E+02  0.46892200112E+02  0.00000000000E+00 0.  1.
         11    1    4    4    0    0  0.19549746749E+02  0.48140635924E+02 -0.22281593421E+03  0.22879391155E+03  0.00000000000E+00 0. -1.
</event>
<event>
 8    1  0.4205029E-010  0.9745826E+02  0.7561462E-02  0.1285734E+00
         -2   -1    0    0    0  501 -0.00000000000E+00  0.00000000000E+00  0.62553560106E+02  0.62553560106E+02  0.00000000000E+00 0.  1.
          2   -1    0    0  501    0  0.00000000000E+00 -0.00000000000E+00 -0.22037584930E+03  0.22037584930E+03  0.00000000000E+00 0. -1.
         25    2    1    2    0    0  0.18718467596E+01  0.20038270521E+02 -0.90921878554E+02  0.15594639037E+03  0.12508977806E+03 0.  0.
         23    2    1    2    0    0 -0.18718467596E+01 -0.20038270521E+02 -0.66900410639E+02  0.12698301903E+03  0.10603766351E+03 0.  0.
          5    1    3    3  502    0  0.37769388291E+02  0.61061726024E+02 -0.48484455564E+02  0.86736819795E+02  0.41800000000E+01 0.  1.
         -5    1    3    3    0  502 -0.35897541531E+02 -0.41023455503E+02 -0.42437422990E+02  0.69209570577E+02  0.41800000000E+01 0.  1.
        -11    1    4    4    0    0  0.31669894211E+02 -0.77693127989E+01  0.16288965118E+02  0.36450991829E+02  0.00000000000E+00 0.  1.
         11    1    4    4    0    0 -0.33541740970E+02 -0.12268957722E+02 -0.83189375757E+02  0.90532027205E+02  0.00000000000E+00 0. -1.
</event>
<event>
 8    1  0.4205029E-010  0.2136909E+03  0.7561462E-02  0.1138676E+00
          1   -1    0    0  501    0  0.00000000000E+00  0.00000000000E+00  0.57731969928E+03  0.57731969928E+03  0.00000000000E+00 0. -1.
         -1   -1    0    0    0  501 -0.00000000000E+00 -0.00000000000E+00 -0.25374498947E+03  0.25374498947E+03  0.00000000000E+00 0.  1.
         25    2    1    2    0    0 -0.20425427708E+03 -0.61632588864E+02  0.48480244570E+03  0.54424114091E+03  0.12508645961E+03 0.  0.
         23    2    1    2    0    0  0.20425427708E+03  0.61632588864E+02 -0.16122773589E+03  0.28682354785E+03  0.10370621517E+03 0.  0.
          5    1    3    3  502    0 -0.53669555397E+02 -0.16621609459E+02  0.31721162814E+02  0.64656041078E+02  0.41800000000E+01 0.  1.
         -5    1    3    3    0  502 -0.15058472168E+03 -0.45010979405E+02  0.45308128289E+03  0.47958509983E+03  0.41800000000E+01 0.  1.
        -11    1    4    4    0    0  0.87869756582E+02  0.19222995250E+02 -0.87513387075E+01  0.90372582111E+02  0.00000000000E+00 0.  1.
         11    1    4    4    0    0  0.11638452050E+03  0.42409593614E+02 -0.15247639718E+03  0.19645096574E+03  0.00000000000E+00 0. -1.
</event>
<event>
 8    1  0.4205029E-010  0.1269135E+03  0.7561462E-02  0.1232109E+00
          2   -1    0    0  501    0  0.00000000000E+00  0.00000000000E+00  0.31019133659E+03  0.31019133659E+03  0.00000000000E+00 0.  1.
         -2   -1    0    0    0  501 -0.00000000000E+00 -0.00000000000E+00 -0.74812728434E+02  0.74812728434E+02  0.00000000000E+00 0. -1.
         25    2    1    2    0    0  0.46268117516E+02  0.71706809340E+02  0.18728486713E+03  0.24084929239E+03  0.12510057947E+03 0.  0.
         23    2    1    2    0    0 -0.46268117516E+02 -0.71706809340E+02  0.48093741022E+02  0.14415477263E+03  0.10575909107E+03 0.  0.
          5    1    3    3  502    0  0.79782170564E+02  0.78058375798E+02  0.16710341324E+03  0.20099584047E+03  0.41800000000E+01 0. -1.
         -5    1    3    3    0  502 -0.33514053048E+02 -0.63515664581E+01  0.20181453891E+02  0.39853451912E+02  0.41800000000E+01 0. -1.
        -11    1    4    4    0    0 -0.55544087570E+02 -0.26362337207E+02  0.69814541294E+02  0.93027891855E+02  0.00000000000E+00 0.  1.
         11    1    4    4    0    0  0.92759700539E+01 -0.45344472133E+02 -0.21720800272E+02  0.51126880777E+02  0.00000000000E+00 0. -1.
</event>
<event>
 8    1  0.4205029E-010  0.9151357E+02  0.7561462E-02  0.1299227E+00
          1   -1    0    0  501    0  0.00000000000E+00  0.00000000000E+00  0.17601984524E+03  0.17601984524E+03  0.00000000000E+00 0. -1.
         -1   -1    0    0    0  501 -0.00000000000E+00 -0.00000000000E+00 -0.84280215564E+02  0.84280215564E+02  0.00000000000E+00 0.  1.
         25    2    1    2    0    0  0.52419716462E+02 -0.32588558500E+02  0.86645334404E+02  0.16420955068E+03  0.12509005452E+03 0.  0.
         23    2    1    2    0    0 -0.52419716462E+02  0.32588558500E+02  0.50942952760E+01  0.96090510130E+02  0.73468316122E+02 0.  0.
          5    1    3    3  502    0  0.32609920925E+02  0.15166614817E+02 -0.23013958047E+02  0.42901606179E+02  0.41800000000E+01 0.  1.
         -5    1    3    3    0  502  0.19809795537E+02 -0.47755173316E+02  0.10965929245E+03  0.12130794450E+03  0.41800000000E+01 0.  1.
        -11    1    4    4    0    0 -0.69638171454E+02  0.16905278962E+02 -0.21699243331E+01  0.71693597705E+02  0.00000000000E+00 0.  1.
         11    1    4    4    0    0  0.17218454992E+02  0.15683279538E+02  0.72642196091E+01  0.24396912426E+02  0.00000000000E+00 0. -1.
</event>
<event>
 8    1  0.4205029E-010  0.1144499E+03  0.7561462E-02  0.1252544E+00
         -2   -1    0    0    0  501 -0.00000000000E+00  0.00000000000E+00  0.15722994122E+03  0.15722994122E+03  0.00000000000E+00 0.  1.
          2   -1    0    0  501    0  0.00000000000E+00 -0.00000000000E+00 -0.13193659624E+03  0.13193659624E+03  0.00000000000E+00 0. -1.
         25    2    1    2    0    0  0.57567747344E+02  0.64116325020E+02 -0.40592895551E+02  0.15723617722E+03  0.12510189283E+03 0.  0.
         23    2    1    2    0    0 -0.57567747344E+02 -0.64116325020E+02  0.65886240535E+02  0.13193036023E+03  0.75097766880E+02 0.  0.
          5    1    3    3  502    0 -0.22106097970E+02 -0.10995314781E+02 -0.40550374704E+02  0.47659015970E+02  0.41800000000E+01 0. -1.
         -5    1    3    3    0  502  0.79673845314E+02  0.75111639801E+02 -0.42520846776E-01  0.10957716125E+03  0.41800000000E+01 0. -1.
        -11    1    4    4    0    0 -0.29316218149E+02 -0.63776527182E+01 -0.10782231496E+02  0.31880583696E+02  0.00000000000E+00 0. -1.
         11    1    4    4    0    0 -0.28251529195E+02 -0.57738672302E+02  0.76668472031E+02  0.10004977653E+03  0.00000000000E+00 0.  1.
</event>
<event>
 7    1  0.4205029E-010  0.1005524E+03  0.7561462E-02  0.1279139E+00
          2   -1    0    0  501    0  0.00000000000E+00  0.00000000000E+00  0.30548962065E+03  0.30548962065E+03  0.00000000000E+00 0. -1.
         -2   -1    0    0    0  501 -0.00000000000E+00 -0.00000000000E+00 -0.55047102730E+02  0.55047102730E+02  0.00000000000E+00 0.  1.
         25    2    1    2    0    0  0.22601545511E+02  0.67832035922E+01  0.11961278256E+03  0.17466803352E+03  0.12507942466E+03 0.  0.
          5    1    3    3  502    0 -0.19321236810E+02 -0.11825146770E+02 -0.18203412887E+02  0.29359511725E+02  0.41800000000E+01 0.  1.
         -5    1    3    3    0  502  0.41922782320E+02  0.18608350362E+02  0.13781619544E+03  0.14530852180E+03  0.41800000000E+01 0.  1.
        -11    1    1    2    0    0  0.34235151956E+00 -0.67295604787E+02  0.67996867838E+02  0.95668122507E+02  0.00000000000E+00 0.  1.
         11    1    1    2    0    0 -0.22943897030E+02  0.60512401194E+02  0.62832867529E+02  0.90200567355E+02  0.00000000000E+00 0. -1.
</event>
<event>
 7    1  0.4205029E-010  0.1881570E+03  0.7561462E-02  0.1160134E+00
         -2   -1    0    0    0  501 -0.00000000000E+00  0.00000000000E+00  0.46263706490E+02  0.46263706490E+02  0.00000000000E+00 0. -1.
          2   -1    0    0  501    0  0.00000000000E+00 -0.00000000000E+00 -0.80774850277E+03  0.80774850277E+03  0.00000000000E+00 0.  1.
         25    2    1    2    0    0  0.29175204658E+02 -0.12551172367E+03 -0.28669277540E+03  0.33829770440E+03  0.12509278153E+03 0.  0.
          5    1    3    3  502    0  0.35666879932E+02 -0.14762615416E+03 -0.26901037708E+03  0.30894928886E+03  0.41800000000E+01 0. -1.
         -5    1    3    3    0  502 -0.64916752732E+01  0.22114430492E+02 -0.17682398324E+02  0.29348415534E+02  0.41800000000E+01 0. -1.
        -11    1    1    2    0    0  0.24179858063E+02 -0.28846353036E+02 -0.10170325319E+03  0.10844505212E+03  0.00000000000E+00 0.  1.
         11    1    1    2    0    0 -0.53355062722E+02  0.15435807670E+03 -0.37308876769E+03  0.40726945274E+03  0.00000000000E+00 0. -1.
</event>
<event>
 8    1  0.4205029E-010  0.8223825E+02  0.7561462E-02  0.1322817E+00
         -2   -1    0    0    0  501 -0.00000000000E+00  0.00000000000E+00  0.31324439430E+02  0.31324439430E+02  0.00000000000E+00 0.  1.
          2   -1    0    0  501    0  0.00000000000E+00 -0.00000000000E+00 -0.43970011827E+03  0.43970011827E+03  0.00000000000E+00 0. -1.
         25    2    1    2    0    0 -0.15900112979E+02 -0.59688138534E+02 -0.32410369035E+03  0.35285796220E+03  0.12510016752E+03 0.  0.
         23    2    1    2    0    0  0.15900112979E+02  0.59688138534E+02 -0.84271988491E+02  0.11816659550E+03  0.55191383151E+02 0.  0.
          5    1    3    3  502    0  0.25895434523E+02 -0.46831807740E+02 -0.29573388180E+03  0.30056578812E+03  0.41800000000E+01 0.  1.
         -5    1    3    3    0  502 -0.41795547502E+02 -0.12856330794E+02 -0.28369808556E+02  0.52292174080E+02  0.41800000000E+01 0.  1.
        -11    1    4    4    0    0  0.22943932335E+02  0.42536051289E+02 -0.21832352349E+02  0.53031983740E+02  0.00000000000E+00 0.  1.
         11    1    4    4    0    0 -0.70438193562E+01  0.17152087245E+02 -0.62439636142E+02  0.65134611763E+02  0.00000000000E+00 0. -1.
</event>
<event>
 8    1  0.4205029E-010  0.1512073E+03  0.7561462E-02  0.1198997E+00
          1   -1    0    0  501    0  0.00000000000E+00  0.00000000000E+00  0.20201048349E+03  0.20201048349E+03  0.00000000000E+00 0. -1.
         -1   -1    0    0    0  501 -0.00000000000E+00 -0.00000000000E+00 -0.26219854262E+03  0.26219854262E+03  0.00000000000E+00 0.  1.
         25    2    1    2    0    0 -0.64240241584E+02  0.93561736785E+02  0.13278005742E+03  0.21484781087E+03  0.12509368872E+03 0.  0.
         23    2    1    2    0    0  0.64240241584E+02 -0.93561736785E+02 -0.19296811656E+03  0.24936121524E+03  0.10983494175E+03 0.  0.
          5    1    3    3  502    0 -0.73337009785E+01  0.96882863464E+02  0.38495969026E+02  0.10459199030E+03  0.41800000000E+01 0.  1.
         -5    1    3    3    0  502 -0.56906540606E+02 -0.33211266794E+01  0.94284088395E+02  0.11025582057E+03  0.41800000000E+01 0.  1.
        -11    1    4    4    0    0  0.67621528246E+02 -0.14861341068E+02 -0.47592454789E+02  0.84015309875E+02  0.00000000000E+00 0. -1.
         11    1    4    4    0    0 -0.33812866615E+01 -0.78700395717E+02 -0.14537566177E+03  0.16534590536E+03  0.00000000000E+00 0.  1.
</event>
<event>
 8    1  0.4205029E-010  0.8221077E+02  0.7561462E-02  0.1322892E+00
         -3   -1    0    0    0  501 -0.00000000000E+00  0.00000000000E+00  0.33480845610E+02  0.33480845610E+02  0.00000000000E+00 0.  1.
          3   -1    0    0  501    0  0.00000000000E+00 -0.00000000000E+00 -0.48270928028E+03  0.48270928028E+03  0.00000000000E+00 0. -1.
         25    2    1    2    0    0  0.14847708629E+02  0.63080488967E+01 -0.16600340262E+03  0.20848361954E+03  0.12509214205E+03 0.  0.
         23    2    1    2    0    0 -0.14847708629E+02 -0.63080488967E+01 -0.28322503205E+03  0.30770650635E+03  0.11919156572E+03 0.  0.
          5    1    3    3  502    0 -0.92012982878E+01 -0.11319289535E+02 -0.17608043348E+03  0.17673308026E+03  0.41800000000E+01 0.  1.
         -5    1    3    3    0  502  0.24049006917E+02  0.17627338432E+02  0.10077030853E+02  0.31750539282E+02  0.41800000000E+01 0.  1.
        -11    1    4    4    0    0 -0.62295357942E+02  0.19305847625E+02 -0.13374847477E+03  0.14880215683E+03  0.00000000000E+00 0.  1.
         11    1    4    4    0    0  0.47447649313E+02 -0.25613896521E+02 -0.14947655727E+03  0.15890434952E+03  0.00000000000E+00 0. -1.
</event>
<event>
 8    1  0.4205029E-010  0.6408285E+02  0.7561462E-02  0.1381455E+00
          2   -1    0    0  501    0  0.00000000000E+00  0.00000000000E+00  0.71649939782E+03  0.71649939782E+03  0.00000000000E+00 0. -1.
         -2   -1    0    0    0  501 -0.00000000000E+00 -0.00000000000E+00 -0.27597862686E+02  0.27597862686E+02  0.00000000000E+00 0.  1.
         25    2    1    2    0    0 -0.20541896245E+01 -0.55870151375E+01  0.64148060171E+03  0.65359032440E+03  0.12509002896E+03 0.  0.
         23    2    1    2    0    0  0.20541896245E+01  0.55870151375E+01  0.47420933422E+02  0.90506936105E+02  0.76859131685E+02 0.  0.
          5    1    3    3  502    0 -0.22512263049E+02 -0.35683069535E+02  0.76822878839E+02  0.87745715292E+02  0.41800000000E+01 0.  1.
         -5    1    3    3    0  502  0.20458073424E+02  0.30096054397E+02  0.56465772287E+03  0.56584460911E+03  0.41800000000E+01 0.  1.
        -11    1    4    4    0    0 -0.97877139015E+01 -0.19264946366E+02  0.57315557733E+02  0.61253658341E+02  0.00000000000E+00 0. -1.
         11    1    4    4    0    0  0.11841903526E+02  0.24851961504E+02 -0.98946243110E+01  0.29253277764E+02  0.00000000000E+00 0.  1.
</event>
<event>
 8    1  0.4205029E-010  0.8973770E+02  0.7561462E-02  0.1303488E+00
         -1   -1    0    0    0  501 -0.00000000000E+00  0.00000000000E+00  0.86914166627E+02  0.86914166627E+02  0.00000000000E+00 0.  1.
          1   -1    0    0  501    0  0.00000000000E+00 -0.00000000000E+00 -0.14923182990E+03  0.14923182990E+03  0.00000000000E+00 0. -1.
         25    2    1    2    0    0 -0.40827078856E+02 -0.33869516555E+01 -0.76522400338E+02  0.15226205093E+03  0.12509889124E+03 0.  0.
         23    2    1    2    0    0  0.40827078856E+02  0.33869516555E+01  0.14204737063E+02  0.83883945603E+02  0.71808216559E+02 0.  0.
          5    1    3    3  502    0 -0.66994542600E+02  0.13767355100E+02  0.10314320050E+01  0.68529884406E+02  0.41800000000E+01 0. -1.
         -5    1    3    3    0  502  0.26167463744E+02 -0.17154306756E+02 -0.77553832343E+02  0.83732166520E+02  0.41800000000E+01 0. -1.
        -11    1    4    4    0    0  0.28636981460E+02 -0.31416508390E+02 -0.41135184401E+01  0.42708251433E+02  0.00000000000E+00 0. -1.
         11    1    4    4    0    0  0.12190097396E+02  0.34803460045E+02  0.18318255503E+02  0.41175694169E+02  0.00000000000E+00 0.  1.
</event>
<event>
 8    1  0.4205029E-010  0.7842181E+02  0.7561462E-02  0.1333591E+00
         -1   -1    0    0    0  501 -0.00000000000E+00  0.00000000000E+00  0.25313783360E+02  0.25313783360E+02  0.00000000000E+00 0.  1.
          1   -1    0    0  501    0  0.00000000000E+00 -0.00000000000E+00 -0.42585228197E+03  0.42585228197E+03  0.00000000000E+00 0. -1.
         25    2    1    2    0    0 -0.14210536333E+02  0.11501786462E+02 -0.28799660407E+03  0.31452174216E+03  0.12509057480E+03 0.  0.
         23    2    1    2    0    0  0.14210536333E+02 -0.11501786462E+02 -0.11254189454E+03  0.13664432317E+03  0.75311105370E+02 0.  0.
          5    1    3    3  502    0 -0.45422615057E+02  0.34413781156E+02 -0.58615592711E+02  0.81858306853E+02  0.41800000000E+01 0. -1.
         -5    1    3    3    0  502  0.31212078724E+02 -0.22911994694E+02 -0.22938101136E+03  0.23266343531E+03  0.41800000000E+01 0. -1.
        -11    1    4    4    0    0  0.36347248113E+02 -0.12616396170E+01 -0.10499102764E+03  0.11111179085E+03  0.00000000000E+00 0. -1.
         11    1    4    4    0    0 -0.22136711779E+02 -0.10240146845E+02 -0.75508669021E+01  0.25532532322E+02  0.00000000000E+00 0.  1.
</event>
<event>
 8    1  0.4205029E-010  0.2337918E+03  0.7561462E-02  0.1123999E+00
          3   -1    0    0  501    0  0.00000000000E+00  0.00000000000E+00  0.30798165920E+03  0.30798165920E+03  0.00000000000E+00 0. -1.
         -3   -1    0    0    0  501 -0.00000000000E+00 -0.00000000000E+00 -0.20816563081E+03  0.20816563081E+03  0.00000000000E+00 0.  1.
         25    2    1    2    0    0 -0.20177247087E+03  0.73165883622E+02  0.10707107324E+03  0.27051483328E+03  0.12509469923E+03 0.  0.
         23    2    1    2    0    0  0.20177247087E+03 -0.73165883622E+02 -0.72550448556E+01  0.24563245673E+03  0.11923628472E+03 0.  0.
          5    1    3    3  502    0 -0.16286115798E+03 -0.23847347220E+01  0.77623795831E+02  0.18047816992E+03  0.41800000000E+01 0. -1.
         -5    1    3    3    0  502 -0.38911312888E+02  0.75550618345E+02  0.29447277410E+02  0.90036663364E+02  0.41800000000E+01 0. -1.
        -11    1    4    4    0    0  0.17854918949E+03 -0.47102804905E+02 -0.49162727699E+02  0.19109019099E+03  0.00000000000E+00 0.  1.
         11    1    4    4    0    0  0.23223281375E+02 -0.26063078717E+02  0.41907682843E+02  0.54542265733E+02  0.00000000000E+00 0. -1.
</event>
<event>
 8    1  0.4205029E-010  0.1676855E+03  0.7561462E-02  0.1180283E+00
          1   -1    0    0  501    0  0.00000000000E+00  0.00000000000E+00  0.13215864052E+03  0.13215864052E+03  0.00000000000E+00 0. -1.
         -1   -1    0    0    0  501 -0.00000000000E+00 -0.00000000000E+00 -0.24796473575E+03  0.24796473575E+03  0.00000000000E+00 0.  1.
         25    2    1    2    0    0  0.11262243278E+03 -0.78914728993E+02 -0.73219995341E+00  0.18589912872E+03  0.12508638265E+03 0.  0.
         23    2    1    2    0    0 -0.11262243278E+03  0.78914728993E+02 -0.11507389528E+03  0.19422424755E+03  0.74630490705E+02 0.  0.
          5    1    3    3  502    0  0.90724468432E+02 -0.10951032664E+03  0.18447525302E+02  0.14346157814E+03  0.41800000000E+01 0. -1.
         -5    1    3    3    0  502  0.21897964351E+02  0.30595597647E+02 -0.19179725256E+02  0.42437550577E+02  0.41800000000E+01 0. -1.
        -11    1    4    4    0    0 -0.11003459931E+03  0.41283429316E+02 -0.97064945935E+02  0.15242551726E+03  0.00000000000E+00 0. -1.
         11    1    4    4    0    0 -0.25878334726E+01  0.37631299677E+02 -0.18008949340E+02  0.41798730290E+02  0.00000000000E+00 0.  1.
</event>
<event>
 8    1  0.4205029E-010  0.1190024E+03  0.7561462E-02  0.1244752E+00
         -1   -1    0    0    0  501 -0.00000000000E+00  0.00000000000E+00  0.80263715112E+02  0.80263715112E+02  0.00000000000E+00 0.  1.
          1   -1    0    0  501    0  0.00000000000E+00 -0.00000000000E+00 -0.24841556090E+03  0.24841556090E+03  0.00000000000E+00 0. -1.
         25    2    1    2    0    0  0.70010370762E+02  0.14361075987E+02 -0.75219047295E+02  0.16252404499E+03  0.12509383520E+03 0.  0.
         23    2    1    2    0    0 -0.70010370762E+02 -0.14361075987E+02 -0.92932798493E+02  0.16615523102E+03  0.11774278425E+03 0.  0.
          5    1    3    3  502    0  0.78467992897E+02  0.56487677390E+02 -0.69120864631E+02  0.11892539650E+03  0.41800000000E+01 0. -1.
         -5    1    3    3    0  502 -0.84576221353E+01 -0.42126601403E+02 -0.60981826631E+01  0.43598648485E+02  0.41800000000E+01 0. -1.
        -11    1    4    4    0    0  0.10059252964E+02  0.10181349711E+02  0.20595450224E+02  0.25080291507E+02  0.00000000000E+00 0.  1.
         11    1    4    4    0    0 -0.80069623726E+02 -0.24542425698E+02 -0.11352824872E+03  0.14107493952E+03  0.00000000000E+00 0. -1.
</event>
<event>
 8    1  0.4205029E-010  0.1564907E+03  0.7561462E-02  0.1192717E+00
          1   -1    0    0  501    0  0.00000000000E+00  0.00000000000E+00  0.46688545177E+03  0.46688545177E+03  0.00000000000E+00 0. -1.
         -1   -1    0    0    0  501 -0.00000000000E+00 -0.00000000000E+00 -0.55373064419E+02  0.55373064419E+02  0.00000000000E+00 0.  1.
         25    2    1    2    0    0  0.23881545698E+02 -0.12313289720E+03  0.20927806059E+03  0.27418491293E+03  0.12509205106E+03 0.  0.
         23    2    1    2    0    0 -0.23881545698E+02  0.12313289720E+03  0.20223432676E+03  0.24807360325E+03  0.70069616215E+02 0.  0.
          5    1    3    3  502    0  0.61326106734E+02 -0.27933267323E+02  0.46845548413E+02  0.82177470128E+02  0.41800000000E+01 0. -1.
         -5    1    3    3    0  502 -0.37444561036E+02 -0.95199629874E+02  0.16243251218E+03  0.19200744281E+03  0.41800000000E+01 0. -1.
        -11    1    4    4    0    0 -0.25596494838E+02  0.64666996794E+01  0.46598992691E+02  0.53558051426E+02  0.00000000000E+00 0.  1.
         11    1    4    4    0    0  0.17149491402E+01  0.11666619752E+03  0.15563533406E+03  0.19451555183E+03  0.00000000000E+00 0. -1.
</event>
<event>
 8    1  0.4205029E-010  0.2246737E+03  0.7561462E-02  0.1130446E+00
         -2   -1    0    0    0  501 -0.00000000000E+00  0.00000000000E+00  0.25734186096E+03  0.25734186096E+03  0.00000000000E+00 0.  1.
          2   -1    0    0  501    0  0.00000000000E+00 -0.00000000000E+00 -0.21851906129E+03  0.21851906129E+03  0.00000000000E+00 0. -1.
         25    2    1    2    0    0 -0.12863519013E+03  0.15620683150E+03  0.95122238956E+01  0.23808603512E+03  0.12508753483E+03 0.  0.
         23    2    1    2    0    0  0.12863519013E+03 -0.15620683150E+03  0.29310575772E+02  0.23777488713E+03  0.12136803842E+03 0.  0.
          5    1    3    3  502    0 -0.69126720013E+02  0.16878646635E+02 -0.35976622604E+02  0.79844736245E+02  0.41800000000E+01 0.  1.
         -5    1    3    3    0  502 -0.59508470116E+02  0.13932818487E+03  0.45488846499E+02  0.15824129888E+03  0.41800000000E+01 0.  1.
        -11    1    4    4    0    0  0.14528812771E+03 -0.12741361273E+03  0.48685109231E+02  0.19928148089E+03  0.00000000000E+00 0.  1.
         11    1    4    4    0    0 -0.16652937584E+02 -0.28793218772E+02 -0.19374533459E+02  0.38493406243E+02  0.00000000000E+00 0. -1.
</event>
<event>
 8    1  0.4205029E-010  0.3103747E+03  0.7561462E-02  0.1080166E+00
          2   -1    0    0  501    0  0.00000000000E+00  0.00000000000E+00  0.53587878382E+03  0.53587878382E+03  0.00000000000E+00 0. -1.
         -2   -1    0    0    0  501 -0.00000000000E+00 -0.00000000000E+00 -0.27396443357E+03  0.27396443357E+03  0.00000000000E+00 0.  1.
         25    2    1    2    0    0 -0.81812880663E+02 -0.29823367214E+03 -0.80805005732E+02  0.34324111625E+03  0.12509334233E+03 0.  0.
         23    2    1    2    0    0  0.81812880663E+02  0.29823367214E+03  0.34271935598E+03  0.46660210114E+03  0.68002155724E+02 0.  0.
          5    1    3    3  502    0 -0.40400117864E+02 -0.15975709138E+03 -0.10667894988E+03  0.19634757070E+03  0.41800000000E+01 0.  1.
         -5    1    3    3    0  502 -0.41412762799E+02 -0.13847658075E+03  0.25873944149E+02  0.14689354555E+03  0.41800000000E+01 0.  1.
        -11    1    4    4    0    0  0.85480977588E+02  0.28203210323E+03  0.29894742142E+03  0.41978407016E+03  0.00000000000E+00 0.  1.
         11    1    4    4    0    0 -0.36680969248E+01  0.16201568908E+02  0.43771934554E+02  0.46818030979E+02  0.00000000000E+00 0. -1.
</event>
<event>
 8    1  0.4205029E-010  0.1063361E+03  0.7561462E-02  0.1267509E+00
          1   -1    0    0  501    0  0.00000000000E+00  0.00000000000E+00  0.44347494349E+02  0.44347494349E+02  0.00000000000E+00 0. -1.
         -1   -1    0    0    0  501 -0.00000000000E+00 -0.00000000000E+00 -0.54208802338E+03  0.54208802338E+03  0.00000000000E+00 0.  1.
         25    2    1    2    0    0 -0.47488416605E+02  0.77926026820E+02 -0.29751031881E+03  0.33539086327E+03  0.12508807299E+03 0.  0.
         23    2    1    2    0    0  0.47488416605E+02 -0.77926026820E+02 -0.20023021023E+03  0.25104465446E+03  0.12084562912E+03 0.  0.
          5    1    3    3  502    0  0.61545056337E+01  0.85351836148E+01 -0.21372018252E+03  0.21401989654E+03  0.41800000000E+01 0.  1.
         -5    1    3    3    0  502 -0.53642922239E+02  0.69390843205E+02 -0.83790136288E+02  0.12137096674E+03  0.41800000000E+01 0.  1.
        -11    1    4    4    0    0  0.50033370856E+02 -0.17414652247E+02 -0.17930374816E+03  0.18696642056E+03  0.00000000000E+00 0.  1.
         11    1    4    4    0    0 -0.25449542509E+01 -0.60511374573E+02 -0.20926462065E+02  0.64078233897E+02  0.00000000000E+00 0. -1.
</event>
<event>
 8    1  0.4205029E-010  0.1135614E+03  0.7561462E-02  0.1254113E+00
         -1   -1    0    0    0  501 -0.00000000000E+00  0.00000000000E+00  0.17116976260E+03  0.17116976260E+03  0.00000000000E+00 0. -1.
          1   -1    0    0  501    0  0.00000000000E+00 -0.00000000000E+00 -0.91629072079E+02  0.91629072079E+02  0.00000000000E+00 0.  1.
         25    2    1    2    0    0  0.66384950412E+02  0.18633542401E+02  0.22483803665E+02  0.14459555132E+03  0.12509269159E+03 0.  0.
         23    2    1    2    0    0 -0.66384950412E+02 -0.18633542401E+02  0.57056886860E+02  0.11820328336E+03  0.77216302142E+02 0.  0.
          5    1    3    3  502    0  0.91335370536E+02 -0.68964587864E+01 -0.14721937428E+02  0.92865057456E+02  0.41800000000E+01 0. -1.
         -5    1    3    3    0  502 -0.24950420124E+02  0.25530001187E+02  0.37205741092E+02  0.51730493862E+02  0.41800000000E+01 0. -1.
        -11    1    4    4    0    0 -0.62207023158E+02  0.16300967374E+02  0.20571896347E+02  0.67517687955E+02  0.00000000000E+00 0.  1.
         11    1    4    4    0    0 -0.41779272542E+01 -0.34934509775E+02  0.36484990513E+02  0.50685595410E+02  0.00000000000E+00 0. -1.
</event>
<event>
 8    1  0.4205029E-010  0.2465805E+03  0.7561462E-02  0.1115485E+00
          2   -1    0    0  501    0  0.00000000000E+00  0.00000000000E+00  0.17981503081E+03  0.17981503081E+03  0.00000000000E+00 0.  1.
         -2   -1    0    0    0  501 -0.00000000000E+00 -0.00000000000E+00 -0.42105244300E+03  0.42105244300E+03  0.00000000000E+00 0. -1.
         25    2    1    2    0    0 -0.36071404568E+02 -0.24176942921E+03 -0.79291233842E+02  0.28581218870E+03  0.12509158372E+03 0.  0.
         23    2    1    2    0    0  0.36071404568E+02  0.24176942921E+03 -0.16194617835E+03  0.31505528511E+03  0.11523742825E+03 0.  0.
          5    1    3    3  502    0 -0.14369146236E+02 -0.98816860786E+02  0.30186809698E+02  0.10440287457E+03  0.41800000000E+01 0.  1.
         -5    1    3    3    0  502 -0.21702258332E+02 -0.14295256842E+03 -0.10947804354E+03  0.18140931413E+03  0.41800000000E+01 0.  1.
        -11    1    4    4    0    0  0.11314505652E+02  0.89285309591E+01 -0.56401485468E+02  0.58213952504E+02  0.00000000000E+00 0. -1.
         11    1    4    4    0    0  0.24756898916E+02  0.23284089825E+03 -0.10554469289E+03  0.25684133261E+03  0.00000000000E+00 0.  1.
</event>
<event>
 8    1  0.4205029E-010  0.1155122E+03  0.7561462E-02  0.1250690E+00
          1   -1    0    0  501    0  0.00000000000E+00  0.00000000000E+00  0.72134343058E+02  0.72134343058E+02  0.00000000000E+00 0. -1.
         -1   -1    0    0    0  501 -0.00000000000E+00 -0.00000000000E+00 -0.34218409264E+03  0.34218409264E+03  0.00000000000E+00 0.  1.
         25    2    1    2    0    0  0.41198546339E+02 -0.46805455435E+02 -0.25492660275E+03  0.29072964201E+03  0.12509229022E+03 0.  0.
         23    2    1    2    0    0 -0.41198546339E+02  0.46805455435E+02 -0.15123146828E+02  0.12358879369E+03  0.10562863947E+03 0.  0.
          5    1    3    3  502    0  0.71036130824E+02 -0.38159114808E+02 -0.24482595769E+03  0.25779734654E+03  0.41800000000E+01 0.  1.
         -5    1    3    3    0  502 -0.29837584485E+02 -0.86463406273E+01 -0.10100645069E+02  0.32932295471E+02  0.41800000000E+01 0.  1.
        -11    1    4    4    0    0  0.17204597464E+01 -0.30481589394E+02 -0.17428269332E+02  0.35154400089E+02  0.00000000000E+00 0.  1.
         11    1    4    4    0    0 -0.42919006085E+02  0.77287044830E+02  0.23051225030E+01  0.88434393601E+02  0.00000000000E+00 0. -1.
</event>
<event>
 8    1  0.4205030E-010  0.1322313E+03  0.7561462E-02  0.1224182E+00
          2   -1    0    0  501    0  0.00000000000E+00  0.00000000000E+00  0.10158478722E+04  0.10158478722E+04  0.00000000000E+00 0. -1.
         -2   -1    0    0    0  501 -0.00000000000E+00 -0.00000000000E+00 -0.21354068814E+02  0.21354068814E+02  0.00000000000E+00 0.  1.
         25    2    1    2    0    0 -0.49566182170E+02 -0.74457806143E+02  0.47636937162E+03  0.50057563513E+03  0.12508963567E+03 0.  0.
         23    2    1    2    0    0  0.49566182170E+02  0.74457806143E+02  0.51812443177E+03  0.53662630590E+03  0.10730374677E+03 0.  0.
          5    1    3    3  502    0 -0.76344588821E+02 -0.55861008441E+02  0.44560600374E+03  0.45555584891E+03  0.41800000000E+01 0.  1.
         -5    1    3    3    0  502  0.26778406651E+02 -0.18596797702E+02  0.30763367878E+02  0.45019786214E+02  0.41800000000E+01 0.  1.
        -11    1    4    4    0    0 -0.20622528221E+01  0.84315648904E+02  0.36880938588E+03  0.37833020584E+03  0.00000000000E+00 0.  1.
         11    1    4    4    0    0  0.51628434992E+02 -0.98578427612E+01  0.14931504589E+03  0.15829610006E+03  0.00000000000E+00 0. -1.
</event>
<event>
 8    1  0.4205029E-010  0.9882283E+02  0.7561462E-02  0.1282791E+00
         -1   -1    0    0    0  501 -0.00000000000E+00  0.00000000000E+00  0.40290953021E+02  0.40290953021E+02  0.00000000000E+00 0.  1.
          1   -1    0    0  501    0  0.00000000000E+00 -0.00000000000E+00 -0.35007459240E+03  0.35007459240E+03  0.00000000000E+00 0. -1.
         25    2    1    2    0    0 -0.32642885629E+02 -0.39055262721E+01 -0.26919369090E+03  0.29864833965E+03  0.12507908072E+03 0.  0.
         23    2    1    2    0    0  0.32642885629E+02  0.39055262721E+01 -0.40589948477E+02  0.91717205776E+02  0.75390256667E+02 0.  0.
          5    1    3    3  502    0 -0.56640109252E+02  0.37419649673E+02 -0.88041661072E+02  0.11125258937E+03  0.41800000000E+01 0. -1.
         -5    1    3    3    0  502  0.23997223623E+02 -0.41325175945E+02 -0.18115202983E+03  0.18739575027E+03  0.41800000000E+01 0. -1.
        -11    1    4    4    0    0  0.44707702436E+02  0.29364972114E+02 -0.21306735023E+02  0.57576533429E+02  0.00000000000E+00 0. -1.
         11    1    4    4    0    0 -0.12064816807E+02 -0.25459445842E+02 -0.19283213454E+02  0.34140672347E+02  0.00000000000E+00 0.  1.
</event>
<event>
 7    1  0.4205029E-010  0.1010412E+03  0.7561462E-02  0.1278122E+00
         -3   -1    0    0    0  501 -0.00000000000E+00  0.00000000000E+00  0.94713396404E+02  0.94713396404E+02  0.00000000000E+00 0.  1.
          3   -1    0    0  501    0  0.00000000000E+00 -0.00000000000E+00 -0.20487216411E+03  0.20487216411E+03  0.00000000000E+00 0. -1.
         25    2    1    2    0    0  0.13636207234E+02 -0.43241995540E+02 -0.35525708642E+02  0.13770178992E+03  0.12507553976E+03 0.  0.
          5    1    3    3  502    0 -0.47691057214E+01 -0.50790379957E+02 -0.76452601536E+02  0.92004781111E+02  0.41800000000E+01 0.  1.
         -5    1    3    3    0  502  0.18405312956E+02  0.75483844177E+01  0.40926892893E+02  0.45697008810E+02  0.41800000000E+01 0.  1.
        -11    1    1    2    0    0 -0.90546268564E+01  0.86549073968E+02 -0.79747709981E+02  0.11803569680E+03  0.00000000000E+00 0. -1.
         11    1    1    2    0    0 -0.45815803777E+01 -0.43307078429E+02  0.51146509207E+01  0.43848073787E+02  0.00000000000E+00 0.  1.
</event>
<event>
 8    1  0.4205029E-010  0.1365227E+03  0.7561462E-02  0.1218086E+00
          2   -1    0    0  501    0  0.00000000000E+00  0.00000000000E+00  0.12209709554E+03  0.12209709554E+03  0.00000000000E+00 0.  1.
         -2   -1    0    0    0  501 -0.00000000000E+00 -0.00000000000E+00 -0.19314145831E+03  0.19314145831E+03  0.00000000000E+00 0. -1.
         25    2    1    2    0    0 -0.59751037390E+02  0.90335295338E+02 -0.79439829114E-01  0.16546346017E+03  0.12508996078E+03 0.  0.
         23    2    1    2    0    0  0.59751037390E+02 -0.90335295338E+02 -0.70964922947E+02  0.14977509368E+03  0.75272214956E+02 0.  0.
          5    1    3    3  502    0  0.12506259629E+02 -0.20360852206E+02  0.20316576886E+02  0.31641847746E+02  0.41800000000E+01 0.  1.
         -5    1    3    3    0  502 -0.72257297018E+02  0.11069614754E+03 -0.20396016715E+02  0.13382161242E+03  0.41800000000E+01 0.  1.
        -11    1    4    4    0    0  0.37567072671E+02 -0.19550463707E+02  0.61263018560E+01  0.42790619938E+02  0.00000000000E+00 0.  1.
         11    1    4    4    0    0  0.22183964718E+02 -0.70784831631E+02 -0.77091224804E+02  0.10698447374E+03  0.00000000000E+00 0. -1.
</event>
<event>
 7    1  0.4205029E-010  0.8040488E+02  0.7561462E-02  0.1327906E+00
         -2   -1    0    0    0  501 -0.00000000000E+00  0.00000000000E+00  0.42971189545E+02  0.42971189545E+02  0.00000000000E+00 0.  1.
          2   -1    0    0  501    0  0.00000000000E+00 -0.00000000000E+00 -0.21316993669E+03  0.21316993669E+03  0.00000000000E+00 0. -1.
         25    2    1    2    0    0 -0.23441709945E+02 -0.19321868782E+02 -0.70069304817E+02  0.14655738690E+03  0.12508601760E+03 0.  0.
          5    1    3    3  502    0 -0.46792979662E+02 -0.59869224847E+02 -0.63517949962E+02  0.99125725202E+02  0.41800000000E+01 0.  1.
         -5    1    3    3    0  502  0.23351269716E+02  0.40547356065E+02 -0.65513548541E+01  0.47431661701E+02  0.41800000000E+01 0.  1.
        -11    1    1    2    0    0  0.12971923346E+02 -0.27879589414E+01 -0.11239044334E+02  0.17388491248E+02  0.00000000000E+00 0.  1.
         11    1    1    2    0    0  0.10469786599E+02  0.22109827723E+02 -0.88890397997E+02  0.92195248085E+02  0.00000000000E+00 0. -1.
</event>
<event>
 8    1  0.4205029E-010  0.6224549E+02  0.7561462E-02  0.1388643E+00
          1   -1    0    0  501    0  0.00000000000E+00  0.00000000000E+00  0.50389565786E+03  0.50389565786E+03  0.00000000000E+00 0. -1.
         -1   -1    0    0    0  501 -0.00000000000E+00 -0.00000000000E+00 -0.23468144493E+02  0.23468144493E+02  0.00000000000E+00 0.  1.
         25    2    1    2    0    0 -0.27306803397E+02  0.34408585740E+02  0.36722128072E+03  0.39042236573E+03  0.12509413400E+03 0.  0.
         23    2    1    2    0    0  0.27306803397E+02 -0.34408585740E+02  0.11320623264E+03  0.13694143662E+03  0.63306347791E+02 0.  0.
          5    1    3    3  502    0 -0.21656440549E+02 -0.17462712496E+02  0.10730780901E+02  0.30109297629E+02  0.41800000000E+01 0.  1.
         -5    1    3    3    0  502 -0.56503628485E+01  0.51871298236E+02  0.35649049982E+03  0.36031306810E+03  0.41800000000E+01 0.  1.
        -11    1    4    4    0    0  0.10916264891E+02 -0.11627373493E+02 -0.39830111458E+01  0.16438522784E+02  0.00000000000E+00 0.  1.
         11    1    4    4    0    0  0.16390538506E+02 -0.22781212247E+02  0.11718924379E+03  0.12050291384E+03  0.00000000000E+00 0. -1.
</event>
<event>
 8    1  0.4205029E-010  0.6963192E+02  0.7561462E-02  0.1361349E+00
         -1   -1    0    0    0  501 -0.00000000000E+00  0.00000000000E+00  0.58234701596E+03  0.58234701596E+03  0.00000000000E+00 0.  1.
          1   -1    0    0  501    0  0.00000000000E+00 -0.00000000000E+00 -0.22781499374E+02  0.22781499374E+02  0.00000000000E+00 0. -1.
         25    2    1    2    0    0  0.23723289669E+02  0.18902208948E+02  0.46346912278E+03  0.48101144581E+03  0.12509314630E+03 0.  0.
         23    2    1    2    0    0 -0.23723289669E+02 -0.18902208948E+02  0.96096393803E+02  0.12411706952E+03  0.72459934235E+02 0.  0.
          5    1    3    3  502    0  0.36424863601E+02  0.38658584255E+02  0.76038784321E+02  0.92847326003E+02  0.41800000000E+01 0.  1.
         -5    1    3    3    0  502 -0.12701573932E+02 -0.19756375307E+02  0.38743033846E+03  0.38816411981E+03  0.41800000000E+01 0.  1.
        -11    1    4    4    0    0  0.98061577690E+01 -0.26059178464E+02  0.82779846530E+02  0.87336959553E+02  0.00000000000E+00 0.  1.
         11    1    4    4    0    0 -0.33529447438E+02  0.71569695163E+01  0.13316547272E+02  0.36780109970E+02  0.00000000000E+00 0. -1.
</event>
<event>
 8    1  0.4205029E-010  0.1453753E+03  0.7561462E-02  0.1206274E+00
          2   -1    0    0  501    0  0.00000000000E+00  0.00000000000E+00  0.38827696290E+03  0.38827696290E+03  0.00000000000E+00 0. -1.
         -2   -1    0    0    0  501 -0.00000000000E+00 -0.00000000000E+00 -0.59298487017E+02  0.59298487017E+02  0.00000000000E+00 0.  1.
         25    2    1    2    0    0 -0.38429975263E+02 -0.79235171765E+02  0.21442913610E+03  0.26340439309E+03  0.12508774698E+03 0.  0.
         23    2    1    2    0    0  0.38429975263E+02  0.79235171765E+02  0.11454933978E+03  0.18417105683E+03  0.11420311504E+03 0.  0.
          5    1    3    3  502    0  0.21338574919E+02  0.21011340715E+02  0.18915666783E+02  0.35666315594E+02  0.41800000000E+01 0.  1.
         -5    1    3    3    0  502 -0.59768550183E+02 -0.10024651248E+03  0.19551346932E+03  0.22773807749E+03  0.41800000000E+01 0.  1.
        -11    1    4    4    0    0 -0.14823602129E+02 -0.23629687898E+02  0.28456687179E+02  0.39848266907E+02  0.00000000000E+00 0. -1.
         11    1    4    4    0    0  0.53253577393E+02  0.10286485966E+03  0.86092652599E+02  0.14432278992E+03  0.00000000000E+00 0.  1.
</event>
<event>
 8    1  0.4205029E-010  0.1783830E+03  0.7561462E-02  0.1169377E+00
         -2   -1    0    0    0  501 -0.00000000000E+00  0.00000000000E+00  0.35578565050E+02  0.35578565050E+02  0.00000000000E+00 0.  1.
          2   -1    0    0  501    0  0.00000000000E+00 -0.00000000000E+00 -0.16340704762E+04  0.16340704762E+04  0.00000000000E+00 0. -1.
         25    2    1    2    0    0  0.46913477117E+02  0.14831234796E+03 -0.13777290866E+04  0.13921142023E+04  0.12508832580E+03 0.  0.
         23    2    1    2    0    0 -0.46913477117E+02 -0.14831234796E+03 -0.22076282457E+03  0.27753483898E+03  0.63968236225E+02 0.  0.
          5    1    3    3  502    0  0.67720746274E+02  0.29315161641E+02 -0.67854454956E+03  0.68255817064E+03  0.41800000000E+01 0.  1.
         -5    1    3    3    0  502 -0.20807269157E+02  0.11899718632E+03 -0.69918453706E+03  0.70955603166E+03  0.41800000000E+01 0.  1.
        -11    1    4    4    0    0 -0.22079583717E+02 -0.12801715892E+03 -0.14181469264E+03  0.19232084662E+03  0.00000000000E+00 0. -1.
         11    1    4    4    0    0 -0.24833893400E+02 -0.20295189033E+02 -0.78948131929E+02  0.85213992362E+02  0.00000000000E+00 0.  1.
</event>
<event>
 8    1  0.4205029E-010  0.1157150E+03  0.7561462E-02  0.1250338E+00
         -1   -1    0    0    0  501 -0.00000000000E+00  0.00000000000E+00  0.22649032670E+02  0.22649032670E+02  0.00000000000E+00 0.  1.
          1   -1    0    0  501    0  0.00000000000E+00 -0.00000000000E+00 -0.73183720655E+03  0.73183720655E+03  0.00000000000E+00 0. -1.
         25    2    1    2    0    0  0.75379491705E+01  0.42414080937E+02 -0.44572858418E+03  0.46494875057E+03  0.12509034721E+03 0.  0.
         23    2    1    2    0    0 -0.75379491705E+01 -0.42414080937E+02 -0.26345958970E+03  0.28953748865E+03  0.11209472328E+03 0.  0.
          5    1    3    3  502    0  0.54879372140E+02  0.16916617093E+02 -0.10299243518E+03  0.11799504873E+03  0.41800000000E+01 0. -1.
         -5    1    3    3    0  502 -0.47341422969E+02  0.25497463844E+02 -0.34273614900E+03  0.34695370184E+03  0.41800000000E+01 0. -1.
        -11    1    4    4    0    0 -0.27416345976E+02  0.32437091050E+02 -0.86046389791E+02  0.95957293097E+02  0.00000000000E+00 0.  1.
         11    1    4    4    0    0  0.19878396805E+02 -0.74851171987E+02 -0.17741319991E+03  0.19358019555E+03  0.00000000000E+00 0. -1.
</event>
<event>
 8    1  0.4222646E-010  0.1568968E+03  0.7561462E-02  0.1192245E+00
         -1   -1    0    0    0  501 -0.00000000000E+00  0.00000000000E+00  0.23037531203E+02  0.23037531203E+02  0.00000000000E+00 0.  1.
          1   -1    0    0  501    0  0.00000000000E+00 -0.00000000000E+00 -0.15755496288E+04  0.15755496288E+04  0.00000000000E+00 0. -1.
         25    2    1    2    0    0 -0.87176247932E+02 -0.10794469003E+03 -0.10365612378E+04  0.10532609126E+04  0.12509035093E+03 0.  0.
         23    2    1    2    0    0  0.87176247932E+02  0.10794469003E+03 -0.51595085979E+03  0.54532624744E+03  0.10919556824E+03 0.  0.
          5    1    3    3  502    0 -0.11114674158E+03 -0.89612745498E+02 -0.65036685027E+03  0.66586676945E+03  0.41800000000E+01 0.  1.
         -5    1    3    3    0  502  0.23970493650E+02 -0.18331944531E+02 -0.38619438757E+03  0.38739414315E+03  0.41800000000E+01 0.  1.
        -11    1    4    4    0    0  0.57011409049E+02  0.53139139358E+02 -0.44037244456E+03  0.44721578552E+03  0.00000000000E+00 0. -1.
         11    1    4    4    0    0  0.30164838883E+02  0.54805550671E+02 -0.75578415227E+02  0.98110461916E+02  0.00000000000E+00 0.  1.
</event>
<event>
 8    1  0.4205029E-010  0.9935149E+02  0.7561462E-02  0.1281666E+00
          2   -1    0    0  501    0  0.00000000000E+00  0.00000000000E+00  0.77706155321E+03  0.77706155321E+03  0.00000000000E+00 0. -1.
         -2   -1    0    0    0  501 -0.00000000000E+00 -0.00000000000E+00 -0.33540014306E+02  0.33540014306E+02  0.00000000000E+00 0.  1.
         25    2    1    2    0    0  0.58250158774E+01 -0.42819334851E+02  0.59688283762E+03  0.61137908152E+03  0.12509129961E+03 0.  0.
         23    2    1    2    0    0 -0.58250158774E+01  0.42819334851E+02  0.14663870129E+03  0.19922248600E+03  0.12774687457E+03 0.  0.
          5    1    3    3  502    0  0.41201502487E+01 -0.54806496185E+02  0.59599598047E+03  0.59853939620E+03  0.41800000000E+01 0.  1.
         -5    1    3    3    0  502  0.17048656288E+01  0.11987161334E+02  0.88685714152E+00  0.12839685325E+02  0.41800000000E+01 0.  1.
        -11    1    4    4    0    0 -0.33680296548E+02  0.78551360261E+02  0.11771715286E+03  0.14547166958E+03  0.00000000000E+00 0. -1.
         11    1    4    4    0    0  0.27855280670E+02 -0.35732025410E+02  0.28921548435E+02  0.53750816412E+02  0.00000000000E+00 0.  1.
</event>
<event>
 8    1  0.4205029E-010  0.1563047E+03  0.7561462E-02  0.1192933E+00
         -2   -1    0    0    0  501 -0.00000000000E+00  0.00000000000E+00  0.18328823630E+03  0.18328823630E+03  0.00000000000E+00 0.  1.
          2   -1    0    0  501    0  0.00000000000E+00 -0.00000000000E+00 -0.13759565249E+03  0.13759565249E+03  0.00000000000E+00 0. -1.
         25    2    1    2    0    0  0.12622751962E+03  0.14272587246E+02  0.24763552903E+02  0.17999382516E+03  0.12508976812E+03 0.  0.
         23    2    1    2    0    0 -0.12622751962E+03 -0.14272587246E+02  0.20929030913E+02  0.14089006363E+03  0.57226674190E+02 0.  0.
          5    1    3    3  502    0  0.94436444050E+02 -0.47021767267E+02  0.32303007290E+02  0.11040944363E+03  0.41800000000E+01 0.  1.
         -5    1    3    3    0  502  0.31791075567E+02  0.61294354513E+02 -0.75394543878E+01  0.69584381533E+02  0.41800000000E+01 0.  1.
        -11    1    4    4    0    0 -0.78214225304E+02 -0.34840626601E+02  0.22855740208E+02  0.88621211695E+02  0.00000000000E+00 0.  1.
         11    1    4    4    0    0 -0.48013294312E+02  0.20568039355E+02 -0.19267092948E+01  0.52268851932E+02  0.00000000000E+00 0. -1.
</event>
<event>
 8    1  0.4205029E-010  0.2025008E+03  0.7561462E-02  0.1147646E+00
         -1   -1    0    0    0  501 -0.00000000000E+00  0.00000000000E+00  0.19634545331E+03  0.19634545331E+03  0.00000000000E+00 0.  1.
          1   -1    0    0  501    0  0.00000000000E+00 -0.00000000000E+00 -0.24763176389E+03  0.24763176389E+03  0.00000000000E+00 0. -1.
         25    2    1    2    0    0 -0.16333984075E+03  0.10447050857E+03  0.57190598475E+01  0.23081281322E+03  0.12509139205E+03 0.  0.
         23    2    1    2    0    0  0.16333984075E+03 -0.10447050857E+03 -0.57005370427E+02  0.21316440397E+03  0.67789823181E+02 0.  0.
          5    1    3    3  502    0 -0.14652896716E+03  0.53764310772E+02  0.47126810274E+02  0.16309429167E+03  0.41800000000E+01 0. -1.
         -5    1    3    3    0  502 -0.16810873592E+02  0.50706197797E+02 -0.41407750427E+02  0.67718521553E+02  0.41800000000E+01 0. -1.
        -11    1    4    4    0    0  0.15132037059E+02 -0.23893635001E+01  0.12974586290E+02  0.20075544648E+02  0.00000000000E+00 0.  1.
         11    1    4    4    0    0  0.14820780369E+03 -0.10208114507E+03 -0.69979956717E+02  0.19308885932E+03  0.00000000000E+00 0. -1.
</event>
<event>
 8    1  0.4205029E-010  0.9208478E+02  0.7561462E-02  0.1297880E+00
          2   -1    0    0  501    0  0.00000000000E+00  0.00000000000E+00  0.37677856366E+03  0.37677856366E+03  0.00000000000E+00 0. -1.
         -2   -1    0    0    0  501 -0.00000000000E+00 -0.00000000000E+00 -0.58656159992E+02  0.58656159992E+02  0.00000000000E+00 0.  1.
         25    2    1    2    0    0 -0.32659056155E+01  0.70299669856E+02  0.25485348597E+03  0.29249280274E+03  0.12509608556E+03 0.  0.
         23    2    1    2    0    0  0.32659056155E+01 -0.70299669856E+02  0.63268917699E+02  0.14294192091E+03  0.10712948747E+03 0.  0.
          5    1    3    3  502    0  0.19214815915E+02  0.48129267166E+02  0.25540055818E+03  0.26063874045E+03  0.41800000000E+01 0.  1.
         -5    1    3    3    0  502 -0.22480721531E+02  0.22170402690E+02 -0.54707220799E+00  0.31854062284E+02  0.41800000000E+01 0.  1.
        -11    1    4    4    0    0  0.34047056063E+02 -0.15354901741E+02  0.70265340708E+02  0.79575078629E+02  0.00000000000E+00 0. -1.
         11    1    4    4    0    0 -0.30781150447E+02 -0.54944768115E+02 -0.69964230098E+01  0.63366842284E+02  0.00000000000E+00 0.  1.
</event>
<event>
 8    1  0.4205029E-010  0.1444160E+03  0.7561462E-02  0.1207507E+00
         -2   -1    0    0    0  501 -0.00000000000E+00  0.00000000000E+00  0.31185509998E+03  0.31185509998E+03  0.00000000000E+00 0.  1.
          2   -1    0    0  501    0  0.00000000000E+00 -0.00000000000E+00 -0.13517735919E+03  0.13517735919E+03  0.00000000000E+00 0. -1.
         25    2    1    2    0    0 -0.55695575285E+02 -0.11800862242E+03 -0.27558707238E+02  0.18284909368E+03  0.12508507763E+03 0.  0.
         23    2    1    2    0    0  0.55695575285E+02  0.11800862242E+03  0.20423644803E+03  0.26418336549E+03  0.10512988075E+03 0.  0.
          5    1    3    3  502    0 -0.21978142906E+02  0.31579627902E+01 -0.50143417824E+02  0.54998602215E+02  0.41800000000E+01 0. -1.
         -5    1    3    3    0  502 -0.33717432380E+02 -0.12116658521E+03  0.22584710586E+02  0.12785049147E+03  0.41800000000E+01 0. -1.
        -11    1    4    4    0    0 -0.98932030701E+01  0.22030523101E+02 -0.51486306643E+01  0.24692667187E+02  0.00000000000E+00 0. -1.
         11    1    4    4    0    0  0.65588778355E+02  0.95978099315E+02  0.20938507869E+03  0.23949069830E+03  0.00000000000E+00 0.  1.
</event>
<event>
 7    1  0.4205029E-010  0.9671568E+02  0.7561462E-02  0.1287358E+00
          1   -1    0    0  501    0  0.00000000000E+00  0.00000000000E+00  0.28149449958E+02  0.28149449958E+02  0.00000000000E+00 0. -1.
         -1   -1    0    0    0  501 -0.00000000000E+00 -0.00000000000E+00 -0.41110394068E+03  0.41110394068E+03  0.00000000000E+00 0.  1.
         25    2    1    2    0    0  0.99041583852E+01 -0.51534675741E+02 -0.19129897102E+03  0.23451626883E+03  0.12509463968E+03 0.  0.
          5    1    3    3  502    0  0.64350378493E+02 -0.48983875633E+02 -0.11556379997E+03  0.14111291772E+03  0.41800000000E+01 0.  1.
         -5    1    3    3    0  502 -0.54446220107E+02 -0.25508001084E+01 -0.75735171042E+02  0.93403351107E+02  0.41800000000E+01 0.  1.
        -11    1    1    2    0    0  0.15704355184E+01  0.44065143049E+02 -0.18366660028E+03  0.18888521159E+03  0.00000000000E+00 0.  1.
         11    1    1    2    0    0 -0.11474593904E+02  0.74695326922E+01 -0.79889194248E+01  0.15851910215E+02  0.00000000000E+00 0. -1.
</event>
<event>
 7    1  0.4205029E-010  0.8839871E+02  0.7561462E-02  0.1306776E+00
          2   -1    0    0  501    0  0.00000000000E+00  0.00000000000E+00  0.38960743205E+03  0.38960743205E+03  0.00000000000E+00 0. -1.
         -2   -1    0    0    0  501 -0.00000000000E+00 -0.00000000000E+00 -0.29425531943E+02  0.29425531943E+02  0.00000000000E+00 0.  1.
         25    2    1    2    0    0  0.34365686674E+02  0.23431936049E+02  0.30592206159E+03  0.33311489942E+03  0.12508865814E+03 0.  0.
          5    1    3    3  502    0  0.58507761061E+02  0.54604773389E+02  0.12948973444E+03  0.15228231383E+03  0.41800000000E+01 0.  1.
         -5    1    3    3    0  502 -0.24142074387E+02 -0.31172837340E+02  0.17643232715E+03  0.18083258558E+03  0.41800000000E+01 0.  1.
        -11    1    1    2    0    0 -0.85959974850E+01  0.11025910941E+02 -0.29943183574E+01  0.14297825963E+02  0.00000000000E+00 0.  1.
         11    1    1    2    0    0 -0.25769689189E+02 -0.34457846990E+02  0.57254156867E+02  0.71620238610E+02  0.00000000000E+00 0. -1.
</event>
<event>
 8    1  0.4205029E-010  0.9509548E+02  0.7561462E-02  0.1290961E+00
          2   -1    0    0  501    0  0.00000000000E+00  0.00000000000E+00  0.71678404736E+02  0.71678404736E+02  0.00000000000E+00 0. -1.
         -2   -1    0    0    0  501 -0.00000000000E+00 -0.00000000000E+00 -0.17814825453E+03  0.17814825453E+03  0.00000000000E+00 0.  1.
         25    2    1    2    0    0  0.18838745725E+02 -0.44329845074E+02 -0.64338571831E+02  0.14868669140E+03  0.12509295292E+03 0.  0.
         23    2    1    2    0    0 -0.18838745725E+02  0.44329845074E+02 -0.42131277958E+02  0.10113996786E+03  0.78321229638E+02 0.  0.
          5    1    3    3  502    0  0.69629709189E+02 -0.92190345230E+01 -0.46285560609E+02  0.84220618141E+02  0.41800000000E+01 0.  1.
         -5    1    3    3    0  502 -0.50790963463E+02 -0.35110810551E+02 -0.18053011222E+02  0.64466073258E+02  0.41800000000E+01 0.  1.
        -11    1    4    4    0    0 -0.26922889544E+02  0.24010494383E+02  0.15677175279E+02  0.39333441836E+02  0.00000000000E+00 0. -1.
         11    1    4    4    0    0  0.80841438186E+01  0.20319350691E+02 -0.57808453237E+02  0.61806526026E+02  0.00000000000E+00 0.  1.
</event>
<event>
 8    1  0.4205029E-010  0.1179266E+03  0.7561462E-02  0.1246557E+00
          2   -1    0    0  501    0  0.00000000000E+00  0.00000000000E+00  0.20038174763E+03  0.20038174763E+03  0.00000000000E+00 0. -1.
         -2   -1    0    0    0  501 -0.00000000000E+00 -0.00000000000E+00 -0.11211138296E+03  0.11211138296E+03  0.00000000000E+00 0.  1.
         25    2    1    2    0    0 -0.10721873273E+03  0.16428926017E+02  0.65008770002E+02  0.17787393376E+03  0.12508888789E+03 0.  0.
         23    2    1    2    0    0  0.10721873273E+03 -0.16428926017E+02  0.23261594664E+02  0.13461919683E+03  0.76259164100E+02 0.  0.
          5    1    3    3  502    0 -0.67121067944E+02 -0.10169670973E+02  0.98066935293E+02  0.11934511371E+03  0.41800000000E+01 0.  1.
         -5    1    3    3    0  502 -0.40097664790E+02  0.26598596990E+02 -0.33058165291E+02  0.58528820045E+02  0.41800000000E+01 0.  1.
        -11    1    4    4    0    0  0.50307529532E+02  0.17519873920E+02 -0.18381700113E+02  0.56353175676E+02  0.00000000000E+00 0.  1.
         11    1    4    4    0    0  0.56911203202E+02 -0.33948799937E+02  0.41643294777E+02  0.78266021152E+02  0.00000000000E+00 0. -1.
</event>
<event>
 8    1  0.4205029E-010  0.1341572E+03  0.7561462E-02  0.1221414E+00
          2   -1    0    0  501    0  0.00000000000E+00  0.00000000000E+00  0.27912585645E+03  0.27912585645E+03  0.00000000000E+00 0. -1.
         -2   -1    0    0    0  501 -0.00000000000E+00 -0.00000000000E+00 -0.75128552303E+02  0.75128552303E+02  0.00000000000E+00 0.  1.
         25    2    1    2    0    0  0.47076184569E+02 -0.56021868026E+02  0.98339987270E+02  0.17513574981E+03  0.12508861225E+03 0.  0.
         23    2    1    2    0    0 -0.47076184569E+02  0.56021868026E+02  0.10565731688E+03  0.17911865894E+03  0.12476140637E+03 0.  0.
          5    1    3    3  502    0 -0.31023980449E+02 -0.58501928625E+02  0.50917615990E+02  0.83636349955E+02  0.41800000000E+01 0. -1.
         -5    1    3    3    0  502  0.78100165019E+02  0.24800605986E+01  0.47422371280E+02  0.91499399858E+02  0.41800000000E+01 0. -1.
        -11    1    4    4    0    0 -0.98503553936E+01 -0.29145323155E+02  0.75295323402E+02  0.81337968314E+02  0.00000000000E+00 0. -1.
         11    1    4    4    0    0 -0.37225829176E+02  0.85167191181E+02  0.30361993475E+02  0.97780690626E+02  0.00000000000E+00 0.  1.
</event>
<event>
 7    1  0.4205029E-010  0.1289727E+03  0.7561462E-02  0.1228988E+00
          1   -1    0    0  501    0  0.00000000000E+00  0.00000000000E+00  0.63052181782E+03  0.63052181782E+03  0.00000000000E+00 0. -1.
         -1   -1    0    0    0  501 -0.00000000000E+00 -0.00000000000E+00 -0.38214354267E+02  0.38214354267E+02  0.00000000000E+00 0.  1.
         25    2    1    2    0    0 -0.58676605679E+02  0.13086580267E+02  0.18271770621E+03  0.22945074917E+03  0.12509070107E+03 0.  0.
          5    1    3    3  502    0 -0.76774255698E+02 -0.14530090407E+02  0.50549425012E+02  0.93156463190E+02  0.41800000000E+01 0.  1.
         -5    1    3    3    0  502  0.18097650018E+02  0.27616670674E+02  0.13216828119E+03  0.13629428597E+03  0.41800000000E+01 0.  1.
        -11    1    1    2    0    0  0.98375101053E+02 -0.30600465294E+02  0.19700144775E+03  0.22231423571E+03  0.00000000000E+00 0.  1.
         11    1    1    2    0    0 -0.39698495373E+02  0.17513885026E+02  0.21258830960E+03  0.21697118721E+03  0.00000000000E+00 0. -1.
</event>
<event>
 8    1  0.4205029E-010  0.1236808E+03  0.7561462E-02  0.1237145E+00
         -2   -1    0    0    0  501 -0.00000000000E+00  0.00000000000E+00  0.12005394008E+03  0.12005394008E+03  0.00000000000E+00 0.  1.
          2   -1    0    0  501    0  0.00000000000E+00 -0.00000000000E+00 -0.17569573893E+03  0.17569573893E+03  0.00000000000E+00 0. -1.
         25    2    1    2    0    0  0.45890893909E+02  0.39311561856E+02 -0.94266069309E+02  0.16788338342E+03  0.12508943028E+03 0.  0.
         23    2    1    2    0    0 -0.45890893909E+02 -0.39311561856E+02  0.38624270459E+02  0.12786629559E+03  0.10586114604E+03 0.  0.
          5    1    3    3  502    0  0.69963054436E+02 -0.21356104656E+02 -0.54802596199E+02  0.91497044445E+02  0.41800000000E+01 0.  1.
         -5    1    3    3    0  502 -0.24072160527E+02  0.60667666512E+02 -0.39463473110E+02  0.76386338977E+02  0.41800000000E+01 0.  1.
        -11    1    4    4    0    0 -0.68831266284E+02 -0.71734574641E+01 -0.45565329376E+01  0.69353901856E+02  0.00000000000E+00 0. -1.
         11    1    4    4    0    0  0.22940372375E+02 -0.32138104392E+02  0.43180803397E+02  0.58512393735E+02  0.00000000000E+00 0.  1.
</event>
<event>
 8    1  0.4205029E-010  0.1653128E+03  0.7561462E-02  0.1182826E+00
         -1   -1    0    0    0  501 -0.00000000000E+00  0.00000000000E+00  0.10799210277E+03  0.10799210277E+03  0.00000000000E+00 0.  1.
          1   -1    0    0  501    0  0.00000000000E+00 -0.00000000000E+00 -0.41674281563E+03  0.41674281563E+03  0.00000000000E+00 0. -1.
         25    2    1    2    0    0 -0.11835683101E+03 -0.33477175939E+02 -0.50991385936E+01  0.17550671109E+03  0.12509014217E+03 0.  0.
         23    2    1    2    0    0  0.11835683101E+03  0.33477175939E+02 -0.30365157426E+03  0.34922820730E+03  0.12094214099E+03 0.  0.
          5    1    3    3  502    0  0.11376196060E+02  0.19325562232E+02 -0.25145221926E+02  0.33950696283E+02  0.41800000000E+01 0.  1.
         -5    1    3    3    0  502 -0.12973302707E+03 -0.52802738171E+02  0.20046083333E+02  0.14155601481E+03  0.41800000000E+01 0.  1.
        -11    1    4    4    0    0  0.97520598035E+02  0.73799221522E+02 -0.25429909665E+03  0.28217835263E+03  0.00000000000E+00 0.  1.
         11    1    4    4    0    0  0.20836232978E+02 -0.40322045583E+02 -0.49352477612E+02  0.67049854669E+02  0.00000000000E+00 0. -1.
</event>
<event>
 8    1  0.4205029E-010  0.1448165E+03  0.7561462E-02  0.1206991E+00
          2   -1    0    0  501    0  0.00000000000E+00  0.00000000000E+00  0.36110915633E+03  0.36110915633E+03  0.00000000000E+00 0. -1.
         -2   -1    0    0    0  501 -0.00000000000E+00 -0.00000000000E+00 -0.13367842998E+03  0.13367842998E+03  0.00000000000E+00 0.  1.
         25    2    1    2    0    0  0.63685221261E+02 -0.80574981644E+02  0.27894578922E+03  0.32249899196E+03  0.12508681551E+03 0.  0.
         23    2    1    2    0    0 -0.63685221261E+02  0.80574981644E+02 -0.51515062872E+02  0.17228859436E+03  0.12837999442E+03 0.  0.
          5    1    3    3  502    0 -0.24890046272E+02 -0.32153838859E+02  0.16600102145E+03  0.17095963056E+03  0.41800000000E+01 0. -1.
         -5    1    3    3    0  502  0.88575267533E+02 -0.48421142785E+02  0.11294476777E+03  0.15153936140E+03  0.41800000000E+01 0. -1.
        -11    1    4    4    0    0 -0.30028933924E+02 -0.23634550482E+02 -0.49791149237E+02  0.62765335906E+02  0.00000000000E+00 0.  1.
         11    1    4    4    0    0 -0.33656287338E+02  0.10420953213E+03 -0.17239136355E+01  0.10952325845E+03  0.00000000000E+00 0. -1.
</event>
<event>
 7    1  0.4205029E-010  0.1244553E+03  0.7561462E-02  0.1235923E+00
         -1   -1    0    0    0  501 -0.00000000000E+00  0.00000000000E+00  0.24948863094E+02  0.24948863094E+02  0.00000000000E+00 0.  1.
          1   -1    0    0  501    0  0.00000000000E+00 -0.00000000000E+00 -0.91668479209E+03  0.91668479209E+03  0.00000000000E+00 0. -1.
         25    2    1    2    0    0 -0.10869453261E+03  0.30478211263E+02 -0.39130870839E+03  0.42604417281E+03  0.12509080360E+03 0.  0.
          5    1    3    3  502    0 -0.37775187306E+02 -0.15461191568E+02 -0.20804083024E+02  0.46003211749E+02  0.41800000000E+01 0.  1.
         -5    1    3    3    0  502 -0.70919345308E+02  0.45939402830E+02 -0.37050462536E+03  0.38004096107E+03  0.41800000000E+01 0.  1.
        -11    1    1    2    0    0  0.81598587543E+02  0.11810671328E+01 -0.30184757394E+03  0.31268463713E+03  0.00000000000E+00 0.  1.
         11    1    1    2    0    0  0.27095945071E+02 -0.31659278396E+02 -0.19857964667E+03  0.20290484523E+03  0.00000000000E+00 0. -1.
</event>
<event>
 8    1  0.4205029E-010  0.1330687E+03  0.7561462E-02  0.1222972E+00
         -2   -1    0    0    0  501 -0.00000000000E+00  0.00000000000E+00  0.15713696994E+03  0.15713696994E+03  0.00000000000E+00 0.  1.
          2   -1    0    0  501    0  0.00000000000E+00 -0.00000000000E+00 -0.17480684174E+03  0.17480684174E+03  0.00000000000E+00 0. -1.
         25    2    1    2    0    0 -0.39592707218E+02 -0.98952566773E+02  0.39084727134E+02  0.16892181573E+03  0.12509105083E+03 0.  0.
         23    2    1    2    0    0  0.39592707218E+02  0.98952566773E+02 -0.56754598936E+02  0.16302199595E+03  0.10952576741E+03 0.  0.
          5    1    3    3  502    0 -0.61277431702E+02 -0.57824038709E+01 -0.80204913857E+01  0.62210614148E+02  0.41800000000E+01 0. -1.
         -5    1    3    3    0  502  0.21684724484E+02 -0.93170162902E+02  0.47105218520E+02  0.10671120158E+03  0.41800000000E+01 0. -1.
        -11    1    4    4    0    0  0.41723217242E+02  0.86221029758E+02 -0.87463525642E+02  0.12971029700E+03  0.00000000000E+00 0. -1.
         11    1    4    4    0    0 -0.21305100238E+01  0.12731537015E+02  0.30708926706E+02  0.33311698953E+02  0.00000000000E+00 0.  1.
</event>
<event>
 8    1  0.4205029E-010  0.1340804E+03  0.7561462E-02  0.1221524E+00
         -2   -1    0    0    0  501 -0.00000000000E+00  0.00000000000E+00  0.33101763737E+02  0.33101763737E+02  0.00000000000E+00 0.  1.
          2   -1    0    0  501    0  0.00000000000E+00 -0.00000000000E+00 -0.68822148940E+03  0.68822148940E+03  0.00000000000E+00 0. -1.
         25    2    1    2    0    0  0.50129621907E+02  0.76893670550E+02 -0.27722725454E+03  0.31769195813E+03  0.12509042345E+03 0.  0.
         23    2    1    2    0    0 -0.50129621907E+02 -0.76893670550E+02 -0.37789247111E+03  0.40363129500E+03  0.10811978086E+03 0.  0.
          5    1    3    3  502    0 -0.24511640605E+02  0.28135136620E+02 -0.14556007697E+02  0.40271034229E+02  0.41800000000E+01 0. -1.
         -5    1    3    3    0  502  0.74641262512E+02  0.48758533929E+02 -0.26267124685E+03  0.27742092391E+03  0.41800000000E+01 0. -1.
        -11    1    4    4    0    0  0.27973723091E+02  0.47487545229E+01 -0.89777557351E+02  0.94154605076E+02  0.00000000000E+00 0. -1.
         11    1    4    4    0    0 -0.78103344998E+02 -0.81642425072E+02 -0.28811491376E+03  0.30947668992E+03  0.00000000000E+00 0.  1.
</event>
<event>
 8    1  0.4205029E-010  0.7223360E+02  0.7561462E-02  0.1352658E+00
         -2   -1    0    0    0  501 -0.00000000000E+00  0.00000000000E+00  0.11394070826E+02  0.11394070826E+02  0.00000000000E+00 0.  1.
          2   -1    0    0  501    0  0.00000000000E+00 -0.00000000000E+00 -0.12121737843E+04  0.12121737843E+04  0.00000000000E+00 0. -1.
         25    2    1    2    0    0 -0.47503212252E+02  0.21238570930E+01 -0.88713677080E+03  0.89717324635E+03  0.12508844037E+03 0.  0.
         23    2    1    2    0    0  0.47503212252E+02 -0.21238570930E+01 -0.31364294269E+03  0.32639460879E+03  0.76814576792E+02 0.  0.
          5    1    3    3  502    0  0.29467829182E+01 -0.10934767197E+01 -0.76373322568E+03  0.76375113200E+03  0.41800000000E+01 0.  1.
         -5    1    3    3    0  502 -0.50449995170E+02  0.32173338127E+01 -0.12340354512E+03  0.13342211435E+03  0.41800000000E+01 0.  1.
        -11    1    4    4    0    0  0.70166281486E+01  0.33717876909E+02 -0.91541544968E+02  0.97805842101E+02  0.00000000000E+00 0.  1.
         11    1    4    4    0    0  0.40486584103E+02 -0.35841734002E+02 -0.22210139772E+03  0.22858876669E+03  0.00000000000E+00 0. -1.
</event>
<event>
 8    1  0.4205029E-010  0.1926273E+03  0.7561462E-02  0.1156113E+00
         -2   -1    0    0    0  501 -0.00000000000E+00  0.00000000000E+00  0.37436952663E+02  0.37436952663E+02  0.00000000000E+00 0. -1.
          2   -1    0    0  501    0  0.00000000000E+00 -0.00000000000E+00 -0.10005028149E+04  0.10005028149E+04  0.00000000000E+00 0.  1.
         25    2    1    2    0    0  0.15062710394E+03 -0.27182761241E+02 -0.51757883392E+03  0.55404192967E+03  0.12508870277E+03 0.  0.
         23    2    1    2    0    0 -0.15062710394E+03  0.27182761241E+02 -0.44548702835E+03  0.48389783792E+03  0.11077453755E+03 0.  0.
          5    1    3    3  502    0  0.70475107448E+02  0.49144790961E+02 -0.20044609193E+03  0.21812395425E+03  0.41800000000E+01 0. -1.
         -5    1    3    3    0  502  0.80151996496E+02 -0.76327552201E+02 -0.31713274199E+03  0.33591797542E+03  0.41800000000E+01 0. -1.
        -11    1    4    4    0    0 -0.91378821606E+02  0.70222090760E+02 -0.28869641931E+03  0.31084860236E+03  0.00000000000E+00 0. -1.
         11    1    4    4    0    0 -0.59248282338E+02 -0.43039329519E+02 -0.15679060904E+03  0.17304923556E+03  0.00000000000E+00 0.  1.
</event>
<event>
 8    1  0.4205029E-010  0.1225046E+03  0.7561462E-02  0.1239022E+00
          2   -1    0    0  501    0  0.00000000000E+00  0.00000000000E+00  0.13717280049E+04  0.13717280049E+04  0.00000000000E+00 0. -1.
         -2   -1    0    0    0  501 -0.00000000000E+00 -0.00000000000E+00 -0.17126030204E+02  0.17126030204E+02  0.00000000000E+00 0.  1.
         25    2    1    2    0    0  0.72456308635E+02 -0.51043363497E+02  0.64268720111E+03  0.66071899490E+03  0.12508960838E+03 0.  0.
         23    2    1    2    0    0 -0.72456308635E+02  0.51043363497E+02  0.71191477355E+03  0.72813504017E+03  0.12450963943E+03 0.  0.
          5    1    3    3  502    0  0.62127228830E+02 -0.18334308465E+02  0.60903739638E+03  0.61248670354E+03  0.41800000000E+01 0. -1.
         -5    1    3    3    0  502  0.10329079805E+02 -0.32709055031E+02  0.33649804736E+02  0.48232291356E+02  0.41800000000E+01 0. -1.
        -11    1    4    4    0    0 -0.13967509189E+02 -0.37166418334E+02  0.10911526810E+03  0.11611449391E+03  0.00000000000E+00 0.  1.
         11    1    4    4    0    0 -0.58488799446E+02  0.88209781830E+02  0.60279950545E+03  0.61202054626E+03  0.00000000000E+00 0. -1.
</event>
<event>
 8    1  0.4205029E-010  0.8530450E+02  0.7561462E-02  0.1314638E+00
         -1   -1    0    0    0  501 -0.00000000000E+00  0.00000000000E+00  0.80586518837E+02  0.80586518837E+02  0.00000000000E+00 0.  1.
          1   -1    0    0  501    0  0.00000000000E+00 -0.00000000000E+00 -0.15509074410E+03  0.15509074410E+03  0.00000000000E+00 0. -1.
         25    2    1    2    0    0 -0.49184734090E+02  0.11187042041E+02 -0.36685637943E+02  0.13977809599E+03  0.12509113521E+03 0.  0.
         23    2    1    2    0    0  0.49184734090E+02 -0.11187042041E+02 -0.37818587320E+02  0.95899166950E+02  0.72264214503E+02 0.  0.
          5    1    3    3  502    0  0.29717404163E+02 -0.75504496342E+01  0.23370619023E+02  0.38778752345E+02  0.41800000000E+01 0.  1.
         -5    1    3    3    0  502 -0.78902138253E+02  0.18737491675E+02 -0.60056256966E+02  0.10099934364E+03  0.41800000000E+01 0.  1.
        -11    1    4    4    0    0  0.17203448865E+02  0.10187057563E+02  0.18803799299E+02  0.27446632995E+02  0.00000000000E+00 0.  1.
         11    1    4    4    0    0  0.31981285225E+02 -0.21374099604E+02 -0.56622386619E+02  0.68452533956E+02  0.00000000000E+00 0. -1.
</event>
<event>
 8    1  0.4205029E-010  0.2616805E+03  0.7561462E-02  0.1106138E+00
          2   -1    0    0  501    0  0.00000000000E+00  0.00000000000E+00  0.48352943488E+03  0.48352943488E+03  0.00000000000E+00 0. -1.
         -2   -1    0    0    0  501 -0.00000000000E+00 -0.00000000000E+00 -0.16122946967E+03  0.16122946967E+03  0.00000000000E+00 0.  1.
         25    2    1    2    0    0 -0.23660533089E+03  0.46012030935E+02  0.72175323031E+02  0.28099158740E+03  0.12509118808E+03 0.  0.
         23    2    1    2    0    0  0.23660533089E+03 -0.46012030935E+02  0.25012464218E+03  0.36376731715E+03  0.10800525359E+03 0.  0.
          5    1    3    3  502    0 -0.12520548004E+03  0.87181152428E+02  0.36763826730E+02  0.15699049948E+03  0.41800000000E+01 0.  1.
         -5    1    3    3    0  502 -0.11139985086E+03 -0.41169121493E+02  0.35411496301E+02  0.12400108792E+03  0.41800000000E+01 0.  1.
        -11    1    4    4    0    0  0.20922044348E+03 -0.64406334619E+02  0.17015905429E+03  0.27726426684E+03  0.00000000000E+00 0.  1.
         11    1    4    4    0    0  0.27384887415E+02  0.18394303684E+02  0.79965587892E+02  0.86503050314E+02  0.00000000000E+00 0. -1.
</event>
<event>
 8    1  0.4620953E-010  0.8012772E+02  0.7561462E-02  0.1328689E+00
         -2   -1    0    0    0  501 -0.00000000000E+00  0.00000000000E+00  0.15433689103E+03  0.15433689103E+03  0.00000000000E+00 0.  1.
          2   -1    0    0  501    0  0.00000000000E+00 -0.00000000000E+00 -0.98718621771E+02  0.98718621771E+02  0.00000000000E+00 0. -1.
         25    2    1    2    0    0  0.40003640556E+02  0.37481329013E+01  0.53295732532E+02  0.14177964406E+03  0.12508674033E+03 0.  0.
         23    2    1    2    0    0 -0.40003640556E+02 -0.37481329013E+01  0.23225367258E+01  0.11127586874E+03  0.10374287941E+03 0.  0.
          5    1    3    3  502    0  0.47868438630E+02 -0.21669968838E+02 -0.25465885513E+02  0.58540231391E+02  0.41800000000E+01 0. -1.
         -5    1    3    3    0  502 -0.78647980742E+01  0.25418101739E+02  0.78761618045E+02  0.83239412672E+02  0.41800000000E+01 0. -1.
        -11    1    4    4    0    0 -0.21638237398E+02  0.33039129856E+02 -0.37191883027E+02  0.54249733478E+02  0.00000000000E+00 0.  1.
         11    1    4    4    0    0 -0.18365403158E+02 -0.36787262757E+02  0.39514419753E+02  0.57026135260E+02  0.00000000000E+00 0. -1.
</event>
<event>
 7    1  0.4205029E-010  0.1219918E+03  0.7561462E-02  0.1239847E+00
         -4   -1    0    0    0  501 -0.00000000000E+00  0.00000000000E+00  0.97722679190E+02  0.97722679190E+02  0.00000000000E+00 0.  1.
          4   -1    0    0  501    0  0.00000000000E+00 -0.00000000000E+00 -0.16265243006E+03  0.16265243006E+03  0.00000000000E+00 0. -1.
         25    2    1    2    0    0  0.31950304830E+02 -0.83684604816E+02 -0.22826057513E+02  0.15554051036E+03  0.12509151210E+03 0.  0.
          5    1    3    3  502    0  0.29653257438E+02 -0.11574278629E+03 -0.27816659921E+02  0.12274749375E+03  0.41800000000E+01 0. -1.
         -5    1    3    3    0  502  0.22970473923E+01  0.32058181470E+02  0.49906024086E+01  0.32793016608E+02  0.41800000000E+01 0. -1.
        -11    1    1    2    0    0 -0.79204112870E+01  0.50101404629E+02 -0.37914723150E+02  0.63327797154E+02  0.00000000000E+00 0.  1.
         11    1    1    2    0    0 -0.24029893543E+02  0.33583200187E+02 -0.41889702033E+01  0.41506801730E+02  0.00000000000E+00 0. -1.
</event>
<event>
 8    1  0.4205029E-010  0.9763915E+02  0.7561462E-02  0.1285340E+00
         -1   -1    0    0    0  501 -0.00000000000E+00  0.00000000000E+00  0.27864214432E+02  0.27864214432E+02  0.00000000000E+00 0.  1.
          1   -1    0    0  501    0  0.00000000000E+00 -0.00000000000E+00 -0.40145643477E+03  0.40145643477E+03  0.00000000000E+00 0. -1.
         25    2    1    2    0    0  0.40309456034E+02  0.24616467480E+02 -0.20590283499E+03  0.24550988714E+03  0.12509318331E+03 0.  0.
         23    2    1    2    0    0 -0.40309456034E+02 -0.24616467480E+02 -0.16768938535E+03  0.18381076206E+03  0.58616069253E+02 0.  0.
          5    1    3    3  502    0  0.71843696594E+02  0.53994210842E+02 -0.14812751422E+03  0.17330933158E+03  0.41800000000E+01 0.  1.
         -5    1    3    3    0  502 -0.31534240560E+02 -0.29377743363E+02 -0.57775320776E+02  0.72200555563E+02  0.41800000000E+01 0.  1.
        -11    1    4    4    0    0  0.67564374470E+01 -0.11179768943E+02 -0.51158478113E+01  0.14028848114E+02  0.00000000000E+00 0.  1.
         11    1    4    4    0    0 -0.47065893481E+02 -0.13436698537E+02 -0.16257353754E+03  0.16978191395E+03  0.00000000000E+00 0. -1.
</event>
<event>
 8    1  0.4205029E-010  0.1028059E+03  0.7561462E-02  0.1274504E+00
         -2   -1    0    0    0  501 -0.00000000000E+00  0.00000000000E+00  0.76783965630E+02  0.76783965630E+02  0.00000000000E+00 0. -1.
          2   -1    0    0  501    0  0.00000000000E+00 -0.00000000000E+00 -0.18783475156E+03  0.18783475156E+03  0.00000000000E+00 0.  1.
         25    2    1    2    0    0  0.30272012620E+02  0.29454558405E+02 -0.12352910170E+03  0.18081485866E+03  0.12510239160E+03 0.  0.
         23    2    1    2    0    0 -0.30272012620E+02 -0.29454558405E+02  0.12478315774E+02  0.83803858535E+02  0.71298054545E+02 0.  0.
          5    1    3    3  502    0 -0.73500580193E+01  0.73381733999E+02 -0.73942000577E+02  0.10451695598E+03  0.41800000000E+01 0. -1.
         -5    1    3    3    0  502  0.37622070639E+02 -0.43927175594E+02 -0.49587101127E+02  0.76297902678E+02  0.41800000000E+01 0. -1.
        -11    1    4    4    0    0 -0.41143378678E+02 -0.40870872809E+02 -0.73669157191E+01  0.58459193464E+02  0.00000000000E+00 0.  1.
         11    1    4    4    0    0  0.10871366058E+02  0.11416314405E+02  0.19845231493E+02  0.25344665071E+02  0.00000000000E+00 0. -1.
</event>
<event>
 8    1  0.4205029E-010  0.1332563E+03  0.7561462E-02  0.1222702E+00
          1   -1    0    0  501    0  0.00000000000E+00  0.00000000000E+00  0.34822760652E+03  0.34822760652E+03  0.00000000000E+00 0. -1.
         -1   -1    0    0    0  501 -0.00000000000E+00 -0.00000000000E+00 -0.57548903060E+02  0.57548903060E+02  0.00000000000E+00 0.  1.
         25    2    1    2    0    0 -0.49356113044E+02 -0.61709879463E+02  0.15905096504E+03  0.21723421001E+03  0.12509739165E+03 0.  0.
         23    2    1    2    0    0  0.49356113044E+02  0.61709879463E+02  0.13162773842E+03  0.18854229957E+03  0.10944497288E+03 0.  0.
          5    1    3    3  502    0 -0.80036789467E+02 -0.78666910213E+02  0.12726488880E+03  0.16972976978E+03  0.41800000000E+01 0. -1.
         -5    1    3    3    0  502  0.30680676423E+02  0.16957030749E+02  0.31786076248E+02  0.47504440223E+02  0.41800000000E+01 0. -1.
        -11    1    4    4    0    0  0.72333359376E+02  0.62959302941E+02  0.13467735565E+03  0.16532990906E+03  0.00000000000E+00 0. -1.
         11    1    4    4    0    0 -0.22977246332E+02 -0.12494234777E+01 -0.30496172325E+01  0.23212390513E+02  0.00000000000E+00 0.  1.
</event>
<event>
 7    1  0.4205029E-010  0.6866855E+02  0.7561462E-02  0.1364680E+00
         -1   -1    0    0    0  501 -0.00000000000E+00  0.00000000000E+00  0.12476534547E+02  0.12476534547E+02  0.00000000000E+00 0.  1.
          1   -1    0    0  501    0  0.00000000000E+00 -0.00000000000E+00 -0.75885134517E+03  0.75885134517E+03  0.00000000000E+00 0. -1.
         25    2    1    2    0    0 -0.65691618336E+01  0.38484405924E+02 -0.54486503165E+03  0.56040078419E+03  0.12508770052E+03 0.  0.
          5    1    3    3  502    0 -0.19062106200E+02 -0.12481851382E+02 -0.14284875577E+02  0.27215631114E+02  0.41800000000E+01 0. -1.
         -5    1    3    3    0  502  0.12492944366E+02  0.50966257307E+02 -0.53058015607E+03  0.53318515308E+03  0.41800000000E+01 0. -1.
        -11    1    1    2    0    0 -0.13974744116E+02  0.38321708309E+01 -0.34512210259E+02  0.37430891832E+02  0.00000000000E+00 0.  1.
         11    1    1    2    0    0  0.20543905950E+02 -0.42316576755E+02 -0.16699756871E+03  0.17349620369E+03  0.00000000000E+00 0. -1.
</event>
<event>
 8    1  0.4205029E-010  0.8729462E+02  0.7561462E-02  0.1309539E+00
         -1   -1    0    0    0  501 -0.00000000000E+00  0.00000000000E+00  0.43176419200E+02  0.43176419200E+02  0.00000000000E+00 0.  1.
          1   -1    0    0  501    0  0.00000000000E+00 -0.00000000000E+00 -0.29971292864E+03  0.29971292864E+03  0.00000000000E+00 0. -1.
         25    2    1    2    0    0 -0.70686566130E+00 -0.28536845480E+02 -0.21490491747E+03  0.25029724464E+03  0.12509890453E+03 0.  0.
         23    2    1    2    0    0  0.70686566130E+00  0.28536845480E+02 -0.41631591977E+02  0.92592103204E+02  0.77622528406E+02 0.  0.
          5    1    3    3  502    0 -0.25489273015E+02  0.30985759299E+02 -0.20125695054E+02  0.45081440966E+02  0.41800000000E+01 0.  1.
         -5    1    3    3    0  502  0.24782407354E+02 -0.59522604779E+02 -0.19477922241E+03  0.20521580367E+03  0.41800000000E+01 0.  1.
        -11    1    4    4    0    0  0.23949616524E+02 -0.89195985674E+01  0.74503838388E+01  0.26620510694E+02  0.00000000000E+00 0.  1.
         11    1    4    4    0    0 -0.23242750863E+02  0.37456444048E+02 -0.49081975816E+02  0.65971592511E+02  0.00000000000E+00 0. -1.
</event>
<event>
 8    1  0.4205029E-010  0.1294352E+03  0.7561462E-02  0.1228296E+00
         -1   -1    0    0    0  501 -0.00000000000E+00  0.00000000000E+00  0.37661928529E+02  0.37661928529E+02  0.00000000000E+00 0.  1.
          1   -1    0    0  501    0  0.00000000000E+00 -0.00000000000E+00 -0.47996984879E+03  0.47996984879E+03  0.00000000000E+00 0. -1.
         25    2    1    2    0    0 -0.36799638163E+02 -0.17716776543E+02 -0.16723040402E+03  0.21279436325E+03  0.12508930994E+03 0.  0.
         23    2    1    2    0    0  0.36799638163E+02  0.17716776543E+02 -0.27507751624E+03  0.30483741407E+03  0.12486036816E+03 0.  0.
          5    1    3    3  502    0 -0.43876192191E+01  0.53086111333E+02 -0.62630251096E+02  0.82325009391E+02  0.41800000000E+01 0. -1.
         -5    1    3    3    0  502 -0.32412018944E+02 -0.70802887876E+02 -0.10460015293E+03  0.13046935386E+03  0.41800000000E+01 0. -1.
        -11    1    4    4    0    0  0.67956712624E+02  0.48632662843E+02 -0.14264249550E+03  0.16531827548E+03  0.00000000000E+00 0.  1.
         11    1    4    4    0    0 -0.31157074461E+02 -0.30915886299E+02 -0.13243502074E+03  0.13951913859E+03  0.00000000000E+00 0. -1.
</event>
<event>
 8    1  0.4205029E-010  0.1236067E+03  0.7561462E-02  0.1237263E+00
         -2   -1    0    0    0  501 -0.00000000000E+00  0.00000000000E+00  0.18110245321E+02  0.18110245321E+02  0.00000000000E+00 0.  1.
          2   -1    0    0  501    0  0.00000000000E+00 -0.00000000000E+00 -0.88227084804E+03  0.88227084804E+03  0.00000000000E+00 0. -1.
         25    2    1    2    0    0 -0.16100529450E+02  0.28088074737E+02 -0.52945458244E+03  0.54499264982E+03  0.12508663598E+03 0.  0.
         23    2    1    2    0    0  0.16100529450E+02 -0.28088074737E+02 -0.33470602029E+03  0.35538844354E+03  0.11499851651E+03 0.  0.
          5    1    3    3  502    0  0.50722737534E+02 -0.97811379725E+01 -0.19093278368E+03  0.19784152002E+03  0.41800000000E+01 0. -1.
         -5    1    3    3    0  502 -0.66823266984E+02  0.37869212709E+02 -0.33852179876E+03  0.34715112979E+03  0.41800000000E+01 0. -1.
        -11    1    4    4    0    0 -0.30080487996E+02 -0.56667833401E+02 -0.20393132760E+03  0.21378509180E+03  0.00000000000E+00 0.  1.
         11    1    4    4    0    0  0.46181017446E+02  0.28579758664E+02 -0.13077469269E+03  0.14160335174E+03  0.00000000000E+00 0. -1.
</event>
<event>
 8    1  0.4205029E-010  0.1207544E+03  0.7561462E-02  0.1241858E+00
          1   -1    0    0  501    0  0.00000000000E+00  0.00000000000E+00  0.17227603247E+03  0.17227603247E+03  0.00000000000E+00 0. -1.
         -1   -1    0    0    0  501 -0.00000000000E+00 -0.00000000000E+00 -0.17410670963E+03  0.17410670963E+03  0.00000000000E+00 0.  1.
         25    2    1    2    0    0 -0.18171608871E+02  0.42116575282E+02 -0.11675402234E+03  0.17715343690E+03  0.12509126744E+03 0.  0.
         23    2    1    2    0    0  0.18171608871E+02 -0.42116575282E+02  0.11492334518E+03  0.16922930521E+03  0.11544335923E+03 0.  0.
          5    1    3    3  502    0 -0.35241622747E+02 -0.33390903503E+02 -0.18790915380E+02  0.52225427824E+02  0.41800000000E+01 0.  1.
         -5    1    3    3    0  502  0.17070013875E+02  0.75507478786E+02 -0.97963106959E+02  0.12492800907E+03  0.41800000000E+01 0.  1.
        -11    1    4    4    0    0  0.57333877046E+02 -0.49088149276E+02  0.10301642681E+03  0.12770749410E+03  0.00000000000E+00 0.  1.
         11    1    4    4    0    0 -0.39162268174E+02  0.69715739934E+01  0.11906918369E+02  0.41521811106E+02  0.00000000000E+00 0. -1.
</event>
<event>
 8    1  0.4205029E-010  0.1272887E+03  0.7561462E-02  0.1231535E+00
         -2   -1    0    0    0  501 -0.00000000000E+00  0.00000000000E+00  0.13698134085E+03  0.13698134085E+03  0.00000000000E+00 0.  1.
          2   -1    0    0  501    0  0.00000000000E+00 -0.00000000000E+00 -0.13062555828E+03  0.13062555828E+03  0.00000000000E+00 0. -1.
         25    2    1    2    0    0 -0.45658744430E+01  0.51416699108E+02  0.21026247711E+01  0.13533977253E+03  0.12509160180E+03 0.  0.
         23    2    1    2    0    0  0.45658744430E+01 -0.51416699108E+02  0.42531578026E+01  0.13226712660E+03  0.12170447515E+03 0.  0.
          5    1    3    3  502    0  0.47055613902E+02 -0.40937264318E+01 -0.26370316436E+02  0.54257307201E+02  0.41800000000E+01 0. -1.
         -5    1    3    3    0  502 -0.51621488345E+02  0.55510425540E+02  0.28472941208E+02  0.81082465328E+02  0.41800000000E+01 0. -1.
        -11    1    4    4    0    0  0.19838006874E+02  0.36749176381E+02  0.87764401209E+01  0.42674048116E+02  0.00000000000E+00 0.  1.
         11    1    4    4    0    0 -0.15272132431E+02 -0.88165875489E+02 -0.45232823182E+01  0.89593078487E+02  0.00000000000E+00 0. -1.
</event>
<event>
 8    1  0.4205029E-010  0.5559670E+02  0.7561462E-02  0.1417298E+00
         -1   -1    0    0    0  501 -0.00000000000E+00  0.00000000000E+00  0.14669529802E+02  0.14669529802E+02  0.00000000000E+00 0. -1.
          1   -1    0    0  501    0  0.00000000000E+00 -0.00000000000E+00 -0.91891305895E+03  0.91891305895E+03  0.00000000000E+00 0.  1.
         25    2    1    2    0    0  0.11332234955E+02  0.21262819972E+02 -0.75157091299E+03  0.76229076764E+03  0.12509136707E+03 0.  0.
         23    2    1    2    0    0 -0.11332234955E+02 -0.21262819972E+02 -0.15267261617E+03  0.17129182112E+03  0.73833821468E+02 0.  0.
          5    1    3    3  502    0  0.72770761927E+01  0.38148608775E+02 -0.73995235515E+03  0.74098261281E+03  0.41800000000E+01 0.  1.
         -5    1    3    3    0  502  0.40551587626E+01 -0.16885788803E+02 -0.11618557834E+02  0.21308154829E+02  0.41800000000E+01 0.  1.
        -11    1    4    4    0    0 -0.24607135514E+02 -0.29678619414E+02 -0.15057799992E+03  0.15543508494E+03  0.00000000000E+00 0.  1.
         11    1    4    4    0    0  0.13274900559E+02  0.84157994419E+01 -0.20946162427E+01  0.15856736180E+02  0.00000000000E+00 0. -1.
</event>
<event>
 8    1  0.4205029E-010  0.1305646E+03  0.7561462E-02  0.1226620E+00
         -2   -1    0    0    0  501 -0.00000000000E+00  0.00000000000E+00  0.23723333458E+02  0.23723333458E+02  0.00000000000E+00 0. -1.
          2   -1    0    0  501    0  0.00000000000E+00 -0.00000000000E+00 -0.10526109160E+04  0.10526109160E+04  0.00000000000E+00 0.  1.
         25    2    1    2    0    0 -0.28316923225E+02 -0.57701628592E+02 -0.80185714291E+03  0.81409687337E+03  0.12509002957E+03 0.  0.
         23    2    1    2    0    0  0.28316923225E+02  0.57701628592E+02 -0.22703043964E+03  0.26223737610E+03  0.11443030551E+03 0.  0.
          5    1    3    3  502    0 -0.51130168344E+02  0.22882706669E+02 -0.28525537220E+03  0.29073357589E+03  0.41800000000E+01 0. -1.
         -5    1    3    3    0  502  0.22813245118E+02 -0.80584335261E+02 -0.51660177071E+03  0.52336329748E+03  0.41800000000E+01 0. -1.
        -11    1    4    4    0    0 -0.37488934311E+02  0.35555831912E+02 -0.49254872820E+02  0.71384030954E+02  0.00000000000E+00 0. -1.
         11    1    4    4    0    0  0.65805857536E+02  0.22145796681E+02 -0.17777556682E+03  0.19085334515E+03  0.00000000000E+00 0.  1.
</event>
<event>
 8    1  0.4205029E-010  0.1216225E+03  0.7561462E-02  0.1240444E+00
          2   -1    0    0  501    0  0.00000000000E+00  0.00000000000E+00  0.11218272355E+03  0.11218272355E+03  0.00000000000E+00 0. -1.
         -2   -1    0    0    0  501 -0.00000000000E+00 -0.00000000000E+00 -0.13346015588E+03  0.13346015588E+03  0.00000000000E+00 0.  1.
         25    2    1    2    0    0 -0.29453012734E+02 -0.16161595445E+02 -0.23995004632E+02  0.13173055380E+03  0.12509397040E+03 0.  0.
         23    2    1    2    0    0  0.29453012734E+02  0.16161595445E+02  0.27175723013E+01  0.11391232563E+03  0.10881156007E+03 0.  0.
          5    1    3    3  502    0 -0.60525502486E+02  0.34529291625E+02 -0.15721539612E+02  0.71555905690E+02  0.41800000000E+01 0.  1.
         -5    1    3    3    0  502  0.31072489753E+02 -0.50690887069E+02 -0.82734650201E+01  0.60174648107E+02  0.41800000000E+01 0.  1.
        -11    1    4    4    0    0  0.28710081091E+02  0.61824434963E+02  0.32063892391E+01  0.68240826832E+02  0.00000000000E+00 0.  1.
         11    1    4    4    0    0  0.74293164208E+00 -0.45662839518E+02 -0.48881693787E+00  0.45671498796E+02  0.00000000000E+00 0. -1.
</event>
<event>
 8    1  0.4205029E-010  0.3115174E+03  0.7561462E-02  0.1079621E+00
          2   -1    0    0  501    0  0.00000000000E+00  0.00000000000E+00  0.43225295508E+03  0.43225295508E+03  0.00000000000E+00 0. -1.
         -2   -1    0    0    0  501 -0.00000000000E+00 -0.00000000000E+00 -0.23299781530E+03  0.23299781530E+03  0.00000000000E+00 0.  1.
         25    2    1    2    0    0 -0.28837037007E+03 -0.61844128160E+02  0.11445971337E+03  0.34018904274E+03  0.12508154259E+03 0.  0.
         23    2    1    2    0    0  0.28837037007E+03  0.61844128160E+02  0.84795426401E+02  0.32506172764E+03  0.10720399208E+03 0.  0.
          5    1    3    3  502    0 -0.18514195528E+03  0.18267858569E+02  0.91822042751E+02  0.20750907979E+03  0.41800000000E+01 0.  1.
         -5    1    3    3    0  502 -0.10322841479E+03 -0.80111986730E+02  0.22637670619E+02  0.13267996295E+03  0.41800000000E+01 0.  1.
        -11    1    4    4    0    0  0.23851054684E+02  0.32150416779E+02  0.37223006306E+02  0.54663281159E+02  0.00000000000E+00 0. -1.
         11    1    4    4    0    0  0.26451931538E+03  0.29693711381E+02  0.47572420094E+02  0.27039844648E+03  0.00000000000E+00 0.  1.
</event>
<event>
 8    1  0.4467146E-010  0.1297706E+03  0.7561462E-02  0.1227796E+00
         -1   -1    0    0    0  501 -0.00000000000E+00  0.00000000000E+00  0.13143593803E+03  0.13143593803E+03  0.00000000000E+00 0.  1.
          1   -1    0    0  501    0  0.00000000000E+00 -0.00000000000E+00 -0.15774943318E+03  0.15774943318E+03  0.00000000000E+00 0. -1.
         25    2    1    2    0    0 -0.95699901578E+02 -0.23145518836E+02 -0.37732996362E+02  0.16360256148E+03  0.12509129827E+03 0.  0.
         23    2    1    2    0    0  0.95699901578E+02  0.23145518836E+02  0.11419501215E+02  0.12558280974E+03  0.77113234200E+02 0.  0.
          5    1    3    3  502    0  0.26341089489E+02  0.15741649285E+02 -0.92342871176E+01  0.32317131312E+02  0.41800000000E+01 0. -1.
         -5    1    3    3    0  502 -0.12204099107E+03 -0.38887168121E+02 -0.28498709244E+02  0.13128543017E+03  0.41800000000E+01 0. -1.
        -11    1    4    4    0    0  0.61919989581E+02  0.51280518594E+01  0.43325393912E+02  0.75746100779E+02  0.00000000000E+00 0.  1.
         11    1    4    4    0    0  0.33779911997E+02  0.18017466977E+02 -0.31905892697E+02  0.49836708957E+02  0.00000000000E+00 0. -1.
</event>
<event>
 8    1  0.4205029E-010  0.1234927E+03  0.7561462E-02  0.1237444E+00
         -4   -1    0    0    0  501 -0.00000000000E+00  0.00000000000E+00  0.26457002366E+03  0.26457002366E+03  0.00000000000E+00 0.  1.
          4   -1    0    0  501    0  0.00000000000E+00 -0.00000000000E+00 -0.94895237156E+02  0.94895237156E+02  0.00000000000E+00 0. -1.
         25    2    1    2    0    0 -0.32324346580E+02  0.99352339739E+02  0.21139827166E+02  0.16434952218E+03  0.12509245522E+03 0.  0.
         23    2    1    2    0    0  0.32324346580E+02 -0.99352339739E+02  0.14853495934E+03  0.19511573864E+03  0.71356615154E+02 0.  0.
          5    1    3    3  502    0  0.12115931619E+02  0.83358377305E+02  0.59620998161E+02  0.10328383556E+03  0.41800000000E+01 0.  1.
         -5    1    3    3    0  502 -0.44440278200E+02  0.15993962434E+02 -0.38481170996E+02  0.61065686617E+02  0.41800000000E+01 0.  1.
        -11    1    4    4    0    0  0.23518662841E+02 -0.10182035449E+02  0.53120167986E+01  0.26172865151E+02  0.00000000000E+00 0. -1.
         11    1    4    4    0    0  0.88056837391E+01 -0.89170304290E+02  0.14322294254E+03  0.16894287349E+03  0.00000000000E+00 0.  1.
</event>
<event>
 8    1  0.4205029E-010  0.1582759E+03  0.7561462E-02  0.1190657E+00
          3   -1    0    0  501    0  0.00000000000E+00  0.00000000000E+00  0.25881141374E+03  0.25881141374E+03  0.00000000000E+00 0. -1.
         -3   -1    0    0    0  501 -0.00000000000E+00 -0.00000000000E+00 -0.10847307788E+03  0.10847307788E+03  0.00000000000E+00 0.  1.
         25    2    1    2    0    0  0.12632723604E+03  0.43187144521E+02  0.69312613509E+02  0.19564155084E+03  0.12509067914E+03 0.  0.
         23    2    1    2    0    0 -0.12632723604E+03 -0.43187144521E+02  0.81025722353E+02  0.17164294078E+03  0.71221004077E+02 0.  0.
          5    1    3    3  502    0  0.12594017831E+03 -0.12771331754E+02  0.43990750137E+02  0.13407719390E+03  0.41800000000E+01 0. -1.
         -5    1    3    3    0  502  0.38705772717E+00  0.55958476275E+02  0.25321863372E+02  0.61564356939E+02  0.41800000000E+01 0. -1.
        -11    1    4    4    0    0 -0.88410870570E+02 -0.26027581190E+02  0.90274309405E+02  0.12900917780E+03  0.00000000000E+00 0. -1.
         11    1    4    4    0    0 -0.37916365467E+02 -0.17159563331E+02 -0.92485870523E+01  0.42633762986E+02  0.00000000000E+00 0.  1.
</event>
<event>
 8    1  0.4205029E-010  0.1216476E+03  0.7561462E-02  0.1240403E+00
          2   -1    0    0  501    0  0.00000000000E+00  0.00000000000E+00  0.39787630385E+03  0.39787630385E+03  0.00000000000E+00 0.  1.
         -2   -1    0    0    0  501 -0.00000000000E+00 -0.00000000000E+00 -0.48265908647E+02  0.48265908647E+02  0.00000000000E+00 0. -1.
         25    2    1    2    0    0  0.54562765116E+02  0.39943596291E+02  0.23028699278E+03  0.27065213769E+03  0.12509154397E+03 0.  0.
         23    2    1    2    0    0 -0.54562765116E+02 -0.39943596291E+02  0.11932340243E+03  0.17549007481E+03  0.10948107493E+03 0.  0.
          5    1    3    3  502    0  0.58852722438E+02 -0.16713660378E+02  0.19313359956E+03  0.20263526115E+03  0.41800000000E+01 0. -1.
         -5    1    3    3    0  502 -0.42899573221E+01  0.56657256669E+02  0.37153393217E+02  0.68016876543E+02  0.41800000000E+01 0. -1.
        -11    1    4    4    0    0  0.22373848584E+02 -0.42490220996E+02  0.66922035033E+02  0.82368481555E+02  0.00000000000E+00 0.  1.
         11    1    4    4    0    0 -0.76936613700E+02  0.25466247049E+01  0.52401367394E+02  0.93121593252E+02  0.00000000000E+00 0. -1.
</event>
<event>
 8    1  0.4205029E-010  0.2428138E+03  0.7561462E-02  0.1117932E+00
          3   -1    0    0  501    0  0.00000000000E+00  0.00000000000E+00  0.88384594007E+02  0.88384594007E+02  0.00000000000E+00 0. -1.
         -3   -1    0    0    0  501 -0.00000000000E+00 -0.00000000000E+00 -0.84346193224E+03  0.84346193224E+03  0.00000000000E+00 0.  1.
         25    2    1    2    0    0 -0.16273814236E+03  0.13730871533E+03 -0.17097121456E+03  0.30035915141E+03  0.12508827819E+03 0.  0.
         23    2    1    2    0    0  0.16273814236E+03 -0.13730871533E+03 -0.58410612368E+03  0.63148737484E+03  0.11072016341E+03 0.  0.
          5    1    3    3  502    0 -0.75750000893E+02 -0.92459112357E+01 -0.50254774728E+02  0.91468925285E+02  0.41800000000E+01 0. -1.
         -5    1    3    3    0  502 -0.86988141467E+02  0.14655462657E+03 -0.12071643983E+03  0.20889022612E+03  0.41800000000E+01 0. -1.
        -11    1    4    4    0    0  0.14222354419E+03 -0.52716601874E+02 -0.33906330353E+03  0.37144380523E+03  0.00000000000E+00 0. -1.
         11    1    4    4    0    0  0.20514598166E+02 -0.84592113455E+02 -0.24504282014E+03  0.26004356962E+03  0.00000000000E+00 0.  1.
</event>
<event>
 8    1  0.4205029E-010  0.9315635E+02  0.7561462E-02  0.1295383E+00
          3   -1    0    0  501    0  0.00000000000E+00  0.00000000000E+00  0.64197525115E+02  0.64197525115E+02  0.00000000000E+00 0. -1.
         -3   -1    0    0    0  501 -0.00000000000E+00 -0.00000000000E+00 -0.26904695495E+03  0.26904695495E+03  0.00000000000E+00 0.  1.
         25    2    1    2    0    0  0.61006142235E+02  0.32497442172E+02 -0.19372421909E+03  0.24073885489E+03  0.12509312553E+03 0.  0.
         23    2    1    2    0    0 -0.61006142235E+02 -0.32497442172E+02 -0.11125210741E+02  0.92505625167E+02  0.60462279443E+02 0.  0.
          5    1    3    3  502    0 -0.11734785726E+02 -0.18275669689E+02  0.53493906642E+01  0.22755080292E+02  0.41800000000E+01 0.  1.
         -5    1    3    3    0  502  0.72740927961E+02  0.50773111861E+02 -0.19907360976E+03  0.21798377460E+03  0.41800000000E+01 0.  1.
        -11    1    4    4    0    0 -0.52481213067E+02 -0.12938447714E+02 -0.31868741308E+02  0.62747891014E+02  0.00000000000E+00 0.  1.
         11    1    4    4    0    0 -0.85249291684E+01 -0.19558994458E+02  0.20743530567E+02  0.29757734153E+02  0.00000000000E+00 0. -1.
</event>
<event>
 8    1  0.4205029E-010  0.1011604E+03  0.7561462E-02  0.1277874E+00
          1   -1    0    0  501    0  0.00000000000E+00  0.00000000000E+00  0.33919162132E+03  0.33919162132E+03  0.00000000000E+00 0. -1.
         -1   -1    0    0    0  501 -0.00000000000E+00 -0.00000000000E+00 -0.48240454796E+02  0.48240454796E+02  0.00000000000E+00 0.  1.
         25    2    1    2    0    0  0.67690305266E+02 -0.71771368683E+01  0.22198684760E+03  0.26374133636E+03  0.12509133975E+03 0.  0.
         23    2    1    2    0    0 -0.67690305266E+02  0.71771368683E+01  0.68964318922E+02  0.12369073975E+03  0.76875438826E+02 0.  0.
          5    1    3    3  502    0 -0.15337587045E+02 -0.15561839815E+02 -0.41786454799E+01  0.22635059373E+02  0.41800000000E+01 0. -1.
         -5    1    3    3    0  502  0.83027892311E+02  0.83847029466E+01  0.22616549308E+03  0.24110627699E+03  0.41800000000E+01 0. -1.
        -11    1    4    4    0    0 -0.52923276201E+02  0.36087883192E+02  0.64531157671E+02  0.90925677272E+02  0.00000000000E+00 0. -1.
         11    1    4    4    0    0 -0.14767029065E+02 -0.28910746324E+02  0.44331612513E+01  0.32765062476E+02  0.00000000000E+00 0.  1.
</event>
<event>
 8    1  0.4205029E-010  0.9957002E+02  0.7561462E-02  0.1281203E+00
         -1   -1    0    0    0  501 -0.00000000000E+00  0.00000000000E+00  0.33638617808E+03  0.33638617808E+03  0.00000000000E+00 0.  1.
          1   -1    0    0  501    0  0.00000000000E+00 -0.00000000000E+00 -0.48294603838E+02  0.48294603838E+02  0.00000000000E+00 0. -1.
         25    2    1    2    0    0 -0.14704947167E+02 -0.47643409005E+02  0.12597430889E+03  0.18440366279E+03  0.12509618084E+03 0.  0.
         23    2    1    2    0    0  0.14704947167E+02  0.47643409005E+02  0.16211726536E+03  0.20027711912E+03  0.10650252028E+03 0.  0.
          5    1    3    3  502    0 -0.37029853858E+02 -0.76498627640E+02  0.12013863546E+03  0.14722097078E+03  0.41800000000E+01 0. -1.
         -5    1    3    3    0  502  0.22324906691E+02  0.28855218635E+02  0.58356734297E+01  0.37182692017E+02  0.41800000000E+01 0. -1.
        -11    1    4    4    0    0  0.35042549786E+02  0.13437797058E+02  0.15546370570E+03  0.15992972980E+03  0.00000000000E+00 0.  1.
         11    1    4    4    0    0 -0.20337602619E+02  0.34205611947E+02  0.66535596589E+01  0.40347389322E+02  0.00000000000E+00 0. -1.
</event>
<event>
 8    1  0.4205029E-010  0.8620047E+02  0.7561462E-02  0.1312323E+00
          4   -1    0    0  501    0  0.00000000000E+00  0.00000000000E+00  0.10381137295E+04  0.10381137295E+04  0.00000000000E+00 0. -1.
         -4   -1    0    0    0  501 -0.00000000000E+00 -0.00000000000E+00 -0.12544593818E+02  0.12544593818E+02  0.00000000000E+00 0.  1.
         25    2    1    2    0    0 -0.32442802970E+02 -0.45949747734E+02  0.55725063920E+03  0.57388134351E+03  0.12509039438E+03 0.  0.
         23    2    1    2    0    0  0.32442802970E+02  0.45949747734E+02  0.46831849648E+03  0.47677697980E+03  0.69499349213E+02 0.  0.
          5    1    3    3  502    0 -0.50453784514E+02 -0.33148549733E+02  0.10589424346E+03  0.12196505204E+03  0.41800000000E+01 0. -1.
         -5    1    3    3    0  502  0.18010981544E+02 -0.12801198001E+02  0.45135639573E+03  0.45191629147E+03  0.41800000000E+01 0. -1.
        -11    1    4    4    0    0 -0.19159559931E+02 -0.16038023186E+01  0.10379235189E+03  0.10555810357E+03  0.00000000000E+00 0.  1.
         11    1    4    4    0    0  0.51602362901E+02  0.47553550053E+02  0.36452614459E+03  0.37121887623E+03  0.00000000000E+00 0. -1.
</event>
<event>
 8    1  0.4205029E-010  0.8460282E+02  0.7561462E-02  0.1316474E+00
         -2   -1    0    0    0  501 -0.00000000000E+00  0.00000000000E+00  0.17064766191E+03  0.17064766191E+03  0.00000000000E+00 0.  1.
          2   -1    0    0  501    0  0.00000000000E+00 -0.00000000000E+00 -0.81866306154E+02  0.81866306154E+02  0.00000000000E+00 0. -1.
         25    2    1    2    0    0 -0.63911138838E+01  0.58798277720E+02  0.15329356803E+02  0.13921590755E+03  0.12509194992E+03 0.  0.
         23    2    1    2    0    0  0.63911138838E+01 -0.58798277720E+02  0.73451998950E+02  0.11329806051E+03  0.62794669891E+02 0.  0.
          5    1    3    3  502    0  0.14418265438E+02 -0.16209768871E+02  0.49420489021E+02  0.54134093879E+02  0.41800000000E+01 0. -1.
         -5    1    3    3    0  502 -0.20809379321E+02  0.75008046591E+02 -0.34091132218E+02  0.85081813668E+02  0.41800000000E+01 0. -1.
        -11    1    4    4    0    0  0.13384997938E+02 -0.40762859830E+01  0.52424155407E+02  0.54259251261E+02  0.00000000000E+00 0.  1.
         11    1    4    4    0    0 -0.69938840545E+01 -0.54721991737E+02  0.21027843543E+02  0.59038809252E+02  0.00000000000E+00 0. -1.
</event>
<event>
 8    1  0.4205029E-010  0.2266598E+03  0.7561462E-02  0.1129013E+00
         -2   -1    0    0    0  501 -0.00000000000E+00  0.00000000000E+00  0.11134298363E+03  0.11134298363E+03  0.00000000000E+00 0. -1.
          2   -1    0    0  501    0  0.00000000000E+00 -0.00000000000E+00 -0.48901269323E+03  0.48901269323E+03  0.00000000000E+00 0.  1.
         25    2    1    2    0    0  0.20404821833E+03  0.63307406237E+01 -0.25502693417E+03  0.34980077844E+03  0.12508434661E+03 0.  0.
         23    2    1    2    0    0 -0.20404821833E+03 -0.63307406237E+01 -0.12264277544E+03  0.25055489842E+03  0.77850838605E+02 0.  0.
          5    1    3    3  502    0  0.18611896594E+03 -0.35255748122E+02 -0.22963618737E+03  0.29771376893E+03  0.41800000000E+01 0.  1.
         -5    1    3    3    0  502  0.17929252391E+02  0.41586488746E+02 -0.25390746798E+02  0.52087009518E+02  0.41800000000E+01 0.  1.
        -11    1    4    4    0    0 -0.20399095592E+03 -0.19751227457E+02 -0.11303667275E+03  0.23405065791E+03  0.00000000000E+00 0. -1.
         11    1    4    4    0    0 -0.57262416839E-01  0.13420486833E+02 -0.96061026894E+01  0.16504240507E+02  0.00000000000E+00 0.  1.
</event>
<event>
 8    1  0.4205029E-010  0.1704080E+03  0.7561462E-02  0.1177423E+00
         -2   -1    0    0    0  501 -0.00000000000E+00  0.00000000000E+00  0.10799837766E+04  0.10799837766E+04  0.00000000000E+00 0.  1.
          2   -1    0    0  501    0  0.00000000000E+00 -0.00000000000E+00 -0.32854767255E+02  0.32854767255E+02  0.00000000000E+00 0. -1.
         25    2    1    2    0    0  0.94497940958E+01  0.14775242018E+03  0.59751944282E+03  0.62817004259E+03  0.12509213235E+03 0.  0.
         23    2    1    2    0    0 -0.94497940958E+01 -0.14775242018E+03  0.44960956656E+03  0.48466850130E+03  0.10408994925E+03 0.  0.
          5    1    3    3  502    0  0.38039285748E+02  0.81198454874E+02  0.15000242643E+03  0.17480954398E+03  0.41800000000E+01 0.  1.
         -5    1    3    3    0  502 -0.28589491652E+02  0.66553965310E+02  0.44751701640E+03  0.45336049860E+03  0.41800000000E+01 0.  1.
        -11    1    4    4    0    0 -0.54414040535E+02 -0.69779457789E+02  0.26297225887E+03  0.27746075303E+03  0.00000000000E+00 0.  1.
         11    1    4    4    0    0  0.44964246439E+02 -0.77972962394E+02  0.18663730768E+03  0.20720774827E+03  0.00000000000E+00 0. -1.
</event>
<event>
 7    1  0.4205029E-010  0.1141946E+03  0.7561462E-02  0.1252993E+00
         -3   -1    0    0    0  501 -0.00000000000E+00  0.00000000000E+00  0.10549704926E+03  0.10549704926E+03  0.00000000000E+00 0.  1.
          3   -1    0    0  501    0  0.00000000000E+00 -0.00000000000E+00 -0.18757259685E+03  0.18757259685E+03  0.00000000000E+00 0. -1.
         25    2    1    2    0    0 -0.20271745512E+02  0.53543254624E+02 -0.20995610184E+02  0.13916467994E+03  0.12509264053E+03 0.  0.
          5    1    3    3  502    0 -0.37697005702E+02  0.78151532408E+01  0.43407905403E+02  0.58170950745E+02  0.41800000000E+01 0.  1.
         -5    1    3    3    0  502  0.17425260190E+02  0.45728101383E+02 -0.64403515587E+02  0.80993729194E+02  0.41800000000E+01 0.  1.
        -11    1    1    2    0    0  0.46586714875E+02 -0.86577798807E+02 -0.49700140202E+02  0.11016415563E+03  0.00000000000E+00 0.  1.
         11    1    1    2    0    0 -0.26314969363E+02  0.33034544182E+02 -0.11379797206E+02  0.43740810536E+02  0.00000000000E+00 0. -1.
</event>
<event>
 8    1  0.4205029E-010  0.1474714E+03  0.7561462E-02  0.1203615E+00
          2   -1    0    0  501    0  0.00000000000E+00  0.00000000000E+00  0.26746230657E+02  0.26746230657E+02  0.00000000000E+00 0. -1.
         -2   -1    0    0    0  501 -0.00000000000E+00 -0.00000000000E+00 -0.10832062273E+04  0.10832062273E+04  0.00000000000E+00 0.  1.
         25    2    1    2    0    0 -0.51853739285E+02 -0.11194944806E+03 -0.76484941086E+03  0.78476957270E+03  0.12508865553E+03 0.  0.
         23    2    1    2    0    0  0.51853739285E+02  0.11194944806E+03 -0.29161058573E+03  0.32518288521E+03  0.74065416505E+02 0.  0.
          5    1    3    3  502    0 -0.80161959170E+02 -0.87820561632E+02 -0.38212462290E+03  0.40021880337E+03  0.41800000000E+01 0. -1.
         -5    1    3    3    0  502  0.28308219885E+02 -0.24128886430E+02 -0.38272478796E+03  0.38455076933E+03  0.41800000000E+01 0. -1.
        -11    1    4    4    0    0  0.30902815658E+02  0.72272460285E+01 -0.11011452478E+03  0.11459679607E+03  0.00000000000E+00 0.  1.
         11    1    4    4    0    0  0.20950923627E+02  0.10472220203E+03 -0.18149606095E+03  0.21058608914E+03  0.00000000000E+00 0. -1.
</event>
<event>
 8    1  0.4205029E-010  0.2759877E+03  0.7561462E-02  0.1097901E+00
         -2   -1    0    0    0  501 -0.00000000000E+00  0.00000000000E+00  0.29017682746E+03  0.29017682746E+03  0.00000000000E+00 0. -1.
          2   -1    0    0  501    0  0.00000000000E+00 -0.00000000000E+00 -0.30529845957E+03  0.30529845957E+03  0.00000000000E+00 0.  1.
         25    2    1    2    0    0  0.35368108843E+02 -0.25156543338E+03 -0.10998036297E+03  0.30377395431E+03  0.12508742816E+03 0.  0.
         23    2    1    2    0    0 -0.35368108843E+02  0.25156543338E+03  0.94858730861E+02  0.29170133272E+03  0.10749613154E+03 0.  0.
          5    1    3    3  502    0 -0.23487328733E+02 -0.20674162986E+03 -0.69955378279E+02  0.21955633327E+03  0.41800000000E+01 0. -1.
         -5    1    3    3    0  502  0.58855437576E+02 -0.44823803518E+02 -0.40024984695E+02  0.84217621042E+02  0.41800000000E+01 0. -1.
        -11    1    4    4    0    0 -0.50849875951E+02  0.64858688767E+02  0.16131110694E+01  0.82431556580E+02  0.00000000000E+00 0.  1.
         11    1    4    4    0    0  0.15481767108E+02  0.18670674461E+03  0.93245619792E+02  0.20926977614E+03  0.00000000000E+00 0. -1.
</event>
<event>
 8    1  0.4205029E-010  0.1310661E+03  0.7561462E-02  0.1225882E+00
          2   -1    0    0  501    0  0.00000000000E+00  0.00000000000E+00  0.81515738249E+02  0.81515738249E+02  0.00000000000E+00 0. -1.
         -2   -1    0    0    0  501 -0.00000000000E+00 -0.00000000000E+00 -0.24197192675E+03  0.24197192675E+03  0.00000000000E+00 0.  1.
         25    2    1    2    0    0  0.19347333205E+02 -0.63419826152E+02 -0.95214190656E+02  0.17061518823E+03  0.12508959470E+03 0.  0.
         23    2    1    2    0    0 -0.19347333205E+02  0.63419826152E+02 -0.65241997844E+02  0.15287247677E+03  0.12131398196E+03 0.  0.
          5    1    3    3  502    0 -0.13736513613E+02  0.34908235145E+02 -0.25041611009E+02  0.45297145265E+02  0.41800000000E+01 0.  1.
         -5    1    3    3    0  502  0.33083846818E+02 -0.98328061297E+02 -0.70172579647E+02  0.12531804297E+03  0.41800000000E+01 0.  1.
        -11    1    4    4    0    0 -0.51099789527E+02  0.71414929062E+02 -0.78269540383E+02  0.11763248503E+03  0.00000000000E+00 0.  1.
         11    1    4    4    0    0  0.31752456322E+02 -0.79951029099E+01  0.13027542539E+02  0.35239991737E+02  0.00000000000E+00 0. -1.
</event>
<event>
 8    1  0.4205029E-010  0.9621740E+02  0.7561462E-02  0.1288458E+00
         -1   -1    0    0    0  501 -0.00000000000E+00  0.00000000000E+00  0.12757504783E+04  0.12757504783E+04  0.00000000000E+00 0.  1.
          1   -1    0    0  501    0  0.00000000000E+00 -0.00000000000E+00 -0.11265589670E+02  0.11265589670E+02  0.00000000000E+00 0. -1.
         25    2    1    2    0    0  0.55409494771E+02  0.30211189691E+02  0.76474637669E+03  0.77747524461E+03  0.12509119568E+03 0.  0.
         23    2    1    2    0    0 -0.55409494771E+02 -0.30211189691E+02  0.49973851194E+03  0.50954082335E+03  0.76878750355E+02 0.  0.
          5    1    3    3  502    0  0.38366746962E+02 -0.17378595965E+02  0.77044167450E+02  0.87905056784E+02  0.41800000000E+01 0.  1.
         -5    1    3    3    0  502  0.17042747809E+02  0.47589785656E+02  0.68770220924E+03  0.68957018783E+03  0.41800000000E+01 0.  1.
        -11    1    4    4    0    0 -0.72261941813E+02 -0.98092784079E+01  0.35757110706E+03  0.36493164673E+03  0.00000000000E+00 0.  1.
         11    1    4    4    0    0  0.16852447042E+02 -0.20401911283E+02  0.14216740488E+03  0.14460917663E+03  0.00000000000E+00 0. -1.
</event>
<event>
 8    1  0.4457054E-010  0.1764400E+03  0.7561462E-02  0.1171294E+00
         -2   -1    0    0    0  501 -0.00000000000E+00  0.00000000000E+00  0.62769843439E+02  0.62769843439E+02  0.00000000000E+00 0.  1.
          2   -1    0    0  501    0  0.00000000000E+00 -0.00000000000E+00 -0.54919991145E+03  0.54919991145E+03  0.00000000000E+00 0. -1.
         25    2    1    2    0    0  0.88996958826E+01 -0.14385513913E+03 -0.21745888916E+03  0.28932684119E+03  0.12509255340E+03 0.  0.
         23    2    1    2    0    0 -0.88996958826E+01  0.14385513913E+03 -0.26897117885E+03  0.32264291370E+03  0.10478286628E+03 0.  0.
          5    1    3    3  502    0  0.35397567064E+02  0.78720097170E+01 -0.35867148025E+02  0.51175003649E+02  0.41800000000E+01 0. -1.
         -5    1    3    3    0  502 -0.26497871181E+02 -0.15172714885E+03 -0.18159174114E+03  0.23815183754E+03  0.41800000000E+01 0. -1.
        -11    1    4    4    0    0 -0.31729923107E+02  0.13351697720E+03 -0.26334368305E+03  0.29695701141E+03  0.00000000000E+00 0. -1.
         11    1    4    4    0    0  0.22830227224E+02  0.10338161931E+02 -0.56274957908E+01  0.25685902283E+02  0.00000000000E+00 0.  1.
</event>
<event>
 8    1  0.4205029E-010  0.1022122E+03  0.7561462E-02  0.1275712E+00
          1   -1    0    0  501    0  0.00000000000E+00  0.00000000000E+00  0.30015813835E+03  0.30015813835E+03  0.00000000000E+00 0. -1.
         -1   -1    0    0    0  501 -0.00000000000E+00 -0.00000000000E+00 -0.56068200719E+02  0.56068200719E+02  0.00000000000E+00 0.  1.
         25    2    1    2    0    0  0.48985236021E+02  0.14461128091E+02  0.12394773833E+03  0.18335642124E+03  0.12509139777E+03 0.  0.
         23    2    1    2    0    0 -0.48985236021E+02 -0.14461128091E+02  0.12014219930E+03  0.17286991784E+03  0.11331894311E+03 0.  0.
          5    1    3    3  502    0 -0.38179402772E+02 -0.28783308773E+01  0.11962488569E+02  0.40330201058E+02  0.41800000000E+01 0.  1.
         -5    1    3    3    0  502  0.87164638792E+02  0.17339458969E+02  0.11198524977E+03  0.14302622018E+03  0.41800000000E+01 0.  1.
        -11    1    4    4    0    0 -0.32222424451E+01 -0.28801370692E+02 -0.12696014801E+02  0.31640015676E+02  0.00000000000E+00 0.  1.
         11    1    4    4    0    0 -0.45762993576E+02  0.14340242601E+02  0.13283821410E+03  0.14122990216E+03  0.00000000000E+00 0. -1.
</event>
<event>
 7    1  0.4205029E-010  0.1233652E+03  0.7561462E-02  0.1237647E+00
         -2   -1    0    0    0  501 -0.00000000000E+00  0.00000000000E+00  0.24127345151E+02  0.24127345151E+02  0.00000000000E+00 0.  1.
          2   -1    0    0  501    0  0.00000000000E+00 -0.00000000000E+00 -0.89846255062E+03  0.89846255062E+03  0.00000000000E+00 0. -1.
         25    2    1    2    0    0  0.46705028312E+02  0.10296191674E+03 -0.62223251404E+03  0.64467293020E+03  0.12508944574E+03 0.  0.
          5    1    3    3  502    0  0.63000594067E+02  0.94473706535E+02 -0.28360987129E+03  0.30552641060E+03  0.41800000000E+01 0.  1.
         -5    1    3    3    0  502 -0.16295565755E+02  0.84882102037E+01 -0.33862264275E+03  0.33914651960E+03  0.41800000000E+01 0.  1.
        -11    1    1    2    0    0 -0.24345369322E+02 -0.72437330781E+02 -0.13857109483E+03  0.15824604962E+03  0.00000000000E+00 0.  1.
         11    1    1    2    0    0 -0.22359658990E+02 -0.30524585958E+02 -0.11353159659E+03  0.11967091595E+03  0.00000000000E+00 0. -1.
</event>
<event>
 8    1  0.4205029E-010  0.1599462E+03  0.7561462E-02  0.1188757E+00
         -2   -1    0    0    0  501 -0.00000000000E+00  0.00000000000E+00  0.85815747228E+02  0.85815747228E+02  0.00000000000E+00 0.  1.
          2   -1    0    0  501    0  0.00000000000E+00 -0.00000000000E+00 -0.31837918257E+03  0.31837918257E+03  0.00000000000E+00 0. -1.
         25    2    1    2    0    0 -0.82457021400E+02 -0.65053581875E+02 -0.13863793329E+03  0.21423692084E+03  0.12508338343E+03 0.  0.
         23    2    1    2    0    0  0.82457021400E+02  0.65053581875E+02 -0.93925502047E+02  0.18995800895E+03  0.12740061357E+03 0.  0.
          5    1    3    3  502    0  0.25147002048E+02 -0.36662354973E+02 -0.13345941548E+02  0.46605649228E+02  0.41800000000E+01 0.  1.
         -5    1    3    3    0  502 -0.10760402345E+03 -0.28391226902E+02 -0.12529199175E+03  0.16763127161E+03  0.41800000000E+01 0.  1.
        -11    1    4    4    0    0 -0.20515121385E+02 -0.21235623259E+02 -0.26344614700E+02  0.39570956829E+02  0.00000000000E+00 0. -1.
         11    1    4    4    0    0  0.10297214279E+03  0.86289205134E+02 -0.67580887347E+02  0.15038705213E+03  0.00000000000E+00 0.  1.
</event>
<event>
 8    1  0.4205029E-010  0.1211315E+03  0.7561462E-02  0.1241242E+00
          1   -1    0    0  501    0  0.00000000000E+00  0.00000000000E+00  0.17600241067E+04  0.17600241067E+04  0.00000000000E+00 0. -1.
         -1   -1    0    0    0  501 -0.00000000000E+00 -0.00000000000E+00 -0.12056429507E+02  0.12056429507E+02  0.00000000000E+00 0.  1.
         25    2    1    2    0    0 -0.13948706260E+02 -0.87003265419E+02  0.13073830782E+04  0.13163062764E+04  0.12509022998E+03 0.  0.
         23    2    1    2    0    0  0.13948706260E+02  0.87003265419E+02  0.44058459897E+03  0.45577425974E+03  0.76493479422E+02 0.  0.
          5    1    3    3  502    0  0.54243731007E+02 -0.23883711245E+02  0.56643911396E+03  0.56954679900E+03  0.41800000000E+01 0.  1.
         -5    1    3    3    0  502 -0.68192437267E+02 -0.63119554174E+02  0.74094396421E+03  0.74675947743E+03  0.41800000000E+01 0.  1.
        -11    1    4    4    0    0  0.68762676723E+01  0.78372554217E+02  0.43704249887E+03  0.44406720903E+03  0.00000000000E+00 0. -1.
         11    1    4    4    0    0  0.70724385880E+01  0.86307112017E+01  0.35421001014E+01  0.11707050720E+02  0.00000000000E+00 0.  1.
</event>
<event>
 8    1  0.4205029E-010  0.5921347E+02  0.7561462E-02  0.1401162E+00
         -2   -1    0    0    0  501 -0.00000000000E+00  0.00000000000E+00  0.30921971673E+03  0.30921971673E+03  0.00000000000E+00 0. -1.
          2   -1    0    0  501    0  0.00000000000E+00 -0.00000000000E+00 -0.38580160957E+02  0.38580160957E+02  0.00000000000E+00 0.  1.
         25    2    1    2    0    0  0.12687930144E+02  0.94532990451E+01  0.10432820766E+03  0.16365410072E+03  0.12509173168E+03 0.  0.
         23    2    1    2    0    0 -0.12687930144E+02 -0.94532990451E+01  0.16631134811E+03  0.18414577696E+03  0.77458725968E+02 0.  0.
          5    1    3    3  502    0  0.17340277868E+01  0.31751732166E+02 -0.19335620557E+02  0.37450206545E+02  0.41800000000E+01 0. -1.
         -5    1    3    3    0  502  0.10953902358E+02 -0.22298433121E+02  0.12366382822E+03  0.12620389418E+03  0.41800000000E+01 0. -1.
        -11    1    4    4    0    0 -0.29657681460E+02  0.13525109176E+02  0.28170132790E+02  0.43082049965E+02  0.00000000000E+00 0.  1.
         11    1    4    4    0    0  0.16969751316E+02 -0.22978408221E+02  0.13814121532E+03  0.14106372700E+03  0.00000000000E+00 0. -1.
</event>
<event>
 8    1  0.4205029E-010  0.2070856E+03  0.7561462E-02  0.1143895E+00
          2   -1    0    0  501    0  0.00000000000E+00  0.00000000000E+00  0.10708089337E+04  0.10708089337E+04  0.00000000000E+00 0. -1.
         -2   -1    0    0    0  501 -0.00000000000E+00 -0.00000000000E+00 -0.44168126285E+02  0.44168126285E+02  0.00000000000E+00 0.  1.
         25    2    1    2    0    0  0.62907009458E+02  0.17600106155E+03  0.64107959077E+03  0.67938420837E+03  0.12508475277E+03 0.  0.
         23    2    1    2    0    0 -0.62907009458E+02 -0.17600106155E+03  0.38556121669E+03  0.43559285166E+03  0.78422031965E+02 0.  0.
          5    1    3    3  502    0  0.48417432811E+01  0.15292642894E+03  0.53228399823E+03  0.55385346647E+03  0.41800000000E+01 0. -1.
         -5    1    3    3    0  502  0.58065266177E+02  0.23074632608E+02  0.10879559254E+03  0.12553074190E+03  0.41800000000E+01 0. -1.
        -11    1    4    4    0    0 -0.76453435763E+02 -0.13303903584E+03  0.25646042571E+03  0.29885860010E+03  0.00000000000E+00 0.  1.
         11    1    4    4    0    0  0.13546426305E+02 -0.42962025706E+02  0.12910079098E+03  0.13673425157E+03  0.00000000000E+00 0. -1.
</event>
<event>
 8    1  0.4205029E-010  0.1129400E+03  0.7561462E-02  0.1255220E+00
          2   -1    0    0  501    0  0.00000000000E+00  0.00000000000E+00  0.55732165825E+02  0.55732165825E+02  0.00000000000E+00 0.  1.
         -2   -1    0    0    0  501 -0.00000000000E+00 -0.00000000000E+00 -0.24405432072E+03  0.24405432072E+03  0.00000000000E+00 0. -1.
         25    2    1    2    0    0  0.47544327092E+02 -0.45428297661E+02 -0.11406036137E+03  0.18159787913E+03  0.12507529892E+03 0.  0.
         23    2    1    2    0    0 -0.47544327092E+02  0.45428297661E+02 -0.74261793525E+02  0.11818860742E+03  0.64261494533E+02 0.  0.
          5    1    3    3  502    0 -0.28192823991E+02 -0.55744431648E+02 -0.67189133643E+02  0.91837514470E+02  0.41800000000E+01 0. -1.
         -5    1    3    3    0  502  0.75737151083E+02  0.10316133987E+02 -0.46871227730E+02  0.89760364658E+02  0.41800000000E+01 0. -1.
        -11    1    4    4    0    0 -0.43319559655E+02  0.22935005744E+01 -0.56778991171E+02  0.71454168752E+02  0.00000000000E+00 0. -1.
         11    1    4    4    0    0 -0.42247674361E+01  0.43134797086E+02 -0.17482802354E+02  0.46734438669E+02  0.00000000000E+00 0.  1.
</event>
<event>
 7    1  0.4205029E-010  0.1177006E+03  0.7561462E-02  0.1246939E+00
          1   -1    0    0  501    0  0.00000000000E+00  0.00000000000E+00  0.29242116473E+03  0.29242116473E+03  0.00000000000E+00 0. -1.
         -1   -1    0    0    0  501 -0.00000000000E+00 -0.00000000000E+00 -0.93413033905E+02  0.93413033905E+02  0.00000000000E+00 0.  1.
         25    2    1    2    0    0 -0.53606671716E+02  0.66001885471E+02  0.24195660785E+03  0.28534392091E+03  0.12509288142E+03 0.  0.
          5    1    3    3  502    0 -0.10001780510E+02  0.92648492356E+02  0.11274220437E+03  0.14632858844E+03  0.41800000000E+01 0. -1.
         -5    1    3    3    0  502 -0.43604891207E+02 -0.26646606885E+02  0.12921440348E+03  0.13901533247E+03  0.41800000000E+01 0. -1.
        -11    1    1    2    0    0  0.56941072754E+02 -0.54304897122E+02 -0.37434713634E+02  0.87135901916E+02  0.00000000000E+00 0. -1.
         11    1    1    2    0    0 -0.33344010372E+01 -0.11696988348E+02 -0.55137633838E+01  0.13354375813E+02  0.00000000000E+00 0.  1.
</event>
<event>
 8    1  0.4205029E-010  0.8812193E+02  0.7561462E-02  0.1307465E+00
         -1   -1    0    0    0  501 -0.00000000000E+00  0.00000000000E+00  0.10923092193E+03  0.10923092193E+03  0.00000000000E+00 0.  1.
          1   -1    0    0  501    0  0.00000000000E+00 -0.00000000000E+00 -0.17644349966E+03  0.17644349966E+03  0.00000000000E+00 0. -1.
         25    2    1    2    0    0 -0.20529950696E+01 -0.36974403043E+02 -0.10495770822E+03  0.16743664443E+03  0.12509031983E+03 0.  0.
         23    2    1    2    0    0  0.20529950696E+01  0.36974403043E+02  0.37745130497E+02  0.11823777716E+03  0.10575516916E+03 0.  0.
          5    1    3    3  502    0  0.53850382364E+02 -0.27795553092E+01 -0.15117799285E+02  0.56157010815E+02  0.41800000000E+01 0.  1.
         -5    1    3    3    0  502 -0.55903377433E+02 -0.34194847734E+02 -0.89839908937E+02  0.11127963362E+03  0.41800000000E+01 0.  1.
        -11    1    4    4    0    0 -0.16066035284E+02  0.85912893992E+00 -0.33030474081E+02  0.36740547224E+02  0.00000000000E+00 0. -1.
         11    1    4    4    0    0  0.18119030354E+02  0.36115274103E+02  0.70775604577E+02  0.81497229940E+02  0.00000000000E+00 0.  1.
</event>
<event>
 8    1  0.4424286E-010  0.7401233E+02  0.7561462E-02  0.1346957E+00
          1   -1    0    0  501    0  0.00000000000E+00  0.00000000000E+00  0.33644735076E+03  0.33644735076E+03  0.00000000000E+00 0. -1.
         -1   -1    0    0    0  501 -0.00000000000E+00 -0.00000000000E+00 -0.41163528249E+02  0.41163528249E+02  0.00000000000E+00 0.  1.
         25    2    1    2    0    0 -0.37354904280E+02  0.46626917349E+02  0.16805603902E+03  0.21785331337E+03  0.12509106923E+03 0.  0.
         23    2    1    2    0    0  0.37354904280E+02 -0.46626917349E+02  0.12722778349E+03  0.15975756564E+03  0.75934923397E+02 0.  0.
          5    1    3    3  502    0  0.14603447771E+02 -0.37722476514E+01 -0.14555710693E+02  0.21373620492E+02  0.41800000000E+01 0. -1.
         -5    1    3    3    0  502 -0.51958352051E+02  0.50399165001E+02  0.18261174972E+03  0.19647969288E+03  0.41800000000E+01 0. -1.
        -11    1    4    4    0    0  0.13683161003E+02 -0.20076412037E+02  0.12128403873E+03  0.12369361045E+03  0.00000000000E+00 0. -1.
         11    1    4    4    0    0  0.23671743276E+02 -0.26550505312E+02  0.59437447607E+01  0.36063955189E+02  0.00000000000E+00 0.  1.
</event>
<event>
 7    1  0.4205029E-010  0.6893940E+02  0.7561462E-02  0.1363737E+00
         -1   -1    0    0    0  501 -0.00000000000E+00  0.00000000000E+00  0.71549968915E+02  0.71549968915E+02  0.00000000000E+00 0.  1.
          1   -1    0    0  501    0  0.00000000000E+00 -0.00000000000E+00 -0.15835815991E+03  0.15835815991E+03  0.00000000000E+00 0. -1.
         25    2    1    2    0    0  0.43560485851E+02  0.48124289024E+02 -0.44341469040E+02  0.14773769965E+03  0.12508716520E+03 0.  0.
          5    1    3    3  502    0  0.37812794449E+02  0.25699624771E+02 -0.87370448507E+02  0.98698256366E+02  0.41800000000E+01 0. -1.
         -5    1    3    3    0  502  0.57476914015E+01  0.22424664253E+02  0.43028979466E+02  0.49039443280E+02  0.41800000000E+01 0. -1.
        -11    1    1    2    0    0 -0.13971923284E+02 -0.31608353106E+02 -0.30918047499E+02  0.46370554099E+02  0.00000000000E+00 0. -1.
         11    1    1    2    0    0 -0.29588562567E+02 -0.16515935918E+02 -0.11548674453E+02  0.35799875079E+02  0.00000000000E+00 0.  1.
</event>
<event>
 8    1  0.4205029E-010  0.1481294E+03  0.7561462E-02  0.1202791E+00
         -2   -1    0    0    0  501 -0.00000000000E+00  0.00000000000E+00  0.10613841812E+03  0.10613841812E+03  0.00000000000E+00 0.  1.
          2   -1    0    0  501    0  0.00000000000E+00 -0.00000000000E+00 -0.29520641910E+03  0.29520641910E+03  0.00000000000E+00 0. -1.
         25    2    1    2    0    0 -0.22744586173E+02  0.13637853579E+03 -0.52465168994E+02  0.19369140353E+03  0.12508934655E+03 0.  0.
         23    2    1    2    0    0  0.22744586173E+02 -0.13637853579E+03 -0.13660283198E+03  0.20765343369E+03  0.73097151749E+02 0.  0.
          5    1    3    3  502    0 -0.25025417986E+02  0.12754518829E+03  0.99972605355E+01  0.13042800396E+03  0.41800000000E+01 0.  1.
         -5    1    3    3    0  502  0.22808318129E+01  0.88333475038E+01 -0.62462429529E+02  0.63263399565E+02  0.41800000000E+01 0.  1.
        -11    1    4    4    0    0  0.11190532361E+02 -0.14261244821E+03 -0.12192364374E+03  0.18795987152E+03  0.00000000000E+00 0.  1.
         11    1    4    4    0    0  0.11554053811E+02  0.62339124202E+01 -0.14679188242E+02  0.19693562171E+02  0.00000000000E+00 0. -1.
</event>
<event>
 8    1  0.4205029E-010  0.1042028E+03  0.7561462E-02  0.1271698E+00
          2   -1    0    0  501    0  0.00000000000E+00  0.00000000000E+00  0.10293281505E+04  0.10293281505E+04  0.00000000000E+00 0. -1.
         -2   -1    0    0    0  501 -0.00000000000E+00 -0.00000000000E+00 -0.12129761718E+02  0.12129761718E+02  0.00000000000E+00 0.  1.
         25    2    1    2    0    0  0.19129005996E+02  0.52332422784E+02  0.68074705743E+03  0.69438270799E+03  0.12508472174E+03 0.  0.
         23    2    1    2    0    0 -0.19129005996E+02 -0.52332422784E+02  0.33645133135E+03  0.34707520423E+03  0.64475558755E+02 0.  0.
          5    1    3    3  502    0 -0.28792281308E+01 -0.34914084916E+02  0.87646956123E+02  0.94481451078E+02  0.41800000000E+01 0.  1.
         -5    1    3    3    0  502  0.22008234127E+02  0.87246507700E+02  0.59310010130E+03  0.59990125691E+03  0.41800000000E+01 0.  1.
        -11    1    4    4    0    0  0.22617174188E+02 -0.20849475436E+02  0.89180142264E+02  0.94336286594E+02  0.00000000000E+00 0.  1.
         11    1    4    4    0    0 -0.41746180184E+02 -0.31482947347E+02  0.24727118909E+03  0.25273891763E+03  0.00000000000E+00 0. -1.
</event>
<event>
 8    1  0.4205029E-010  0.1453269E+03  0.7561462E-02  0.1206336E+00
          2   -1    0    0  501    0  0.00000000000E+00  0.00000000000E+00  0.83436770889E+03  0.83436770889E+03  0.00000000000E+00 0. -1.
         -2   -1    0    0    0  501 -0.00000000000E+00 -0.00000000000E+00 -0.30838550705E+02  0.30838550705E+02  0.00000000000E+00 0.  1.
         25    2    1    2    0    0 -0.77724404050E+02 -0.10177584804E+03  0.41461445292E+03  0.45161043330E+03  0.12508969848E+03 0.  0.
         23    2    1    2    0    0  0.77724404050E+02  0.10177584804E+03  0.38891470527E+03  0.41359582630E+03  0.58373395735E+02 0.  0.
          5    1    3    3  502    0  0.22286384403E+02 -0.48950343104E+01  0.15736011507E+03  0.15906075099E+03  0.41800000000E+01 0.  1.
         -5    1    3    3    0  502 -0.10001078845E+03 -0.96880813731E+02  0.25725433785E+03  0.29254968231E+03  0.41800000000E+01 0.  1.
        -11    1    4    4    0    0  0.33770790818E+02  0.40275535881E+02  0.24980155534E+03  0.25527123253E+03  0.00000000000E+00 0. -1.
         11    1    4    4    0    0  0.43953613232E+02  0.61500312160E+02  0.13911314992E+03  0.15832459377E+03  0.00000000000E+00 0.  1.
</event>
<event>
 7    1  0.4205029E-010  0.1057581E+03  0.7561462E-02  0.1268633E+00
         -1   -1    0    0    0  501 -0.00000000000E+00  0.00000000000E+00  0.14221778935E+03  0.14221778935E+03  0.00000000000E+00 0.  1.
          1   -1    0    0  501    0  0.00000000000E+00 -0.00000000000E+00 -0.15146333437E+03  0.15146333437E+03  0.00000000000E+00 0. -1.
         25    2    1    2    0    0  0.40866851818E+02 -0.48039354195E+02 -0.68056868047E+01  0.14025099782E+03  0.12508455495E+03 0.  0.
          5    1    3    3  502    0 -0.20254624490E+02 -0.56415804082E+01 -0.49809384799E+02  0.54226602851E+02  0.41800000000E+01 0.  1.
         -5    1    3    3    0  502  0.61121476308E+02 -0.42397773787E+02  0.43003697994E+02  0.86024394967E+02  0.41800000000E+01 0.  1.
        -11    1    1    2    0    0  0.33058970075E+01  0.67303131860E+02 -0.51386251083E+02  0.84741886417E+02  0.00000000000E+00 0. -1.
         11    1    1    2    0    0 -0.44172748826E+02 -0.19263777665E+02  0.48946392868E+02  0.68688239485E+02  0.00000000000E+00 0.  1.
</event>
<event>
 8    1  0.4205029E-010  0.1374906E+03  0.7561462E-02  0.1216746E+00
          2   -1    0    0  501    0  0.00000000000E+00  0.00000000000E+00  0.18584125978E+03  0.18584125978E+03  0.00000000000E+00 0. -1.
         -2   -1    0    0    0  501 -0.00000000000E+00 -0.00000000000E+00 -0.10542479352E+03  0.10542479352E+03  0.00000000000E+00 0.  1.
         25    2    1    2    0    0 -0.95182136551E+02  0.28107340022E+00  0.33129170018E+02  0.16063849168E+03  0.12508982765E+03 0.  0.
         23    2    1    2    0    0  0.95182136551E+02 -0.28107340022E+00  0.47287296244E+02  0.13062756163E+03  0.75945726343E+02 0.  0.
          5    1    3    3  502    0 -0.52080096885E+02 -0.62004678490E+02  0.21570155692E+02  0.83902685670E+02  0.41800000000E+01 0. -1.
         -5    1    3    3    0  502 -0.43102039667E+02  0.62285751890E+02  0.11559014325E+02  0.76735806010E+02  0.41800000000E+01 0. -1.
        -11    1    4    4    0    0  0.37855455842E+02  0.34304731368E+02  0.47528852147E+01  0.51307309899E+02  0.00000000000E+00 0.  1.
         11    1    4    4    0    0  0.57326680709E+02 -0.34585804768E+02  0.42534411029E+02  0.79320251728E+02  0.00000000000E+00 0. -1.
</event>
<event>
 8    1  0.4205029E-010  0.9018618E+02  0.7561462E-02  0.1302401E+00
          1   -1    0    0  501    0  0.00000000000E+00  0.00000000000E+00  0.34227788384E+03  0.34227788384E+03  0.00000000000E+00 0. -1.
         -1   -1    0    0    0  501 -0.00000000000E+00 -0.00000000000E+00 -0.34226378461E+02  0.34226378461E+02  0.00000000000E+00 0.  1.
         25    2    1    2    0    0  0.17611668345E+02  0.19553431768E+02  0.22897674493E+03  0.26224758936E+03  0.12510372037E+03 0.  0.
         23    2    1    2    0    0 -0.17611668345E+02 -0.19553431768E+02  0.79074760449E+02  0.11425667294E+03  0.78161768247E+02 0.  0.
          5    1    3    3  502    0  0.30453781429E+02  0.53962640450E+02  0.50676540909E+02  0.80155995198E+02  0.41800000000E+01 0. -1.
         -5    1    3    3    0  502 -0.12842113084E+02 -0.34409208682E+02  0.17830020402E+03  0.18209159416E+03  0.41800000000E+01 0. -1.
        -11    1    4    4    0    0 -0.13061274561E+02 -0.49407679495E+02  0.58688567264E+02  0.77820714554E+02  0.00000000000E+00 0.  1.
         11    1    4    4    0    0 -0.45503937848E+01  0.29854247727E+02  0.20386193185E+02  0.36435958386E+02  0.00000000000E+00 0. -1.
</event>
<event>
 8    1  0.4205029E-010  0.1463866E+03  0.7561462E-02  0.1204985E+00
          2   -1    0    0  501    0  0.00000000000E+00  0.00000000000E+00  0.18175282917E+03  0.18175282917E+03  0.00000000000E+00 0. -1.
         -2   -1    0    0    0  501 -0.00000000000E+00 -0.00000000000E+00 -0.13845262565E+03  0.13845262565E+03  0.00000000000E+00 0.  1.
         25    2    1    2    0    0 -0.83905800868E+02  0.52054252728E+02 -0.43684519748E+01  0.15943405203E+03  0.12510117876E+03 0.  0.
         23    2    1    2    0    0  0.83905800868E+02 -0.52054252728E+02  0.47668655493E+02  0.16077140278E+03  0.11758109793E+03 0.  0.
          5    1    3    3  502    0  0.20663996884E+02  0.28595328542E+02 -0.32934867924E+02  0.48444519884E+02  0.41800000000E+01 0. -1.
         -5    1    3    3    0  502 -0.10456979775E+03  0.23458924187E+02  0.28566415949E+02  0.11098953215E+03  0.41800000000E+01 0. -1.
        -11    1    4    4    0    0  0.74331376674E+02  0.20266114555E+02  0.72848993096E+01  0.77388233701E+02  0.00000000000E+00 0. -1.
         11    1    4    4    0    0  0.95744241939E+01 -0.72320367284E+02  0.40383756184E+02  0.83383169082E+02  0.00000000000E+00 0.  1.
</event>
<event>
 8    1  0.4205029E-010  0.1297694E+03  0.7561462E-02  0.1227798E+00
         -1   -1    0    0    0  501 -0.00000000000E+00  0.00000000000E+00  0.34816734642E+02  0.34816734642E+02  0.00000000000E+00 0.  1.
          1   -1    0    0  501    0  0.00000000000E+00 -0.00000000000E+00 -0.59630628240E+03  0.59630628240E+03  0.00000000000E+00 0. -1.
         25    2    1    2    0    0  0.81241350384E+02  0.31299165764E+02 -0.29840638168E+03  0.33507361033E+03  0.12509260939E+03 0.  0.
         23    2    1    2    0    0 -0.81241350384E+02 -0.31299165764E+02 -0.26308316609E+03  0.29604940672E+03  0.10417631280E+03 0.  0.
          5    1    3    3  502    0  0.10233605171E+03  0.24086860941E+02 -0.29360607302E+03  0.31188915157E+03  0.41800000000E+01 0.  1.
         -5    1    3    3    0  502 -0.21094701327E+02  0.72123048224E+01 -0.48003086543E+01  0.23184458762E+02  0.41800000000E+01 0.  1.
        -11    1    4    4    0    0 -0.64302531517E+02 -0.66544692660E+02 -0.21502737989E+03  0.23409354067E+03  0.00000000000E+00 0.  1.
         11    1    4    4    0    0 -0.16938818867E+02  0.35245526896E+02 -0.48055786200E+02  0.61955866050E+02  0.00000000000E+00 0. -1.
</event>
<event>
 8    1  0.4205029E-010  0.9177443E+02  0.7561462E-02  0.1298611E+00
         -2   -1    0    0    0  501 -0.00000000000E+00  0.00000000000E+00  0.22233830411E+02  0.22233830411E+02  0.00000000000E+00 0.  1.
          2   -1    0    0  501    0  0.00000000000E+00 -0.00000000000E+00 -0.47032893632E+03  0.47032893632E+03  0.00000000000E+00 0. -1.
         25    2    1    2    0    0  0.23011153352E+01  0.58788162743E+01 -0.28818836191E+03  0.31423105973E+03  0.12509504924E+03 0.  0.
         23    2    1    2    0    0 -0.23011153352E+01 -0.58788162743E+01 -0.15990674399E+03  0.17833170700E+03  0.78690376377E+02 0.  0.
          5    1    3    3  502    0 -0.52607636380E+02  0.32793806921E+02 -0.11829934840E+03  0.13362337150E+03  0.41800000000E+01 0.  1.
         -5    1    3    3    0  502  0.54908751716E+02 -0.26914990647E+02 -0.16988901351E+03  0.18060768823E+03  0.41800000000E+01 0.  1.
        -11    1    4    4    0    0 -0.29820609380E+02 -0.11631243347E+02 -0.25243658030E+02  0.40765142417E+02  0.00000000000E+00 0.  1.
         11    1    4    4    0    0  0.27519494045E+02  0.57524270729E+01 -0.13466308596E+03  0.13756656458E+03  0.00000000000E+00 0. -1.
</event>
<event>
 7    1  0.4205029E-010  0.1501988E+03  0.7561462E-02  0.1200229E+00
         -1   -1    0    0    0  501 -0.00000000000E+00  0.00000000000E+00  0.65484641563E+02  0.65484641563E+02  0.00000000000E+00 0.  1.
          1   -1    0    0  501    0  0.00000000000E+00 -0.00000000000E+00 -0.46061720200E+03  0.46061720200E+03  0.00000000000E+00 0. -1.
         25    2    1    2    0    0  0.10728116272E+03  0.29615631042E+02 -0.13741499945E+03  0.21660245407E+03  0.12508959812E+03 0.  0.
          5    1    3    3  502    0  0.11939251920E+02  0.46812929676E+02 -0.91237165259E-01  0.48492028680E+02  0.41800000000E+01 0. -1.
         -5    1    3    3    0  502  0.95341910795E+02 -0.17197298634E+02 -0.13732376229E+03  0.16811042539E+03  0.41800000000E+01 0. -1.
        -11    1    1    2    0    0 -0.35080306326E+02 -0.65504350278E+02 -0.58458088843E+02  0.94545205846E+02  0.00000000000E+00 0.  1.
         11    1    1    2    0    0 -0.72200856389E+02  0.35888719236E+02 -0.19925947214E+03  0.21495418365E+03  0.00000000000E+00 0. -1.
</event>
<event>
 7    1  0.4205029E-010  0.1418962E+03  0.7561462E-02  0.1210800E+00
          2   -1    0    0  501    0  0.00000000000E+00  0.00000000000E+00  0.17433002789E+03  0.17433002789E+03  0.00000000000E+00 0.  1.
         -2   -1    0    0    0  501 -0.00000000000E+00 -0.00000000000E+00 -0.13961726327E+03  0.13961726327E+03  0.00000000000E+00 0. -1.
         25    2    1    2    0    0  0.11795307827E+03  0.30020620925E+02  0.53113016871E+02  0.18242548960E+03  0.12507557851E+03 0.  0.
          5    1    3    3  502    0  0.86936222255E+02  0.67527020364E+02  0.70254599654E+02  0.13065598491E+03  0.41800000000E+01 0.  1.
         -5    1    3    3    0  502  0.31016856018E+02 -0.37506399439E+02 -0.17141582783E+02  0.51769504695E+02  0.41800000000E+01 0.  1.
        -11    1    1    2    0    0 -0.87400104346E+02 -0.34383107186E+02  0.29956895195E+01  0.93967816061E+02  0.00000000000E+00 0.  1.
         11    1    1    2    0    0 -0.30552973927E+02  0.43624862614E+01 -0.21395941777E+02  0.37553985497E+02  0.00000000000E+00 0. -1.
</event>
<event>
 8    1  0.4205029E-010  0.8636391E+02  0.7561462E-02  0.1311904E+00
          3   -1    0    0  501    0  0.00000000000E+00  0.00000000000E+00  0.61928565167E+02  0.61928565167E+02  0.00000000000E+00 0. -1.
         -3   -1    0    0    0  501 -0.00000000000E+00 -0.00000000000E+00 -0.29249977831E+03  0.29249977831E+03  0.00000000000E+00 0.  1.
         25    2    1    2    0    0  0.34252019941E+01  0.88431445121E+01 -0.19244518822E+03  0.22972362685E+03  0.12509141078E+03 0.  0.
         23    2    1    2    0    0 -0.34252019941E+01 -0.88431445121E+01 -0.38126024916E+02  0.12470471662E+03  0.11835429590E+03 0.  0.
          5    1    3    3  502    0  0.63850193056E+02  0.87247978515E+00 -0.10720598115E+03  0.12485272591E+03  0.41800000000E+01 0.  1.
         -5    1    3    3    0  502 -0.60424991062E+02  0.79706647270E+01 -0.85239207076E+02  0.10487090094E+03  0.41800000000E+01 0.  1.
        -11    1    4    4    0    0  0.17419651796E+02 -0.17845153702E+02 -0.76309174872E+02  0.80280657377E+02  0.00000000000E+00 0.  1.
         11    1    4    4    0    0 -0.20844853790E+02  0.90020091895E+01  0.38183149956E+02  0.44424059242E+02  0.00000000000E+00 0. -1.
</event>
<event>
 7    1  0.4205029E-010  0.1254387E+03  0.7561462E-02  0.1234385E+00
         -2   -1    0    0    0  501 -0.00000000000E+00  0.00000000000E+00  0.13003859072E+02  0.13003859072E+02  0.00000000000E+00 0.  1.
          2   -1    0    0  501    0  0.00000000000E+00 -0.00000000000E+00 -0.16689636713E+04  0.16689636713E+04  0.00000000000E+00 0. -1.
         25    2    1    2    0    0  0.59190142931E+02  0.79726070323E+02 -0.12783022599E+04  0.12882405092E+04  0.12508885894E+03 0.  0.
          5    1    3    3  502    0  0.13129101826E+02  0.93855033486E+02 -0.10787135035E+04  0.10828764637E+04  0.41800000000E+01 0. -1.
         -5    1    3    3    0  502  0.46061041105E+02 -0.14128963162E+02 -0.19958875632E+03  0.20536404544E+03  0.41800000000E+01 0. -1.
        -11    1    1    2    0    0  0.33751314317E+01 -0.22864717891E+02 -0.46220305118E+02  0.51676914010E+02  0.00000000000E+00 0.  1.
         11    1    1    2    0    0 -0.62565274363E+02 -0.56861352432E+02 -0.33143724730E+03  0.34205010723E+03  0.00000000000E+00 0. -1.
</event>
<event>
 7    1  0.4205029E-010  0.1051178E+03  0.7561462E-02  0.1269888E+00
          2   -1    0    0  501    0  0.00000000000E+00  0.00000000000E+00  0.82897034966E+03  0.82897034966E+03  0.00000000000E+00 0. -1.
         -2   -1    0    0    0  501 -0.00000000000E+00 -0.00000000000E+00 -0.16053232413E+02  0.16053232413E+02  0.00000000000E+00 0.  1.
         25    2    1    2    0    0  0.60578619335E+02 -0.24817724382E+02  0.38308116551E+03  0.40827034078E+03  0.12509117966E+03 0.  0.
          5    1    3    3  502    0  0.37572251892E+02  0.45335929131E+02  0.10427199571E+03  0.11982129223E+03  0.41800000000E+01 0.  1.
         -5    1    3    3    0  502  0.23006367442E+02 -0.70153653513E+02  0.27880916981E+03  0.28844904856E+03  0.41800000000E+01 0.  1.
        -11    1    1    2    0    0 -0.10157728914E+02  0.24840571697E+02  0.13598947686E+03  0.13861230565E+03  0.00000000000E+00 0. -1.
         11    1    1    2    0    0 -0.50420890420E+02 -0.22847315370E-01  0.29384647487E+03  0.29814093565E+03  0.00000000000E+00 0.  1.
</event>
<event>
 8    1  0.4205029E-010  0.9817801E+02  0.7561462E-02  0.1284175E+00
          1   -1    0    0  501    0  0.00000000000E+00  0.00000000000E+00  0.26838352778E+02  0.26838352778E+02  0.00000000000E+00 0. -1.
         -1   -1    0    0    0  501 -0.00000000000E+00 -0.00000000000E+00 -0.40757629985E+03  0.40757629985E+03  0.00000000000E+00 0.  1.
         25    2    1    2    0    0  0.10267921348E+02  0.33242712499E+02 -0.28741344977E+03  0.31538016035E+03  0.12509055237E+03 0.  0.
         23    2    1    2    0    0 -0.10267921348E+02 -0.33242712499E+02 -0.93324497303E+02  0.11903449228E+03  0.65186198015E+02 0.  0.
          5    1    3    3  502    0  0.11839596157E+02  0.79653903527E+02 -0.21076840167E+03  0.22566725931E+03  0.41800000000E+01 0.  1.
         -5    1    3    3    0  502 -0.15716748089E+01 -0.46411191028E+02 -0.76645048102E+02  0.89712901039E+02  0.41800000000E+01 0.  1.
        -11    1    4    4    0    0 -0.24487810543E+02  0.77653337057E+01 -0.15721840458E+02  0.30118591271E+02  0.00000000000E+00 0.  1.
         11    1    4    4    0    0  0.14219889196E+02 -0.41008046205E+02 -0.77602656846E+02  0.88915901006E+02  0.00000000000E+00 0. -1.
</event>
<event>
 8    1  0.4205029E-010  0.1305295E+03  0.7561462E-02  0.1226672E+00
          2   -1    0    0  501    0  0.00000000000E+00  0.00000000000E+00  0.49543234177E+03  0.49543234177E+03  0.00000000000E+00 0. -1.
         -2   -1    0    0    0  501 -0.00000000000E+00 -0.00000000000E+00 -0.50389715503E+02  0.50389715503E+02  0.00000000000E+00 0.  1.
         25    2    1    2    0    0 -0.65185061391E+02  0.53103187161E+02  0.11564136028E+03  0.18997340181E+03  0.12509168027E+03 0.  0.
         23    2    1    2    0    0  0.65185061391E+02 -0.53103187161E+02  0.32940126599E+03  0.35584865546E+03  0.10513815123E+03 0.  0.
          5    1    3    3  502    0  0.17850545091E+02  0.64257376571E+02  0.52573639827E+02  0.85024187197E+02  0.41800000000E+01 0. -1.
         -5    1    3    3    0  502 -0.83035606482E+02 -0.11154189410E+02  0.63067720452E+02  0.10494921461E+03  0.41800000000E+01 0. -1.
        -11    1    4    4    0    0  0.26945158222E+02 -0.64951127629E+02  0.95775157170E+02  0.11881738620E+03  0.00000000000E+00 0.  1.
         11    1    4    4    0    0  0.38239903169E+02  0.11847940468E+02  0.23362610882E+03  0.23703126926E+03  0.00000000000E+00 0. -1.
</event>
<event>
 8    1  0.4205029E-010  0.1863333E+03  0.7561462E-02  0.1161811E+00
         -1   -1    0    0    0  501 -0.00000000000E+00  0.00000000000E+00  0.43869397866E+02  0.43869397866E+02  0.00000000000E+00 0.  1.
          1   -1    0    0  501    0  0.00000000000E+00 -0.00000000000E+00 -0.10937406646E+04  0.10937406646E+04  0.00000000000E+00 0. -1.
         25    2    1    2    0    0  0.10533875496E+03 -0.10645419236E+03 -0.82245478814E+03  0.84528637973E+03  0.12509371234E+03 0.  0.
         23    2    1    2    0    0 -0.10533875496E+03  0.10645419236E+03 -0.22741647859E+03  0.29232368273E+03  0.10633029850E+03 0.  0.
          5    1    3    3  502    0  0.36256535212E+02 -0.11620887691E+03 -0.44258491147E+03  0.45904021140E+03  0.41800000000E+01 0.  1.
         -5    1    3    3    0  502  0.69082219749E+02  0.97546845530E+01 -0.37986987667E+03  0.38624616834E+03  0.41800000000E+01 0.  1.
        -11    1    4    4    0    0 -0.10889968866E+03  0.42474209308E+02 -0.16984506053E+03  0.20618085564E+03  0.00000000000E+00 0. -1.
         11    1    4    4    0    0  0.35609337014E+01  0.63979983052E+02 -0.57571418066E+02  0.86142827085E+02  0.00000000000E+00 0.  1.
</event>
<event>
 8    1  0.4205029E-010  0.9549000E+02  0.7561462E-02  0.1290076E+00
          2   -1    0    0  501    0  0.00000000000E+00  0.00000000000E+00  0.11117717807E+03  0.11117717807E+03  0.00000000000E+00 0. -1.
         -2   -1    0    0    0  501 -0.00000000000E+00 -0.00000000000E+00 -0.13118150862E+03  0.13118150862E+03  0.00000000000E+00 0.  1.
         25    2    1    2    0    0  0.37947572957E+01 -0.54986925209E+01 -0.37713189774E+02  0.13082070704E+03  0.12508851628E+03 0.  0.
         23    2    1    2    0    0 -0.37947572957E+01  0.54986925209E+01  0.17708859222E+02  0.11153797966E+03  0.10992034120E+03 0.  0.
          5    1    3    3  502    0 -0.52437455243E+02  0.23253764949E+02 -0.74174630841E+00  0.57519100169E+02  0.41800000000E+01 0.  1.
         -5    1    3    3    0  502  0.56232212539E+02 -0.28752457470E+02 -0.36971443466E+02  0.73301606868E+02  0.41800000000E+01 0.  1.
        -11    1    4    4    0    0 -0.16097972725E+02  0.34826433830E+02  0.52095217598E+02  0.64698816958E+02  0.00000000000E+00 0. -1.
         11    1    4    4    0    0  0.12303215429E+02 -0.29327741309E+02 -0.34386358376E+02  0.46839162701E+02  0.00000000000E+00 0.  1.
</event>
<event>
 8    1  0.4205029E-010  0.1494956E+03  0.7561462E-02  0.1201094E+00
          1   -1    0    0  501    0  0.00000000000E+00  0.00000000000E+00  0.51470980432E+03  0.51470980432E+03  0.00000000000E+00 0. -1.
         -1   -1    0    0    0  501 -0.00000000000E+00 -0.00000000000E+00 -0.87985581813E+02  0.87985581813E+02  0.00000000000E+00 0.  1.
         25    2    1    2    0    0  0.96064633813E+02 -0.55817783450E+01  0.42364489443E+03  0.45208740320E+03  0.12509377855E+03 0.  0.
         23    2    1    2    0    0 -0.96064633813E+02  0.55817783450E+01  0.30793280712E+01  0.15060798293E+03  0.11581758132E+03 0.  0.
          5    1    3    3  502    0  0.30210505207E+02  0.54722015287E+02  0.23700382030E+03  0.24514374726E+03  0.41800000000E+01 0. -1.
         -5    1    3    3    0  502  0.65854128605E+02 -0.60303793632E+02  0.18664107413E+03  0.20694365594E+03  0.41800000000E+01 0. -1.
        -11    1    4    4    0    0  0.24486267786E+02 -0.77104642841E+01  0.13271154408E+02  0.28898998406E+02  0.00000000000E+00 0. -1.
         11    1    4    4    0    0 -0.12055090160E+03  0.13292242629E+02 -0.10191826337E+02  0.12170898453E+03  0.00000000000E+00 0.  1.
</event>
<event>
 8    1  0.5121026E-010  0.1008417E+03  0.7561462E-02  0.1278536E+00
         -2   -1    0    0    0  501 -0.00000000000E+00  0.00000000000E+00  0.83891589466E+02  0.83891589466E+02  0.00000000000E+00 0.  1.
          2   -1    0    0  501    0  0.00000000000E+00 -0.00000000000E+00 -0.20016092848E+03  0.20016092848E+03  0.00000000000E+00 0. -1.
         25    2    1    2    0    0 -0.38440858681E+02  0.32401621006E+02 -0.29681639342E+02  0.13804407392E+03  0.12509037521E+03 0.  0.
         23    2    1    2    0    0  0.38440858681E+02 -0.32401621006E+02 -0.86587699677E+02  0.14600844403E+03  0.10627074542E+03 0.  0.
          5    1    3    3  502    0  0.12902825803E+02  0.68070492280E+02 -0.17172930857E+01  0.69429794242E+02  0.41800000000E+01 0.  1.
         -5    1    3    3    0  502 -0.51343684484E+02 -0.35668871273E+02 -0.27964346256E+02  0.68614279679E+02  0.41800000000E+01 0.  1.
        -11    1    4    4    0    0  0.16031797110E+02  0.11903545537E+02  0.20100737373E+02  0.28332888273E+02  0.00000000000E+00 0.  1.
         11    1    4    4    0    0  0.22409061570E+02 -0.44305166543E+02 -0.10668843705E+03  0.11767555576E+03  0.00000000000E+00 0. -1.
</event>
<event>
 8    1  0.4205029E-010  0.1909340E+03  0.7561462E-02  0.1157622E+00
          2   -1    0    0  501    0  0.00000000000E+00  0.00000000000E+00  0.55791331406E+02  0.55791331406E+02  0.00000000000E+00 0. -1.
         -2   -1    0    0    0  501 -0.00000000000E+00 -0.00000000000E+00 -0.12581181869E+04  0.12581181869E+04  0.00000000000E+00 0.  1.
         25    2    1    2    0    0 -0.17961033137E+03  0.21196355186E+02 -0.97847048914E+03  0.10028761897E+04  0.12508795797E+03 0.  0.
         23    2    1    2    0    0  0.17961033137E+03 -0.21196355186E+02 -0.22385636634E+03  0.31103332855E+03  0.11798687262E+03 0.  0.
          5    1    3    3  502    0 -0.13468367197E+03  0.22602811446E+02 -0.40088010678E+03  0.42352439244E+03  0.41800000000E+01 0.  1.
         -5    1    3    3    0  502 -0.44926659400E+02 -0.14064562606E+01 -0.57759038236E+03  0.57935179730E+03  0.41800000000E+01 0.  1.
        -11    1    4    4    0    0  0.12531606272E+02  0.23944059727E+02 -0.84856363402E+02  0.89055946246E+02  0.00000000000E+00 0.  1.
         11    1    4    4    0    0  0.16707872509E+03 -0.45140414912E+02 -0.13900000294E+03  0.22197738230E+03  0.00000000000E+00 0. -1.
</event>
<event>
 8    1  0.4205029E-010  0.1124173E+03  0.7561462E-02  0.1256158E+00
          2   -1    0    0  501    0  0.00000000000E+00  0.00000000000E+00  0.95337987245E+03  0.95337987245E+03  0.00000000000E+00 0. -1.
         -2   -1    0    0    0  501 -0.00000000000E+00 -0.00000000000E+00 -0.20179205363E+02  0.20179205363E+02  0.00000000000E+00 0.  1.
         25    2    1    2    0    0 -0.31266263333E+02 -0.67567291988E+02  0.43865630002E+03  0.46217922212E+03  0.12508943058E+03 0.  0.
         23    2    1    2    0    0  0.31266263333E+02  0.67567291988E+02  0.49454436706E+03  0.51137985569E+03  0.10673475368E+03 0.  0.
          5    1    3    3  502    0 -0.18773878740E+02 -0.91496468395E+02  0.18725940417E+03  0.20930269731E+03  0.41800000000E+01 0. -1.
         -5    1    3    3    0  502 -0.12492384592E+02  0.23929176407E+02  0.25139689585E+03  0.25287652480E+03  0.41800000000E+01 0. -1.
        -11    1    4    4    0    0  0.20003350487E+02 -0.12222577803E+02  0.22451118990E+02  0.32458869093E+02  0.00000000000E+00 0.  1.
         11    1    4    4    0    0  0.11262912845E+02  0.79789869792E+02  0.47209324807E+03  0.47892098660E+03  0.00000000000E+00 0. -1.
</event>
<event>
 8    1  0.4205029E-010  0.1306489E+03  0.7561462E-02  0.1226496E+00
         -1   -1    0    0    0  501 -0.00000000000E+00  0.00000000000E+00  0.12048381629E+03  0.12048381629E+03  0.00000000000E+00 0.  1.
          1   -1    0    0  501    0  0.00000000000E+00 -0.00000000000E+00 -0.21025120434E+03  0.21025120434E+03  0.00000000000E+00 0. -1.
         25    2    1    2    0    0 -0.57911323018E+02 -0.10039710324E+03 -0.10934796517E+02  0.17088126811E+03  0.12509012089E+03 0.  0.
         23    2    1    2    0    0  0.57911323018E+02  0.10039710324E+03 -0.78832591535E+02  0.15985375252E+03  0.76846242803E+02 0.  0.
          5    1    3    3  502    0  0.14228442604E+02 -0.58247797299E+02 -0.50347589501E+02  0.78406674701E+02  0.41800000000E+01 0.  1.
         -5    1    3    3    0  502 -0.72139765622E+02 -0.42149305939E+02  0.39412792983E+02  0.92474593408E+02  0.41800000000E+01 0.  1.
        -11    1    4    4    0    0  0.35869888953E+02  0.79256577108E+02 -0.91979257846E+02  0.12660346687E+03  0.00000000000E+00 0. -1.
         11    1    4    4    0    0  0.22041434065E+02  0.21140526130E+02  0.13146666312E+02  0.33250285650E+02  0.00000000000E+00 0.  1.
</event>
<event>
 8    1  0.4205029E-010  0.2281792E+03  0.7561462E-02  0.1127928E+00
          1   -1    0    0  501    0  0.00000000000E+00  0.00000000000E+00  0.11809083703E+04  0.11809083703E+04  0.00000000000E+00 0. -1.
         -1   -1    0    0    0  501 -0.00000000000E+00 -0.00000000000E+00 -0.51851680927E+02  0.51851680927E+02  0.00000000000E+00 0.  1.
         25    2    1    2    0    0  0.15467028526E+03  0.16357364488E+03  0.63809620149E+03  0.68810886431E+03  0.12509121607E+03 0.  0.
         23    2    1    2    0    0 -0.15467028526E+03 -0.16357364488E+03  0.49096048790E+03  0.54465118694E+03  0.70167516080E+02 0.  0.
          5    1    3    3  502    0  0.26942109159E+01 -0.27916686324E+01 -0.44187348063E+01  0.72145549759E+01  0.41800000000E+01 0. -1.
         -5    1    3    3    0  502  0.15197607434E+03  0.16636531352E+03  0.64251493630E+03  0.68089430933E+03  0.41800000000E+01 0. -1.
        -11    1    4    4    0    0 -0.56411363393E+02 -0.53691886981E+02  0.25317274638E+03  0.26488016188E+03  0.00000000000E+00 0. -1.
         11    1    4    4    0    0 -0.98258921864E+02 -0.10988175790E+03  0.23778774152E+03  0.27977102506E+03  0.00000000000E+00 0.  1.
</event>
<event>
 8    1  0.4205029E-010  0.1458551E+03  0.7561462E-02  0.1205661E+00
          1   -1    0    0  501    0  0.00000000000E+00  0.00000000000E+00  0.10382483587E+04  0.10382483587E+04  0.00000000000E+00 0. -1.
         -1   -1    0    0    0  501 -0.00000000000E+00 -0.00000000000E+00 -0.21132713800E+02  0.21132713800E+02  0.00000000000E+00 0.  1.
         25    2    1    2    0    0  0.82060326796E+02  0.12554780820E+02  0.43432978372E+03  0.45954669098E+03  0.12509708395E+03 0.  0.
         23    2    1    2    0    0 -0.82060326796E+02 -0.12554780820E+02  0.58278586116E+03  0.59983438149E+03  0.11519724606E+03 0.  0.
          5    1    3    3  502    0 -0.15965128766E+02  0.44028450913E+02  0.14300557715E+03  0.15053722903E+03  0.41800000000E+01 0.  1.
         -5    1    3    3    0  502  0.98025455563E+02 -0.31473670093E+02  0.29132420657E+03  0.30900946196E+03  0.41800000000E+01 0.  1.
        -11    1    4    4    0    0  0.24105031327E+02 -0.25036613970E+02  0.16160620267E+03  0.16530108685E+03  0.00000000000E+00 0.  1.
         11    1    4    4    0    0 -0.10616535812E+03  0.12481833150E+02  0.42117965849E+03  0.43453329464E+03  0.00000000000E+00 0. -1.
</event>
<event>
 7    1  0.4205029E-010  0.1395106E+03  0.7561462E-02  0.1213989E+00
          2   -1    0    0  501    0  0.00000000000E+00  0.00000000000E+00  0.31020730969E+03  0.31020730969E+03  0.00000000000E+00 0. -1.
         -2   -1    0    0    0  501 -0.00000000000E+00 -0.00000000000E+00 -0.66123031092E+02  0.66123031092E+02  0.00000000000E+00 0.  1.
         25    2    1    2    0    0 -0.51543354075E+02 -0.68529871588E+01  0.16031498117E+03  0.20988710813E+03  0.12509206286E+03 0.  0.
          5    1    3    3  502    0 -0.83468579220E+02 -0.36884814891E+02  0.11168550799E+03  0.14428658420E+03  0.41800000000E+01 0. -1.
         -5    1    3    3    0  502  0.31925225145E+02  0.30031827733E+02  0.48629473187E+02  0.65600523930E+02  0.41800000000E+01 0. -1.
        -11    1    1    2    0    0 -0.45909362295E+02 -0.48784381079E+00  0.22870342088E+02  0.51292885327E+02  0.00000000000E+00 0.  1.
         11    1    1    2    0    0  0.97452716370E+02  0.73408309695E+01  0.60898955334E+02  0.11515034732E+03  0.00000000000E+00 0. -1.
</event>
<event>
 8    1  0.4205029E-010  0.1420502E+03  0.7561462E-02  0.1210597E+00
          1   -1    0    0  501    0  0.00000000000E+00  0.00000000000E+00  0.16187147627E+03  0.16187147627E+03  0.00000000000E+00 0. -1.
         -1   -1    0    0    0  501 -0.00000000000E+00 -0.00000000000E+00 -0.15287171137E+03  0.15287171137E+03  0.00000000000E+00 0.  1.
         25    2    1    2    0    0  0.93986823683E+02 -0.44903749694E+02  0.20784055107E+02  0.16410167734E+03  0.12509002277E+03 0.  0.
         23    2    1    2    0    0 -0.93986823683E+02  0.44903749694E+02 -0.11784290211E+02  0.15064151030E+03  0.10818560610E+03 0.  0.
          5    1    3    3  502    0  0.70068393202E+02  0.26705196287E+02 -0.20638331662E+02  0.77885559435E+02  0.41800000000E+01 0. -1.
         -5    1    3    3    0  502  0.23918430481E+02 -0.71608945980E+02  0.41422386770E+02  0.86216117906E+02  0.41800000000E+01 0. -1.
        -11    1    4    4    0    0 -0.48189087013E+02  0.67004816362E+02  0.26835711730E+02  0.86787032135E+02  0.00000000000E+00 0. -1.
         11    1    4    4    0    0 -0.45797736670E+02 -0.22101066668E+02 -0.38620001940E+02  0.63854478166E+02  0.00000000000E+00 0.  1.
</event>
<event>
 7    1  0.4205029E-010  0.1709517E+03  0.7561462E-02  0.1176859E+00
         -2   -1    0    0    0  501 -0.00000000000E+00  0.00000000000E+00  0.91302506384E+02  0.91302506384E+02  0.00000000000E+00 0.  1.
          2   -1    0    0  501    0  0.00000000000E+00 -0.00000000000E+00 -0.87821563499E+03  0.87821563499E+03  0.00000000000E+00 0. -1.
         25    2    1    2    0    0 -0.55998330211E+02 -0.11320996165E+03 -0.76615779241E+03  0.78650965506E+03  0.12508943292E+03 0.  0.
          5    1    3    3  502    0 -0.71078197198E+02 -0.27910866420E+02 -0.51844168419E+03  0.52405188568E+03  0.41800000000E+01 0. -1.
         -5    1    3    3    0  502  0.15079866987E+02 -0.85299095225E+02 -0.24771610823E+03  0.26245776938E+03  0.41800000000E+01 0. -1.
        -11    1    1    2    0    0 -0.33102586219E+02 -0.18790469758E+01 -0.17347299419E+02  0.37419791943E+02  0.00000000000E+00 0.  1.
         11    1    1    2    0    0  0.89100916430E+02  0.11508900862E+03 -0.34080367761E+01  0.14558869437E+03  0.00000000000E+00 0. -1.
</event>
<event>
 8    1  0.4205029E-010  0.1426898E+03  0.7561462E-02  0.1209755E+00
         -1   -1    0    0    0  501 -0.00000000000E+00  0.00000000000E+00  0.41078129061E+02  0.41078129061E+02  0.00000000000E+00 0.  1.
          1   -1    0    0  501    0  0.00000000000E+00 -0.00000000000E+00 -0.54230282990E+03  0.54230282990E+03  0.00000000000E+00 0. -1.
         25    2    1    2    0    0  0.94617136698E+02 -0.40961859716E+02 -0.33885648401E+03  0.37563460064E+03  0.12508940776E+03 0.  0.
         23    2    1    2    0    0 -0.94617136698E+02  0.40961859716E+02 -0.16236821683E+03  0.20774635833E+03  0.78516463571E+02 0.  0.
          5    1    3    3  502    0  0.30062645307E+02 -0.78906167229E+02 -0.14602876275E+03  0.16873594110E+03  0.41800000000E+01 0.  1.
         -5    1    3    3    0  502  0.64554491391E+02  0.37944307513E+02 -0.19282772126E+03  0.20689865953E+03  0.41800000000E+01 0.  1.
        -11    1    4    4    0    0  0.97917807378E+01 -0.58623835166E+01 -0.33583789279E+02  0.35469950844E+02  0.00000000000E+00 0. -1.
         11    1    4    4    0    0 -0.10440891744E+03  0.46824243233E+02 -0.12878442756E+03  0.17227640748E+03  0.00000000000E+00 0.  1.
</event>
<event>
 8    1  0.4205029E-010  0.9793468E+02  0.7561462E-02  0.1284700E+00
          1   -1    0    0  501    0  0.00000000000E+00  0.00000000000E+00  0.31281691765E+03  0.31281691765E+03  0.00000000000E+00 0. -1.
         -1   -1    0    0    0  501 -0.00000000000E+00 -0.00000000000E+00 -0.81112955551E+02  0.81112955551E+02  0.00000000000E+00 0.  1.
         25    2    1    2    0    0  0.51369680544E+02  0.30353452624E+02  0.23633450608E+03  0.27397219358E+03  0.12508632189E+03 0.  0.
         23    2    1    2    0    0 -0.51369680544E+02 -0.30353452624E+02 -0.46305439857E+01  0.11995767962E+03  0.10396262211E+03 0.  0.
          5    1    3    3  502    0  0.92969401708E+01  0.40046042538E+02  0.22551070014E+03  0.22926549434E+03  0.41800000000E+01 0.  1.
         -5    1    3    3    0  502  0.42072740374E+02 -0.96925899135E+01  0.10823805949E+02  0.44706699241E+02  0.41800000000E+01 0.  1.
        -11    1    4    4    0    0 -0.33261176022E+02 -0.64470424619E+02  0.18591833919E+02  0.74889236673E+02  0.00000000000E+00 0.  1.
         11    1    4    4    0    0 -0.18108504522E+02  0.34116971995E+02 -0.23222377905E+02  0.45068442947E+02  0.00000000000E+00 0. -1.
</event>
<event>
 8    1  0.4205029E-010  0.1710870E+03  0.7561462E-02  0.1176719E+00
         -2   -1    0    0    0  501 -0.00000000000E+00  0.00000000000E+00  0.62217534186E+02  0.62217534186E+02  0.00000000000E+00 0.  1.
          2   -1    0    0  501    0  0.00000000000E+00 -0.00000000000E+00 -0.62498761029E+03  0.62498761029E+03  0.00000000000E+00 0. -1.
         25    2    1    2    0    0  0.14649355520E+03 -0.56011067254E+01 -0.35146937237E+03  0.40083663441E+03  0.12509018212E+03 0.  0.
         23    2    1    2    0    0 -0.14649355520E+03  0.56011067254E+01 -0.21130070374E+03  0.28636851007E+03  0.12596508265E+03 0.  0.
          5    1    3    3  502    0  0.99582546586E+02  0.48885527265E+02 -0.14807607174E+03  0.18506883525E+03  0.41800000000E+01 0. -1.
         -5    1    3    3    0  502  0.46911008612E+02 -0.54486633991E+02 -0.20339330063E+03  0.21576779916E+03  0.41800000000E+01 0. -1.
        -11    1    4    4    0    0 -0.67361430997E+02  0.33503299129E+02 -0.20566105028E+02  0.77993577393E+02  0.00000000000E+00 0.  1.
         11    1    4    4    0    0 -0.79132124201E+02 -0.27902192403E+02 -0.19073459871E+03  0.20837493267E+03  0.00000000000E+00 0. -1.
</event>
<event>
 7    1  0.4205029E-010  0.9627417E+02  0.7561462E-02  0.1288332E+00
         -2   -1    0    0    0  501 -0.00000000000E+00  0.00000000000E+00  0.17149373096E+03  0.17149373096E+03  0.00000000000E+00 0.  1.
          2   -1    0    0  501    0  0.00000000000E+00 -0.00000000000E+00 -0.94435988950E+02  0.94435988950E+02  0.00000000000E+00 0. -1.
         25    2    1    2    0    0  0.97966128540E+01 -0.86371185159E+02  0.50510896485E+02  0.16048147841E+03  0.12508796504E+03 0.  0.
          5    1    3    3  502    0  0.26288662225E+02 -0.21205054993E+02 -0.36857598967E+02  0.50166753138E+02  0.41800000000E+01 0.  1.
         -5    1    3    3    0  502 -0.16492049371E+02 -0.65166130166E+02  0.87368495452E+02  0.11031472527E+03  0.41800000000E+01 0.  1.
        -11    1    1    2    0    0 -0.17806592682E+02  0.76015615287E+02  0.39094257771E+02  0.87314428940E+02  0.00000000000E+00 0.  1.
         11    1    1    2    0    0  0.80099798283E+01  0.10355569871E+02 -0.12547412244E+02  0.18133812567E+02  0.00000000000E+00 0. -1.
</event>
<event>
 7    1  0.4205029E-010  0.1147447E+03  0.7561462E-02  0.1252027E+00
         -2   -1    0    0    0  501 -0.00000000000E+00  0.00000000000E+00  0.57014158492E+02  0.57014158492E+02  0.00000000000E+00 0.  1.
          2   -1    0    0  501    0  0.00000000000E+00 -0.00000000000E+00 -0.50518006297E+03  0.50518006297E+03  0.00000000000E+00 0. -1.
         25    2    1    2    0    0 -0.76720085377E+02 -0.35997711747E+02 -0.26862765670E+03  0.30820501647E+03  0.12509079694E+03 0.  0.
          5    1    3    3  502    0 -0.23883394053E+02 -0.60981090915E+02 -0.22708655927E+03  0.23637869566E+03  0.41800000000E+01 0.  1.
         -5    1    3    3    0  502 -0.52836691324E+02  0.24983379168E+02 -0.41541097433E+02  0.71826320807E+02  0.41800000000E+01 0.  1.
        -11    1    1    2    0    0  0.17431448135E+01  0.30003099768E+02  0.23058693181E+02  0.37880441929E+02  0.00000000000E+00 0.  1.
         11    1    1    2    0    0  0.74976940564E+02  0.59946119795E+01 -0.20259694095E+03  0.21610876306E+03  0.00000000000E+00 0. -1.
</event>
<event>
 8    1  0.4205029E-010  0.1078542E+03  0.7561462E-02  0.1264596E+00
          2   -1    0    0  501    0  0.00000000000E+00  0.00000000000E+00  0.63052780327E+02  0.63052780327E+02  0.00000000000E+00 0. -1.
         -2   -1    0    0    0  501 -0.00000000000E+00 -0.00000000000E+00 -0.37341524296E+03  0.37341524296E+03  0.00000000000E+00 0.  1.
         25    2    1    2    0    0 -0.27668930646E+02 -0.81570352857E+02 -0.28754438390E+03  0.32519001967E+03  0.12508990365E+03 0.  0.
         23    2    1    2    0    0  0.27668930646E+02  0.81570352857E+02 -0.22818078733E+02  0.11127800361E+03  0.66654611113E+02 0.  0.
          5    1    3    3  502    0  0.15483998182E+02 -0.51794893476E+02 -0.29274561537E+02  0.61619295217E+02  0.41800000000E+01 0.  1.
         -5    1    3    3    0  502 -0.43152928827E+02 -0.29775459381E+02 -0.25826982236E+03  0.26357072446E+03  0.41800000000E+01 0.  1.
        -11    1    4    4    0    0  0.47465140973E+02  0.73543772384E+02 -0.19209727515E+02  0.89613836517E+02  0.00000000000E+00 0.  1.
         11    1    4    4    0    0 -0.19796210328E+02  0.80265804729E+01 -0.36083512179E+01  0.21664167095E+02  0.00000000000E+00 0. -1.
</event>
<event>
 8    1  0.4205029E-010  0.1224663E+03  0.7561462E-02  0.1239083E+00
          1   -1    0    0  501    0  0.00000000000E+00  0.00000000000E+00  0.51959105221E+03  0.51959105221E+03  0.00000000000E+00 0. -1.
         -1   -1    0    0    0  501 -0.00000000000E+00 -0.00000000000E+00 -0.38123415489E+02  0.38123415489E+02  0.00000000000E+00 0.  1.
         25    2    1    2    0    0  0.50303931808E+02  0.40591892880E+02  0.29231122445E+03  0.32445475858E+03  0.12508737389E+03 0.  0.
         23    2    1    2    0    0 -0.50303931808E+02 -0.40591892880E+02  0.18915641227E+03  0.23325970912E+03  0.12021545770E+03 0.  0.
          5    1    3    3  502    0  0.50286937121E+02  0.74489387789E+02  0.26753977017E+03  0.28226307935E+03  0.41800000000E+01 0. -1.
         -5    1    3    3    0  502  0.16994687440E-01 -0.33897494909E+02  0.24771454274E+02  0.42191679236E+02  0.41800000000E+01 0. -1.
        -11    1    4    4    0    0  0.16584012854E+02  0.23105670638E+02  0.74120597329E+01  0.29391157300E+02  0.00000000000E+00 0.  1.
         11    1    4    4    0    0 -0.66887944662E+02 -0.63697563517E+02  0.18174435254E+03  0.20386855182E+03  0.00000000000E+00 0. -1.
</event>
<event>
 8    1  0.4205029E-010  0.3078560E+03  0.7561462E-02  0.1081378E+00
          2   -1    0    0  501    0  0.00000000000E+00  0.00000000000E+00  0.55376107046E+03  0.55376107046E+03  0.00000000000E+00 0. -1.
         -2   -1    0    0    0  501 -0.00000000000E+00 -0.00000000000E+00 -0.19316122751E+03  0.19316122751E+03  0.00000000000E+00 0.  1.
         25    2    1    2    0    0 -0.23199811792E+03 -0.19904938989E+03  0.25067966954E+03  0.41464652900E+03  0.12509061100E+03 0.  0.
         23    2    1    2    0    0  0.23199811792E+03  0.19904938989E+03  0.10992017342E+03  0.33227576897E+03  0.69863837484E+02 0.  0.
          5    1    3    3  502    0 -0.30069791995E+02 -0.83851779969E+01 -0.10684707867E+02  0.33258667785E+02  0.41800000000E+01 0.  1.
         -5    1    3    3    0  502 -0.20192832592E+03 -0.19066421189E+03  0.26136437740E+03  0.38138786121E+03  0.41800000000E+01 0.  1.
        -11    1    4    4    0    0  0.14736621166E+03  0.11236101043E+03  0.31537092967E+02  0.18797974688E+03  0.00000000000E+00 0.  1.
         11    1    4    4    0    0  0.84631906253E+02  0.86688379456E+02  0.78383080453E+02  0.14429602209E+03  0.00000000000E+00 0. -1.
</event>
<event>
 8    1  0.4205029E-010  0.9710660E+02  0.7561462E-02  0.1286501E+00
          2   -1    0    0  501    0  0.00000000000E+00  0.00000000000E+00  0.24576331504E+03  0.24576331504E+03  0.00000000000E+00 0. -1.
         -2   -1    0    0    0  501 -0.00000000000E+00 -0.00000000000E+00 -0.80821487730E+02  0.80821487730E+02  0.00000000000E+00 0.  1.
         25    2    1    2    0    0 -0.70131906743E+02 -0.52260473840E+02  0.15439319299E+03  0.21710400777E+03  0.12508897105E+03 0.  0.
         23    2    1    2    0    0  0.70131906743E+02  0.52260473840E+02  0.10548634319E+02  0.10948079500E+03  0.65000994745E+02 0.  0.
          5    1    3    3  502    0  0.56723584211E+00 -0.17996727052E+02 -0.19115681513E+02  0.26591081603E+02  0.41800000000E+01 0.  1.
         -5    1    3    3    0  502 -0.70699142585E+02 -0.34263746788E+02  0.17350887450E+03  0.19051292617E+03  0.41800000000E+01 0.  1.
        -11    1    4    4    0    0 -0.14568392613E+01  0.17340694810E+02  0.23021804036E+02  0.28858716850E+02  0.00000000000E+00 0. -1.
         11    1    4    4    0    0  0.71588746005E+02  0.34919779030E+02 -0.12473169717E+02  0.80622078147E+02  0.00000000000E+00 0.  1.
</event>
<event>
 8    1  0.4205029E-010  0.8278269E+02  0.7561462E-02  0.1321335E+00
         -1   -1    0    0    0  501 -0.00000000000E+00  0.00000000000E+00  0.14677275466E+03  0.14677275466E+03  0.00000000000E+00 0.  1.
          1   -1    0    0  501    0  0.00000000000E+00 -0.00000000000E+00 -0.11761196562E+03  0.11761196562E+03  0.00000000000E+00 0. -1.
         25    2    1    2    0    0  0.20033098450E+02  0.57102859720E+02  0.80517158465E+02  0.16060352888E+03  0.12509364117E+03 0.  0.
         23    2    1    2    0    0 -0.20033098450E+02 -0.57102859720E+02 -0.51356369422E+02  0.10378119140E+03  0.66865517168E+02 0.  0.
          5    1    3    3  502    0 -0.52033444231E+01 -0.64958483616E+01  0.90808620382E+02  0.91284986580E+02  0.41800000000E+01 0. -1.
         -5    1    3    3    0  502  0.25236442873E+02  0.63598708082E+02 -0.10291461917E+02  0.69318542303E+02  0.41800000000E+01 0. -1.
        -11    1    4    4    0    0 -0.32586391533E+02 -0.36451928605E+01 -0.78318135386E+01  0.33711980770E+02  0.00000000000E+00 0.  1.
         11    1    4    4    0    0  0.12553293083E+02 -0.53457666860E+02 -0.43524555884E+02  0.70069210629E+02  0.00000000000E+00 0. -1.
</event>
<event>
 8    1  0.4205029E-010  0.1693482E+03  0.7561462E-02  0.1178529E+00
          2   -1    0    0  501    0  0.00000000000E+00  0.00000000000E+00  0.27550779833E+03  0.27550779833E+03  0.00000000000E+00 0. -1.
         -2   -1    0    0    0  501 -0.00000000000E+00 -0.00000000000E+00 -0.13382609943E+03  0.13382609943E+03  0.00000000000E+00 0.  1.
         25    2    1    2    0    0  0.19767087952E+02  0.13829901933E+03  0.96230151412E+01  0.18776974949E+03  0.12509004712E+03 0.  0.
         23    2    1    2    0    0 -0.19767087952E+02 -0.13829901933E+03  0.13205868376E+03  0.22156414828E+03  0.11015361698E+03 0.  0.
          5    1    3    3  502    0  0.61794370338E+02  0.42071263130E+02  0.30114107035E+02  0.80702337198E+02  0.41800000000E+01 0. -1.
         -5    1    3    3    0  502 -0.42027282385E+02  0.96227756199E+02 -0.20491091894E+02  0.10706741229E+03  0.41800000000E+01 0. -1.
        -11    1    4    4    0    0  0.24101614191E+02 -0.91367118299E+02  0.26748118116E+02  0.98205396672E+02  0.00000000000E+00 0.  1.
         11    1    4    4    0    0 -0.43868702143E+02 -0.46931901029E+02  0.10531056564E+03  0.12335875160E+03  0.00000000000E+00 0. -1.
</event>
<event>
 8    1  0.4205029E-010  0.1236651E+03  0.7561462E-02  0.1237170E+00
         -4   -1    0    0    0  501 -0.00000000000E+00  0.00000000000E+00  0.17603893941E+02  0.17603893941E+02  0.00000000000E+00 0.  1.
          4   -1    0    0  501    0  0.00000000000E+00 -0.00000000000E+00 -0.98871443267E+03  0.98871443267E+03  0.00000000000E+00 0. -1.
         25    2    1    2    0    0  0.84535682218E+02  0.13421671890E+02 -0.67152381666E+03  0.68841735891E+03  0.12509117022E+03 0.  0.
         23    2    1    2    0    0 -0.84535682218E+02 -0.13421671890E+02 -0.29958672207E+03  0.31790096770E+03  0.63106246746E+02 0.  0.
          5    1    3    3  502    0  0.96084614176E+02  0.50724719540E+02 -0.42002352219E+03  0.43386919901E+03  0.41800000000E+01 0. -1.
         -5    1    3    3    0  502 -0.11548931958E+02 -0.37303047649E+02 -0.25150029447E+03  0.25454815990E+03  0.41800000000E+01 0. -1.
        -11    1    4    4    0    0 -0.69073449608E+02  0.11472292477E+02 -0.25581853837E+03  0.26522797648E+03  0.00000000000E+00 0. -1.
         11    1    4    4    0    0 -0.15462232610E+02 -0.24893964367E+02 -0.43768183704E+02  0.52672991219E+02  0.00000000000E+00 0.  1.
</event>
<event>
 8    1  0.4205029E-010  0.8652500E+02  0.7561462E-02  0.1311492E+00
         -2   -1    0    0    0  501 -0.00000000000E+00  0.00000000000E+00  0.12007401343E+03  0.12007401343E+03  0.00000000000E+00 0.  1.
          2   -1    0    0  501    0  0.00000000000E+00 -0.00000000000E+00 -0.11230548552E+03  0.11230548552E+03  0.00000000000E+00 0. -1.
         25    2    1    2    0    0  0.12404502935E+02  0.48368640812E+02  0.43776374810E+02  0.14161960909E+03  0.12508535318E+03 0.  0.
         23    2    1    2    0    0 -0.12404502935E+02 -0.48368640812E+02 -0.36007846899E+02  0.90759889861E+02  0.66688795627E+02 0.  0.
          5    1    3    3  502    0  0.46627324816E+02  0.68101594060E+02  0.56267492907E+02  0.99977185853E+02  0.41800000000E+01 0.  1.
         -5    1    3    3    0  502 -0.34222821882E+02 -0.19732953248E+02 -0.12491118098E+02  0.41642423233E+02  0.41800000000E+01 0.  1.
        -11    1    4    4    0    0  0.59114619191E-01 -0.15992552856E+02  0.19551257958E+02  0.25258996994E+02  0.00000000000E+00 0.  1.
         11    1    4    4    0    0 -0.12463617554E+02 -0.32376087956E+02 -0.55559104857E+02  0.65500892867E+02  0.00000000000E+00 0. -1.
</event>
<event>
 8    1  0.7055153E-010  0.1326573E+03  0.7561462E-02  0.1223565E+00
         -3   -1    0    0    0  501 -0.00000000000E+00  0.00000000000E+00  0.48161203211E+02  0.48161203211E+02  0.00000000000E+00 0.  1.
          3   -1    0    0  501    0  0.00000000000E+00 -0.00000000000E+00 -0.53334814308E+03  0.53334814308E+03  0.00000000000E+00 0. -1.
         25    2    1    2    0    0  0.96734803256E+02 -0.21868811388E+02 -0.16049468581E+03  0.22637063620E+03  0.12509697714E+03 0.  0.
         23    2    1    2    0    0 -0.96734803256E+02  0.21868811388E+02 -0.32469225406E+03  0.35513871009E+03  0.10422368486E+03 0.  0.
          5    1    3    3  502    0  0.13056700370E+02  0.35590782850E+02 -0.21031130333E+01  0.38197862936E+02  0.41800000000E+01 0.  1.
         -5    1    3    3    0  502  0.83678102886E+02 -0.57459594238E+02 -0.15839157278E+03  0.18817277327E+03  0.41800000000E+01 0.  1.
        -11    1    4    4    0    0 -0.19364157254E+02 -0.27624265098E+02 -0.25849210406E+02  0.42500026905E+02  0.00000000000E+00 0.  1.
         11    1    4    4    0    0 -0.77370646002E+02  0.49493076485E+02 -0.29884304366E+03  0.31263868319E+03  0.00000000000E+00 0. -1.
</event>
<event>
 8    1  0.4205029E-010  0.1256559E+03  0.7561462E-02  0.1234048E+00
         -1   -1    0    0    0  501 -0.00000000000E+00  0.00000000000E+00  0.36950787979E+02  0.36950787979E+02  0.00000000000E+00 0.  1.
          1   -1    0    0  501    0  0.00000000000E+00 -0.00000000000E+00 -0.53544804802E+03  0.53544804802E+03  0.00000000000E+00 0. -1.
         25    2    1    2    0    0 -0.14270449246E+02 -0.56933873393E+02 -0.18432426524E+03  0.23036239837E+03  0.12508512369E+03 0.  0.
         23    2    1    2    0    0  0.14270449246E+02  0.56933873393E+02 -0.31417299481E+03  0.34203643763E+03  0.12181601840E+03 0.  0.
          5    1    3    3  502    0 -0.81270681225E+01  0.34968231269E+02 -0.18437185458E+02  0.40573743258E+02  0.41800000000E+01 0.  1.
         -5    1    3    3    0  502 -0.61433811232E+01 -0.91902104662E+02 -0.16588707978E+03  0.18978865512E+03  0.41800000000E+01 0.  1.
        -11    1    4    4    0    0  0.48978267752E+02 -0.77230748602E+01 -0.61919105920E+02  0.79325231013E+02  0.00000000000E+00 0.  1.
         11    1    4    4    0    0 -0.34707818506E+02  0.64656948253E+02 -0.25225388889E+03  0.26271120662E+03  0.00000000000E+00 0. -1.
</event>
<event>
 8    1  0.4205029E-010  0.9969456E+02  0.7561462E-02  0.1280940E+00
         -2   -1    0    0    0  501 -0.00000000000E+00  0.00000000000E+00  0.13296454350E+02  0.13296454350E+02  0.00000000000E+00 0.  1.
          2   -1    0    0  501    0  0.00000000000E+00 -0.00000000000E+00 -0.84366813565E+03  0.84366813565E+03  0.00000000000E+00 0. -1.
         25    2    1    2    0    0 -0.12110971820E+02 -0.27125955998E+02 -0.55161994677E+03  0.56640586543E+03  0.12509414689E+03 0.  0.
         23    2    1    2    0    0  0.12110971820E+02  0.27125955998E+02 -0.27875173453E+03  0.29055872457E+03  0.76415638423E+02 0.  0.
          5    1    3    3  502    0 -0.43155350662E+02  0.36511383116E+02 -0.21112590986E+03  0.21860257913E+03  0.41800000000E+01 0. -1.
         -5    1    3    3    0  502  0.31044378842E+02 -0.63637339114E+02 -0.34049403691E+03  0.34780328630E+03  0.41800000000E+01 0. -1.
        -11    1    4    4    0    0 -0.23310857146E+02  0.27887703650E+02 -0.21094536498E+03  0.21405388827E+03  0.00000000000E+00 0. -1.
         11    1    4    4    0    0  0.35421828966E+02 -0.76174765279E+00 -0.67806369546E+02  0.76504836303E+02  0.00000000000E+00 0.  1.
</event>
<event>
 8    1  0.4205029E-010  0.1672042E+03  0.7561462E-02  0.1180795E+00
         -1   -1    0    0    0  501 -0.00000000000E+00  0.00000000000E+00  0.58693041735E+02  0.58693041735E+02  0.00000000000E+00 0.  1.
          1   -1    0    0  501    0  0.00000000000E+00 -0.00000000000E+00 -0.64094679734E+03  0.64094679734E+03  0.00000000000E+00 0. -1.
         25    2    1    2    0    0  0.11074390866E+03  0.11017164406E+03 -0.30702663125E+03  0.36648914305E+03  0.12508771011E+03 0.  0.
         23    2    1    2    0    0 -0.11074390866E+03 -0.11017164406E+03 -0.27522712436E+03  0.33315069603E+03  0.10410289054E+03 0.  0.
          5    1    3    3  502    0  0.11495738882E+03  0.92593464802E+02 -0.31374305193E+03  0.34675773388E+03  0.41800000000E+01 0.  1.
         -5    1    3    3    0  502 -0.42134801616E+01  0.17578179260E+02  0.67164206855E+01  0.19731409174E+02  0.41800000000E+01 0.  1.
        -11    1    4    4    0    0 -0.11794501873E+03 -0.95198279512E+02 -0.17481922778E+03  0.23137740224E+03  0.00000000000E+00 0.  1.
         11    1    4    4    0    0  0.72011100753E+01 -0.14973364550E+02 -0.10040789658E+03  0.10177329379E+03  0.00000000000E+00 0. -1.
</event>
<event>
 8    1  0.4205029E-010  0.3898627E+03  0.7561462E-02  0.1047348E+00
          2   -1    0    0  501    0  0.00000000000E+00  0.00000000000E+00  0.48238349857E+03  0.48238349857E+03  0.00000000000E+00 0. -1.
         -2   -1    0    0    0  501 -0.00000000000E+00 -0.00000000000E+00 -0.32592262523E+03  0.32592262523E+03  0.00000000000E+00 0.  1.
         25    2    1    2    0    0 -0.37055767154E+03  0.78318453267E+02  0.86116415233E+02  0.40805685257E+03  0.12509032695E+03 0.  0.
         23    2    1    2    0    0  0.37055767154E+03 -0.78318453267E+02  0.70344458102E+02  0.40024927122E+03  0.10864790963E+03 0.  0.
          5    1    3    3  502    0 -0.13740917691E+03 -0.31516564790E+02  0.26839290655E+02  0.14357017684E+03  0.41800000000E+01 0. -1.
         -5    1    3    3    0  502 -0.23314849463E+03  0.10983501806E+03  0.59277124579E+02  0.26448667573E+03  0.41800000000E+01 0. -1.
        -11    1    4    4    0    0  0.20094146001E+03 -0.63167219028E+02 -0.12235280297E+02  0.21099116094E+03  0.00000000000E+00 0.  1.
         11    1    4    4    0    0  0.16961621153E+03 -0.15151234239E+02  0.82579738399E+02  0.18925811028E+03  0.00000000000E+00 0. -1.
</event>
<event>
 8    1  0.4205029E-010  0.7096043E+02  0.7561462E-02  0.1356857E+00
          1   -1    0    0  501    0  0.00000000000E+00  0.00000000000E+00  0.18952636543E+03  0.18952636543E+03  0.00000000000E+00 0. -1.
         -1   -1    0    0    0  501 -0.00000000000E+00 -0.00000000000E+00 -0.87631386233E+02  0.87631386233E+02  0.00000000000E+00 0.  1.
         25    2    1    2    0    0 -0.33607938096E+02  0.31478052284E+02  0.42062461354E+02  0.13976335220E+03  0.12507670720E+03 0.  0.
         23    2    1    2    0    0  0.33607938096E+02 -0.31478052284E+02  0.59832517838E+02  0.13739439946E+03  0.11479080771E+03 0.  0.
          5    1    3    3  502    0  0.24111126461E+02  0.32842823346E+01  0.66478746382E+02  0.70915647428E+02  0.41800000000E+01 0.  1.
         -5    1    3    3    0  502 -0.57719064557E+02  0.28193769949E+02 -0.24416285027E+02  0.68847704768E+02  0.41800000000E+01 0.  1.
        -11    1    4    4    0    0  0.26855081800E+02 -0.74073667383E+01  0.92302694290E+02  0.96414998178E+02  0.00000000000E+00 0. -1.
         11    1    4    4    0    0  0.67528562966E+01 -0.24070685545E+02 -0.32470176452E+02  0.40979401285E+02  0.00000000000E+00 0.  1.
</event>
<event>
 8    1  0.4205029E-010  0.2232313E+03  0.7561462E-02  0.1131497E+00
          2   -1    0    0  501    0  0.00000000000E+00  0.00000000000E+00  0.34290354923E+03  0.34290354923E+03  0.00000000000E+00 0. -1.
         -2   -1    0    0    0  501 -0.00000000000E+00 -0.00000000000E+00 -0.17676338231E+03  0.17676338231E+03  0.00000000000E+00 0.  1.
         25    2    1    2    0    0  0.18109263844E+03  0.12867575504E+03  0.13196686263E+03  0.28707781972E+03  0.12508568308E+03 0.  0.
         23    2    1    2    0    0 -0.18109263844E+03 -0.12867575504E+03  0.34173304292E+02  0.23258911182E+03  0.59815437646E+02 0.  0.
          5    1    3    3  502    0  0.86605971896E+02  0.62911044055E+02 -0.60587279837E+01  0.10729666545E+03  0.41800000000E+01 0. -1.
         -5    1    3    3    0  502  0.94486666540E+02  0.65764710983E+02  0.13802559062E+03  0.17978115427E+03  0.41800000000E+01 0. -1.
        -11    1    4    4    0    0 -0.10252552592E+03 -0.90657264331E+02 -0.49313564338E+01  0.13694722092E+03  0.00000000000E+00 0.  1.
         11    1    4    4    0    0 -0.78567112515E+02 -0.38018490708E+02  0.39104660726E+02  0.95641890901E+02  0.00000000000E+00 0. -1.
</event>
<event>
 8    1  0.4205029E-010  0.9364926E+02  0.7561462E-02  0.1294248E+00
         -2   -1    0    0    0  501 -0.00000000000E+00  0.00000000000E+00  0.30347837543E+02  0.30347837543E+02  0.00000000000E+00 0.  1.
          2   -1    0    0  501    0  0.00000000000E+00 -0.00000000000E+00 -0.11009259829E+04  0.11009259829E+04  0.00000000000E+00 0. -1.
         25    2    1    2    0    0 -0.28648177380E+02  0.11636441946E+02 -0.10485356630E+04  0.10564245138E+04  0.12509832864E+03 0.  0.
         23    2    1    2    0    0  0.28648177380E+02 -0.11636441946E+02 -0.22042482392E+02  0.74849306725E+02  0.64501339822E+02 0.  0.
          5    1    3    3  502    0 -0.20410986939E+02  0.61714780942E+02 -0.34821121087E+03  0.35425110070E+03  0.41800000000E+01 0.  1.
         -5    1    3    3    0  502 -0.82371904409E+01 -0.50078338996E+02 -0.70032445213E+03  0.70217341305E+03  0.41800000000E+01 0.  1.
        -11    1    4    4    0    0  0.14748971215E+02  0.26676609585E+02 -0.61051625080E+01  0.31087725232E+02  0.00000000000E+00 0.  1.
         11    1    4    4    0    0  0.13899206165E+02 -0.38313051531E+02 -0.15937319884E+02  0.43761581493E+02  0.00000000000E+00 0. -1.
</event>
<event>
 7    1  0.4205029E-010  0.1270047E+03  0.7561462E-02  0.1231969E+00
         -1   -1    0    0    0  501 -0.00000000000E+00  0.00000000000E+00  0.78421145653E+02  0.78421145653E+02  0.00000000000E+00 0.  1.
          1   -1    0    0  501    0  0.00000000000E+00 -0.00000000000E+00 -0.38629411137E+03  0.38629411137E+03  0.00000000000E+00 0. -1.
         25    2    1    2    0    0  0.75422200216E+02 -0.10876656865E+02 -0.67601248398E+02  0.16132375438E+03  0.12509442430E+03 0.  0.
          5    1    3    3  502    0  0.60898650610E+02 -0.15341592953E+00  0.25676921269E+02  0.66222699042E+02  0.41800000000E+01 0. -1.
         -5    1    3    3    0  502  0.14523549606E+02 -0.10723240935E+02 -0.93278169667E+02  0.95101055334E+02  0.41800000000E+01 0. -1.
        -11    1    1    2    0    0 -0.11596508457E+03 -0.26875119462E+02 -0.11104778601E+03  0.16279368434E+03  0.00000000000E+00 0.  1.
         11    1    1    2    0    0  0.40542884354E+02  0.37751776327E+02 -0.12922393131E+03  0.14059781830E+03  0.00000000000E+00 0. -1.
</event>
<event>
 8    1  0.4205029E-010  0.7062955E+02  0.7561462E-02  0.1357965E+00
          1   -1    0    0  501    0  0.00000000000E+00  0.00000000000E+00  0.25178956034E+03  0.25178956034E+03  0.00000000000E+00 0. -1.
         -1   -1    0    0    0  501 -0.00000000000E+00 -0.00000000000E+00 -0.37177523664E+02  0.37177523664E+02  0.00000000000E+00 0.  1.
         25    2    1    2    0    0 -0.11512080274E+02  0.72402801675E+01  0.14196818728E+03  0.18970742975E+03  0.12509593540E+03 0.  0.
         23    2    1    2    0    0  0.11512080274E+02 -0.72402801675E+01  0.72643849392E+02  0.99259654255E+02  0.66260097035E+02 0.  0.
          5    1    3    3  502    0 -0.49703939727E+02 -0.16445643829E+02  0.13393395516E+03  0.14386353801E+03  0.41800000000E+01 0.  1.
         -5    1    3    3    0  502  0.38191859453E+02  0.23685923996E+02  0.80342321296E+01  0.45843891741E+02  0.41800000000E+01 0.  1.
        -11    1    4    4    0    0 -0.18856929437E+01  0.16358784560E+02 -0.48379576166E+01  0.17163085505E+02  0.00000000000E+00 0.  1.
         11    1    4    4    0    0  0.13397773218E+02 -0.23599064727E+02  0.77481807009E+02  0.82096568750E+02  0.00000000000E+00 0. -1.
</event>
<event>
 7    1  0.4205029E-010  0.1608400E+03  0.7561462E-02  0.1187752E+00
         -1   -1    0    0    0  501 -0.00000000000E+00  0.00000000000E+00  0.11132945795E+03  0.11132945795E+03  0.00000000000E+00 0.  1.
          1   -1    0    0  501    0  0.00000000000E+00 -0.00000000000E+00 -0.27246565604E+03  0.27246565604E+03  0.00000000000E+00 0. -1.
         25    2    1    2    0    0 -0.95345915733E+02 -0.40002581435E+02 -0.11980921356E+03  0.20173090816E+03  0.12510020577E+03 0.  0.
          5    1    3    3  502    0 -0.12295472207E+03 -0.30347258020E+02 -0.72598371438E+02  0.14603703532E+03  0.41800000000E+01 0. -1.
         -5    1    3    3    0  502  0.27608806340E+02 -0.96553234149E+01 -0.47210842127E+02  0.55693872841E+02  0.41800000000E+01 0. -1.
        -11    1    1    2    0    0 -0.95297202125E+01  0.58202763363E+02  0.16075755147E+02  0.61129429361E+02  0.00000000000E+00 0.  1.
         11    1    1    2    0    0  0.10487563595E+03 -0.18200181929E+02 -0.57402739677E+02  0.12093477647E+03  0.00000000000E+00 0. -1.
</event>
<event>
 8    1  0.4205029E-010  0.2368126E+03  0.7561462E-02  0.1121935E+00
          1   -1    0    0  501    0  0.00000000000E+00  0.00000000000E+00  0.32210716330E+03  0.32210716330E+03  0.00000000000E+00 0. -1.
         -1   -1    0    0    0  501 -0.00000000000E+00 -0.00000000000E+00 -0.23940916705E+03  0.23940916705E+03  0.00000000000E+00 0.  1.
         25    2    1    2    0    0  0.15191999747E+03 -0.16222720661E+03 -0.91052612458E+02  0.27080423576E+03  0.12508798373E+03 0.  0.
         23    2    1    2    0    0 -0.15191999747E+03  0.16222720661E+03  0.17375060871E+03  0.29071209459E+03  0.70191849374E+02 0.  0.
          5    1    3    3  502    0 -0.13483577171E+02 -0.17554097412E+02 -0.38842229907E+02  0.44901496784E+02  0.41800000000E+01 0. -1.
         -5    1    3    3    0  502  0.16540357464E+03 -0.14467310920E+03 -0.52210382551E+02  0.22590273898E+03  0.41800000000E+01 0. -1.
        -11    1    4    4    0    0 -0.15735331325E+03  0.14774219531E+03  0.15188038823E+03  0.26392323466E+03  0.00000000000E+00 0.  1.
         11    1    4    4    0    0  0.54333157734E+01  0.14485011306E+02  0.21870220477E+02  0.26788859933E+02  0.00000000000E+00 0. -1.
</event>
<event>
 8    1  0.4205029E-010  0.1498070E+03  0.7561462E-02  0.1200710E+00
          1   -1    0    0  501    0  0.00000000000E+00  0.00000000000E+00  0.20556280626E+03  0.20556280626E+03  0.00000000000E+00 0. -1.
         -1   -1    0    0    0  501 -0.00000000000E+00 -0.00000000000E+00 -0.17302582178E+03  0.17302582178E+03  0.00000000000E+00 0.  1.
         25    2    1    2    0    0 -0.71594905381E+02  0.12748438046E+03  0.24149862015E+02  0.19392843350E+03  0.12508766424E+03 0.  0.
         23    2    1    2    0    0  0.71594905381E+02 -0.12748438046E+03  0.83871224636E+01  0.18466019454E+03  0.11247642369E+03 0.  0.
          5    1    3    3  502    0 -0.27132357575E+02  0.32731200626E+02 -0.49869505110E+02  0.65665335315E+02  0.41800000000E+01 0. -1.
         -5    1    3    3    0  502 -0.44462547806E+02  0.94753179834E+02  0.74019367125E+02  0.12826309818E+03  0.41800000000E+01 0. -1.
        -11    1    4    4    0    0  0.17491577896E+02 -0.74103104842E+02 -0.48014153928E+02  0.90014356755E+02  0.00000000000E+00 0.  1.
         11    1    4    4    0    0  0.54103327486E+02 -0.53381275618E+02  0.56401276392E+02  0.94645837786E+02  0.00000000000E+00 0. -1.
</event>
<event>
 8    1  0.4205029E-010  0.1853460E+03  0.7561462E-02  0.1162727E+00
          4   -1    0    0  501    0  0.00000000000E+00  0.00000000000E+00  0.10604936832E+03  0.10604936832E+03  0.00000000000E+00 0. -1.
         -4   -1    0    0    0  501 -0.00000000000E+00 -0.00000000000E+00 -0.36754337437E+03  0.36754337437E+03  0.00000000000E+00 0.  1.
         25    2    1    2    0    0  0.10139383187E+03 -0.13012924903E+03 -0.95307388825E+02  0.22791467308E+03  0.12508904526E+03 0.  0.
         23    2    1    2    0    0 -0.10139383187E+03  0.13012924903E+03 -0.16618661723E+03  0.24567806962E+03  0.74332977545E+02 0.  0.
          5    1    3    3  502    0  0.12018451447E+03 -0.13654183866E+03 -0.68775214767E+02  0.19451347971E+03  0.41800000000E+01 0.  1.
         -5    1    3    3    0  502 -0.18790682598E+02  0.64125896236E+01 -0.26532174058E+02  0.33401193369E+02  0.41800000000E+01 0.  1.
        -11    1    4    4    0    0 -0.84545421419E+02  0.83312320571E+02 -0.15402940636E+03  0.19445803934E+03  0.00000000000E+00 0.  1.
         11    1    4    4    0    0 -0.16848410449E+02  0.46816928463E+02 -0.12157210870E+02  0.51220030276E+02  0.00000000000E+00 0. -1.
</event>
<event>
 8    1  0.4205029E-010  0.1337747E+03  0.7561462E-02  0.1221960E+00
          1   -1    0    0  501    0  0.00000000000E+00  0.00000000000E+00  0.17324502401E+03  0.17324502401E+03  0.00000000000E+00 0. -1.
         -1   -1    0    0    0  501 -0.00000000000E+00 -0.00000000000E+00 -0.15167682303E+03  0.15167682303E+03  0.00000000000E+00 0.  1.
         25    2    1    2    0    0 -0.70404976640E+02  0.52299089601E+02  0.64541194429E+02  0.16584649983E+03  0.12508972867E+03 0.  0.
         23    2    1    2    0    0  0.70404976640E+02 -0.52299089601E+02 -0.42972993450E+02  0.15907534721E+03  0.12556365881E+03 0.  0.
          5    1    3    3  502    0 -0.85649563927E+02  0.47782100544E+02 -0.11064391953E+01  0.98171653450E+02  0.41800000000E+01 0. -1.
         -5    1    3    3    0  502  0.15244587287E+02  0.45169890563E+01  0.65647633625E+02  0.67674846378E+02  0.41800000000E+01 0. -1.
        -11    1    4    4    0    0  0.38393964977E+02  0.39884078006E+02 -0.19640373680E+02  0.58741641987E+02  0.00000000000E+00 0.  1.
         11    1    4    4    0    0  0.32011011663E+02 -0.92183167607E+02 -0.23332619770E+02  0.10033370522E+03  0.00000000000E+00 0. -1.
</event>
<event>
 8    1  0.4205029E-010  0.1283101E+03  0.7561462E-02  0.1229985E+00
         -2   -1    0    0    0  501 -0.00000000000E+00  0.00000000000E+00  0.51217257028E+02  0.51217257028E+02  0.00000000000E+00 0. -1.
          2   -1    0    0  501    0  0.00000000000E+00 -0.00000000000E+00 -0.39638069597E+03  0.39638069597E+03  0.00000000000E+00 0.  1.
         25    2    1    2    0    0 -0.87362324328E+02 -0.11950658638E+02 -0.26434773673E+03  0.30545419816E+03  0.12509015670E+03 0.  0.
         23    2    1    2    0    0  0.87362324328E+02  0.11950658638E+02 -0.80815702212E+02  0.14214375484E+03  0.76802834340E+02 0.  0.
          5    1    3    3  502    0 -0.50629080131E+02 -0.67228621851E+02 -0.12120792408E+03  0.14762054264E+03  0.41800000000E+01 0.  1.
         -5    1    3    3    0  502 -0.36733244197E+02  0.55277963213E+02 -0.14313981266E+03  0.15783365552E+03  0.41800000000E+01 0.  1.
        -11    1    4    4    0    0  0.20616390988E+02 -0.22687813216E+02  0.14468840053E+01  0.30689834135E+02  0.00000000000E+00 0. -1.
         11    1    4    4    0    0  0.66745933340E+02  0.34638471854E+02 -0.82262586217E+02  0.11145392071E+03  0.00000000000E+00 0.  1.
</event>
<event>
 8    1  0.4205029E-010  0.8649779E+02  0.7561462E-02  0.1311561E+00
         -1   -1    0    0    0  501 -0.00000000000E+00  0.00000000000E+00  0.37148786652E+02  0.37148786652E+02  0.00000000000E+00 0.  1.
          1   -1    0    0  501    0  0.00000000000E+00 -0.00000000000E+00 -0.45113623062E+03  0.45113623062E+03  0.00000000000E+00 0. -1.
         25    2    1    2    0    0 -0.22688162961E+02 -0.43080099889E+02 -0.27019027604E+03  0.30169655560E+03  0.12508948258E+03 0.  0.
         23    2    1    2    0    0  0.22688162961E+02  0.43080099889E+02 -0.14379716794E+03  0.18658846167E+03  0.10847571515E+03 0.  0.
          5    1    3    3  502    0 -0.84247503507E+01  0.79119910631E+00 -0.25161214275E+03  0.25178908872E+03  0.41800000000E+01 0. -1.
         -5    1    3    3    0  502 -0.14263412610E+02 -0.43871298996E+02 -0.18578133281E+02  0.49907466887E+02  0.41800000000E+01 0. -1.
        -11    1    4    4    0    0 -0.22682716267E+02  0.63539182661E+02 -0.97833555354E+02  0.11884080908E+03  0.00000000000E+00 0.  1.
         11    1    4    4    0    0  0.45370879228E+02 -0.20459082772E+02 -0.45963612583E+02  0.67747652590E+02  0.00000000000E+00 0. -1.
</event>
<event>
 8    1  0.4205029E-010  0.1215630E+03  0.7561462E-02  0.1240541E+00
          1   -1    0    0  501    0  0.00000000000E+00  0.00000000000E+00  0.31044507562E+03  0.31044507562E+03  0.00000000000E+00 0. -1.
         -1   -1    0    0    0  501 -0.00000000000E+00 -0.00000000000E+00 -0.15698952385E+03  0.15698952385E+03  0.00000000000E+00 0.  1.
         25    2    1    2    0    0 -0.13906615200E+01 -0.10650381274E+03  0.23295180903E+03  0.28505853471E+03  0.12508727678E+03 0.  0.
         23    2    1    2    0    0  0.13906615200E+01  0.10650381274E+03 -0.79496257261E+02  0.18237606477E+03  0.12488545958E+03 0.  0.
          5    1    3    3  502    0 -0.98225767467E+01 -0.11924081179E+03  0.11485154079E+03  0.16590118454E+03  0.41800000000E+01 0. -1.
         -5    1    3    3    0  502  0.84319152267E+01  0.12736999057E+02  0.11810026824E+03  0.11915735016E+03  0.41800000000E+01 0. -1.
        -11    1    4    4    0    0 -0.68440593166E+01  0.52275632936E+02  0.29458731481E+02  0.60393706685E+02  0.00000000000E+00 0.  1.
         11    1    4    4    0    0  0.82347208366E+01  0.54228179801E+02 -0.10895498874E+03  0.12198235808E+03  0.00000000000E+00 0. -1.
</event>
<event>
 8    1  0.4205029E-010  0.9322159E+02  0.7561462E-02  0.1295232E+00
          1   -1    0    0  501    0  0.00000000000E+00  0.00000000000E+00  0.15130068755E+03  0.15130068755E+03  0.00000000000E+00 0. -1.
         -1   -1    0    0    0  501 -0.00000000000E+00 -0.00000000000E+00 -0.76095183076E+02  0.76095183076E+02  0.00000000000E+00 0.  1.
         25    2    1    2    0    0  0.42576751706E+02 -0.24552938657E+01  0.53241482497E+02  0.14248216214E+03  0.12509077831E+03 0.  0.
         23    2    1    2    0    0 -0.42576751706E+02  0.24552938657E+01  0.21964021977E+02  0.84913708482E+02  0.70065051009E+02 0.  0.
          5    1    3    3  502    0 -0.29159250264E+02 -0.38843317282E+02  0.34676148983E+02  0.59824517397E+02  0.41800000000E+01 0. -1.
         -5    1    3    3    0  502  0.71736001971E+02  0.36388023416E+02  0.18565333514E+02  0.82657644748E+02  0.41800000000E+01 0. -1.
        -11    1    4    4    0    0 -0.14179094768E+02 -0.17438195194E+02 -0.20273288933E+02  0.30267864546E+02  0.00000000000E+00 0.  1.
         11    1    4    4    0    0 -0.28397656939E+02  0.19893489060E+02  0.42237310909E+02  0.54645843936E+02  0.00000000000E+00 0. -1.
</event>
<event>
 8    1  0.4205029E-010  0.8100779E+02  0.7561462E-02  0.1326216E+00
          1   -1    0    0  501    0  0.00000000000E+00  0.00000000000E+00  0.36922192719E+03  0.36922192719E+03  0.00000000000E+00 0. -1.
         -1   -1    0    0    0  501 -0.00000000000E+00 -0.00000000000E+00 -0.24618564617E+02  0.24618564617E+02  0.00000000000E+00 0.  1.
         25    2    1    2    0    0 -0.17393367227E+02 -0.10709339241E+02  0.21830096688E+03  0.25242949031E+03  0.12509243089E+03 0.  0.
         23    2    1    2    0    0  0.17393367227E+02  0.10709339241E+02  0.12630239569E+03  0.14141100150E+03  0.60229204023E+02 0.  0.
          5    1    3    3  502    0 -0.15735749722E+02  0.45861661545E+02  0.17329869628E+03  0.18000226763E+03  0.41800000000E+01 0.  1.
         -5    1    3    3    0  502 -0.16576175055E+01 -0.56571000787E+02  0.45002270605E+02  0.72427222682E+02  0.41800000000E+01 0.  1.
        -11    1    4    4    0    0 -0.16576038069E+02  0.15006823948E+02  0.84329577003E+02  0.87243609282E+02  0.00000000000E+00 0. -1.
         11    1    4    4    0    0  0.33969405296E+02 -0.42974847065E+01  0.41972818691E+02  0.54167392219E+02  0.00000000000E+00 0.  1.
</event>
<event>
 8    1  0.4205029E-010  0.1072204E+03  0.7561462E-02  0.1265806E+00
         -3   -1    0    0    0  501 -0.00000000000E+00  0.00000000000E+00  0.93370824890E+02  0.93370824890E+02  0.00000000000E+00 0.  1.
          3   -1    0    0  501    0  0.00000000000E+00 -0.00000000000E+00 -0.13391291167E+03  0.13391291167E+03  0.00000000000E+00 0. -1.
         25    2    1    2    0    0 -0.10720693643E+02  0.50920158066E+02 -0.92440099570E+01  0.13579593921E+03  0.12508912669E+03 0.  0.
         23    2    1    2    0    0  0.10720693643E+02 -0.50920158066E+02 -0.31298076828E+02  0.91487797358E+02  0.68429903424E+02 0.  0.
          5    1    3    3  502    0  0.32425560173E+02  0.73251958907E+02  0.14569733302E+02  0.81529233804E+02  0.41800000000E+01 0.  1.
         -5    1    3    3    0  502 -0.43146253817E+02 -0.22331800840E+02 -0.23813743259E+02  0.54266705402E+02  0.41800000000E+01 0.  1.
        -11    1    4    4    0    0  0.28744306157E+02  0.27214541403E+01 -0.15325806134E+02  0.32688251448E+02  0.00000000000E+00 0.  1.
         11    1    4    4    0    0 -0.18023612513E+02 -0.53641612207E+02 -0.15972270694E+02  0.58799545910E+02  0.00000000000E+00 0. -1.
</event>
<event>
 8    1  0.4205029E-010  0.1453134E+03  0.7561462E-02  0.1206353E+00
          1   -1    0    0  501    0  0.00000000000E+00  0.00000000000E+00  0.29994847219E+03  0.29994847219E+03  0.00000000000E+00 0. -1.
         -1   -1    0    0    0  501 -0.00000000000E+00 -0.00000000000E+00 -0.87060665166E+02  0.87060665166E+02  0.00000000000E+00 0.  1.
         25    2    1    2    0    0 -0.71895585642E+02  0.80424889729E+02  0.14896763000E+03  0.22242890462E+03  0.12508447026E+03 0.  0.
         23    2    1    2    0    0  0.71895585642E+02 -0.80424889729E+02  0.63920177023E+02  0.16458023273E+03  0.10660077792E+03 0.  0.
          5    1    3    3  502    0 -0.30541457925E+02  0.10458765079E+03  0.13252978904E+03  0.17161868993E+03  0.41800000000E+01 0. -1.
         -5    1    3    3    0  502 -0.41354127717E+02 -0.24162761064E+02  0.16437840956E+02  0.50810214689E+02  0.41800000000E+01 0. -1.
        -11    1    4    4    0    0  0.29088414387E+02  0.12147044801E+02 -0.15676971960E+02  0.35205880174E+02  0.00000000000E+00 0.  1.
         11    1    4    4    0    0  0.42807171255E+02 -0.92571934530E+02  0.79597148983E+02  0.12937435256E+03  0.00000000000E+00 0. -1.
</event>
<event>
 8    1  0.4205029E-010  0.1003473E+03  0.7561462E-02  0.1279567E+00
          1   -1    0    0  501    0  0.00000000000E+00  0.00000000000E+00  0.21420899145E+03  0.21420899145E+03  0.00000000000E+00 0. -1.
         -1   -1    0    0    0  501 -0.00000000000E+00 -0.00000000000E+00 -0.51568180985E+02  0.51568180985E+02  0.00000000000E+00 0.  1.
         25    2    1    2    0    0  0.26136917987E+02 -0.20558771502E+02  0.10552592938E+03  0.16701213160E+03  0.12510607004E+03 0.  0.
         23    2    1    2    0    0 -0.26136917987E+02  0.20558771502E+02  0.57114881085E+02  0.98765040843E+02  0.73393610647E+02 0.  0.
          5    1    3    3  502    0  0.68780623216E+02  0.75765697544E+01  0.89698939941E+02  0.11336468042E+03  0.41800000000E+01 0.  1.
         -5    1    3    3    0  502 -0.42643705229E+02 -0.28135341257E+02  0.15826989443E+02  0.53647451180E+02  0.41800000000E+01 0.  1.
        -11    1    4    4    0    0  0.11975044558E+02  0.36788419700E+02  0.22307403662E+02  0.44658815192E+02  0.00000000000E+00 0.  1.
         11    1    4    4    0    0 -0.38111962545E+02 -0.16229648198E+02  0.34807477423E+02  0.54106225651E+02  0.00000000000E+00 0. -1.
</event>
<event>
 7    1  0.4205029E-010  0.2039639E+03  0.7561462E-02  0.1146437E+00
          2   -1    0    0  501    0  0.00000000000E+00  0.00000000000E+00  0.14921284120E+04  0.14921284120E+04  0.00000000000E+00 0. -1.
         -2   -1    0    0    0  501 -0.00000000000E+00 -0.00000000000E+00 -0.49969760765E+02  0.49969760765E+02  0.00000000000E+00 0.  1.
         25    2    1    2    0    0  0.85323296384E+02  0.62095331162E+02  0.88752997224E+03  0.90249240514E+03  0.12508874710E+03 0.  0.
          5    1    3    3  502    0  0.45208245144E+02 -0.12915244533E+02  0.61861989593E+03  0.62041811467E+03  0.41800000000E+01 0. -1.
         -5    1    3    3    0  502  0.40115051239E+02  0.75010575695E+02  0.26891007631E+03  0.28207429047E+03  0.41800000000E+01 0. -1.
        -11    1    1    2    0    0  0.28058123893E+02 -0.13688609336E+03  0.44070741658E+03  0.46232898233E+03  0.00000000000E+00 0. -1.
         11    1    1    2    0    0 -0.11338142028E+03  0.74790762198E+02  0.11392126241E+03  0.17727678529E+03  0.00000000000E+00 0.  1.
</event>
<event>
 8    1  0.4205029E-010  0.1130260E+03  0.7561462E-02  0.1255067E+00
         -2   -1    0    0    0  501 -0.00000000000E+00  0.00000000000E+00  0.89523581874E+02  0.89523581874E+02  0.00000000000E+00 0.  1.
          2   -1    0    0  501    0  0.00000000000E+00 -0.00000000000E+00 -0.19633478705E+03  0.19633478705E+03  0.00000000000E+00 0. -1.
         25    2    1    2    0    0 -0.22867330065E+02 -0.47608728248E+02 -0.35216497457E+02  0.14027677955E+03  0.12509143615E+03 0.  0.
         23    2    1    2    0    0  0.22867330065E+02  0.47608728248E+02 -0.71594707719E+02  0.14558158937E+03  0.11523320355E+03 0.  0.
          5    1    3    3  502    0  0.35426437477E+02 -0.54147574457E+02  0.10632587744E+02  0.65707812428E+02  0.41800000000E+01 0. -1.
         -5    1    3    3    0  502 -0.58293767542E+02  0.65388462093E+01 -0.45849085201E+02  0.74568967123E+02  0.41800000000E+01 0. -1.
        -11    1    4    4    0    0 -0.33621724587E+02  0.12381590328E+02  0.12838483567E+02  0.38059831890E+02  0.00000000000E+00 0.  1.
         11    1    4    4    0    0  0.56489054652E+02  0.35227137920E+02 -0.84433191286E+02  0.10752175748E+03  0.00000000000E+00 0. -1.
</event>
<event>
 8    1  0.4205029E-010  0.1700032E+03  0.7561462E-02  0.1177845E+00
         -1   -1    0    0    0  501 -0.00000000000E+00  0.00000000000E+00  0.30627361236E+02  0.30627361236E+02  0.00000000000E+00 0.  1.
          1   -1    0    0  501    0  0.00000000000E+00 -0.00000000000E+00 -0.12619331005E+04  0.12619331005E+04  0.00000000000E+00 0. -1.
         25    2    1    2    0    0  0.83453049915E+02 -0.14405952654E+03 -0.78265080854E+03  0.80987994008E+03  0.12508265467E+03 0.  0.
         23    2    1    2    0    0 -0.83453049915E+02  0.14405952654E+03 -0.44865493068E+03  0.48268052162E+03  0.63021269408E+02 0.  0.
          5    1    3    3  502    0  0.87061521463E+02 -0.11800685649E+03 -0.39581186487E+03  0.42212537411E+03  0.41800000000E+01 0.  1.
         -5    1    3    3    0  502 -0.36084715477E+01 -0.26052670048E+02 -0.38683894367E+03  0.38775456597E+03  0.41800000000E+01 0.  1.
        -11    1    4    4    0    0 -0.42519920105E+02  0.81137725095E+02 -0.15942448955E+03  0.18386800132E+03  0.00000000000E+00 0.  1.
         11    1    4    4    0    0 -0.40933129810E+02  0.62921801446E+02 -0.28923044113E+03  0.29881252030E+03  0.00000000000E+00 0. -1.
</event>
<event>
 8    1  0.4205029E-010  0.6877496E+02  0.7561462E-02  0.1364309E+00
         -2   -1    0    0    0  501 -0.00000000000E+00  0.00000000000E+00  0.34821825015E+02  0.34821825015E+02  0.00000000000E+00 0. -1.
          2   -1    0    0  501    0  0.00000000000E+00 -0.00000000000E+00 -0.43026019949E+03  0.43026019949E+03  0.00000000000E+00 0.  1.
         25    2    1    2    0    0  0.55679773575E+01 -0.16981118413E+02 -0.16283306646E+03  0.20610887403E+03  0.12508756799E+03 0.  0.
         23    2    1    2    0    0 -0.55679773575E+01  0.16981118413E+02 -0.23260530802E+03  0.25897315048E+03  0.11243888383E+03 0.  0.
          5    1    3    3  502    0 -0.11404543108E+02 -0.25522222112E+02  0.11630093138E+02  0.30564340192E+02  0.41800000000E+01 0.  1.
         -5    1    3    3    0  502  0.16972520465E+02  0.85411036986E+01 -0.17446315959E+03  0.17554453383E+03  0.41800000000E+01 0.  1.
        -11    1    4    4    0    0 -0.19207611551E+02  0.50291816803E+02 -0.20925166951E+03  0.21606587045E+03  0.00000000000E+00 0.  1.
         11    1    4    4    0    0  0.13639634194E+02 -0.33310698390E+02 -0.23353638507E+02  0.42907280031E+02  0.00000000000E+00 0. -1.
</event>
<event>
 8    1  0.4205029E-010  0.2056952E+03  0.7561462E-02  0.1145021E+00
         -1   -1    0    0    0  501 -0.00000000000E+00  0.00000000000E+00  0.17952414331E+04  0.17952414331E+04  0.00000000000E+00 0.  1.
          1   -1    0    0  501    0  0.00000000000E+00 -0.00000000000E+00 -0.29822453743E+02  0.29822453743E+02  0.00000000000E+00 0. -1.
         25    2    1    2    0    0  0.11568691690E+03  0.16432290325E+03  0.72433027130E+03  0.76202817638E+03  0.12508845030E+03 0.  0.
         23    2    1    2    0    0 -0.11568691690E+03 -0.16432290325E+03  0.10410887080E+04  0.10630357104E+04  0.76116649959E+02 0.  0.
          5    1    3    3  502    0  0.36422264999E+02  0.79663159721E+02  0.51738868794E+03  0.52476787937E+03  0.41800000000E+01 0. -1.
         -5    1    3    3    0  502  0.79264651900E+02  0.84659743534E+02  0.20694158336E+03  0.23726029702E+03  0.41800000000E+01 0. -1.
        -11    1    4    4    0    0 -0.67233895674E+02 -0.13551239333E+03  0.86548168008E+03  0.87860260870E+03  0.00000000000E+00 0.  1.
         11    1    4    4    0    0 -0.48453021225E+02 -0.28810509922E+02  0.17560702793E+03  0.18443310171E+03  0.00000000000E+00 0. -1.
</event>
<event>
 8    1  0.4205029E-010  0.1533435E+03  0.7561462E-02  0.1196424E+00
         -1   -1    0    0    0  501 -0.00000000000E+00  0.00000000000E+00  0.24655213469E+03  0.24655213469E+03  0.00000000000E+00 0. -1.
          1   -1    0    0  501    0  0.00000000000E+00 -0.00000000000E+00 -0.10218438887E+03  0.10218438887E+03  0.00000000000E+00 0.  1.
         25    2    1    2    0    0  0.71916422023E+02  0.96406188281E+02  0.85069672323E+02  0.19326372377E+03  0.12509153800E+03 0.  0.
         23    2    1    2    0    0 -0.71916422023E+02 -0.96406188281E+02  0.59298073503E+02  0.15547279979E+03  0.78672772029E+02 0.  0.
          5    1    3    3  502    0  0.83008577818E+02  0.17253421870E+02  0.73717782402E+02  0.11242725826E+03  0.41800000000E+01 0.  1.
         -5    1    3    3    0  502 -0.11092155795E+02  0.79152766411E+02  0.11351889921E+02  0.80836465505E+02  0.41800000000E+01 0.  1.
        -11    1    4    4    0    0 -0.65874644734E+02 -0.10924903783E+03  0.44869200234E+02  0.13523337685E+03  0.00000000000E+00 0.  1.
         11    1    4    4    0    0 -0.60417772894E+01  0.12842849544E+02  0.14428873269E+02  0.20239422943E+02  0.00000000000E+00 0. -1.
</event>
<event>
 8    1  0.4205029E-010  0.9041537E+02  0.7561462E-02  0.1301849E+00
         -3   -1    0    0    0  501 -0.00000000000E+00  0.00000000000E+00  0.15264135704E+03  0.15264135704E+03  0.00000000000E+00 0.  1.
          3   -1    0    0  501    0  0.00000000000E+00 -0.00000000000E+00 -0.71975561001E+02  0.71975561001E+02  0.00000000000E+00 0. -1.
         25    2    1    2    0    0 -0.26948417311E+02  0.17029645091E+02  0.40430249616E+02  0.13527182075E+03  0.12509050483E+03 0.  0.
         23    2    1    2    0    0  0.26948417311E+02 -0.17029645091E+02  0.40235546424E+02  0.89345097292E+02  0.73126063798E+02 0.  0.
          5    1    3    3  502    0  0.85249243968E+01  0.63018818452E+02  0.43172344390E+02  0.76976421944E+02  0.41800000000E+01 0. -1.
         -5    1    3    3    0  502 -0.35473341707E+02 -0.45989173361E+02 -0.27420947748E+01  0.58295398807E+02  0.41800000000E+01 0. -1.
        -11    1    4    4    0    0  0.40681825941E+02 -0.57260540790E+01 -0.43790242662E+01  0.41315548051E+02  0.00000000000E+00 0. -1.
         11    1    4    4    0    0 -0.13733408631E+02 -0.11303591012E+02  0.44614570690E+02  0.48029549240E+02  0.00000000000E+00 0.  1.
</event>
<event>
 8    1  0.4205029E-010  0.1404773E+03  0.7561462E-02  0.1212688E+00
          1   -1    0    0  501    0  0.00000000000E+00  0.00000000000E+00  0.71785643470E+03  0.71785643470E+03  0.00000000000E+00 0. -1.
         -1   -1    0    0    0  501 -0.00000000000E+00 -0.00000000000E+00 -0.39498993667E+02  0.39498993667E+02  0.00000000000E+00 0.  1.
         25    2    1    2    0    0  0.13151137750E+03  0.57948036435E+01  0.42411607885E+03  0.46135831278E+03  0.12509285461E+03 0.  0.
         23    2    1    2    0    0 -0.13151137750E+03 -0.57948036435E+01  0.25424136218E+03  0.29599711558E+03  0.75145192975E+02 0.  0.
          5    1    3    3  502    0  0.10321603653E+03  0.23230255231E+02  0.14131516416E+03  0.17658041505E+03  0.41800000000E+01 0. -1.
         -5    1    3    3    0  502  0.28295340968E+02 -0.17435451588E+02  0.28280091469E+03  0.28477789774E+03  0.41800000000E+01 0. -1.
        -11    1    4    4    0    0 -0.11036075133E+03  0.15639938799E+02  0.14623627876E+03  0.18387265252E+03  0.00000000000E+00 0.  1.
         11    1    4    4    0    0 -0.21150626165E+02 -0.21434742443E+02  0.10800508342E+03  0.11212446306E+03  0.00000000000E+00 0. -1.
</event>
<event>
 7    1  0.4205029E-010  0.9729566E+02  0.7561462E-02  0.1286088E+00
         -2   -1    0    0    0  501 -0.00000000000E+00  0.00000000000E+00  0.15555032324E+02  0.15555032324E+02  0.00000000000E+00 0.  1.
          2   -1    0    0  501    0  0.00000000000E+00 -0.00000000000E+00 -0.76987639818E+03  0.76987639818E+03  0.00000000000E+00 0. -1.
         25    2    1    2    0    0 -0.59133835419E+01  0.59346501302E+02 -0.47130142875E+03  0.49125291218E+03  0.12508961453E+03 0.  0.
          5    1    3    3  502    0  0.22531531791E+02 -0.21065402166E+02 -0.35720925463E+02  0.47380143617E+02  0.41800000000E+01 0.  1.
         -5    1    3    3    0  502 -0.28444915333E+02  0.80411903468E+02 -0.43558050329E+03  0.44387276856E+03  0.41800000000E+01 0.  1.
        -11    1    1    2    0    0  0.23523367343E+02 -0.97979761163E+01 -0.62923291070E+02  0.67887330969E+02  0.00000000000E+00 0.  1.
         11    1    1    2    0    0 -0.17609983801E+02 -0.49548525185E+02 -0.22009664603E+03  0.22629118735E+03  0.00000000000E+00 0. -1.
</event>
<event>
 8    1  0.7168011E-010  0.1308468E+03  0.7561462E-02  0.1226205E+00
          1   -1    0    0  501    0  0.00000000000E+00  0.00000000000E+00  0.36430243492E+03  0.36430243492E+03  0.00000000000E+00 0. -1.
         -1   -1    0    0    0  501 -0.00000000000E+00 -0.00000000000E+00 -0.66281013361E+02  0.66281013361E+02  0.00000000000E+00 0.  1.
         25    2    1    2    0    0  0.83593986279E+02 -0.54978355856E+02  0.11939177907E+03  0.19978128390E+03  0.12509032870E+03 0.  0.
         23    2    1    2    0    0 -0.83593986279E+02  0.54978355856E+02  0.17862964249E+03  0.23080216438E+03  0.10653879927E+03 0.  0.
          5    1    3    3  502    0  0.90184716852E+01 -0.77154194146E+02  0.36205479394E+02  0.85804496642E+02  0.41800000000E+01 0. -1.
         -5    1    3    3    0  502  0.74575514594E+02  0.22175838289E+02  0.83186299677E+02  0.11397678726E+03  0.41800000000E+01 0. -1.
        -11    1    4    4    0    0 -0.44250627039E+02  0.84432465532E+01  0.32828993820E+01  0.45168394194E+02  0.00000000000E+00 0.  1.
         11    1    4    4    0    0 -0.39343359240E+02  0.46535109303E+02  0.17534674311E+03  0.18563377018E+03  0.00000000000E+00 0. -1.
</event>
<event>
 8    1  0.4205029E-010  0.1179303E+03  0.7561462E-02  0.1246551E+00
          2   -1    0    0  501    0  0.00000000000E+00  0.00000000000E+00  0.63580875396E+03  0.63580875396E+03  0.00000000000E+00 0. -1.
         -2   -1    0    0    0  501 -0.00000000000E+00 -0.00000000000E+00 -0.25335371312E+02  0.25335371312E+02  0.00000000000E+00 0.  1.
         25    2    1    2    0    0  0.40758004786E+02 -0.65098388578E+01  0.37802574760E+03  0.40031665397E+03  0.12508542936E+03 0.  0.
         23    2    1    2    0    0 -0.40758004786E+02  0.65098388578E+01  0.23244763505E+03  0.26082747131E+03  0.11088495747E+03 0.  0.
          5    1    3    3  502    0 -0.31267589368E+02  0.33929570701E+02  0.99243058385E+02  0.10952412954E+03  0.41800000000E+01 0. -1.
         -5    1    3    3    0  502  0.72025594154E+02 -0.40439409559E+02  0.27878268922E+03  0.29079252443E+03  0.41800000000E+01 0. -1.
        -11    1    4    4    0    0  0.24076799017E+02 -0.25025554561E+02  0.13627946664E+03  0.14063450381E+03  0.00000000000E+00 0.  1.
         11    1    4    4    0    0 -0.64834803804E+02  0.31535393419E+02  0.96168168405E+02  0.12019296750E+03  0.00000000000E+00 0. -1.
</event>
<event>
 7    1  0.4205029E-010  0.5350840E+02  0.7561462E-02  0.1427287E+00
         -2   -1    0    0    0  501 -0.00000000000E+00  0.00000000000E+00  0.98885104337E+02  0.98885104337E+02  0.00000000000E+00 0.  1.
          2   -1    0    0  501    0  0.00000000000E+00 -0.00000000000E+00 -0.81352641223E+02  0.81352641223E+02  0.00000000000E+00 0. -1.
         25    2    1    2    0    0 -0.22336329137E+02 -0.21157521530E+02  0.33396298989E+02  0.13307879913E+03  0.12509237257E+03 0.  0.
          5    1    3    3  502    0  0.19057956375E+02  0.66878443432E+01 -0.39550407141E+02  0.44605381605E+02  0.41800000000E+01 0. -1.
         -5    1    3    3    0  502 -0.41394285512E+02 -0.27845365873E+02  0.72946706130E+02  0.88473417526E+02  0.41800000000E+01 0. -1.
        -11    1    1    2    0    0  0.17386354344E+02  0.31711653115E+01  0.57712994593E+01  0.18591651467E+02  0.00000000000E+00 0.  1.
         11    1    1    2    0    0  0.49499747929E+01  0.17986356219E+02 -0.21635135335E+02  0.28567294962E+02  0.00000000000E+00 0. -1.
</event>
<event>
 8    1  0.4205029E-010  0.8035045E+02  0.7561462E-02  0.1328060E+00
          1   -1    0    0  501    0  0.00000000000E+00  0.00000000000E+00  0.20775366317E+03  0.20775366317E+03  0.00000000000E+00 0. -1.
         -1   -1    0    0    0  501 -0.00000000000E+00 -0.00000000000E+00 -0.13903850013E+03  0.13903850013E+03  0.00000000000E+00 0.  1.
         25    2    1    2    0    0 -0.12004557265E+01 -0.24011061757E+02  0.17395478641E+03  0.21560719886E+03  0.12509286273E+03 0.  0.
         23    2    1    2    0    0  0.12004557265E+01  0.24011061757E+02 -0.10523962336E+03  0.13118496444E+03  0.74539549165E+02 0.  0.
          5    1    3    3  502    0 -0.37748024608E+02 -0.44335150687E+02  0.16157051779E+03  0.17179354926E+03  0.41800000000E+01 0. -1.
         -5    1    3    3    0  502  0.36547568881E+02  0.20324088930E+02  0.12384268613E+02  0.43813649597E+02  0.41800000000E+01 0. -1.
        -11    1    4    4    0    0 -0.19451886320E+02 -0.89398472989E+01 -0.84384475895E+02  0.87057662059E+02  0.00000000000E+00 0.  1.
         11    1    4    4    0    0  0.20652342046E+02  0.32950909056E+02 -0.20855147463E+02  0.44127302380E+02  0.00000000000E+00 0. -1.
</event>
<event>
 7    1  0.4205029E-010  0.1294700E+03  0.7561462E-02  0.1228244E+00
         -2   -1    0    0    0  501 -0.00000000000E+00  0.00000000000E+00  0.44255366070E+03  0.44255366070E+03  0.00000000000E+00 0.  1.
          2   -1    0    0  501    0  0.00000000000E+00 -0.00000000000E+00 -0.52880952050E+02  0.52880952050E+02  0.00000000000E+00 0. -1.
         25    2    1    2    0    0  0.24697757357E+02 -0.73995692167E+02  0.20996313510E+03  0.25654962572E+03  0.12509136932E+03 0.  0.
          5    1    3    3  502    0  0.27185581349E+02  0.26028734606E+02  0.22590572427E+02  0.44094866153E+02  0.41800000000E+01 0.  1.
         -5    1    3    3    0  502 -0.24878239913E+01 -0.10002442677E+03  0.18737256267E+03  0.21245475957E+03  0.41800000000E+01 0.  1.
        -11    1    1    2    0    0  0.35472741496E+02  0.27998438379E+02  0.15144691863E+03  0.15804555388E+03  0.00000000000E+00 0.  1.
         11    1    1    2    0    0 -0.60170498853E+02  0.45997253788E+02  0.28262654922E+02  0.80839433147E+02  0.00000000000E+00 0. -1.
</event>
<event>
 7    1  0.4205029E-010  0.1951556E+03  0.7561462E-02  0.1153892E+00
         -2   -1    0    0    0  501 -0.00000000000E+00  0.00000000000E+00  0.22566985888E+03  0.22566985888E+03  0.00000000000E+00 0. -1.
          2   -1    0    0  501    0  0.00000000000E+00 -0.00000000000E+00 -0.23904562555E+03  0.23904562555E+03  0.00000000000E+00 0.  1.
         25    2    1    2    0    0 -0.15767693435E+03  0.46335023005E+02  0.79455421773E+02  0.22129205679E+03  0.12509220745E+03 0.  0.
          5    1    3    3  502    0 -0.53800358530E+02  0.25784957404E+01  0.93137226100E+02  0.10767145631E+03  0.41800000000E+01 0.  1.
         -5    1    3    3    0  502 -0.10387657582E+03  0.43756527264E+02 -0.13681804326E+02  0.11362060048E+03  0.41800000000E+01 0.  1.
        -11    1    1    2    0    0  0.43757594239E+01  0.44889877635E+02 -0.76790449301E+01  0.45751678829E+02  0.00000000000E+00 0. -1.
         11    1    1    2    0    0  0.15330117493E+03 -0.91224900640E+02 -0.85152143516E+02  0.19767174881E+03  0.00000000000E+00 0.  1.
</event>
<event>
 8    1  0.4205029E-010  0.1633087E+03  0.7561462E-02  0.1185011E+00
         -1   -1    0    0    0  501 -0.00000000000E+00  0.00000000000E+00  0.11059847157E+04  0.11059847157E+04  0.00000000000E+00 0.  1.
          1   -1    0    0  501    0  0.00000000000E+00 -0.00000000000E+00 -0.28480271250E+02  0.28480271250E+02  0.00000000000E+00 0. -1.
         25    2    1    2    0    0  0.24339122390E+02  0.12975658022E+03  0.54366762056E+03  0.57327974493E+03  0.12508405702E+03 0.  0.
         23    2    1    2    0    0 -0.24339122390E+02 -0.12975658022E+03  0.53383682391E+03  0.56118524204E+03  0.11188368213E+03 0.  0.
          5    1    3    3  502    0  0.21448644101E+02 -0.13885453281E+02  0.28802737749E+02  0.38728803860E+02  0.41800000000E+01 0.  1.
         -5    1    3    3    0  502  0.28904782886E+01  0.14364203350E+03  0.51486488281E+03  0.53455094107E+03  0.41800000000E+01 0.  1.
        -11    1    4    4    0    0  0.31162625989E+02 -0.32569861721E+02  0.64509056514E+02  0.78697671651E+02  0.00000000000E+00 0. -1.
         11    1    4    4    0    0 -0.55501748379E+02 -0.97186718498E+02  0.46932776740E+03  0.48248757039E+03  0.00000000000E+00 0.  1.
</event>
<event>
 8    1  0.4205029E-010  0.1286250E+03  0.7561462E-02  0.1229510E+00
         -1   -1    0    0    0  501 -0.00000000000E+00  0.00000000000E+00  0.10813312189E+03  0.10813312189E+03  0.00000000000E+00 0.  1.
          1   -1    0    0  501    0  0.00000000000E+00 -0.00000000000E+00 -0.18212660629E+03  0.18212660629E+03  0.00000000000E+00 0. -1.
         25    2    1    2    0    0 -0.29424915873E+02  0.59088712086E+02 -0.67346509612E+02  0.15665505425E+03  0.12509177469E+03 0.  0.
         23    2    1    2    0    0  0.29424915873E+02 -0.59088712086E+02 -0.66469747843E+01  0.13360467393E+03  0.11596863823E+03 0.  0.
          5    1    3    3  502    0 -0.51205930755E+02  0.85609876099E+02 -0.26813636724E+02  0.10338056754E+03  0.41800000000E+01 0. -1.
         -5    1    3    3    0  502  0.21781014882E+02 -0.26521164013E+02 -0.40532872887E+02  0.53274486712E+02  0.41800000000E+01 0. -1.
        -11    1    4    4    0    0 -0.34500767582E+02  0.18050715606E+01  0.21796628651E+02  0.40849164834E+02  0.00000000000E+00 0.  1.
         11    1    4    4    0    0  0.63925683455E+02 -0.60893783647E+02 -0.28443603436E+02  0.92755509100E+02  0.00000000000E+00 0. -1.
</event>
<event>
 8    1  0.4205029E-010  0.1351411E+03  0.7561462E-02  0.1220021E+00
          1   -1    0    0  501    0  0.00000000000E+00  0.00000000000E+00  0.37180755075E+02  0.37180755075E+02  0.00000000000E+00 0. -1.
         -1   -1    0    0    0  501 -0.00000000000E+00 -0.00000000000E+00 -0.74043812056E+03  0.74043812056E+03  0.00000000000E+00 0.  1.
         25    2    1    2    0    0 -0.90951000368E+02 -0.68828455839E+02 -0.44775442434E+03  0.47868674010E+03  0.12509008685E+03 0.  0.
         23    2    1    2    0    0  0.90951000368E+02  0.68828455839E+02 -0.25550294115E+03  0.29893213554E+03  0.10521039835E+03 0.  0.
          5    1    3    3  502    0 -0.39792834070E+02 -0.85151909896E+01 -0.35224605875E+03  0.35461350289E+03  0.41800000000E+01 0. -1.
         -5    1    3    3    0  502 -0.51158166297E+02 -0.60313264850E+02 -0.95508365587E+02  0.12407323721E+03  0.41800000000E+01 0. -1.
        -11    1    4    4    0    0  0.10552070297E+02 -0.24689107054E+02 -0.80348590476E+02  0.84715961814E+02  0.00000000000E+00 0.  1.
         11    1    4    4    0    0  0.80398930071E+02  0.93517562893E+02 -0.17515435067E+03  0.21421617372E+03  0.00000000000E+00 0. -1.
</event>
<event>
 8    1  0.4205029E-010  0.1913866E+03  0.7561462E-02  0.1157217E+00
         -1   -1    0    0    0  501 -0.00000000000E+00  0.00000000000E+00  0.19804435860E+03  0.19804435860E+03  0.00000000000E+00 0.  1.
          1   -1    0    0  501    0  0.00000000000E+00 -0.00000000000E+00 -0.25941475433E+03  0.25941475433E+03  0.00000000000E+00 0. -1.
         25    2    1    2    0    0  0.17881712132E+03 -0.14010756723E+02  0.41297260782E+02  0.22254157746E+03  0.12508967092E+03 0.  0.
         23    2    1    2    0    0 -0.17881712132E+03  0.14010756723E+02 -0.10266765651E+03  0.23491753547E+03  0.11168588359E+03 0.  0.
          5    1    3    3  502    0  0.31443815404E+02  0.18254410520E+01  0.65026947805E+02  0.72374181191E+02  0.41800000000E+01 0. -1.
         -5    1    3    3    0  502  0.14737330592E+03 -0.15836197775E+02 -0.23729687024E+02  0.15016739627E+03  0.41800000000E+01 0. -1.
        -11    1    4    4    0    0 -0.17226579118E+03 -0.15057169560E+02 -0.10906145074E+03  0.20444221972E+03  0.00000000000E+00 0. -1.
         11    1    4    4    0    0 -0.65513301377E+01  0.29067926283E+02  0.63937942270E+01  0.30475315743E+02  0.00000000000E+00 0.  1.
</event>
<event>
 8    1  0.4205029E-010  0.1056173E+03  0.7561462E-02  0.1268908E+00
         -2   -1    0    0    0  501 -0.00000000000E+00  0.00000000000E+00  0.24366612740E+02  0.24366612740E+02  0.00000000000E+00 0.  1.
          2   -1    0    0  501    0  0.00000000000E+00 -0.00000000000E+00 -0.60244189660E+03  0.60244189660E+03  0.00000000000E+00 0. -1.
         25    2    1    2    0    0  0.57171006942E+02  0.37757145563E+02 -0.37216915329E+03  0.39856123585E+03  0.12508818481E+03 0.  0.
         23    2    1    2    0    0 -0.57171006942E+02 -0.37757145563E+02 -0.20590613057E+03  0.22824727349E+03  0.70748548938E+02 0.  0.
          5    1    3    3  502    0  0.51300890201E+02 -0.24930105594E+02 -0.28655401804E+03  0.29220535443E+03  0.41800000000E+01 0. -1.
         -5    1    3    3    0  502  0.58701167410E+01  0.62687251157E+02 -0.85615135252E+02  0.10635588142E+03  0.41800000000E+01 0. -1.
        -11    1    4    4    0    0 -0.52646929310E+02  0.27104002332E+00 -0.16013833044E+03  0.16857063061E+03  0.00000000000E+00 0. -1.
         11    1    4    4    0    0 -0.45240776324E+01 -0.38028185586E+02 -0.45767800127E+02  0.59676642884E+02  0.00000000000E+00 0.  1.
</event>
<event>
 8    1  0.4205029E-010  0.9964023E+02  0.7561462E-02  0.1281054E+00
         -2   -1    0    0    0  501 -0.00000000000E+00  0.00000000000E+00  0.26426039666E+02  0.26426039666E+02  0.00000000000E+00 0.  1.
          2   -1    0    0  501    0  0.00000000000E+00 -0.00000000000E+00 -0.57383408197E+03  0.57383408197E+03  0.00000000000E+00 0. -1.
         25    2    1    2    0    0  0.33851315350E+02 -0.58938015926E+02 -0.35112798934E+03  0.37889243783E+03  0.12509601621E+03 0.  0.
         23    2    1    2    0    0 -0.33851315350E+02  0.58938015926E+02 -0.19628005296E+03  0.22136768381E+03  0.76538820028E+02 0.  0.
          5    1    3    3  502    0  0.55194826147E+02 -0.38096407913E+02 -0.34031816680E+03  0.34688864522E+03  0.41800000000E+01 0. -1.
         -5    1    3    3    0  502 -0.21343510798E+02 -0.20841608012E+02 -0.10809822537E+02  0.32003792604E+02  0.41800000000E+01 0. -1.
        -11    1    4    4    0    0 -0.55328477302E+02  0.22630930946E+02 -0.10532039140E+03  0.12110237108E+03  0.00000000000E+00 0. -1.
         11    1    4    4    0    0  0.21477161952E+02  0.36307084980E+02 -0.90959661561E+02  0.10026531273E+03  0.00000000000E+00 0.  1.
</event>
<event>
 8    1  0.5795469E-010  0.7355716E+02  0.7561462E-02  0.1348398E+00
         -1   -1    0    0    0  501 -0.00000000000E+00  0.00000000000E+00  0.27196995702E+02  0.27196995702E+02  0.00000000000E+00 0.  1.
          1   -1    0    0  501    0  0.00000000000E+00 -0.00000000000E+00 -0.62171892670E+03  0.62171892670E+03  0.00000000000E+00 0. -1.
         25    2    1    2    0    0 -0.19171439086E+02  0.15256138963E+02 -0.45639381507E+03  0.47385922125E+03  0.12508778229E+03 0.  0.
         23    2    1    2    0    0  0.19171439086E+02 -0.15256138963E+02 -0.13812811593E+03  0.17505670115E+03  0.10471474755E+03 0.  0.
          5    1    3    3  502    0 -0.40248612224E+02  0.50600761690E+02 -0.39204412768E+03  0.39736187325E+03  0.41800000000E+01 0.  1.
         -5    1    3    3    0  502  0.21077173138E+02 -0.35344622727E+02 -0.64349687390E+02  0.76497347996E+02  0.41800000000E+01 0.  1.
        -11    1    4    4    0    0  0.17847269481E+02 -0.25226649570E+02 -0.15355890940E+03  0.15663731207E+03  0.00000000000E+00 0. -1.
         11    1    4    4    0    0  0.13241696054E+01  0.99705106077E+01  0.15430793471E+02  0.18419389080E+02  0.00000000000E+00 0.  1.
</event>
<event>
 7    1  0.4205029E-010  0.1230423E+03  0.7561462E-02  0.1238161E+00
         -2   -1    0    0    0  501 -0.00000000000E+00  0.00000000000E+00  0.43400267238E+02  0.43400267238E+02  0.00000000000E+00 0.  1.
          2   -1    0    0  501    0  0.00000000000E+00 -0.00000000000E+00 -0.38180495545E+03  0.38180495545E+03  0.00000000000E+00 0. -1.
         25    2    1    2    0    0 -0.64104629452E+02 -0.59147631157E+02 -0.25269782007E+03  0.29514574202E+03  0.12508786903E+03 0.  0.
          5    1    3    3  502    0 -0.50153841184E+02 -0.98171561384E+02 -0.19394365022E+03  0.22312479717E+03  0.41800000000E+01 0. -1.
         -5    1    3    3    0  502 -0.13950788268E+02  0.39023930227E+02 -0.58754169846E+02  0.72020944856E+02  0.41800000000E+01 0. -1.
        -11    1    1    2    0    0  0.15065790251E+02  0.37678840181E+02 -0.19802971807E+02  0.45153413222E+02  0.00000000000E+00 0.  1.
         11    1    1    2    0    0  0.49038839201E+02  0.21468790976E+02 -0.65903896342E+02  0.84906067446E+02  0.00000000000E+00 0. -1.
</event>
<event>
 8    1  0.4205029E-010  0.1230481E+03  0.7561462E-02  0.1238152E+00
         -2   -1    0    0    0  501 -0.00000000000E+00  0.00000000000E+00  0.97862540294E+02  0.97862540294E+02  0.00000000000E+00 0.  1.
          2   -1    0    0  501    0  0.00000000000E+00 -0.00000000000E+00 -0.20096221834E+03  0.20096221834E+03  0.00000000000E+00 0. -1.
         25    2    1    2    0    0 -0.53995870891E+02  0.25505900031E+02 -0.13238773133E+02  0.13924830143E+03  0.12509484133E+03 0.  0.
         23    2    1    2    0    0  0.53995870891E+02 -0.25505900031E+02 -0.89860904917E+02  0.15957645721E+03  0.11757362992E+03 0.  0.
          5    1    3    3  502    0 -0.25802884857E+02 -0.43242567545E+02 -0.35284641382E+02  0.61629431542E+02  0.41800000000E+01 0.  1.
         -5    1    3    3    0  502 -0.28192986034E+02  0.68748467575E+02  0.22045868249E+02  0.77618869886E+02  0.41800000000E+01 0.  1.
        -11    1    4    4    0    0  0.10055220252E+02  0.40567229617E+02 -0.63388546523E+02  0.75927040002E+02  0.00000000000E+00 0. -1.
         11    1    4    4    0    0  0.43940650640E+02 -0.66073129648E+02 -0.26472358394E+02  0.83649417207E+02  0.00000000000E+00 0.  1.
</event>
<event>
 8    1  0.4205029E-010  0.1429597E+03  0.7561462E-02  0.1209401E+00
          2   -1    0    0  501    0  0.00000000000E+00  0.00000000000E+00  0.47887969886E+03  0.47887969886E+03  0.00000000000E+00 0. -1.
         -2   -1    0    0    0  501 -0.00000000000E+00 -0.00000000000E+00 -0.53430945452E+02  0.53430945452E+02  0.00000000000E+00 0.  1.
         25    2    1    2    0    0  0.75592443596E+02 -0.59337803978E+02  0.13957974875E+03  0.21063329987E+03  0.12509471709E+03 0.  0.
         23    2    1    2    0    0 -0.75592443596E+02  0.59337803978E+02  0.28586900466E+03  0.32167734444E+03  0.11189295595E+03 0.  0.
          5    1    3    3  502    0  0.10112694246E+03 -0.55194771835E+02  0.66708610904E+02  0.13319396569E+03  0.41800000000E+01 0. -1.
         -5    1    3    3    0  502 -0.25534498859E+02 -0.41430321434E+01  0.72871137843E+02  0.77439334178E+02  0.41800000000E+01 0. -1.
        -11    1    4    4    0    0  0.70053557611E+01 -0.25250251796E+02  0.30116646576E+02  0.39920704228E+02  0.00000000000E+00 0.  1.
         11    1    4    4    0    0 -0.82597799357E+02  0.84588055774E+02  0.25575235809E+03  0.28175664021E+03  0.00000000000E+00 0. -1.
</event>
<event>
 8    1  0.4205029E-010  0.1298353E+03  0.7561462E-02  0.1227700E+00
          2   -1    0    0  501    0  0.00000000000E+00  0.00000000000E+00  0.10529163165E+03  0.10529163165E+03  0.00000000000E+00 0. -1.
         -2   -1    0    0    0  501 -0.00000000000E+00 -0.00000000000E+00 -0.20494098304E+03  0.20494098304E+03  0.00000000000E+00 0.  1.
         25    2    1    2    0    0 -0.53652425253E+01 -0.85916682983E+02 -0.61277579330E+02  0.16374638842E+03  0.12508987069E+03 0.  0.
         23    2    1    2    0    0  0.53652425253E+01  0.85916682983E+02 -0.38371772059E+02  0.14648622627E+03  0.11213990973E+03 0.  0.
          5    1    3    3  502    0 -0.60892407030E+02 -0.64692087416E+02 -0.19736074355E+02  0.91103986955E+02  0.41800000000E+01 0.  1.
         -5    1    3    3    0  502  0.55527164504E+02 -0.21224595567E+02 -0.41541504975E+02  0.72642401464E+02  0.41800000000E+01 0.  1.
        -11    1    4    4    0    0  0.34887998139E+02  0.23422480449E+02 -0.60723413841E+02  0.73845229995E+02  0.00000000000E+00 0.  1.
         11    1    4    4    0    0 -0.29522755614E+02  0.62494202534E+02  0.22351641782E+02  0.72640996275E+02  0.00000000000E+00 0. -1.
</event>
<event>
 8    1  0.4205029E-010  0.1186645E+03  0.7561462E-02  0.1245317E+00
          2   -1    0    0  501    0  0.00000000000E+00  0.00000000000E+00  0.24695234025E+02  0.24695234025E+02  0.00000000000E+00 0. -1.
         -2   -1    0    0    0  501 -0.00000000000E+00 -0.00000000000E+00 -0.74388669285E+03  0.74388669285E+03  0.00000000000E+00 0.  1.
         25    2    1    2    0    0 -0.39803477626E+01  0.64050815813E+02 -0.46413809063E+03  0.48496235108E+03  0.12508383037E+03 0.  0.
         23    2    1    2    0    0  0.39803477626E+01 -0.64050815813E+02 -0.25505336820E+03  0.28361957580E+03  0.10615786815E+03 0.  0.
          5    1    3    3  502    0 -0.33707919473E+02 -0.23286612281E+02 -0.22246272642E+03  0.22624240803E+03  0.41800000000E+01 0.  1.
         -5    1    3    3    0  502  0.29727571711E+02  0.87337428095E+02 -0.24167536421E+03  0.25871994305E+03  0.41800000000E+01 0.  1.
        -11    1    4    4    0    0 -0.38011305912E+02 -0.40930376291E+02 -0.56842452685E+02  0.79694538757E+02  0.00000000000E+00 0. -1.
         11    1    4    4    0    0  0.41991653675E+02 -0.23120439523E+02 -0.19821091552E+03  0.20392503704E+03  0.00000000000E+00 0.  1.
</event>
<event>
 8    1  0.4205029E-010  0.9500633E+02  0.7561462E-02  0.1291162E+00
         -2   -1    0    0    0  501 -0.00000000000E+00  0.00000000000E+00  0.27777740338E+03  0.27777740338E+03  0.00000000000E+00 0. -1.
          2   -1    0    0  501    0  0.00000000000E+00 -0.00000000000E+00 -0.94450657088E+02  0.94450657088E+02  0.00000000000E+00 0.  1.
         25    2    1    2    0    0 -0.60337081569E+01 -0.58943096286E+02  0.20436565564E+03  0.24682766447E+03  0.12509148855E+03 0.  0.
         23    2    1    2    0    0  0.60337081569E+01  0.58943096286E+02 -0.21038909345E+02  0.12540039600E+03  0.10849852246E+03 0.  0.
          5    1    3    3  502    0 -0.15098121461E+02  0.27976858009E+02  0.98531591206E+01  0.33544224546E+02  0.41800000000E+01 0.  1.
         -5    1    3    3    0  502  0.90644133044E+01 -0.86919954295E+02  0.19451249652E+03  0.21328343992E+03  0.41800000000E+01 0.  1.
        -11    1    4    4    0    0  0.22310139428E+02  0.34965437140E+02 -0.62381737454E+02  0.74911983577E+02  0.00000000000E+00 0.  1.
         11    1    4    4    0    0 -0.16276431271E+02  0.23977659147E+02  0.41342828109E+02  0.50488412424E+02  0.00000000000E+00 0. -1.
</event>
<event>
 8    1  0.4205029E-010  0.2900613E+03  0.7561462E-02  0.1090317E+00
          1   -1    0    0  501    0  0.00000000000E+00  0.00000000000E+00  0.20983359724E+04  0.20983359724E+04  0.00000000000E+00 0. -1.
         -1   -1    0    0    0  501 -0.00000000000E+00 -0.00000000000E+00 -0.41654484201E+02  0.41654484201E+02  0.00000000000E+00 0.  1.
         25    2    1    2    0    0 -0.22345841536E+03  0.16124618063E+03  0.11732179078E+04  0.12116197380E+04  0.12509251080E+03 0.  0.
         23    2    1    2    0    0  0.22345841536E+03 -0.16124618063E+03  0.88346358046E+03  0.92837071862E+03  0.73690562693E+02 0.  0.
          5    1    3    3  502    0 -0.23616774880E+03  0.14835782556E+03  0.11392949168E+04  0.11729431486E+04  0.41800000000E+01 0.  1.
         -5    1    3    3    0  502  0.12709333440E+02  0.12888355074E+02  0.33922991002E+02  0.38676589450E+02  0.41800000000E+01 0.  1.
        -11    1    4    4    0    0  0.18147020400E+03 -0.96737804024E+02  0.58303396145E+03  0.61823801070E+03  0.00000000000E+00 0. -1.
         11    1    4    4    0    0  0.41988211365E+02 -0.64508376609E+02  0.30042961900E+03  0.31013270792E+03  0.00000000000E+00 0.  1.
</event>
<event>
 8    1  0.4205029E-010  0.1633243E+03  0.7561462E-02  0.1184994E+00
         -1   -1    0    0    0  501 -0.00000000000E+00  0.00000000000E+00  0.28179171863E+03  0.28179171863E+03  0.00000000000E+00 0.  1.
          1   -1    0    0  501    0  0.00000000000E+00 -0.00000000000E+00 -0.13512576008E+03  0.13512576008E+03  0.00000000000E+00 0. -1.
         25    2    1    2    0    0  0.14070121300E+03  0.28220558567E+02  0.17677602758E+03  0.25979040465E+03  0.12509220261E+03 0.  0.
         23    2    1    2    0    0 -0.14070121300E+03 -0.28220558567E+02 -0.30110069028E+02  0.15712707406E+03  0.56471850335E+02 0.  0.
          5    1    3    3  502    0  0.13125898836E+03 -0.20551117752E+02  0.15810155014E+03  0.20655469741E+03  0.41800000000E+01 0. -1.
         -5    1    3    3    0  502  0.94422246437E+01  0.48771676320E+02  0.18674477438E+02  0.53235707235E+02  0.41800000000E+01 0. -1.
        -11    1    4    4    0    0 -0.82519489900E+02 -0.11369672155E+02  0.10853745301E+02  0.84003210923E+02  0.00000000000E+00 0. -1.
         11    1    4    4    0    0 -0.58181723101E+02 -0.16850886413E+02 -0.40963814329E+02  0.73123863138E+02  0.00000000000E+00 0.  1.
</event>
<event>
 8    1  0.4205029E-010  0.1182696E+03  0.7561462E-02  0.1245979E+00
          2   -1    0    0  501    0  0.00000000000E+00  0.00000000000E+00  0.15558669840E+03  0.15558669840E+03  0.00000000000E+00 0. -1.
         -2   -1    0    0    0  501 -0.00000000000E+00 -0.00000000000E+00 -0.12980381410E+03  0.12980381410E+03  0.00000000000E+00 0.  1.
         25    2    1    2    0    0  0.16806092712E+01  0.12787734094E+02  0.89128447558E+02  0.15413648908E+03  0.12509127272E+03 0.  0.
         23    2    1    2    0    0 -0.16806092712E+01 -0.12787734094E+02 -0.63345563257E+02  0.13125402342E+03  0.11423050245E+03 0.  0.
          5    1    3    3  502    0 -0.36151033096E+02 -0.41616219994E+02  0.60136041759E+02  0.81686124152E+02  0.41800000000E+01 0.  1.
         -5    1    3    3    0  502  0.37831642367E+02  0.54403954088E+02  0.28992405799E+02  0.72450364931E+02  0.41800000000E+01 0.  1.
        -11    1    4    4    0    0 -0.24051961383E+02 -0.58891772661E+02 -0.32394383518E+02  0.71387210458E+02  0.00000000000E+00 0.  1.
         11    1    4    4    0    0  0.22371352112E+02  0.46104038566E+02 -0.30951179739E+02  0.59866812966E+02  0.00000000000E+00 0. -1.
</event>
<event>
 7    1  0.4205029E-010  0.1126097E+03  0.7561462E-02  0.1255812E+00
         -1   -1    0    0    0  501 -0.00000000000E+00  0.00000000000E+00  0.18612571833E+03  0.18612571833E+03  0.00000000000E+00 0.  1.
          1   -1    0    0  501    0  0.00000000000E+00 -0.00000000000E+00 -0.88721206374E+02  0.88721206374E+02  0.00000000000E+00 0. -1.
         25    2    1    2    0    0  0.37630442055E+02 -0.68660952840E+02  0.11496436762E+03  0.18706885095E+03  0.12509025765E+03 0.  0.
          5    1    3    3  502    0  0.49128989322E+02  0.17618794780E+02  0.74323524987E+02  0.90915005845E+02  0.41800000000E+01 0.  1.
         -5    1    3    3    0  502 -0.11498547267E+02 -0.86279747620E+02  0.40640842628E+02  0.96153845104E+02  0.41800000000E+01 0.  1.
        -11    1    1    2    0    0  0.12920136187E+01  0.32697328197E+02 -0.32351278666E+01  0.32882375564E+02  0.00000000000E+00 0. -1.
         11    1    1    2    0    0 -0.38922455674E+02  0.35963624643E+02 -0.14324727795E+02  0.54895698188E+02  0.00000000000E+00 0.  1.
</event>
<event>
 8    1  0.4205029E-010  0.2065183E+03  0.7561462E-02  0.1144353E+00
          1   -1    0    0  501    0  0.00000000000E+00  0.00000000000E+00  0.18459203464E+03  0.18459203464E+03  0.00000000000E+00 0. -1.
         -1   -1    0    0    0  501 -0.00000000000E+00 -0.00000000000E+00 -0.26987580097E+03  0.26987580097E+03  0.00000000000E+00 0.  1.
         25    2    1    2    0    0 -0.15348707044E+03  0.11132310102E+03 -0.20875616077E+02  0.22811480280E+03  0.12509779493E+03 0.  0.
         23    2    1    2    0    0  0.15348707044E+03 -0.11132310102E+03 -0.64408150251E+02  0.22635303281E+03  0.10552806276E+03 0.  0.
          5    1    3    3  502    0 -0.16252521643E+03  0.11998918774E+03 -0.38900349267E+02  0.20577308066E+03  0.41800000000E+01 0.  1.
         -5    1    3    3    0  502  0.90381459861E+01 -0.86660867193E+01  0.18024733190E+02  0.22341722147E+02  0.41800000000E+01 0.  1.
        -11    1    4    4    0    0  0.65857807338E+01 -0.28254260428E+02  0.22326111873E+02  0.36607799873E+02  0.00000000000E+00 0. -1.
         11    1    4    4    0    0  0.14690128971E+03 -0.83068840593E+02 -0.86734262124E+02  0.18974523294E+03  0.00000000000E+00 0.  1.
</event>
<event>
 8    1  0.4205029E-010  0.1144759E+03  0.7561462E-02  0.1252499E+00
         -2   -1    0    0    0  501 -0.00000000000E+00  0.00000000000E+00  0.20600475536E+02  0.20600475536E+02  0.00000000000E+00 0.  1.
          2   -1    0    0  501    0  0.00000000000E+00 -0.00000000000E+00 -0.68971090686E+03  0.68971090686E+03  0.00000000000E+00 0. -1.
         25    2    1    2    0    0 -0.58937142882E+02  0.36398399739E+02 -0.34276761855E+03  0.37139666875E+03  0.12508962755E+03 0.  0.
         23    2    1    2    0    0  0.58937142882E+02 -0.36398399739E+02 -0.32634281277E+03  0.33891471364E+03  0.59708637223E+02 0.  0.
          5    1    3    3  502    0 -0.91195624212E+02  0.50448538006E+02 -0.21753798738E+03  0.24125079320E+03  0.41800000000E+01 0. -1.
         -5    1    3    3    0  502  0.32258481330E+02 -0.14050138267E+02 -0.12522963117E+03  0.13014587556E+03  0.41800000000E+01 0. -1.
        -11    1    4    4    0    0  0.26483807052E+02  0.13473507309E+02 -0.14654284018E+03  0.14952501946E+03  0.00000000000E+00 0. -1.
         11    1    4    4    0    0  0.32453335831E+02 -0.49871907048E+02 -0.17979997259E+03  0.18938969418E+03  0.00000000000E+00 0.  1.
</event>
<event>
 7    1  0.4205029E-010  0.1080200E+03  0.7561462E-02  0.1264281E+00
          1   -1    0    0  501    0  0.00000000000E+00  0.00000000000E+00  0.10676434819E+04  0.10676434819E+04  0.00000000000E+00 0. -1.
         -1   -1    0    0    0  501 -0.00000000000E+00 -0.00000000000E+00 -0.11586580611E+02  0.11586580611E+02  0.00000000000E+00 0.  1.
         25    2    1    2    0    0 -0.11682100755E+02 -0.70128495502E+02  0.73854430550E+03  0.75242953669E+03  0.12509212260E+03 0.  0.
          5    1    3    3  502    0 -0.22618846003E+02  0.30057615851E+02  0.12352444812E+03  0.12919301122E+03  0.41800000000E+01 0. -1.
         -5    1    3    3    0  502  0.10936745247E+02 -0.10018611135E+03  0.61501985739E+03  0.62323652547E+03  0.41800000000E+01 0. -1.
        -11    1    1    2    0    0 -0.10400827994E+02  0.19885658409E+02  0.96699700938E+02  0.99269576381E+02  0.00000000000E+00 0. -1.
         11    1    1    2    0    0  0.22082928749E+02  0.50242837093E+02  0.22081289487E+03  0.22753094946E+03  0.00000000000E+00 0.  1.
</event>
<event>
 7    1  0.4205029E-010  0.1585523E+03  0.7561462E-02  0.1190341E+00
         -2   -1    0    0    0  501 -0.00000000000E+00  0.00000000000E+00  0.29993114771E+02  0.29993114771E+02  0.00000000000E+00 0. -1.
          2   -1    0    0  501    0  0.00000000000E+00 -0.00000000000E+00 -0.97689818471E+03  0.97689818471E+03  0.00000000000E+00 0.  1.
         25    2    1    2    0    0  0.77795271853E+02  0.57351219561E+02 -0.39285235602E+03  0.42346406203E+03  0.12509025337E+03 0.  0.
          5    1    3    3  502    0  0.87833015422E+02  0.23430939739E+01 -0.31798079593E+03  0.32992330574E+03  0.41800000000E+01 0.  1.
         -5    1    3    3    0  502 -0.10037743569E+02  0.55008125588E+02 -0.74871560086E+02  0.93540756285E+02  0.41800000000E+01 0.  1.
        -11    1    1    2    0    0 -0.11960578370E+03 -0.30688710182E+02 -0.29719095604E+03  0.32182262938E+03  0.00000000000E+00 0. -1.
         11    1    1    2    0    0  0.41810511849E+02 -0.26662509379E+02 -0.25686175788E+03  0.26160460808E+03  0.00000000000E+00 0.  1.
</event>
<event>
 8    1  0.5675258E-010  0.9977498E+02  0.7561462E-02  0.1280770E+00
         -2   -1    0    0    0  501 -0.00000000000E+00  0.00000000000E+00  0.12957343065E+02  0.12957343065E+02  0.00000000000E+00 0.  1.
          2   -1    0    0  501    0  0.00000000000E+00 -0.00000000000E+00 -0.10139276169E+04  0.10139276169E+04  0.00000000000E+00 0. -1.
         25    2    1    2    0    0 -0.59254242130E+01 -0.41068894425E+02 -0.72683300939E+03  0.73868467882E+03  0.12508823466E+03 0.  0.
         23    2    1    2    0    0  0.59254242130E+01  0.41068894425E+02 -0.27413726445E+03  0.28820028114E+03  0.78653655672E+02 0.  0.
          5    1    3    3  502    0  0.26560315554E+02  0.27840215575E+02 -0.44586137816E+03  0.44753812006E+03  0.41800000000E+01 0. -1.
         -5    1    3    3    0  502 -0.32485739767E+02 -0.68909110000E+02 -0.28097163122E+03  0.29114655877E+03  0.41800000000E+01 0. -1.
        -11    1    4    4    0    0  0.22591020064E+01  0.62633745587E+02 -0.15717511482E+03  0.16921024303E+03  0.00000000000E+00 0.  1.
         11    1    4    4    0    0  0.36663222066E+01 -0.21564851162E+02 -0.11696214963E+03  0.11899003811E+03  0.00000000000E+00 0. -1.
</event>
<event>
 7    1  0.4205029E-010  0.1001781E+03  0.7561462E-02  0.1279922E+00
          2   -1    0    0  501    0  0.00000000000E+00  0.00000000000E+00  0.51924267451E+03  0.51924267451E+03  0.00000000000E+00 0.  1.
         -2   -1    0    0    0  501 -0.00000000000E+00 -0.00000000000E+00 -0.28204547537E+02  0.28204547537E+02  0.00000000000E+00 0. -1.
         25    2    1    2    0    0 -0.44239090631E+02 -0.59358147383E+02  0.22072719773E+03  0.26428370876E+03  0.12507955907E+03 0.  0.
          5    1    3    3  502    0  0.31078728704E+02 -0.22456670033E+02  0.13797814945E+02  0.40963904892E+02  0.41800000000E+01 0. -1.
         -5    1    3    3    0  502 -0.75317819334E+02 -0.36901477350E+02  0.20692938278E+03  0.22331980386E+03  0.41800000000E+01 0. -1.
        -11    1    1    2    0    0  0.12244120781E+02  0.36472009253E+02  0.18850518467E+03  0.19239108763E+03  0.00000000000E+00 0.  1.
         11    1    1    2    0    0  0.31994969850E+02  0.22886138129E+02  0.81805744583E+02  0.90772425664E+02  0.00000000000E+00 0. -1.
</event>
<event>
 8    1  0.4205029E-010  0.6760534E+02  0.7561462E-02  0.1368431E+00
         -2   -1    0    0    0  501 -0.00000000000E+00  0.00000000000E+00  0.20715121526E+03  0.20715121526E+03  0.00000000000E+00 0.  1.
          2   -1    0    0  501    0  0.00000000000E+00 -0.00000000000E+00 -0.58092048740E+02  0.58092048740E+02  0.00000000000E+00 0. -1.
         25    2    1    2    0    0  0.27329372954E+00 -0.38144968913E+02  0.65383210659E+02  0.14620901955E+03  0.12508796832E+03 0.  0.
         23    2    1    2    0    0 -0.27329372954E+00  0.38144968913E+02  0.83675955861E+02  0.11903424445E+03  0.75580238291E+02 0.  0.
          5    1    3    3  502    0 -0.24945417632E+00  0.10832839156E+02 -0.33676230120E+02  0.35622654403E+02  0.41800000000E+01 0. -1.
         -5    1    3    3    0  502  0.52274790586E+00 -0.48977808069E+02  0.99059440779E+02  0.11058636515E+03  0.41800000000E+01 0. -1.
        -11    1    4    4    0    0  0.30896363351E+02  0.10090496163E+02  0.95638558690E+01  0.33880240853E+02  0.00000000000E+00 0. -1.
         11    1    4    4    0    0 -0.31169657081E+02  0.28054472750E+02  0.74112099992E+02  0.85154003599E+02  0.00000000000E+00 0.  1.
</event>
<event>
 8    1  0.4205029E-010  0.1105812E+03  0.7561462E-02  0.1259497E+00
          2   -1    0    0  501    0  0.00000000000E+00  0.00000000000E+00  0.31952953510E+03  0.31952953510E+03  0.00000000000E+00 0. -1.
         -2   -1    0    0    0  501 -0.00000000000E+00 -0.00000000000E+00 -0.42771789585E+02  0.42771789585E+02  0.00000000000E+00 0.  1.
         25    2    1    2    0    0  0.20185185814E+02 -0.40374569451E+02  0.21720231933E+03  0.25468017671E+03  0.12509035656E+03 0.  0.
         23    2    1    2    0    0 -0.20185185814E+02  0.40374569451E+02  0.59555426183E+02  0.10762114797E+03  0.77446207899E+02 0.  0.
          5    1    3    3  502    0  0.29756854640E+02  0.40333480470E+02  0.10078836198E+03  0.11264113971E+03  0.41800000000E+01 0. -1.
         -5    1    3    3    0  502 -0.95716688262E+01 -0.80708049922E+02  0.11641395735E+03  0.14203903700E+03  0.41800000000E+01 0. -1.
        -11    1    4    4    0    0  0.98552779255E+01  0.55138555748E+02  0.34181779472E+02  0.65618449242E+02  0.00000000000E+00 0. -1.
         11    1    4    4    0    0 -0.30040463740E+02 -0.14763986297E+02  0.25373646711E+02  0.42002698729E+02  0.00000000000E+00 0.  1.
</event>
<event>
 8    1  0.4205029E-010  0.1083376E+03  0.7561462E-02  0.1263680E+00
          1   -1    0    0  501    0  0.00000000000E+00  0.00000000000E+00  0.17023236242E+02  0.17023236242E+02  0.00000000000E+00 0. -1.
         -1   -1    0    0    0  501 -0.00000000000E+00 -0.00000000000E+00 -0.80831050572E+03  0.80831050572E+03  0.00000000000E+00 0.  1.
         25    2    1    2    0    0 -0.13579785541E+02 -0.60052611753E+02 -0.52965250557E+03  0.54769490476E+03  0.12508878965E+03 0.  0.
         23    2    1    2    0    0  0.13579785541E+02  0.60052611753E+02 -0.26163476391E+03  0.27763883719E+03  0.69569012361E+02 0.  0.
          5    1    3    3  502    0  0.49047106122E+02 -0.24409429473E+02 -0.12339423969E+03  0.13507423757E+03  0.41800000000E+01 0. -1.
         -5    1    3    3    0  502 -0.62626891664E+02 -0.35643182280E+02 -0.40625826588E+03  0.41262066720E+03  0.41800000000E+01 0. -1.
        -11    1    4    4    0    0 -0.23372236073E+02  0.60978718286E+01 -0.41732292662E+02  0.48218561890E+02  0.00000000000E+00 0. -1.
         11    1    4    4    0    0  0.36952021614E+02  0.53954739924E+02 -0.21990247124E+03  0.22942027530E+03  0.00000000000E+00 0.  1.
</event>
<event>
 7    1  0.4205029E-010  0.1018628E+03  0.7561462E-02  0.1276427E+00
          1   -1    0    0  501    0  0.00000000000E+00  0.00000000000E+00  0.34171124110E+03  0.34171124110E+03  0.00000000000E+00 0. -1.
         -1   -1    0    0    0  501 -0.00000000000E+00 -0.00000000000E+00 -0.40028724463E+02  0.40028724463E+02  0.00000000000E+00 0.  1.
         25    2    1    2    0    0 -0.75180948273E+02 -0.14279842422E+02  0.19128756157E+03  0.24103823423E+03  0.12510959302E+03 0.  0.
          5    1    3    3  502    0 -0.36252028708E+02 -0.53155207783E+02  0.31041020948E+02  0.71559088042E+02  0.41800000000E+01 0.  1.
         -5    1    3    3    0  502 -0.38928919565E+02  0.38875365361E+02  0.16024654062E+03  0.16947914618E+03  0.41800000000E+01 0.  1.
        -11    1    1    2    0    0  0.36725799107E+01  0.11979474136E+02  0.33025748640E+02  0.35322736545E+02  0.00000000000E+00 0. -1.
         11    1    1    2    0    0  0.71508368362E+02  0.23003682858E+01  0.77369206431E+02  0.10537899479E+03  0.00000000000E+00 0.  1.
</event>
<event>
 8    1  0.4205029E-010  0.6251646E+02  0.7561462E-02  0.1387565E+00
         -1   -1    0    0    0  501 -0.00000000000E+00  0.00000000000E+00  0.37213854630E+02  0.37213854630E+02  0.00000000000E+00 0.  1.
          1   -1    0    0  501    0  0.00000000000E+00 -0.00000000000E+00 -0.30213091333E+03  0.30213091333E+03  0.00000000000E+00 0. -1.
         25    2    1    2    0    0  0.43958277858E+02 -0.34962142576E+01 -0.17564899593E+03  0.22010109498E+03  0.12508944214E+03 0.  0.
         23    2    1    2    0    0 -0.43958277858E+02  0.34962142576E+01 -0.89268062775E+02  0.11924367298E+03  0.65617930538E+02 0.  0.
          5    1    3    3  502    0  0.11363667690E+02 -0.19301461960E+02  0.14156494542E+02  0.26824580423E+02  0.41800000000E+01 0.  1.
         -5    1    3    3    0  502  0.32594610168E+02  0.15805247702E+02 -0.18980549047E+03  0.19327651456E+03  0.41800000000E+01 0.  1.
        -11    1    4    4    0    0 -0.15375994122E+02  0.25455774013E+02 -0.74636439440E+02  0.80343112450E+02  0.00000000000E+00 0. -1.
         11    1    4    4    0    0 -0.28582283737E+02 -0.21959559756E+02 -0.14631623335E+02  0.38900560532E+02  0.00000000000E+00 0.  1.
</event>
<event>
 8    1  0.4205029E-010  0.1611444E+03  0.7561462E-02  0.1187411E+00
         -2   -1    0    0    0  501 -0.00000000000E+00  0.00000000000E+00  0.55794883956E+02  0.55794883956E+02  0.00000000000E+00 0.  1.
          2   -1    0    0  501    0  0.00000000000E+00 -0.00000000000E+00 -0.61999327024E+03  0.61999327024E+03  0.00000000000E+00 0. -1.
         25    2    1    2    0    0 -0.12393163221E+03 -0.55797961085E+02 -0.33903264439E+03  0.38608755922E+03  0.12509199616E+03 0.  0.
         23    2    1    2    0    0  0.12393163221E+03  0.55797961085E+02 -0.22516574189E+03  0.28970059497E+03  0.12146753262E+03 0.  0.
          5    1    3    3  502    0 -0.36331793215E+02 -0.40077951639E+02 -0.26425977376E+03  0.26977201826E+03  0.41800000000E+01 0. -1.
         -5    1    3    3    0  502 -0.87599838992E+02 -0.15720009446E+02 -0.74772870628E+02  0.11631554097E+03  0.41800000000E+01 0. -1.
        -11    1    4    4    0    0  0.12892104595E+03  0.61817843836E+01 -0.18548735307E+03  0.22597435407E+03  0.00000000000E+00 0. -1.
         11    1    4    4    0    0 -0.49894137433E+01  0.49616176702E+02 -0.39678388816E+02  0.63726240898E+02  0.00000000000E+00 0.  1.
</event>
<event>
 8    1  0.4205029E-010  0.9883317E+02  0.7561462E-02  0.1282769E+00
         -1   -1    0    0    0  501 -0.00000000000E+00  0.00000000000E+00  0.28641865175E+02  0.28641865175E+02  0.00000000000E+00 0.  1.
          1   -1    0    0  501    0  0.00000000000E+00 -0.00000000000E+00 -0.40328798571E+03  0.40328798571E+03  0.00000000000E+00 0. -1.
         25    2    1    2    0    0  0.28775990731E+02 -0.11108592980E+02 -0.18830069846E+03  0.22815908140E+03  0.12509178592E+03 0.  0.
         23    2    1    2    0    0 -0.28775990731E+02  0.11108592980E+02 -0.18634542208E+03  0.20377076949E+03  0.76462093143E+02 0.  0.
          5    1    3    3  502    0  0.76247360610E+02  0.77496335483E+01 -0.12536869721E+03  0.14699829748E+03  0.41800000000E+01 0.  1.
         -5    1    3    3    0  502 -0.47471369880E+02 -0.18858226529E+02 -0.62932001248E+02  0.81160783924E+02  0.41800000000E+01 0.  1.
        -11    1    4    4    0    0  0.14194577654E+02  0.21208185178E+02 -0.22300495884E+02  0.33890784441E+02  0.00000000000E+00 0. -1.
         11    1    4    4    0    0 -0.42970568385E+02 -0.10099592197E+02 -0.16404492619E+03  0.16987998505E+03  0.00000000000E+00 0.  1.
</event>
<event>
 8    1  0.4205029E-010  0.2793478E+03  0.7561462E-02  0.1096046E+00
          1   -1    0    0  501    0  0.00000000000E+00  0.00000000000E+00  0.59959526717E+03  0.59959526717E+03  0.00000000000E+00 0. -1.
         -1   -1    0    0    0  501 -0.00000000000E+00 -0.00000000000E+00 -0.13543278703E+03  0.13543278703E+03  0.00000000000E+00 0.  1.
         25    2    1    2    0    0 -0.24803953999E+03 -0.98999262329E+02  0.27508630965E+03  0.40329289799E+03  0.12509283140E+03 0.  0.
         23    2    1    2    0    0  0.24803953999E+03  0.98999262329E+02  0.18907617049E+03  0.33173515621E+03  0.54533918571E+02 0.  0.
          5    1    3    3  502    0 -0.20896975377E+03 -0.12562954736E+03  0.20465025047E+03  0.31835567936E+03  0.41800000000E+01 0.  1.
         -5    1    3    3    0  502 -0.39069786219E+02  0.26630285028E+02  0.70436059184E+02  0.84937218634E+02  0.41800000000E+01 0.  1.
        -11    1    4    4    0    0  0.19034086748E+03  0.81669663074E+02  0.11731652857E+03  0.23803938241E+03  0.00000000000E+00 0.  1.
         11    1    4    4    0    0  0.57698672511E+02  0.17329599255E+02  0.71759641915E+02  0.93695773798E+02  0.00000000000E+00 0. -1.
</event>
<event>
 8    1  0.4205029E-010  0.1122097E+03  0.7561462E-02  0.1256532E+00
          2   -1    0    0  501    0  0.00000000000E+00  0.00000000000E+00  0.41645768764E+03  0.41645768764E+03  0.00000000000E+00 0. -1.
         -2   -1    0    0    0  501 -0.00000000000E+00 -0.00000000000E+00 -0.39808204461E+02  0.39808204461E+02  0.00000000000E+00 0.  1.
         25    2    1    2    0    0  0.61482556728E+02 -0.57327305665E+02  0.26266000333E+03  0.30282637591E+03  0.12508801637E+03 0.  0.
         23    2    1    2    0    0 -0.61482556728E+02  0.57327305665E+02  0.11398947985E+03  0.15343951619E+03  0.59021681242E+02 0.  0.
          5    1    3    3  502    0  0.74677277775E+02 -0.13650618328E+02  0.23991542431E+03  0.25167423074E+03  0.41800000000E+01 0.  1.
         -5    1    3    3    0  502 -0.13194721047E+02 -0.43676687337E+02  0.22744579016E+02  0.51152145164E+02  0.41800000000E+01 0.  1.
        -11    1    4    4    0    0 -0.58258645860E+02  0.15048458359E+02  0.62880285306E+02  0.87031351803E+02  0.00000000000E+00 0.  1.
         11    1    4    4    0    0 -0.32239108682E+01  0.42278847307E+02  0.51109194545E+02  0.66408164392E+02  0.00000000000E+00 0. -1.
</event>
<event>
 8    1  0.4205029E-010  0.2172623E+03  0.7561462E-02  0.1135941E+00
          2   -1    0    0  501    0  0.00000000000E+00  0.00000000000E+00  0.90040754737E+03  0.90040754737E+03  0.00000000000E+00 0.  1.
         -2   -1    0    0    0  501 -0.00000000000E+00 -0.00000000000E+00 -0.10774223972E+03  0.10774223972E+03  0.00000000000E+00 0. -1.
         25    2    1    2    0    0  0.18013421017E+03 -0.11120659639E+03  0.76132543187E+02  0.25740755055E+03  0.12508893714E+03 0.  0.
         23    2    1    2    0    0 -0.18013421017E+03  0.11120659639E+03  0.71653276446E+03  0.75074223655E+03  0.73344818777E+02 0.  0.
          5    1    3    3  502    0  0.66709717269E+02 -0.90510408964E+01  0.80018844633E+02  0.10465464928E+03  0.41800000000E+01 0. -1.
         -5    1    3    3    0  502  0.11342449290E+03 -0.10215555549E+03 -0.38863014457E+01  0.15275290127E+03  0.41800000000E+01 0. -1.
        -11    1    4    4    0    0 -0.11208530071E+03  0.87899378672E+02  0.56970688608E+03  0.58724386030E+03  0.00000000000E+00 0. -1.
         11    1    4    4    0    0 -0.68048909456E+02  0.23307217715E+02  0.14682587838E+03  0.16349837625E+03  0.00000000000E+00 0.  1.
</event>
<event>
 8    1  0.4205029E-010  0.1721243E+03  0.7561462E-02  0.1175651E+00
         -1   -1    0    0    0  501 -0.00000000000E+00  0.00000000000E+00  0.67509187570E+02  0.67509187570E+02  0.00000000000E+00 0.  1.
          1   -1    0    0  501    0  0.00000000000E+00 -0.00000000000E+00 -0.51424337590E+03  0.51424337590E+03  0.00000000000E+00 0. -1.
         25    2    1    2    0    0  0.13561807691E+03  0.14217531624E+02 -0.14821050479E+03  0.23707332924E+03  0.12507201412E+03 0.  0.
         23    2    1    2    0    0 -0.13561807691E+03 -0.14217531624E+02 -0.29852368355E+03  0.34467923424E+03  0.10532323526E+03 0.  0.
          5    1    3    3  502    0  0.99570260992E+02 -0.40018101645E+02 -0.48334077081E+02  0.11776816523E+03  0.41800000000E+01 0. -1.
         -5    1    3    3    0  502  0.36047815915E+02  0.54235633269E+02 -0.99876427705E+02  0.11930516401E+03  0.41800000000E+01 0. -1.
        -11    1    4    4    0    0 -0.99961410204E+02  0.39201445042E+02 -0.17145388909E+03  0.20230045207E+03  0.00000000000E+00 0.  1.
         11    1    4    4    0    0 -0.35656666703E+02 -0.53418976665E+02 -0.12706979446E+03  0.14237878217E+03  0.00000000000E+00 0. -1.
</event>
<event>
 8    1  0.4205029E-010  0.1422169E+03  0.7561462E-02  0.1210377E+00
         -2   -1    0    0    0  501 -0.00000000000E+00  0.00000000000E+00  0.20989798182E+02  0.20989798182E+02  0.00000000000E+00 0.  1.
          2   -1    0    0  501    0  0.00000000000E+00 -0.00000000000E+00 -0.12574850624E+04  0.12574850624E+04  0.00000000000E+00 0. -1.
         25    2    1    2    0    0 -0.40045771091E+02 -0.10736919487E+03 -0.65999464119E+03  0.68144646093E+03  0.12507815525E+03 0.  0.
         23    2    1    2    0    0  0.40045771091E+02  0.10736919487E+03 -0.57650062300E+03  0.59702839963E+03  0.10468110552E+03 0.  0.
          5    1    3    3  502    0  0.31368791882E+01 -0.75538133842E+02 -0.14436814980E+03  0.16301989066E+03  0.41800000000E+01 0. -1.
         -5    1    3    3    0  502 -0.43182650279E+02 -0.31831061031E+02 -0.51562649139E+03  0.51842657026E+03  0.41800000000E+01 0. -1.
        -11    1    4    4    0    0 -0.34159115682E+02  0.17565211478E+02 -0.15964327919E+03  0.16419914260E+03  0.00000000000E+00 0. -1.
         11    1    4    4    0    0  0.74204886774E+02  0.89803983396E+02 -0.41685734381E+03  0.43282925703E+03  0.00000000000E+00 0.  1.
</event>
<event>
 7    1  0.4205029E-010  0.1634111E+03  0.7561462E-02  0.1184899E+00
          1   -1    0    0  501    0  0.00000000000E+00  0.00000000000E+00  0.31538768046E+02  0.31538768046E+02  0.00000000000E+00 0. -1.
         -1   -1    0    0    0  501 -0.00000000000E+00 -0.00000000000E+00 -0.90222229469E+03  0.90222229469E+03  0.00000000000E+00 0.  1.
         25    2    1    2    0    0  0.82790274468E+02  0.11222359957E+03 -0.54895659776E+03  0.58004290053E+03  0.12509218356E+03 0.  0.
          5    1    3    3  502    0  0.50994179571E+02 -0.16633167140E+02 -0.18275526333E+03  0.19050991385E+03  0.41800000000E+01 0.  1.
         -5    1    3    3    0  502  0.31796094897E+02  0.12885676671E+03 -0.36620133443E+03  0.38953298669E+03  0.41800000000E+01 0.  1.
        -11    1    1    2    0    0 -0.52875718340E+02 -0.59376471794E+02 -0.23306705093E+03  0.24625526842E+03  0.00000000000E+00 0.  1.
         11    1    1    2    0    0 -0.29914556128E+02 -0.52847127777E+02 -0.88659877948E+02  0.10746289378E+03  0.00000000000E+00 0. -1.
</event>
<event>
 8    1  0.4205029E-010  0.1618869E+03  0.7561462E-02  0.1186583E+00
          1   -1    0    0  501    0  0.00000000000E+00  0.00000000000E+00  0.16641411598E+04  0.16641411598E+04  0.00000000000E+00 0. -1.
         -1   -1    0    0    0  501 -0.00000000000E+00 -0.00000000000E+00 -0.17242265483E+02  0.17242265483E+02  0.00000000000E+00 0.  1.
         25    2    1    2    0    0 -0.85752770855E+02  0.99527003628E+02  0.10577813185E+04  0.10732243300E+04  0.12509989105E+03 0.  0.
         23    2    1    2    0    0  0.85752770855E+02 -0.99527003628E+02  0.58911757588E+03  0.60815909527E+03  0.74423146840E+02 0.  0.
          5    1    3    3  502    0 -0.22360449193E+02  0.10652728707E+03  0.81177698286E+03  0.81905274243E+03  0.41800000000E+01 0. -1.
         -5    1    3    3    0  502 -0.63392321662E+02 -0.70002834368E+01  0.24600433560E+03  0.25417158761E+03  0.41800000000E+01 0. -1.
        -11    1    4    4    0    0  0.67651163733E+02 -0.21730408491E+02  0.28589209662E+03  0.29458985305E+03  0.00000000000E+00 0.  1.
         11    1    4    4    0    0  0.18101607122E+02 -0.77796595137E+02  0.30322547926E+03  0.31356924222E+03  0.00000000000E+00 0. -1.
</event>
<event>
 8    1  0.4205029E-010  0.1454515E+03  0.7561462E-02  0.1206176E+00
         -2   -1    0    0    0  501 -0.00000000000E+00  0.00000000000E+00  0.59594561352E+02  0.59594561352E+02  0.00000000000E+00 0.  1.
          2   -1    0    0  501    0  0.00000000000E+00 -0.00000000000E+00 -0.52445132207E+03  0.52445132207E+03  0.00000000000E+00 0. -1.
         25    2    1    2    0    0  0.13595185241E+03 -0.33803112961E+01 -0.32958080534E+03  0.37784371295E+03  0.12509209202E+03 0.  0.
         23    2    1    2    0    0 -0.13595185241E+03  0.33803112961E+01 -0.13527595538E+03  0.20620217048E+03  0.75666494088E+02 0.  0.
          5    1    3    3  502    0  0.92844735730E+02 -0.39819849725E+01 -0.74687947269E+02  0.11929695312E+03  0.41800000000E+01 0. -1.
         -5    1    3    3    0  502  0.43107116681E+02  0.60167367635E+00 -0.25489285807E+03  0.25854675982E+03  0.41800000000E+01 0. -1.
        -11    1    4    4    0    0 -0.12489034322E+03  0.27631581403E+02 -0.10221580092E+03  0.16373506673E+03  0.00000000000E+00 0.  1.
         11    1    4    4    0    0 -0.11061509188E+02 -0.24251270107E+02 -0.33060154465E+02  0.42467103746E+02  0.00000000000E+00 0. -1.
</event>
<event>
 8    1  0.4205029E-010  0.1531570E+03  0.7561462E-02  0.1196647E+00
         -2   -1    0    0    0  501 -0.00000000000E+00  0.00000000000E+00  0.15901243926E+03  0.15901243926E+03  0.00000000000E+00 0.  1.
          2   -1    0    0  501    0  0.00000000000E+00 -0.00000000000E+00 -0.18950260937E+03  0.18950260937E+03  0.00000000000E+00 0. -1.
         25    2    1    2    0    0 -0.10781650277E+03 -0.55335282821E+02 -0.94608001135E+02  0.19820943489E+03  0.12509961793E+03 0.  0.
         23    2    1    2    0    0  0.10781650277E+03  0.55335282821E+02  0.64117831025E+02  0.15030561373E+03  0.61597804096E+02 0.  0.
          5    1    3    3  502    0 -0.25210729411E+02  0.39155616761E+02 -0.13315494272E+02  0.48616026052E+02  0.41800000000E+01 0.  1.
         -5    1    3    3    0  502 -0.82605773358E+02 -0.94490899582E+02 -0.81292506863E+02  0.14959340884E+03  0.41800000000E+01 0.  1.
        -11    1    4    4    0    0  0.95519138407E+02  0.21403122635E+02  0.57759363076E+02  0.11365801108E+03  0.00000000000E+00 0.  1.
         11    1    4    4    0    0  0.12297364362E+02  0.33932160186E+02  0.63584679489E+01  0.36647602647E+02  0.00000000000E+00 0. -1.
</event>
<event>
 8    1  0.4205029E-010  0.1111835E+03  0.7561462E-02  0.1258394E+00
          1   -1    0    0  501    0  0.00000000000E+00  0.00000000000E+00  0.29962895142E+02  0.29962895142E+02  0.00000000000E+00 0.  1.
         -1   -1    0    0    0  501 -0.00000000000E+00 -0.00000000000E+00 -0.66163284991E+03  0.66163284991E+03  0.00000000000E+00 0. -1.
         25    2    1    2    0    0 -0.43935907941E+02  0.85692765510E+02 -0.40546535485E+03  0.43511295997E+03  0.12509004711E+03 0.  0.
         23    2    1    2    0    0  0.43935907941E+02 -0.85692765510E+02 -0.22620459992E+03  0.25648278508E+03  0.73084088215E+02 0.  0.
          5    1    3    3  502    0  0.16435896856E+02  0.78263796641E+01 -0.89792356869E+00  0.18699454293E+02  0.41800000000E+01 0.  1.
         -5    1    3    3    0  502 -0.60371804798E+02  0.77866385845E+02 -0.40456743128E+03  0.41641350568E+03  0.41800000000E+01 0.  1.
        -11    1    4    4    0    0  0.43366020098E+02 -0.38843061074E+02 -0.18548765090E+03  0.19440952582E+03  0.00000000000E+00 0.  1.
         11    1    4    4    0    0  0.56988784320E+00 -0.46849704436E+02 -0.40716949021E+02  0.62073259263E+02  0.00000000000E+00 0. -1.
</event>
<event>
 8    1  0.4205029E-010  0.1339866E+03  0.7561462E-02  0.1221657E+00
         -3   -1    0    0    0  501 -0.00000000000E+00  0.00000000000E+00  0.48425992699E+02  0.48425992699E+02  0.00000000000E+00 0.  1.
          3   -1    0    0  501    0  0.00000000000E+00 -0.00000000000E+00 -0.46582262005E+03  0.46582262005E+03  0.00000000000E+00 0. -1.
         25    2    1    2    0    0 -0.22687242573E+02 -0.92129926840E+02 -0.23569644607E+03  0.28320320584E+03  0.12509439121E+03 0.  0.
         23    2    1    2    0    0  0.22687242573E+02  0.92129926840E+02 -0.18170018128E+03  0.23104540691E+03  0.10660389196E+03 0.  0.
          5    1    3    3  502    0 -0.54001549726E+02 -0.53131788346E+02 -0.50053102517E+02  0.90895213170E+02  0.41800000000E+01 0. -1.
         -5    1    3    3    0  502  0.31314307153E+02 -0.38998138493E+02 -0.18564334356E+03  0.19230799267E+03  0.41800000000E+01 0. -1.
        -11    1    4    4    0    0 -0.87837362299E+01 -0.21912179359E+02 -0.21759968134E+02  0.32105978253E+02  0.00000000000E+00 0.  1.
         11    1    4    4    0    0  0.31470978803E+02  0.11404210620E+03 -0.15994021314E+03  0.19893942865E+03  0.00000000000E+00 0. -1.
</event>
<event>
 8    1  0.4205029E-010  0.1418383E+03  0.7561462E-02  0.1210877E+00
         -2   -1    0    0    0  501 -0.00000000000E+00  0.00000000000E+00  0.55424667859E+02  0.55424667859E+02  0.00000000000E+00 0.  1.
          2   -1    0    0  501    0  0.00000000000E+00 -0.00000000000E+00 -0.46887358194E+03  0.46887358194E+03  0.00000000000E+00 0. -1.
         25    2    1    2    0    0 -0.37281152631E+02  0.10123508587E+03 -0.33757153010E+03  0.37581973002E+03  0.12508998595E+03 0.  0.
         23    2    1    2    0    0  0.37281152631E+02 -0.10123508587E+03 -0.75877383973E+02  0.14847851977E+03  0.68191395952E+02 0.  0.
          5    1    3    3  502    0 -0.79375825825E+02  0.80761283927E+02 -0.27604686153E+03  0.29839947866E+03  0.41800000000E+01 0.  1.
         -5    1    3    3    0  502  0.42094673194E+02  0.20473801946E+02 -0.61524668574E+02  0.77420251360E+02  0.41800000000E+01 0.  1.
        -11    1    4    4    0    0  0.31097357309E+02 -0.11100945648E+02 -0.44704804262E+01  0.33320591548E+02  0.00000000000E+00 0.  1.
         11    1    4    4    0    0  0.61837953223E+01 -0.90134140224E+02 -0.71406903547E+02  0.11515792822E+03  0.00000000000E+00 0. -1.
</event>
<event>
 8    1  0.4205029E-010  0.1060550E+03  0.7561462E-02  0.1268055E+00
         -1   -1    0    0    0  501 -0.00000000000E+00  0.00000000000E+00  0.18291106743E+03  0.18291106743E+03  0.00000000000E+00 0.  1.
          1   -1    0    0  501    0  0.00000000000E+00 -0.00000000000E+00 -0.79810647001E+02  0.79810647001E+02  0.00000000000E+00 0. -1.
         25    2    1    2    0    0 -0.12621609256E+01  0.60900678787E+02  0.93697972074E+02  0.16773909613E+03  0.12508640483E+03 0.  0.
         23    2    1    2    0    0  0.12621609256E+01 -0.60900678787E+02  0.94024483555E+01  0.94982618297E+02  0.72268983780E+02 0.  0.
          5    1    3    3  502    0 -0.51105576918E+02  0.42976669544E+02  0.93045187390E+02  0.11460215274E+03  0.41800000000E+01 0.  1.
         -5    1    3    3    0  502  0.49843415992E+02  0.17924009243E+02  0.65278468446E+00  0.53136943391E+02  0.41800000000E+01 0.  1.
        -11    1    4    4    0    0 -0.20075299166E+02  0.67159145029E+01  0.11415469910E+02  0.24050656904E+02  0.00000000000E+00 0.  1.
         11    1    4    4    0    0  0.21337460092E+02 -0.67616593290E+02 -0.20130215543E+01  0.70931961393E+02  0.00000000000E+00 0. -1.
</event>
<event>
 8    1  0.4205029E-010  0.8340503E+02  0.7561462E-02  0.1319657E+00
         -2   -1    0    0    0  501 -0.00000000000E+00  0.00000000000E+00  0.13329315020E+03  0.13329315020E+03  0.00000000000E+00 0.  1.
          2   -1    0    0  501    0  0.00000000000E+00 -0.00000000000E+00 -0.70330281687E+02  0.70330281687E+02  0.00000000000E+00 0. -1.
         25    2    1    2    0    0  0.32464387118E+01  0.10093544485E+02  0.73092374342E+02  0.14526778516E+03  0.12509122757E+03 0.  0.
         23    2    1    2    0    0 -0.32464387118E+01 -0.10093544485E+02 -0.10129505831E+02  0.58355646726E+02  0.56483233015E+02 0.  0.
          5    1    3    3  502    0  0.50132875653E+02 -0.24234158913E+02  0.66194171480E+02  0.86601041665E+02  0.41800000000E+01 0.  1.
         -5    1    3    3    0  502 -0.46886436941E+02  0.34327703398E+02  0.68982028621E+01  0.58666743495E+02  0.41800000000E+01 0.  1.
        -11    1    4    4    0    0  0.11920121539E+02  0.17529127859E+02  0.72062289601E+01  0.22389492107E+02  0.00000000000E+00 0.  1.
         11    1    4    4    0    0 -0.15166560251E+02 -0.27622672344E+02 -0.17335734792E+02  0.35966154618E+02  0.00000000000E+00 0. -1.
</event>
<event>
 8    1  0.4205029E-010  0.1482679E+03  0.7561462E-02  0.1202618E+00
         -2   -1    0    0    0  501 -0.00000000000E+00  0.00000000000E+00  0.40061261549E+02  0.40061261549E+02  0.00000000000E+00 0.  1.
          2   -1    0    0  501    0  0.00000000000E+00 -0.00000000000E+00 -0.70664620871E+03  0.70664620871E+03  0.00000000000E+00 0. -1.
         25    2    1    2    0    0 -0.10524512927E+03  0.54015680223E+02 -0.22783803269E+03  0.28557347169E+03  0.12509119733E+03 0.  0.
         23    2    1    2    0    0  0.10524512927E+03 -0.54015680223E+02 -0.43874691447E+03  0.46113399857E+03  0.78431363189E+02 0.  0.
          5    1    3    3  502    0 -0.80047475185E+02 -0.15124485248E+02 -0.18022460288E+03  0.19782499392E+03  0.41800000000E+01 0. -1.
         -5    1    3    3    0  502 -0.25197654086E+02  0.69140165471E+02 -0.47613429815E+02  0.87748477774E+02  0.41800000000E+01 0. -1.
        -11    1    4    4    0    0 -0.94343309060E+01 -0.19228037078E+02 -0.51761984207E+02  0.56018095456E+02  0.00000000000E+00 0.  1.
         11    1    4    4    0    0  0.11467946018E+03 -0.34787643145E+02 -0.38698493026E+03  0.40511590311E+03  0.00000000000E+00 0. -1.
</event>
<event>
 8    1  0.4205029E-010  0.9876840E+02  0.7561462E-02  0.1282907E+00
          1   -1    0    0  501    0  0.00000000000E+00  0.00000000000E+00  0.34282130693E+03  0.34282130693E+03  0.00000000000E+00 0. -1.
         -1   -1    0    0    0  501 -0.00000000000E+00 -0.00000000000E+00 -0.33909094958E+02  0.33909094958E+02  0.00000000000E+00 0.  1.
         25    2    1    2    0    0 -0.23637599883E+02 -0.94523651495E+01  0.23302163521E+03  0.26569905978E+03  0.12509526193E+03 0.  0.
         23    2    1    2    0    0  0.23637599883E+02  0.94523651495E+01  0.75890576758E+02  0.11103134210E+03  0.76944759100E+02 0.  0.
          5    1    3    3  502    0  0.30898962533E+02 -0.44389006082E+02  0.15496398374E+03  0.16418416002E+03  0.41800000000E+01 0.  1.
         -5    1    3    3    0  502 -0.54536562416E+02  0.34936640932E+02  0.78057651473E+02  0.10151489976E+03  0.41800000000E+01 0.  1.
        -11    1    4    4    0    0  0.50123214270E+02 -0.41519516934E+00  0.61422518075E+02  0.79279472264E+02  0.00000000000E+00 0.  1.
         11    1    4    4    0    0 -0.26485614387E+02  0.98675603188E+01  0.14468058683E+02  0.31751869837E+02  0.00000000000E+00 0. -1.
</event>
<event>
 8    1  0.4205029E-010  0.1279571E+03  0.7561462E-02  0.1230519E+00
         -2   -1    0    0    0  501 -0.00000000000E+00  0.00000000000E+00  0.11981996353E+03  0.11981996353E+03  0.00000000000E+00 0.  1.
          2   -1    0    0  501    0  0.00000000000E+00 -0.00000000000E+00 -0.22018048972E+03  0.22018048972E+03  0.00000000000E+00 0. -1.
         25    2    1    2    0    0 -0.31409687804E+02  0.98888270064E+02 -0.41957811957E+02  0.16784745129E+03  0.12508737137E+03 0.  0.
         23    2    1    2    0    0  0.31409687804E+02 -0.98888270064E+02 -0.58402714237E+02  0.17215300196E+03  0.12433953759E+03 0.  0.
          5    1    3    3  502    0 -0.15113439307E+02  0.31831045792E+02 -0.81013029392E+02  0.88443286094E+02  0.41800000000E+01 0.  1.
         -5    1    3    3    0  502 -0.16296248498E+02  0.67057224271E+02  0.39055217435E+02  0.79404165199E+02  0.41800000000E+01 0.  1.
        -11    1    4    4    0    0  0.21231421073E+02  0.21652554380E+02 -0.39370034365E+02  0.49695130122E+02  0.00000000000E+00 0. -1.
         11    1    4    4    0    0  0.10178266731E+02 -0.12054082444E+03 -0.19032679872E+02  0.12245787183E+03  0.00000000000E+00 0.  1.
</event>
<event>
 8    1  0.4205029E-010  0.1533676E+03  0.7561462E-02  0.1196395E+00
          1   -1    0    0  501    0  0.00000000000E+00  0.00000000000E+00  0.12419048729E+04  0.12419048729E+04  0.00000000000E+00 0.  1.
         -1   -1    0    0    0  501 -0.00000000000E+00 -0.00000000000E+00 -0.26327684925E+02  0.26327684925E+02  0.00000000000E+00 0. -1.
         25    2    1    2    0    0  0.12095205023E+03  0.41518049688E+02  0.94263602793E+03  0.95945952713E+03  0.12508699429E+03 0.  0.
         23    2    1    2    0    0 -0.12095205023E+03 -0.41518049688E+02  0.27294116000E+03  0.30877303066E+03  0.67013138506E+02 0.  0.
          5    1    3    3  502    0 -0.16634644056E+02  0.29560614021E+02  0.10275782497E+03  0.10829212472E+03  0.41800000000E+01 0.  1.
         -5    1    3    3    0  502  0.13758669428E+03  0.11957435667E+02  0.83987820296E+03  0.85116740240E+03  0.41800000000E+01 0.  1.
        -11    1    4    4    0    0 -0.26137117243E+02 -0.28525817307E+02  0.34477499326E+02  0.51822476886E+02  0.00000000000E+00 0. -1.
         11    1    4    4    0    0 -0.94814932985E+02 -0.12992232381E+02  0.23846366068E+03  0.25695055377E+03  0.00000000000E+00 0.  1.
</event>
<event>
 8    1  0.4205029E-010  0.7448108E+02  0.7561462E-02  0.1345486E+00
         -2   -1    0    0    0  501 -0.00000000000E+00  0.00000000000E+00  0.28256345050E+02  0.28256345050E+02  0.00000000000E+00 0.  1.
          2   -1    0    0  501    0  0.00000000000E+00 -0.00000000000E+00 -0.43815369623E+03  0.43815369623E+03  0.00000000000E+00 0. -1.
         25    2    1    2    0    0  0.37133012072E+02 -0.28262339803E+02 -0.23170059391E+03  0.26741483131E+03  0.12509159185E+03 0.  0.
         23    2    1    2    0    0 -0.37133012072E+02  0.28262339803E+02 -0.17819675726E+03  0.19899520996E+03  0.75282061952E+02 0.  0.
          5    1    3    3  502    0  0.39869547785E+02 -0.39027742628E+02 -0.26562504167E+02  0.61933711037E+02  0.41800000000E+01 0. -1.
         -5    1    3    3    0  502 -0.27365357125E+01  0.10765402825E+02 -0.20513808975E+03  0.20548112028E+03  0.41800000000E+01 0. -1.
        -11    1    4    4    0    0 -0.56591762040E+02  0.20343416724E+02 -0.16093807753E+03  0.17180671388E+03  0.00000000000E+00 0. -1.
         11    1    4    4    0    0  0.19458749968E+02  0.79189230793E+01 -0.17258679730E+02  0.27188496080E+02  0.00000000000E+00 0.  1.
</event>
<event>
 8    1  0.4205029E-010  0.1480365E+03  0.7561462E-02  0.1202907E+00
          1   -1    0    0  501    0  0.00000000000E+00  0.00000000000E+00  0.35428366365E+02  0.35428366365E+02  0.00000000000E+00 0. -1.
         -1   -1    0    0    0  501 -0.00000000000E+00 -0.00000000000E+00 -0.81535674834E+03  0.81535674834E+03  0.00000000000E+00 0.  1.
         25    2    1    2    0    0 -0.11267512875E+03  0.18754399591E+02 -0.23622680273E+03  0.29068585168E+03  0.12509096648E+03 0.  0.
         23    2    1    2    0    0  0.11267512875E+03 -0.18754399591E+02 -0.54370157924E+03  0.56009926302E+03  0.71079990342E+02 0.  0.
          5    1    3    3  502    0 -0.41716276873E+02 -0.51867635869E+02 -0.70694088074E+02  0.97188609906E+02  0.41800000000E+01 0.  1.
         -5    1    3    3    0  502 -0.70958851876E+02  0.70622035460E+02 -0.16553271466E+03  0.19349724178E+03  0.41800000000E+01 0.  1.
        -11    1    4    4    0    0 -0.32752089755E+00  0.12049295158E+02 -0.19129955253E+02  0.22610793257E+02  0.00000000000E+00 0.  1.
         11    1    4    4    0    0  0.11300264965E+03 -0.30803694749E+02 -0.52457162399E+03  0.53748846976E+03  0.00000000000E+00 0. -1.
</event>
<event>
 8    1  0.4205029E-010  0.1461319E+03  0.7561462E-02  0.1205308E+00
         -2   -1    0    0    0  501 -0.00000000000E+00  0.00000000000E+00  0.49209877247E+03  0.49209877247E+03  0.00000000000E+00 0.  1.
          2   -1    0    0  501    0  0.00000000000E+00 -0.00000000000E+00 -0.66396597126E+02  0.66396597126E+02  0.00000000000E+00 0. -1.
         25    2    1    2    0    0 -0.44741167587E+02 -0.11337336541E+03  0.11909808913E+03  0.21139638825E+03  0.12509510809E+03 0.  0.
         23    2    1    2    0    0  0.44741167587E+02  0.11337336541E+03  0.30660408621E+03  0.34709898135E+03  0.10777914971E+03 0.  0.
          5    1    3    3  502    0 -0.83360821146E+02 -0.94334524734E+02  0.63821817401E+02  0.14120455317E+03  0.41800000000E+01 0. -1.
         -5    1    3    3    0  502  0.38619653558E+02 -0.19038840672E+02  0.55276271732E+02  0.70191835079E+02  0.41800000000E+01 0. -1.
        -11    1    4    4    0    0  0.17169095206E+02  0.66344322218E+02  0.27641330931E+03  0.28478178397E+03  0.00000000000E+00 0.  1.
         11    1    4    4    0    0  0.27572072381E+02  0.47029043188E+02  0.30190776900E+02  0.62317197373E+02  0.00000000000E+00 0. -1.
</event>
<event>
 8    1  0.4205029E-010  0.2269947E+03  0.7561462E-02  0.1128773E+00
          2   -1    0    0  501    0  0.00000000000E+00  0.00000000000E+00  0.25947576668E+03  0.25947576668E+03  0.00000000000E+00 0. -1.
         -2   -1    0    0    0  501 -0.00000000000E+00 -0.00000000000E+00 -0.23719562337E+03  0.23719562337E+03  0.00000000000E+00 0.  1.
         25    2    1    2    0    0  0.99837347425E+02  0.20051642912E+03  0.47934113415E+02  0.26099737624E+03  0.12509043484E+03 0.  0.
         23    2    1    2    0    0 -0.99837347425E+02 -0.20051642912E+03 -0.25653970111E+02  0.23567401381E+03  0.68627839199E+02 0.  0.
          5    1    3    3  502    0 -0.18820328299E+01  0.36641442731E+02  0.56938144299E+02  0.67864291414E+02  0.41800000000E+01 0.  1.
         -5    1    3    3    0  502  0.10171938025E+03  0.16387498639E+03 -0.90040308843E+01  0.19313308483E+03  0.41800000000E+01 0.  1.
        -11    1    4    4    0    0 -0.39177401513E+02 -0.87572069253E+02 -0.45093354239E+02  0.10600540882E+03  0.00000000000E+00 0.  1.
         11    1    4    4    0    0 -0.60659945912E+02 -0.11294435987E+03  0.19439384128E+02  0.12966860499E+03  0.00000000000E+00 0. -1.
</event>
<event>
 8    1  0.4205029E-010  0.2120191E+03  0.7561462E-02  0.1139977E+00
         -2   -1    0    0    0  501 -0.00000000000E+00  0.00000000000E+00  0.26726026143E+03  0.26726026143E+03  0.00000000000E+00 0.  1.
          2   -1    0    0  501    0  0.00000000000E+00 -0.00000000000E+00 -0.18745289248E+03  0.18745289248E+03  0.00000000000E+00 0. -1.
         25    2    1    2    0    0  0.83472499985E+02  0.17830896049E+03  0.89793300052E+02  0.24994515384E+03  0.12509196436E+03 0.  0.
         23    2    1    2    0    0 -0.83472499985E+02 -0.17830896049E+03 -0.99859311079E+01  0.20476800007E+03  0.55393784718E+02 0.  0.
          5    1    3    3  502    0  0.88110927641E+02  0.19244330677E+03  0.97040122054E+02  0.23287812173E+03  0.41800000000E+01 0. -1.
         -5    1    3    3    0  502 -0.46384276553E+01 -0.14134346280E+02 -0.72468220017E+01  0.17067032109E+02  0.41800000000E+01 0. -1.
        -11    1    4    4    0    0 -0.26162145431E+02 -0.58015869188E+02 -0.29415894546E+02  0.70111295688E+02  0.00000000000E+00 0. -1.
         11    1    4    4    0    0 -0.57310354555E+02 -0.12029309131E+03  0.19429963438E+02  0.13465670438E+03  0.00000000000E+00 0.  1.
</event>
<event>
 7    1  0.4205029E-010  0.1788300E+03  0.7561462E-02  0.1168940E+00
          2   -1    0    0  501    0  0.00000000000E+00  0.00000000000E+00  0.27442095050E+03  0.27442095050E+03  0.00000000000E+00 0.  1.
         -2   -1    0    0    0  501 -0.00000000000E+00 -0.00000000000E+00 -0.12940162763E+03  0.12940162763E+03  0.00000000000E+00 0. -1.
         25    2    1    2    0    0  0.11845306600E+03 -0.56179831720E+02  0.29843617916E+02  0.18364736298E+03  0.12509360520E+03 0.  0.
          5    1    3    3  502    0  0.13881774474E+03 -0.54428820496E+02  0.24137705860E+01  0.14918499068E+03  0.41800000000E+01 0. -1.
         -5    1    3    3    0  502 -0.20364678735E+02 -0.17510112238E+01  0.27429847330E+02  0.34462372304E+02  0.41800000000E+01 0. -1.
        -11    1    1    2    0    0 -0.71233982389E+02 -0.39124459464E+02  0.51318664264E+02  0.96117682438E+02  0.00000000000E+00 0.  1.
         11    1    1    2    0    0 -0.47219083613E+02  0.95304291184E+02  0.63857040688E+02  0.12405753270E+03  0.00000000000E+00 0. -1.
</event>
<event>
 8    1  0.4205029E-010  0.1553316E+03  0.7561462E-02  0.1194070E+00
         -2   -1    0    0    0  501 -0.00000000000E+00  0.00000000000E+00  0.36661911863E+03  0.36661911863E+03  0.00000000000E+00 0.  1.
          2   -1    0    0  501    0  0.00000000000E+00 -0.00000000000E+00 -0.86627827062E+02  0.86627827062E+02  0.00000000000E+00 0. -1.
         25    2    1    2    0    0 -0.25665149073E+02  0.12189425641E+03  0.21384392804E+03  0.27729158727E+03  0.12507793247E+03 0.  0.
         23    2    1    2    0    0  0.25665149073E+02 -0.12189425641E+03  0.66147363536E+02  0.17595535843E+03  0.10520411035E+03 0.  0.
          5    1    3    3  502    0 -0.47523371800E+02  0.13010029475E+03  0.21230065693E+03  0.25352238342E+03  0.41800000000E+01 0.  1.
         -5    1    3    3    0  502  0.21858222727E+02 -0.82060383401E+01  0.15432711052E+01  0.23769203852E+02  0.41800000000E+01 0.  1.
        -11    1    4    4    0    0  0.29463653414E+02 -0.32214233268E+01  0.47178299084E+02  0.55716033107E+02  0.00000000000E+00 0.  1.
         11    1    4    4    0    0 -0.37985043410E+01 -0.11867283308E+03  0.18969064452E+02  0.12023932532E+03  0.00000000000E+00 0. -1.
</event>
<event>
 8    1  0.4205029E-010  0.1443343E+03  0.7561462E-02  0.1207613E+00
          1   -1    0    0  501    0  0.00000000000E+00  0.00000000000E+00  0.98930039778E+02  0.98930039778E+02  0.00000000000E+00 0. -1.
         -1   -1    0    0    0  501 -0.00000000000E+00 -0.00000000000E+00 -0.25253055630E+03  0.25253055630E+03  0.00000000000E+00 0.  1.
         25    2    1    2    0    0 -0.21857133272E+02 -0.11503197233E+03 -0.52610526209E+02  0.17922712367E+03  0.12507759775E+03 0.  0.
         23    2    1    2    0    0  0.21857133272E+02  0.11503197233E+03 -0.10098999031E+03  0.17223347240E+03  0.75863706350E+02 0.  0.
          5    1    3    3  502    0 -0.22468214633E+02 -0.13310418511E+03 -0.13237470833E+02  0.13569910758E+03  0.41800000000E+01 0.  1.
         -5    1    3    3    0  502  0.61108136111E+00  0.18072212784E+02 -0.39373055376E+02  0.43528016093E+02  0.41800000000E+01 0.  1.
        -11    1    4    4    0    0  0.46057083167E+02  0.82857690560E+02 -0.49718969565E+02  0.10704497994E+03  0.00000000000E+00 0.  1.
         11    1    4    4    0    0 -0.24199949895E+02  0.32174281769E+02 -0.51271020743E+02  0.65188492468E+02  0.00000000000E+00 0. -1.
</event>
<event>
 8    1  0.4205029E-010  0.1549071E+03  0.7561462E-02  0.1194570E+00
          1   -1    0    0  501    0  0.00000000000E+00  0.00000000000E+00  0.53482260843E+03  0.53482260843E+03  0.00000000000E+00 0.  1.
         -1   -1    0    0    0  501 -0.00000000000E+00 -0.00000000000E+00 -0.48147432380E+02  0.48147432380E+02  0.00000000000E+00 0. -1.
         25    2    1    2    0    0 -0.18214211173E+02 -0.10210562211E+03  0.31981227881E+03  0.35872342308E+03  0.12508111382E+03 0.  0.
         23    2    1    2    0    0  0.18214211173E+02  0.10210562211E+03  0.16686289724E+03  0.22424661773E+03  0.10810182021E+03 0.  0.
          5    1    3    3  502    0 -0.33602918816E+01  0.28301034721E+02  0.84163371010E+02  0.88956087749E+02  0.41800000000E+01 0.  1.
         -5    1    3    3    0  502 -0.14853919291E+02 -0.13040665683E+03  0.23564890780E+03  0.26976733533E+03  0.41800000000E+01 0.  1.
        -11    1    4    4    0    0  0.44413541348E+02  0.11292694312E+03  0.13169684913E+03  0.17907852247E+03  0.00000000000E+00 0.  1.
         11    1    4    4    0    0 -0.26199330175E+02 -0.10821321010E+02  0.35166048116E+02  0.45168095267E+02  0.00000000000E+00 0. -1.
</event>
<event>
 7    1  0.4205029E-010  0.1798020E+03  0.7561462E-02  0.1167995E+00
         -2   -1    0    0    0  501 -0.00000000000E+00  0.00000000000E+00  0.42967334765E+02  0.42967334765E+02  0.00000000000E+00 0. -1.
          2   -1    0    0  501    0  0.00000000000E+00 -0.00000000000E+00 -0.95574126404E+03  0.95574126404E+03  0.00000000000E+00 0.  1.
         25    2    1    2    0    0  0.11966573766E+03 -0.94257546151E+02 -0.48191215605E+03  0.52066376622E+03  0.12508819900E+03 0.  0.
          5    1    3    3  502    0  0.19954731282E+02 -0.14189535187E+02 -0.28342697156E+03  0.28451336492E+03  0.41800000000E+01 0.  1.
         -5    1    3    3    0  502  0.99711006381E+02 -0.80068010964E+02 -0.19848518448E+03  0.23615040130E+03  0.41800000000E+01 0.  1.
        -11    1    1    2    0    0 -0.74530849267E+02 -0.25550382063E+02 -0.17613615263E+03  0.19295495272E+03  0.00000000000E+00 0.  1.
         11    1    1    2    0    0 -0.45134888397E+02  0.11980792821E+03 -0.25472562060E+03  0.28508987987E+03  0.00000000000E+00 0. -1.
</event>
<event>
 8    1  0.4205029E-010  0.9454412E+02  0.7561462E-02  0.1292206E+00
         -4   -1    0    0    0  501 -0.00000000000E+00  0.00000000000E+00  0.46967415370E+02  0.46967415370E+02  0.00000000000E+00 0.  1.
          4   -1    0    0  501    0  0.00000000000E+00 -0.00000000000E+00 -0.37279919294E+03  0.37279919294E+03  0.00000000000E+00 0. -1.
         25    2    1    2    0    0 -0.71670434495E+02 -0.18954501272E+02 -0.12530192141E+03  0.19194829436E+03  0.12509057478E+03 0.  0.
         23    2    1    2    0    0  0.71670434495E+02  0.18954501272E+02 -0.20052985616E+03  0.22781831395E+03  0.78695849063E+02 0.  0.
          5    1    3    3  502    0 -0.31676170826E+02 -0.24825875173E+02  0.17051216593E+02  0.43908088817E+02  0.41800000000E+01 0.  1.
         -5    1    3    3    0  502 -0.39994263669E+02  0.58713739014E+01 -0.14235313800E+03  0.14804020554E+03  0.41800000000E+01 0.  1.
        -11    1    4    4    0    0  0.84021278580E+02  0.32105503172E+02 -0.17100440874E+03  0.19321709654E+03  0.00000000000E+00 0. -1.
         11    1    4    4    0    0 -0.12350844085E+02 -0.13151001900E+02 -0.29525447427E+02  0.34601217412E+02  0.00000000000E+00 0.  1.
</event>
<event>
 7    1  0.4205029E-010  0.1026899E+03  0.7561462E-02  0.1274739E+00
          3   -1    0    0  501    0  0.00000000000E+00  0.00000000000E+00  0.27231432749E+03  0.27231432749E+03  0.00000000000E+00 0. -1.
         -3   -1    0    0    0  501 -0.00000000000E+00 -0.00000000000E+00 -0.42944066333E+02  0.42944066333E+02  0.00000000000E+00 0.  1.
         25    2    1    2    0    0  0.23675894853E+02  0.54614927574E+02  0.10813735829E+03  0.17574318239E+03  0.12509452261E+03 0.  0.
          5    1    3    3  502    0 -0.32529049403E+02 -0.23360316907E+02  0.18752439168E+02  0.44418125082E+02  0.41800000000E+01 0. -1.
         -5    1    3    3    0  502  0.56204944255E+02  0.77975244481E+02  0.89384919123E+02  0.13132505731E+03  0.41800000000E+01 0. -1.
        -11    1    1    2    0    0 -0.30657299546E+02 -0.28455771900E+02  0.69188854992E+02  0.80849852350E+02  0.00000000000E+00 0. -1.
         11    1    1    2    0    0  0.69814046932E+01 -0.26159155674E+02  0.52044047873E+02  0.58665359081E+02  0.00000000000E+00 0.  1.
</event>
<event>
 8    1  0.4598824E-010  0.1106940E+03  0.7561462E-02  0.1259290E+00
          2   -1    0    0  501    0  0.00000000000E+00  0.00000000000E+00  0.37630320409E+03  0.37630320409E+03  0.00000000000E+00 0.  1.
         -2   -1    0    0    0  501 -0.00000000000E+00 -0.00000000000E+00 -0.41788050033E+02  0.41788050033E+02  0.00000000000E+00 0. -1.
         25    2    1    2    0    0 -0.19698175849E+02 -0.16838228454E+02  0.10739229341E+03  0.16689248866E+03  0.12509378090E+03 0.  0.
         23    2    1    2    0    0  0.19698175849E+02  0.16838228454E+02  0.22712286065E+03  0.25119876546E+03  0.10413684204E+03 0.  0.
          5    1    3    3  502    0  0.39628854040E+02  0.29302694719E+02  0.60748098642E+02  0.78338355095E+02  0.41800000000E+01 0.  1.
         -5    1    3    3    0  502 -0.59327029889E+02 -0.46140923173E+02  0.46644194764E+02  0.88554133567E+02  0.41800000000E+01 0.  1.
        -11    1    4    4    0    0  0.20348354572E+02 -0.37310578606E+02  0.15670950714E+03  0.16236996162E+03  0.00000000000E+00 0.  1.
         11    1    4    4    0    0 -0.65017872253E+00  0.54148807060E+02  0.70413353515E+02  0.88828803840E+02  0.00000000000E+00 0. -1.
</event>
<event>
 8    1  0.4205029E-010  0.1092381E+03  0.7561462E-02  0.1261987E+00
          1   -1    0    0  501    0  0.00000000000E+00  0.00000000000E+00  0.13468192867E+03  0.13468192867E+03  0.00000000000E+00 0. -1.
         -1   -1    0    0    0  501 -0.00000000000E+00 -0.00000000000E+00 -0.25599545818E+03  0.25599545818E+03  0.00000000000E+00 0.  1.
         25    2    1    2    0    0  0.86957916636E+01  0.70982804142E+02 -0.20855964093E+03  0.25349246636E+03  0.12508849428E+03 0.  0.
         23    2    1    2    0    0 -0.86957916636E+01 -0.70982804142E+02  0.87246111410E+02  0.13718492049E+03  0.78061790756E+02 0.  0.
          5    1    3    3  502    0  0.50081796527E+02  0.26128919039E+02 -0.17452977982E+03  0.18349120741E+03  0.41800000000E+01 0.  1.
         -5    1    3    3    0  502 -0.41386004863E+02  0.44853885103E+02 -0.34029861106E+02  0.70001258948E+02  0.41800000000E+01 0.  1.
        -11    1    4    4    0    0 -0.39636609014E+02 -0.32333460180E+02  0.23023442510E+02  0.56094494617E+02  0.00000000000E+00 0.  1.
         11    1    4    4    0    0  0.30940817350E+02 -0.38649343962E+02  0.64222668900E+02  0.81090425869E+02  0.00000000000E+00 0. -1.
</event>
<event>
 7    1  0.4205029E-010  0.8378312E+02  0.7561462E-02  0.1318646E+00
         -2   -1    0    0    0  501 -0.00000000000E+00  0.00000000000E+00  0.42205915286E+02  0.42205915286E+02  0.00000000000E+00 0.  1.
          2   -1    0    0  501    0  0.00000000000E+00 -0.00000000000E+00 -0.35147519002E+03  0.35147519002E+03  0.00000000000E+00 0. -1.
         25    2    1    2    0    0  0.65378174367E+02 -0.36175756513E+02 -0.12685386243E+03  0.19318947906E+03  0.12508909369E+03 0.  0.
          5    1    3    3  502    0  0.50357436688E+02 -0.40316499130E+01  0.10069865327E+02  0.51681720352E+02  0.41800000000E+01 0. -1.
         -5    1    3    3    0  502  0.15020737679E+02 -0.32144106600E+02 -0.13692372776E+03  0.14150775870E+03  0.41800000000E+01 0. -1.
        -11    1    1    2    0    0 -0.30134646136E+02 -0.69635262111E+00 -0.47505826999E+02  0.56261757914E+02  0.00000000000E+00 0.  1.
         11    1    1    2    0    0 -0.35243528230E+02  0.36872109134E+02 -0.13490958531E+03  0.14422986834E+03  0.00000000000E+00 0. -1.
</event>
<event>
 8    1  0.4205029E-010  0.1211828E+03  0.7561462E-02  0.1241158E+00
          1   -1    0    0  501    0  0.00000000000E+00  0.00000000000E+00  0.12079239923E+04  0.12079239923E+04  0.00000000000E+00 0. -1.
         -1   -1    0    0    0  501 -0.00000000000E+00 -0.00000000000E+00 -0.22972640772E+02  0.22972640772E+02  0.00000000000E+00 0.  1.
         25    2    1    2    0    0 -0.10803002213E+03  0.22062276756E+02  0.92825211380E+03  0.94310999832E+03  0.12508897808E+03 0.  0.
         23    2    1    2    0    0  0.10803002213E+03 -0.22062276756E+02  0.25669923770E+03  0.28778663472E+03  0.69060978474E+02 0.  0.
          5    1    3    3  502    0 -0.10258559251E+03  0.17626056261E+02  0.92907403906E+03  0.93489599641E+03  0.41800000000E+01 0.  1.
         -5    1    3    3    0  502 -0.54444296239E+01  0.44362204959E+01 -0.82192526898E+00  0.82140019093E+01  0.41800000000E+01 0.  1.
        -11    1    4    4    0    0  0.78483688871E+02  0.17726659664E+02  0.16378440890E+03  0.18248083866E+03  0.00000000000E+00 0.  1.
         11    1    4    4    0    0  0.29546333260E+02 -0.39788936421E+02  0.92914828805E+02  0.10530579605E+03  0.00000000000E+00 0. -1.
</event>
<event>
 7    1  0.4205029E-010  0.1915278E+03  0.7561462E-02  0.1157090E+00
          1   -1    0    0  501    0  0.00000000000E+00  0.00000000000E+00  0.10588585460E+04  0.10588585460E+04  0.00000000000E+00 0. -1.
         -1   -1    0    0    0  501 -0.00000000000E+00 -0.00000000000E+00 -0.43683447850E+02  0.43683447850E+02  0.00000000000E+00 0.  1.
         25    2    1    2    0    0 -0.72489064584E+02  0.11842612001E+03  0.51119288068E+03  0.54428276068E+03  0.12508457913E+03 0.  0.
          5    1    3    3  502    0  0.12978742090E+02  0.97954570188E+02  0.27021847195E+03  0.28774822423E+03  0.41800000000E+01 0.  1.
         -5    1    3    3    0  502 -0.85467806674E+02  0.20471549826E+02  0.24097440873E+03  0.25653453645E+03  0.41800000000E+01 0.  1.
        -11    1    1    2    0    0 -0.38820653407E+02 -0.85179294528E+01  0.11269534691E+02  0.41311023532E+02  0.00000000000E+00 0.  1.
         11    1    1    2    0    0  0.11130971799E+03 -0.10990819056E+03  0.49271268281E+03  0.51694820966E+03  0.00000000000E+00 0. -1.
</event>
<event>
 8    1  0.4205029E-010  0.6016297E+02  0.7561462E-02  0.1397149E+00
         -2   -1    0    0    0  501 -0.00000000000E+00  0.00000000000E+00  0.11390143479E+03  0.11390143479E+03  0.00000000000E+00 0.  1.
          2   -1    0    0  501    0  0.00000000000E+00 -0.00000000000E+00 -0.13967205727E+03  0.13967205727E+03  0.00000000000E+00 0. -1.
         25    2    1    2    0    0 -0.85714709998E+01 -0.75441050344E+01  0.13354144195E+02  0.12631578586E+03  0.12508781297E+03 0.  0.
         23    2    1    2    0    0  0.85714709998E+01  0.75441050344E+01 -0.39124766681E+02  0.12725770621E+03  0.12055452205E+03 0.  0.
          5    1    3    3  502    0  0.27425008948E+02 -0.24324281515E+02  0.56528752367E+02  0.67503881601E+02  0.41800000000E+01 0.  1.
         -5    1    3    3    0  502 -0.35996479948E+02  0.16780176481E+02 -0.43174608171E+02  0.58811904255E+02  0.41800000000E+01 0.  1.
        -11    1    4    4    0    0 -0.82536816447E+01  0.20604629008E+02  0.39766523065E+02  0.45541742983E+02  0.00000000000E+00 0.  1.
         11    1    4    4    0    0  0.16825152644E+02 -0.13060523973E+02 -0.78891289746E+02  0.81715963225E+02  0.00000000000E+00 0. -1.
</event>
<event>
 8    1  0.4205029E-010  0.1549386E+03  0.7561462E-02  0.1194533E+00
         -1   -1    0    0    0  501 -0.00000000000E+00  0.00000000000E+00  0.58810840412E+02  0.58810840412E+02  0.00000000000E+00 0.  1.
          1   -1    0    0  501    0  0.00000000000E+00 -0.00000000000E+00 -0.47095405451E+03  0.47095405451E+03  0.00000000000E+00 0. -1.
         25    2    1    2    0    0  0.39656517367E+01  0.11074639480E+03 -0.27744254571E+03  0.32388659299E+03  0.12509064152E+03 0.  0.
         23    2    1    2    0    0 -0.39656517367E+01 -0.11074639480E+03 -0.13470066838E+03  0.20587830192E+03  0.10936688157E+03 0.  0.
          5    1    3    3  502    0  0.85707333070E+01 -0.27259006564E+02 -0.52157763814E+02  0.59618920103E+02  0.41800000000E+01 0. -1.
         -5    1    3    3    0  502 -0.46050815703E+01  0.13800540136E+03 -0.22528478190E+03  0.26426767289E+03  0.41800000000E+01 0. -1.
        -11    1    4    4    0    0  0.31111149531E+02 -0.50882535905E+01 -0.52275283354E+00  0.31528831572E+02  0.00000000000E+00 0.  1.
         11    1    4    4    0    0 -0.35076801268E+02 -0.10565814121E+03 -0.13417791555E+03  0.17434947035E+03  0.00000000000E+00 0. -1.
</event>
<event>
 8    1  0.4205029E-010  0.1036152E+03  0.7561462E-02  0.1272872E+00
          1   -1    0    0  501    0  0.00000000000E+00  0.00000000000E+00  0.66220701149E+03  0.66220701149E+03  0.00000000000E+00 0. -1.
         -1   -1    0    0    0  501 -0.00000000000E+00 -0.00000000000E+00 -0.28198350586E+02  0.28198350586E+02  0.00000000000E+00 0.  1.
         25    2    1    2    0    0  0.10841147693E+02  0.42417007203E+02  0.47754600798E+03  0.49559593703E+03  0.12509360528E+03 0.  0.
         23    2    1    2    0    0 -0.10841147693E+02 -0.42417007203E+02  0.15646265292E+03  0.19480942504E+03  0.10748682404E+03 0.  0.
          5    1    3    3  502    0 -0.40948558201E+01 -0.24719418790E+02  0.18544654616E+02  0.31451456633E+02  0.41800000000E+01 0.  1.
         -5    1    3    3    0  502  0.14936003513E+02  0.67136425993E+02  0.45900135337E+03  0.46414448040E+03  0.41800000000E+01 0.  1.
        -11    1    4    4    0    0  0.37052775504E+02  0.13375811393E+02  0.77344373448E+02  0.86798459705E+02  0.00000000000E+00 0. -1.
         11    1    4    4    0    0 -0.47893923198E+02 -0.55792818595E+02  0.79118279472E+02  0.10801096534E+03  0.00000000000E+00 0.  1.
</event>
